 Entering Gaussian System, Link 0=g16
 Initial command:
 /sw/Projects/G16/g16/l1.exe "/nvme/pbs/tmpdir/pbs.74288[15].flm1/Gau-28607.inp" -scrdir="/nvme/pbs/tmpdir/pbs.74288[15].flm1/"
 Entering Link 1 = /sw/Projects/G16/g16/l1.exe PID=     28608.
  
 Copyright (c) 1988-2017, Gaussian, Inc.  All Rights Reserved.
  
 This is part of the Gaussian(R) 16 program.  It is based on
 the Gaussian(R) 09 system (copyright 2009, Gaussian, Inc.),
 the Gaussian(R) 03 system (copyright 2003, Gaussian, Inc.),
 the Gaussian(R) 98 system (copyright 1998, Gaussian, Inc.),
 the Gaussian(R) 94 system (copyright 1995, Gaussian, Inc.),
 the Gaussian 92(TM) system (copyright 1992, Gaussian, Inc.),
 the Gaussian 90(TM) system (copyright 1990, Gaussian, Inc.),
 the Gaussian 88(TM) system (copyright 1988, Gaussian, Inc.),
 the Gaussian 86(TM) system (copyright 1986, Carnegie Mellon
 University), and the Gaussian 82(TM) system (copyright 1983,
 Carnegie Mellon University). Gaussian is a federally registered
 trademark of Gaussian, Inc.
  
 This software contains proprietary and confidential information,
 including trade secrets, belonging to Gaussian, Inc.
  
 This software is provided under written license and may be
 used, copied, transmitted, or stored only in accord with that
 written license.
  
 The following legend is applicable only to US Government
 contracts under FAR:
  
                    RESTRICTED RIGHTS LEGEND
  
 Use, reproduction and disclosure by the US Government is
 subject to restrictions as set forth in subparagraphs (a)
 and (c) of the Commercial Computer Software - Restricted
 Rights clause in FAR 52.227-19.
  
 Gaussian, Inc.
 340 Quinnipiac St., Bldg. 40, Wallingford CT 06492
  
  
 ---------------------------------------------------------------
 Warning -- This program may not be used in any manner that
 competes with the business of Gaussian, Inc. or will provide
 assistance to any competitor of Gaussian, Inc.  The licensee
 of this program is prohibited from giving any competitor of
 Gaussian, Inc. access to this program.  By using this program,
 the user acknowledges that Gaussian, Inc. is engaged in the
 business of creating and licensing software in the field of
 computational chemistry and represents and warrants to the
 licensee that it is not a competitor of Gaussian, Inc. and that
 it will not use this program in any manner prohibited above.
 ---------------------------------------------------------------
  

 Cite this work as:
 Gaussian 16, Revision B.01,
 M. J. Frisch, G. W. Trucks, H. B. Schlegel, G. E. Scuseria, 
 M. A. Robb, J. R. Cheeseman, G. Scalmani, V. Barone, 
 G. A. Petersson, H. Nakatsuji, X. Li, M. Caricato, A. V. Marenich, 
 J. Bloino, B. G. Janesko, R. Gomperts, B. Mennucci, H. P. Hratchian, 
 J. V. Ortiz, A. F. Izmaylov, J. L. Sonnenberg, D. Williams-Young, 
 F. Ding, F. Lipparini, F. Egidi, J. Goings, B. Peng, A. Petrone, 
 T. Henderson, D. Ranasinghe, V. G. Zakrzewski, J. Gao, N. Rega, 
 G. Zheng, W. Liang, M. Hada, M. Ehara, K. Toyota, R. Fukuda, 
 J. Hasegawa, M. Ishida, T. Nakajima, Y. Honda, O. Kitao, H. Nakai, 
 T. Vreven, K. Throssell, J. A. Montgomery, Jr., J. E. Peralta, 
 F. Ogliaro, M. J. Bearpark, J. J. Heyd, E. N. Brothers, K. N. Kudin, 
 V. N. Staroverov, T. A. Keith, R. Kobayashi, J. Normand, 
 K. Raghavachari, A. P. Rendell, J. C. Burant, S. S. Iyengar, 
 J. Tomasi, M. Cossi, J. M. Millam, M. Klene, C. Adamo, R. Cammi, 
 J. W. Ochterski, R. L. Martin, K. Morokuma, O. Farkas, 
 J. B. Foresman, and D. J. Fox, Gaussian, Inc., Wallingford CT, 2016.
 
 ******************************************
 Gaussian 16:  ES64L-G16RevB.01 20-Dec-2017
                10-Mar-2019 
 ******************************************
 %mem=20gb
 %nproc=12
 Will use up to   12 processors via shared memory.
 %chk=4c1_b1_4e_4c1_PSI.inp_extract_15.chk
 ----------------------------------------------------------------------
 #M062X/6-311++G(2d,2p) opt=ModRedundant freq=noraman SCRF=(SMD,solvent
 =water)
 ----------------------------------------------------------------------
 1/18=120,19=15,26=3,38=1/1,3;
 2/9=110,12=2,17=6,18=5,40=1/2;
 3/5=4,6=6,7=1212,11=2,25=1,30=1,70=32201,71=1,72=1,74=-55/1,2,3;
 4//1;
 5/5=2,38=5,53=1/2;
 6/7=2,8=2,9=2,10=2,28=1/1;
 7//1,2,3,16;
 1/18=20,19=15,26=3/3(2);
 2/9=110/2;
 99//99;
 2/9=110/2;
 3/5=4,6=6,7=1212,11=2,25=1,30=1,70=32205,71=1,72=1,74=-55/1,2,3;
 4/5=5,16=3,69=1/1;
 5/5=2,38=5,53=1/2;
 7//1,2,3,16;
 1/18=20,19=15,26=3/3(-5);
 2/9=110/2;
 6/7=2,8=2,9=2,10=2,19=2,28=1/1;
 99/9=1/99;
 --------------------------------
 4c1_b1_4e_4c1_PSI.inp_extract_15
 --------------------------------
 Symbolic Z-matrix:
 Charge =  0 Multiplicity = 1
 C                    -3.61256   0.60303   0.3089 
 C                     1.77422  -0.4919   -1.14726 
 C                     3.11348   0.46254   1.1998 
 O                     3.17009  -0.61374  -0.96833 
 O                    -1.2242   -0.86701  -0.21934 
 C                    -2.26239  -1.48997   0.52073 
 O                    -0.08685   1.02539  -0.75837 
 C                    -3.61792  -0.91688   0.14037 
 C                     1.60737   0.70317   1.04786 
 C                    -1.13119   0.5192    0.00445 
 C                     3.54708  -0.74955   0.39021 
 C                     1.27491   0.76467  -0.43885 
 C                    -2.41217   1.21474  -0.41813 
 H                    -4.53425   1.03382  -0.06892 
 H                    -3.55788   0.84873   1.36751 
 H                     1.28161  -1.37987  -0.76737 
 H                     1.59722  -0.42202  -2.21184 
 H                     3.66574   1.33467   0.85984 
 H                     3.36489   0.30457   2.24418 
 H                    -2.0728   -1.35317   1.583 
 H                    -2.19679  -2.5457    0.29808 
 H                    -3.83517  -1.17462  -0.89337 
 H                    -4.38538  -1.37306   0.75922 
 H                     1.07108  -0.11235   1.52349 
 H                     1.31508   1.62486   1.541 
 H                    -0.94641   0.68321   1.05949 
 H                     4.62228  -0.86461   0.39808 
 H                     3.10197  -1.65697   0.79208 
 H                     1.80336   1.60643  -0.86957 
 H                    -2.52465   1.09993  -1.49302 
 H                    -2.32725   2.27476  -0.20195 
 
 The following ModRedundant input section has been read:
 D      10       7      12       9 F                                           
 

 GradGradGradGradGradGradGradGradGradGradGradGradGradGradGradGradGradGrad
 Berny optimization.
 Initialization pass.
                           ----------------------------
                           !    Initial Parameters    !
                           ! (Angstroms and Degrees)  !
 --------------------------                            --------------------------
 ! Name  Definition              Value          Derivative Info.                !
 --------------------------------------------------------------------------------
 ! R1    R(1,8)                  1.5292         estimate D2E/DX2                !
 ! R2    R(1,13)                 1.5309         estimate D2E/DX2                !
 ! R3    R(1,14)                 1.0853         estimate D2E/DX2                !
 ! R4    R(1,15)                 1.0881         estimate D2E/DX2                !
 ! R5    R(2,4)                  1.4126         estimate D2E/DX2                !
 ! R6    R(2,12)                 1.5265         estimate D2E/DX2                !
 ! R7    R(2,16)                 1.0842         estimate D2E/DX2                !
 ! R8    R(2,17)                 1.0815         estimate D2E/DX2                !
 ! R9    R(3,9)                  1.5328         estimate D2E/DX2                !
 ! R10   R(3,11)                 1.5207         estimate D2E/DX2                !
 ! R11   R(3,18)                 1.0868         estimate D2E/DX2                !
 ! R12   R(3,19)                 1.0858         estimate D2E/DX2                !
 ! R13   R(4,11)                 1.4164         estimate D2E/DX2                !
 ! R14   R(5,6)                  1.419          estimate D2E/DX2                !
 ! R15   R(5,10)                 1.4072         estimate D2E/DX2                !
 ! R16   R(6,8)                  1.5201         estimate D2E/DX2                !
 ! R17   R(6,20)                 1.0877         estimate D2E/DX2                !
 ! R18   R(6,21)                 1.0809         estimate D2E/DX2                !
 ! R19   R(7,10)                 1.3888         estimate D2E/DX2                !
 ! R20   R(7,12)                 1.4228         estimate D2E/DX2                !
 ! R21   R(8,22)                 1.0873         estimate D2E/DX2                !
 ! R22   R(8,23)                 1.0863         estimate D2E/DX2                !
 ! R23   R(9,12)                 1.5247         estimate D2E/DX2                !
 ! R24   R(9,24)                 1.0858         estimate D2E/DX2                !
 ! R25   R(9,25)                 1.0854         estimate D2E/DX2                !
 ! R26   R(10,13)                1.5176         estimate D2E/DX2                !
 ! R27   R(10,26)                1.0836         estimate D2E/DX2                !
 ! R28   R(11,27)                1.0814         estimate D2E/DX2                !
 ! R29   R(11,28)                1.0877         estimate D2E/DX2                !
 ! R30   R(12,29)                1.0832         estimate D2E/DX2                !
 ! R31   R(13,30)                1.0868         estimate D2E/DX2                !
 ! R32   R(13,31)                1.0852         estimate D2E/DX2                !
 ! A1    A(8,1,13)             110.3376         estimate D2E/DX2                !
 ! A2    A(8,1,14)             110.6817         estimate D2E/DX2                !
 ! A3    A(8,1,15)             109.3791         estimate D2E/DX2                !
 ! A4    A(13,1,14)            109.9971         estimate D2E/DX2                !
 ! A5    A(13,1,15)            109.4143         estimate D2E/DX2                !
 ! A6    A(14,1,15)            106.9613         estimate D2E/DX2                !
 ! A7    A(4,2,12)             109.6001         estimate D2E/DX2                !
 ! A8    A(4,2,16)             109.5092         estimate D2E/DX2                !
 ! A9    A(4,2,17)             106.9779         estimate D2E/DX2                !
 ! A10   A(12,2,16)            111.2826         estimate D2E/DX2                !
 ! A11   A(12,2,17)            110.4943         estimate D2E/DX2                !
 ! A12   A(16,2,17)            108.874          estimate D2E/DX2                !
 ! A13   A(9,3,11)             110.6416         estimate D2E/DX2                !
 ! A14   A(9,3,18)             110.0187         estimate D2E/DX2                !
 ! A15   A(9,3,19)             110.2256         estimate D2E/DX2                !
 ! A16   A(11,3,18)            109.1582         estimate D2E/DX2                !
 ! A17   A(11,3,19)            109.2744         estimate D2E/DX2                !
 ! A18   A(18,3,19)            107.4562         estimate D2E/DX2                !
 ! A19   A(2,4,11)             113.1277         estimate D2E/DX2                !
 ! A20   A(6,5,10)             113.445          estimate D2E/DX2                !
 ! A21   A(5,6,8)              110.88           estimate D2E/DX2                !
 ! A22   A(5,6,20)             109.063          estimate D2E/DX2                !
 ! A23   A(5,6,21)             106.0779         estimate D2E/DX2                !
 ! A24   A(8,6,20)             110.6341         estimate D2E/DX2                !
 ! A25   A(8,6,21)             111.7649         estimate D2E/DX2                !
 ! A26   A(20,6,21)            108.2661         estimate D2E/DX2                !
 ! A27   A(10,7,12)            121.9757         estimate D2E/DX2                !
 ! A28   A(1,8,6)              110.1217         estimate D2E/DX2                !
 ! A29   A(1,8,22)             109.9422         estimate D2E/DX2                !
 ! A30   A(1,8,23)             110.9201         estimate D2E/DX2                !
 ! A31   A(6,8,22)             109.0695         estimate D2E/DX2                !
 ! A32   A(6,8,23)             109.2167         estimate D2E/DX2                !
 ! A33   A(22,8,23)            107.5125         estimate D2E/DX2                !
 ! A34   A(3,9,12)             108.4972         estimate D2E/DX2                !
 ! A35   A(3,9,24)             108.9052         estimate D2E/DX2                !
 ! A36   A(3,9,25)             110.6635         estimate D2E/DX2                !
 ! A37   A(12,9,24)            110.4716         estimate D2E/DX2                !
 ! A38   A(12,9,25)            110.4902         estimate D2E/DX2                !
 ! A39   A(24,9,25)            107.8039         estimate D2E/DX2                !
 ! A40   A(5,10,7)             108.7468         estimate D2E/DX2                !
 ! A41   A(5,10,13)            110.5718         estimate D2E/DX2                !
 ! A42   A(5,10,26)            108.3734         estimate D2E/DX2                !
 ! A43   A(7,10,13)            108.3441         estimate D2E/DX2                !
 ! A44   A(7,10,26)            110.5728         estimate D2E/DX2                !
 ! A45   A(13,10,26)           110.2235         estimate D2E/DX2                !
 ! A46   A(3,11,4)             110.9965         estimate D2E/DX2                !
 ! A47   A(3,11,27)            111.3726         estimate D2E/DX2                !
 ! A48   A(3,11,28)            110.5834         estimate D2E/DX2                !
 ! A49   A(4,11,27)            106.369          estimate D2E/DX2                !
 ! A50   A(4,11,28)            108.9931         estimate D2E/DX2                !
 ! A51   A(27,11,28)           108.3879         estimate D2E/DX2                !
 ! A52   A(2,12,7)             111.0806         estimate D2E/DX2                !
 ! A53   A(2,12,9)             110.365          estimate D2E/DX2                !
 ! A54   A(2,12,29)            107.1928         estimate D2E/DX2                !
 ! A55   A(7,12,9)             115.7891         estimate D2E/DX2                !
 ! A56   A(7,12,29)            103.6046         estimate D2E/DX2                !
 ! A57   A(9,12,29)            108.222          estimate D2E/DX2                !
 ! A58   A(1,13,10)            110.271          estimate D2E/DX2                !
 ! A59   A(1,13,30)            110.2623         estimate D2E/DX2                !
 ! A60   A(1,13,31)            110.92           estimate D2E/DX2                !
 ! A61   A(10,13,30)           108.3203         estimate D2E/DX2                !
 ! A62   A(10,13,31)           109.0357         estimate D2E/DX2                !
 ! A63   A(30,13,31)           107.9577         estimate D2E/DX2                !
 ! D1    D(13,1,8,6)            51.3977         estimate D2E/DX2                !
 ! D2    D(13,1,8,22)          -68.8063         estimate D2E/DX2                !
 ! D3    D(13,1,8,23)          172.4171         estimate D2E/DX2                !
 ! D4    D(14,1,8,6)           173.3866         estimate D2E/DX2                !
 ! D5    D(14,1,8,22)           53.1826         estimate D2E/DX2                !
 ! D6    D(14,1,8,23)          -65.594          estimate D2E/DX2                !
 ! D7    D(15,1,8,6)           -69.0109         estimate D2E/DX2                !
 ! D8    D(15,1,8,22)          170.7851         estimate D2E/DX2                !
 ! D9    D(15,1,8,23)           52.0084         estimate D2E/DX2                !
 ! D10   D(8,1,13,10)          -51.9386         estimate D2E/DX2                !
 ! D11   D(8,1,13,30)           67.6344         estimate D2E/DX2                !
 ! D12   D(8,1,13,31)         -172.83           estimate D2E/DX2                !
 ! D13   D(14,1,13,10)        -174.3306         estimate D2E/DX2                !
 ! D14   D(14,1,13,30)         -54.7576         estimate D2E/DX2                !
 ! D15   D(14,1,13,31)          64.778          estimate D2E/DX2                !
 ! D16   D(15,1,13,10)          68.4489         estimate D2E/DX2                !
 ! D17   D(15,1,13,30)        -171.9781         estimate D2E/DX2                !
 ! D18   D(15,1,13,31)         -52.4424         estimate D2E/DX2                !
 ! D19   D(12,2,4,11)           61.687          estimate D2E/DX2                !
 ! D20   D(16,2,4,11)          -60.6516         estimate D2E/DX2                !
 ! D21   D(17,2,4,11)         -178.4915         estimate D2E/DX2                !
 ! D22   D(4,2,12,7)           171.5045         estimate D2E/DX2                !
 ! D23   D(4,2,12,9)           -58.6706         estimate D2E/DX2                !
 ! D24   D(4,2,12,29)           58.9753         estimate D2E/DX2                !
 ! D25   D(16,2,12,7)          -67.22           estimate D2E/DX2                !
 ! D26   D(16,2,12,9)           62.6048         estimate D2E/DX2                !
 ! D27   D(16,2,12,29)        -179.7493         estimate D2E/DX2                !
 ! D28   D(17,2,12,7)           53.8589         estimate D2E/DX2                !
 ! D29   D(17,2,12,9)         -176.3163         estimate D2E/DX2                !
 ! D30   D(17,2,12,29)         -58.6704         estimate D2E/DX2                !
 ! D31   D(11,3,9,12)          -52.7938         estimate D2E/DX2                !
 ! D32   D(11,3,9,24)           67.4975         estimate D2E/DX2                !
 ! D33   D(11,3,9,25)         -174.1706         estimate D2E/DX2                !
 ! D34   D(18,3,9,12)           67.9027         estimate D2E/DX2                !
 ! D35   D(18,3,9,24)         -171.8059         estimate D2E/DX2                !
 ! D36   D(18,3,9,25)          -53.474          estimate D2E/DX2                !
 ! D37   D(19,3,9,12)         -173.7717         estimate D2E/DX2                !
 ! D38   D(19,3,9,24)          -53.4804         estimate D2E/DX2                !
 ! D39   D(19,3,9,25)           64.8515         estimate D2E/DX2                !
 ! D40   D(9,3,11,4)            55.2508         estimate D2E/DX2                !
 ! D41   D(9,3,11,27)          173.5681         estimate D2E/DX2                !
 ! D42   D(9,3,11,28)          -65.8473         estimate D2E/DX2                !
 ! D43   D(18,3,11,4)          -65.9563         estimate D2E/DX2                !
 ! D44   D(18,3,11,27)          52.361          estimate D2E/DX2                !
 ! D45   D(18,3,11,28)         172.9456         estimate D2E/DX2                !
 ! D46   D(19,3,11,4)          176.7913         estimate D2E/DX2                !
 ! D47   D(19,3,11,27)         -64.8914         estimate D2E/DX2                !
 ! D48   D(19,3,11,28)          55.6932         estimate D2E/DX2                !
 ! D49   D(2,4,11,3)           -60.4209         estimate D2E/DX2                !
 ! D50   D(2,4,11,27)          178.2756         estimate D2E/DX2                !
 ! D51   D(2,4,11,28)           61.6087         estimate D2E/DX2                !
 ! D52   D(10,5,6,8)            61.0857         estimate D2E/DX2                !
 ! D53   D(10,5,6,20)          -60.9784         estimate D2E/DX2                !
 ! D54   D(10,5,6,21)         -177.3833         estimate D2E/DX2                !
 ! D55   D(6,5,10,7)           179.7401         estimate D2E/DX2                !
 ! D56   D(6,5,10,13)          -61.4195         estimate D2E/DX2                !
 ! D57   D(6,5,10,26)           59.4923         estimate D2E/DX2                !
 ! D58   D(5,6,8,1)            -54.9335         estimate D2E/DX2                !
 ! D59   D(5,6,8,22)            65.796          estimate D2E/DX2                !
 ! D60   D(5,6,8,23)          -176.9674         estimate D2E/DX2                !
 ! D61   D(20,6,8,1)            66.2089         estimate D2E/DX2                !
 ! D62   D(20,6,8,22)         -173.0616         estimate D2E/DX2                !
 ! D63   D(20,6,8,23)          -55.825          estimate D2E/DX2                !
 ! D64   D(21,6,8,1)          -173.0629         estimate D2E/DX2                !
 ! D65   D(21,6,8,22)          -52.3334         estimate D2E/DX2                !
 ! D66   D(21,6,8,23)           64.9032         estimate D2E/DX2                !
 ! D67   D(12,7,10,5)          -71.7373         estimate D2E/DX2                !
 ! D68   D(12,7,10,13)         168.0332         estimate D2E/DX2                !
 ! D69   D(12,7,10,26)          47.1395         estimate D2E/DX2                !
 ! D70   D(10,7,12,2)           90.7507         estimate D2E/DX2                !
 ! D71   D(10,7,12,9)          -36.1532         Frozen                          !
 ! D72   D(10,7,12,29)        -154.4638         estimate D2E/DX2                !
 ! D73   D(3,9,12,2)            54.5981         estimate D2E/DX2                !
 ! D74   D(3,9,12,7)          -178.1399         estimate D2E/DX2                !
 ! D75   D(3,9,12,29)          -62.4118         estimate D2E/DX2                !
 ! D76   D(24,9,12,2)          -64.7146         estimate D2E/DX2                !
 ! D77   D(24,9,12,7)           62.5475         estimate D2E/DX2                !
 ! D78   D(24,9,12,29)         178.2755         estimate D2E/DX2                !
 ! D79   D(25,9,12,2)          176.0813         estimate D2E/DX2                !
 ! D80   D(25,9,12,7)          -56.6566         estimate D2E/DX2                !
 ! D81   D(25,9,12,29)          59.0714         estimate D2E/DX2                !
 ! D82   D(5,10,13,1)           55.9577         estimate D2E/DX2                !
 ! D83   D(5,10,13,30)         -64.7853         estimate D2E/DX2                !
 ! D84   D(5,10,13,31)         177.9691         estimate D2E/DX2                !
 ! D85   D(7,10,13,1)          175.0421         estimate D2E/DX2                !
 ! D86   D(7,10,13,30)          54.2991         estimate D2E/DX2                !
 ! D87   D(7,10,13,31)         -62.9465         estimate D2E/DX2                !
 ! D88   D(26,10,13,1)         -63.848          estimate D2E/DX2                !
 ! D89   D(26,10,13,30)        175.409          estimate D2E/DX2                !
 ! D90   D(26,10,13,31)         58.1634         estimate D2E/DX2                !
 --------------------------------------------------------------------------------
 Trust Radius=3.00D-01 FncErr=1.00D-07 GrdErr=1.00D-06 EigMax=2.50D+02 EigMin=1.00D-04
 Number of steps in this run=    186 maximum allowed number of steps=    186.
 GradGradGradGradGradGradGradGradGradGradGradGradGradGradGradGradGradGrad

                          Input orientation:                          
 ---------------------------------------------------------------------
 Center     Atomic      Atomic             Coordinates (Angstroms)
 Number     Number       Type             X           Y           Z
 ---------------------------------------------------------------------
      1          6           0       -3.612555    0.603026    0.308901
      2          6           0        1.774220   -0.491901   -1.147265
      3          6           0        3.113477    0.462541    1.199804
      4          8           0        3.170092   -0.613744   -0.968334
      5          8           0       -1.224205   -0.867007   -0.219341
      6          6           0       -2.262387   -1.489971    0.520733
      7          8           0       -0.086848    1.025393   -0.758371
      8          6           0       -3.617919   -0.916880    0.140369
      9          6           0        1.607372    0.703166    1.047860
     10          6           0       -1.131190    0.519204    0.004452
     11          6           0        3.547080   -0.749554    0.390206
     12          6           0        1.274913    0.764669   -0.438850
     13          6           0       -2.412168    1.214741   -0.418134
     14          1           0       -4.534254    1.033823   -0.068915
     15          1           0       -3.557878    0.848725    1.367513
     16          1           0        1.281613   -1.379865   -0.767374
     17          1           0        1.597221   -0.422016   -2.211844
     18          1           0        3.665744    1.334672    0.859837
     19          1           0        3.364885    0.304568    2.244178
     20          1           0       -2.072799   -1.353165    1.583000
     21          1           0       -2.196790   -2.545704    0.298079
     22          1           0       -3.835174   -1.174616   -0.893373
     23          1           0       -4.385379   -1.373056    0.759223
     24          1           0        1.071077   -0.112351    1.523487
     25          1           0        1.315076    1.624856    1.541003
     26          1           0       -0.946406    0.683213    1.059492
     27          1           0        4.622278   -0.864609    0.398075
     28          1           0        3.101966   -1.656970    0.792075
     29          1           0        1.803361    1.606434   -0.869568
     30          1           0       -2.524651    1.099931   -1.493017
     31          1           0       -2.327251    2.274756   -0.201950
 ---------------------------------------------------------------------
                    Distance matrix (angstroms):
                    1          2          3          4          5
     1  C    0.000000
     2  C    5.686531   0.000000
     3  C    6.786232   2.865886   0.000000
     4  O    7.008292   1.412558   2.421243   0.000000
     5  O    2.853814   3.161060   4.753647   4.464860   0.000000
     6  C    2.499693   4.480241   5.759631   5.700607   1.419019
     7  O    3.707839   2.432487   3.793854   3.652193   2.272732
     8  C    1.529231   5.560015   6.952474   6.884636   2.421104
     9  C    5.272924   2.504915   1.532756   2.870781   3.476934
    10  C    2.501377   3.284843   4.410133   4.553121   1.407237
    11  C    7.286732   2.360770   1.520735   1.416402   4.811497
    12  C    4.946979   1.526476   2.481287   2.402515   2.992681
    13  C    1.530916   4.579313   5.806572   5.899805   2.405088
    14  H    1.085293   6.579325   7.773275   7.929715   3.819975
    15  H    1.088125   6.045879   6.684627   7.270528   3.302707
    16  H    5.389166   1.084186   3.258830   2.047847   2.615815
    17  H    5.877638   1.081453   3.836771   2.014200   3.482604
    18  H    7.335699   3.307974   1.086825   2.717389   5.470248
    19  H    7.247002   3.829682   1.085762   3.346860   5.338657
    20  H    2.796580   4.795381   5.508274   5.877411   2.050584
    21  H    3.452392   4.698515   6.169407   5.842918   2.007902
    22  H    2.157553   5.656488   7.439450   7.028083   2.714056
    23  H    2.169089   6.507825   7.732811   7.787564   3.347640
    24  H    4.891154   2.787720   2.146315   3.296427   2.979140
    25  H    5.181096   3.452283   2.168326   3.840467   3.969400
    26  H    2.770951   3.694926   4.068296   4.768619   2.028736
    27  H    8.365069   3.261659   2.163464   2.009689   5.878994
    28  H    7.101115   2.623230   2.158403   2.047438   4.512511
    29  H    5.632740   2.116831   2.703182   2.609003   3.963188
    30  H    2.162720   4.597148   6.280608   5.970098   2.679973
    31  H    2.169713   5.036872   5.903436   6.257120   3.329818
                    6          7          8          9         10
     6  C    0.000000
     7  O    3.563163   0.000000
     8  C    1.520058   4.128998   0.000000
     9  C    4.479146   2.497335   5.545426   0.000000
    10  C    2.362824   1.388804   2.874827   2.936369   0.000000
    11  C    5.857914   4.204176   7.171306   2.511050   4.862588
    12  C    4.303103   1.422836   5.206045   1.524670   2.458882
    13  C    2.866945   2.357695   2.511886   4.309008   1.517648
    14  H    3.446535   4.500538   2.165343   6.251087   3.442537
    15  H    2.804431   4.074143   2.151011   5.177178   2.802737
    16  H    3.772437   2.767315   5.004375   2.782124   3.166038
    17  H    4.848101   2.653990   5.742428   3.448450   3.638968
    18  H    6.575434   4.098316   7.657602   2.161261   4.940369
    19  H    6.152790   4.631344   7.394424   2.163079   5.027637
    20  H    1.087691   3.883756   2.158454   4.249533   2.623777
    21  H    1.080949   4.280266   2.167383   5.058555   3.258125
    22  H    2.138411   4.348357   1.087313   6.075834   3.314611
    23  H    2.139542   5.151021   1.086311   6.348785   3.839280
    24  H    3.743706   2.800380   4.954489   1.085772   2.748874
    25  H    4.851942   2.758961   5.723341   1.085421   3.093165
    26  H    2.597074   2.039743   3.246855   2.553882   1.083584
    27  H    6.914097   5.204358   8.244392   3.459739   5.930622
    28  H    5.373807   4.446064   6.791856   2.805259   4.824489
    29  H    5.296316   1.980622   6.064434   2.128576   3.249241
    30  H    3.291134   2.547184   2.816152   4.866939   2.126356
    31  H    3.834012   2.624865   3.459703   4.417372   2.134274
                   11         12         13         14         15
    11  C    0.000000
    12  C    2.853585   0.000000
    13  C    6.326492   3.714507   0.000000
    14  H    8.288497   5.827153   2.158225   0.000000
    15  H    7.347792   5.160027   2.152941   1.746682   0.000000
    16  H    2.620997   2.169562   4.527468   6.335459   5.739776
    17  H    3.268011   2.157687   4.687384   6.656320   6.403251
    18  H    2.139774   2.779850   6.211973   8.257909   7.257727
    19  H    2.140463   3.431955   6.425781   8.263087   6.999235
    20  H    5.776690   4.447502   3.273202   3.805955   2.664623
    21  H    6.018861   4.853283   3.834096   4.290855   3.810302
    22  H    7.505060   5.484561   2.821316   2.458790   3.046704
    23  H    7.965478   6.167994   3.460697   2.549714   2.447669
    24  H    2.796595   2.159046   4.202863   5.938787   4.730245
    25  H    3.456009   2.159017   4.230693   6.095557   4.937424
    26  H    4.763631   2.680657   2.148106   3.777418   2.634778
    27  H    1.081365   3.815736   7.380605   9.362916   8.413696
    28  H    1.087671   3.273780   6.333799   8.142084   7.138849
    29  H    3.190339   1.083210   4.257687   6.413602   5.858459
    30  H    6.620653   3.957317   1.086834   2.463928   3.051769
    31  H    6.633616   3.913064   1.085163   2.535444   2.451779
                   16         17         18         19         20
    16  H    0.000000
    17  H    1.761697   0.000000
    18  H    3.962399   4.098776   0.000000
    19  H    4.030730   4.848576   1.751579   0.000000
    20  H    4.095980   5.360683   6.377955   5.723080   0.000000
    21  H    3.820165   5.020387   7.052815   6.545501   1.757426
    22  H    5.122452   5.640540   8.101484   7.992062   3.044712
    23  H    5.869016   6.747090   8.494851   8.067596   2.455001
    24  H    2.626587   3.784893   3.044110   2.440240   3.380402
    25  H    3.789205   4.284058   2.464515   2.537584   4.510883
    26  H    3.543698   4.288730   4.662209   4.487102   2.385300
    27  H    3.575444   4.019768   2.442339   2.521132   6.816655
    28  H    2.412955   3.579511   3.045055   2.454661   5.243668
    29  H    3.033257   2.441067   2.556006   3.718686   5.458840
    30  H    4.600390   4.452287   6.626614   7.020389   3.960269
    31  H    5.167191   5.168533   6.158501   6.501200   4.051247
                   21         22         23         24         25
    21  H    0.000000
    22  H    2.446169   0.000000
    23  H    2.525407   1.753048   0.000000
    24  H    4.254619   5.571438   5.652114   0.000000
    25  H    5.592105   6.347307   6.487977   1.754346   0.000000
    26  H    3.545295   3.950973   4.018077   2.217758   2.496567
    27  H    7.023942   8.561100   9.029221   3.800457   4.294334
    28  H    5.395433   7.155230   7.492798   2.654302   3.811070
    29  H    5.882589   6.287120   7.059095   3.035980   2.459596
    30  H    4.075067   2.692695   3.827605   4.847493   4.921822
    31  H    4.848080   3.827540   4.297241   4.497115   4.089841
                   26         27         28         29         30
    26  H    0.000000
    27  H    5.817514   0.000000
    28  H    4.683725   1.759097   0.000000
    29  H    3.483508   3.957179   3.885516   0.000000
    30  H    3.029821   7.649460   6.669405   4.401923   0.000000
    31  H    2.455805   7.649287   6.776648   4.237254   1.756711
                   31
    31  H    0.000000
 Stoichiometry    C10H18O3
 Framework group  C1[X(C10H18O3)]
 Deg. of freedom    87
 Full point group                 C1      NOp   1
 Largest Abelian subgroup         C1      NOp   1
 Largest concise Abelian subgroup C1      NOp   1
                         Standard orientation:                         
 ---------------------------------------------------------------------
 Center     Atomic      Atomic             Coordinates (Angstroms)
 Number     Number       Type             X           Y           Z
 ---------------------------------------------------------------------
      1          6           0        3.612555   -0.603026    0.308901
      2          6           0       -1.774220    0.491901   -1.147265
      3          6           0       -3.113477   -0.462541    1.199804
      4          8           0       -3.170092    0.613744   -0.968334
      5          8           0        1.224205    0.867007   -0.219341
      6          6           0        2.262387    1.489971    0.520733
      7          8           0        0.086848   -1.025393   -0.758371
      8          6           0        3.617919    0.916880    0.140369
      9          6           0       -1.607372   -0.703166    1.047860
     10          6           0        1.131190   -0.519204    0.004452
     11          6           0       -3.547080    0.749554    0.390206
     12          6           0       -1.274913   -0.764669   -0.438850
     13          6           0        2.412168   -1.214741   -0.418134
     14          1           0        4.534254   -1.033823   -0.068915
     15          1           0        3.557878   -0.848725    1.367513
     16          1           0       -1.281613    1.379865   -0.767374
     17          1           0       -1.597221    0.422016   -2.211844
     18          1           0       -3.665744   -1.334672    0.859837
     19          1           0       -3.364885   -0.304568    2.244178
     20          1           0        2.072799    1.353165    1.583000
     21          1           0        2.196790    2.545704    0.298079
     22          1           0        3.835174    1.174616   -0.893373
     23          1           0        4.385379    1.373056    0.759223
     24          1           0       -1.071077    0.112351    1.523487
     25          1           0       -1.315076   -1.624856    1.541003
     26          1           0        0.946406   -0.683213    1.059492
     27          1           0       -4.622278    0.864609    0.398075
     28          1           0       -3.101966    1.656970    0.792075
     29          1           0       -1.803361   -1.606434   -0.869568
     30          1           0        2.524651   -1.099931   -1.493017
     31          1           0        2.327251   -2.274756   -0.201950
 ---------------------------------------------------------------------
 Rotational constants (GHZ):           1.9142692           0.3992943           0.3851657
 Standard basis: 6-311++G(2d,2p) (5D, 7F)
 There are   557 symmetry adapted cartesian basis functions of A   symmetry.
 There are   531 symmetry adapted basis functions of A   symmetry.
   531 basis functions,   762 primitive gaussians,   557 cartesian basis functions
    51 alpha electrons       51 beta electrons
       nuclear repulsion energy       891.5165989504 Hartrees.
 NAtoms=   31 NActive=   31 NUniq=   31 SFac= 1.00D+00 NAtFMM=   60 NAOKFM=F Big=F
 Integral buffers will be    131072 words long.
 Raffenetti 2 integral format.
 Two-electron integral symmetry is turned on.
 ------------------------------------------------------------------------------
 Polarizable Continuum Model (PCM)
 =================================
 Model                : PCM.
 Atomic radii         : SMD-Coulomb.
 Polarization charges : Total charges.
 Charge compensation  : None.
 Solution method      : On-the-fly selection.
 Cavity type          : VdW (van der Waals Surface) (Alpha=1.000).
 Cavity algorithm     : GePol (No added spheres)
                        Default sphere list used, NSphG=   31.
                        Lebedev-Laikov grids with approx.  5.0 points / Ang**2.
                        Smoothing algorithm: York/Karplus (Gamma=1.0000).
                        Polarization charges: spherical gaussians, with
                                              point-specific exponents (IZeta= 3).
                        Self-potential: point-specific (ISelfS= 7).
                        Self-field    : sphere-specific E.n sum rule (ISelfD= 2).
 1st derivatives      : Analytical E(r).r(x)/FMM algorithm (CHGder, D1EAlg=3).
                        Cavity 1st derivative terms included.
 Solvent              : Water, Eps=  78.355300 Eps(inf)=   1.777849
 ------------------------------------------------------------------------------
 ------------------------------------------------------------------------------
 Atomic radii for non-electrostatic terms: SMD-CDS.
 ------------------------------------------------------------------------------
 Nuclear repulsion after PCM non-electrostatic terms =      891.5229251942 Hartrees.
 One-electron integrals computed using PRISM.
 NBasis=   531 RedAO= T EigKep=  5.23D-06  NBF=   531
 NBsUse=   531 1.00D-06 EigRej= -1.00D+00 NBFU=   531
 ExpMin= 3.60D-02 ExpMax= 8.59D+03 ExpMxC= 1.30D+03 IAcc=3 IRadAn=         5 AccDes= 0.00D+00
 Harris functional with IExCor= 1009 and IRadAn=       5 diagonalized for initial guess.
 HarFok:  IExCor= 1009 AccDes= 0.00D+00 IRadAn=         5 IDoV= 1 UseB2=F ITyADJ=14
 ICtDFT=  3500011 ScaDFX=  1.000000  1.000000  1.000000  1.000000
 FoFCou: FMM=F IPFlag=           0 FMFlag=      100000 FMFlg1=           0
         NFxFlg=           0 DoJE=T BraDBF=F KetDBF=T FulRan=T
         wScrn=  0.000000 ICntrl=       500 IOpCl=  0 I1Cent=   200000004 NGrid=           0
         NMat0=    1 NMatS0=      1 NMatT0=    0 NMatD0=    1 NMtDS0=    0 NMtDT0=    0
 Petite list used in FoFCou.
 Requested convergence on RMS density matrix=1.00D-08 within 128 cycles.
 Requested convergence on MAX density matrix=1.00D-06.
 Requested convergence on             energy=1.00D-06.
 No special actions if energy rises.
 Inv3:  Mode=1 IEnd=    12072108.
 Iteration    1 A*A^-1 deviation from unit magnitude is 5.44D-15 for    216.
 Iteration    1 A*A^-1 deviation from orthogonality  is 3.32D-15 for   1059    869.
 Iteration    1 A^-1*A deviation from unit magnitude is 4.11D-15 for    248.
 Iteration    1 A^-1*A deviation from orthogonality  is 3.49D-14 for   1963   1904.
 Error on total polarization charges =  0.06217
 SCF Done:  E(RM062X) =  -617.502824967     A.U. after   13 cycles
            NFock= 13  Conv=0.18D-08     -V/T= 2.0035
 SMD-CDS (non-electrostatic) energy       (kcal/mol) =       3.97
 (included in total energy above)

 **********************************************************************

            Population analysis using the SCF Density.

 **********************************************************************

 Orbital symmetries:
       Occupied  (A) (A) (A) (A) (A) (A) (A) (A) (A) (A) (A) (A)
                 (A) (A) (A) (A) (A) (A) (A) (A) (A) (A) (A) (A)
                 (A) (A) (A) (A) (A) (A) (A) (A) (A) (A) (A) (A)
                 (A) (A) (A) (A) (A) (A) (A) (A) (A) (A) (A) (A)
                 (A) (A) (A)
       Virtual   (A) (A) (A) (A) (A) (A) (A) (A) (A) (A) (A) (A)
                 (A) (A) (A) (A) (A) (A) (A) (A) (A) (A) (A) (A)
                 (A) (A) (A) (A) (A) (A) (A) (A) (A) (A) (A) (A)
                 (A) (A) (A) (A) (A) (A) (A) (A) (A) (A) (A) (A)
                 (A) (A) (A) (A) (A) (A) (A) (A) (A) (A) (A) (A)
                 (A) (A) (A) (A) (A) (A) (A) (A) (A) (A) (A) (A)
                 (A) (A) (A) (A) (A) (A) (A) (A) (A) (A) (A) (A)
                 (A) (A) (A) (A) (A) (A) (A) (A) (A) (A) (A) (A)
                 (A) (A) (A) (A) (A) (A) (A) (A) (A) (A) (A) (A)
                 (A) (A) (A) (A) (A) (A) (A) (A) (A) (A) (A) (A)
                 (A) (A) (A) (A) (A) (A) (A) (A) (A) (A) (A) (A)
                 (A) (A) (A) (A) (A) (A) (A) (A) (A) (A) (A) (A)
                 (A) (A) (A) (A) (A) (A) (A) (A) (A) (A) (A) (A)
                 (A) (A) (A) (A) (A) (A) (A) (A) (A) (A) (A) (A)
                 (A) (A) (A) (A) (A) (A) (A) (A) (A) (A) (A) (A)
                 (A) (A) (A) (A) (A) (A) (A) (A) (A) (A) (A) (A)
                 (A) (A) (A) (A) (A) (A) (A) (A) (A) (A) (A) (A)
                 (A) (A) (A) (A) (A) (A) (A) (A) (A) (A) (A) (A)
                 (A) (A) (A) (A) (A) (A) (A) (A) (A) (A) (A) (A)
                 (A) (A) (A) (A) (A) (A) (A) (A) (A) (A) (A) (A)
                 (A) (A) (A) (A) (A) (A) (A) (A) (A) (A) (A) (A)
                 (A) (A) (A) (A) (A) (A) (A) (A) (A) (A) (A) (A)
                 (A) (A) (A) (A) (A) (A) (A) (A) (A) (A) (A) (A)
                 (A) (A) (A) (A) (A) (A) (A) (A) (A) (A) (A) (A)
                 (A) (A) (A) (A) (A) (A) (A) (A) (A) (A) (A) (A)
                 (A) (A) (A) (A) (A) (A) (A) (A) (A) (A) (A) (A)
                 (A) (A) (A) (A) (A) (A) (A) (A) (A) (A) (A) (A)
                 (A) (A) (A) (A) (A) (A) (A) (A) (A) (A) (A) (A)
                 (A) (A) (A) (A) (A) (A) (A) (A) (A) (A) (A) (A)
                 (A) (A) (A) (A) (A) (A) (A) (A) (A) (A) (A) (A)
                 (A) (A) (A) (A) (A) (A) (A) (A) (A) (A) (A) (A)
                 (A) (A) (A) (A) (A) (A) (A) (A) (A) (A) (A) (A)
                 (A) (A) (A) (A) (A) (A) (A) (A) (A) (A) (A) (A)
                 (A) (A) (A) (A) (A) (A) (A) (A) (A) (A) (A) (A)
                 (A) (A) (A) (A) (A) (A) (A) (A) (A) (A) (A) (A)
                 (A) (A) (A) (A) (A) (A) (A) (A) (A) (A) (A) (A)
                 (A) (A) (A) (A) (A) (A) (A) (A) (A) (A) (A) (A)
                 (A) (A) (A) (A) (A) (A) (A) (A) (A) (A) (A) (A)
                 (A) (A) (A) (A) (A) (A) (A) (A) (A) (A) (A) (A)
                 (A) (A) (A) (A) (A) (A) (A) (A) (A) (A) (A) (A)
 The electronic state is 1-A.
 Alpha  occ. eigenvalues --  -19.63530 -19.62854 -19.62798 -10.63084 -10.58398
 Alpha  occ. eigenvalues --  -10.57329 -10.57216 -10.57090 -10.52649 -10.52509
 Alpha  occ. eigenvalues --  -10.52427 -10.52252 -10.52113  -1.20321  -1.16642
 Alpha  occ. eigenvalues --   -1.13994  -0.90477  -0.89340  -0.87130  -0.83945
 Alpha  occ. eigenvalues --   -0.75111  -0.73458  -0.72993  -0.69678  -0.65830
 Alpha  occ. eigenvalues --   -0.64743  -0.59719  -0.57368  -0.56682  -0.56090
 Alpha  occ. eigenvalues --   -0.54555  -0.52832  -0.51990  -0.50980  -0.50099
 Alpha  occ. eigenvalues --   -0.48091  -0.46423  -0.45727  -0.45170  -0.44294
 Alpha  occ. eigenvalues --   -0.43877  -0.41221  -0.39919  -0.39742  -0.39081
 Alpha  occ. eigenvalues --   -0.37946  -0.37550  -0.36973  -0.35675  -0.32357
 Alpha  occ. eigenvalues --   -0.31630
 Alpha virt. eigenvalues --    0.00427   0.01265   0.01346   0.01482   0.02626
 Alpha virt. eigenvalues --    0.02907   0.03101   0.03938   0.04000   0.04797
 Alpha virt. eigenvalues --    0.05084   0.05411   0.06061   0.06294   0.07514
 Alpha virt. eigenvalues --    0.07855   0.07890   0.08275   0.09159   0.09934
 Alpha virt. eigenvalues --    0.10870   0.11155   0.11599   0.12056   0.12108
 Alpha virt. eigenvalues --    0.12758   0.13382   0.13516   0.13783   0.14014
 Alpha virt. eigenvalues --    0.14165   0.14770   0.15022   0.15093   0.15463
 Alpha virt. eigenvalues --    0.15635   0.15760   0.16082   0.16399   0.16729
 Alpha virt. eigenvalues --    0.17313   0.17431   0.17532   0.17691   0.18124
 Alpha virt. eigenvalues --    0.18707   0.18858   0.19049   0.19425   0.19728
 Alpha virt. eigenvalues --    0.19995   0.20287   0.20829   0.21386   0.21662
 Alpha virt. eigenvalues --    0.22654   0.22781   0.23164   0.24037   0.24867
 Alpha virt. eigenvalues --    0.25489   0.26419   0.26942   0.27653   0.27830
 Alpha virt. eigenvalues --    0.28263   0.28769   0.29156   0.30005   0.30210
 Alpha virt. eigenvalues --    0.30574   0.30999   0.31552   0.31928   0.32385
 Alpha virt. eigenvalues --    0.32994   0.33096   0.34252   0.34663   0.34891
 Alpha virt. eigenvalues --    0.35037   0.35221   0.35704   0.36490   0.36505
 Alpha virt. eigenvalues --    0.37155   0.37377   0.37680   0.37957   0.38931
 Alpha virt. eigenvalues --    0.39154   0.39312   0.39935   0.40278   0.40905
 Alpha virt. eigenvalues --    0.41220   0.41476   0.42942   0.43998   0.45915
 Alpha virt. eigenvalues --    0.46429   0.47257   0.48772   0.49976   0.51739
 Alpha virt. eigenvalues --    0.52583   0.53600   0.53934   0.54990   0.56285
 Alpha virt. eigenvalues --    0.56620   0.57113   0.58974   0.59042   0.59702
 Alpha virt. eigenvalues --    0.60657   0.61327   0.61583   0.61989   0.62559
 Alpha virt. eigenvalues --    0.62850   0.63652   0.63732   0.64179   0.64329
 Alpha virt. eigenvalues --    0.65210   0.65731   0.65928   0.66839   0.67451
 Alpha virt. eigenvalues --    0.67813   0.69777   0.70186   0.70930   0.71458
 Alpha virt. eigenvalues --    0.72180   0.72670   0.72820   0.73642   0.74060
 Alpha virt. eigenvalues --    0.74454   0.74757   0.75444   0.75899   0.76261
 Alpha virt. eigenvalues --    0.77080   0.77893   0.78683   0.79007   0.79765
 Alpha virt. eigenvalues --    0.80649   0.82579   0.83888   0.84547   0.85584
 Alpha virt. eigenvalues --    0.86752   0.87829   0.88445   0.90410   0.90915
 Alpha virt. eigenvalues --    0.91733   0.92335   0.93590   0.94252   0.95697
 Alpha virt. eigenvalues --    0.97054   0.98012   0.99718   1.01577   1.02415
 Alpha virt. eigenvalues --    1.03804   1.05085   1.05542   1.06412   1.07948
 Alpha virt. eigenvalues --    1.08254   1.09228   1.10013   1.10823   1.12575
 Alpha virt. eigenvalues --    1.13172   1.13890   1.14939   1.15706   1.17054
 Alpha virt. eigenvalues --    1.17589   1.19023   1.19375   1.20127   1.20628
 Alpha virt. eigenvalues --    1.21016   1.22350   1.22787   1.23638   1.24488
 Alpha virt. eigenvalues --    1.25225   1.25803   1.26816   1.27167   1.28199
 Alpha virt. eigenvalues --    1.29179   1.29510   1.29925   1.31200   1.31403
 Alpha virt. eigenvalues --    1.32177   1.33109   1.33769   1.34697   1.35203
 Alpha virt. eigenvalues --    1.36194   1.36745   1.37167   1.37818   1.38019
 Alpha virt. eigenvalues --    1.38539   1.40025   1.40531   1.41785   1.42118
 Alpha virt. eigenvalues --    1.43010   1.43690   1.44197   1.44405   1.44787
 Alpha virt. eigenvalues --    1.46077   1.46666   1.47772   1.48308   1.48850
 Alpha virt. eigenvalues --    1.49542   1.50349   1.50911   1.51162   1.52427
 Alpha virt. eigenvalues --    1.53582   1.54420   1.54906   1.55409   1.56306
 Alpha virt. eigenvalues --    1.57078   1.57726   1.58622   1.58849   1.59886
 Alpha virt. eigenvalues --    1.60494   1.60911   1.62538   1.63452   1.64373
 Alpha virt. eigenvalues --    1.64584   1.65463   1.65707   1.66139   1.66896
 Alpha virt. eigenvalues --    1.69274   1.69444   1.70157   1.70762   1.72051
 Alpha virt. eigenvalues --    1.74409   1.74644   1.76295   1.77962   1.78435
 Alpha virt. eigenvalues --    1.79193   1.79917   1.81357   1.81867   1.83573
 Alpha virt. eigenvalues --    1.87092   1.87791   1.89700   1.95456   1.98602
 Alpha virt. eigenvalues --    2.01665   2.08962   2.11498   2.16229   2.19450
 Alpha virt. eigenvalues --    2.23279   2.26913   2.30053   2.33112   2.36994
 Alpha virt. eigenvalues --    2.40747   2.44290   2.46734   2.50002   2.53263
 Alpha virt. eigenvalues --    2.58262   2.76605   2.77184   2.79609   2.81771
 Alpha virt. eigenvalues --    2.87784   2.90290   2.93018   2.94180   2.95695
 Alpha virt. eigenvalues --    2.97513   2.99034   3.01547   3.04285   3.05501
 Alpha virt. eigenvalues --    3.07738   3.08276   3.09823   3.10746   3.12795
 Alpha virt. eigenvalues --    3.14971   3.15948   3.17295   3.18474   3.23449
 Alpha virt. eigenvalues --    3.24107   3.27455   3.32515   3.33595   3.36304
 Alpha virt. eigenvalues --    3.36736   3.37127   3.38916   3.39848   3.41222
 Alpha virt. eigenvalues --    3.43463   3.44476   3.45533   3.46898   3.47118
 Alpha virt. eigenvalues --    3.48147   3.49411   3.50401   3.51693   3.53171
 Alpha virt. eigenvalues --    3.53301   3.54945   3.55738   3.55906   3.56500
 Alpha virt. eigenvalues --    3.57265   3.58295   3.58715   3.59315   3.60948
 Alpha virt. eigenvalues --    3.61276   3.62903   3.63164   3.64050   3.64835
 Alpha virt. eigenvalues --    3.66274   3.67386   3.67508   3.68980   3.71019
 Alpha virt. eigenvalues --    3.71167   3.71932   3.72483   3.73630   3.74238
 Alpha virt. eigenvalues --    3.74683   3.76056   3.77246   3.77711   3.78396
 Alpha virt. eigenvalues --    3.79336   3.80120   3.81135   3.83610   3.84407
 Alpha virt. eigenvalues --    3.85744   3.87817   3.89130   3.90510   3.92015
 Alpha virt. eigenvalues --    3.92178   3.94284   3.96308   3.96722   3.99267
 Alpha virt. eigenvalues --    4.00258   4.02492   4.03787   4.04750   4.04789
 Alpha virt. eigenvalues --    4.05176   4.06238   4.06673   4.08303   4.08435
 Alpha virt. eigenvalues --    4.09641   4.10637   4.11262   4.12045   4.12577
 Alpha virt. eigenvalues --    4.13349   4.13981   4.14812   4.15399   4.15868
 Alpha virt. eigenvalues --    4.17951   4.19112   4.19562   4.21038   4.21619
 Alpha virt. eigenvalues --    4.22938   4.24747   4.25055   4.26071   4.28005
 Alpha virt. eigenvalues --    4.29057   4.29595   4.31682   4.33064   4.33320
 Alpha virt. eigenvalues --    4.34484   4.35916   4.36472   4.38567   4.38882
 Alpha virt. eigenvalues --    4.40993   4.43910   4.45899   4.47066   4.55760
 Alpha virt. eigenvalues --    4.58059   4.61834   4.76582   4.77429   4.84610
 Alpha virt. eigenvalues --    4.89055   4.93274   4.93551   4.99560   5.00999
 Alpha virt. eigenvalues --    5.06718   5.07455   5.08479   5.09105   5.12621
 Alpha virt. eigenvalues --    5.13038   5.14535   5.16664   5.30424   5.35627
 Alpha virt. eigenvalues --    5.38281   5.57933   5.58625   5.64176   5.86484
 Alpha virt. eigenvalues --    5.88609   6.01668   7.01717   7.04569   7.05753
 Alpha virt. eigenvalues --    7.08740   7.11824   7.12385   7.13470   7.16923
 Alpha virt. eigenvalues --    7.22761   7.36308   7.42218   7.45678   7.53544
 Alpha virt. eigenvalues --    7.55994   7.63124  23.96537  23.97452  24.07050
 Alpha virt. eigenvalues --   24.07921  24.11453  24.12576  24.13870  24.17323
 Alpha virt. eigenvalues --   24.18357  24.19974  50.17410  50.19804  50.21967
          Condensed to atoms (all electrons):
               1          2          3          4          5          6
     1  C    5.639140   0.004672   0.011585  -0.000337   0.019198  -0.014366
     2  C    0.004672   5.787757   0.043700   0.132799   0.026626   0.001270
     3  C    0.011585   0.043700   6.257065  -0.016503  -0.013583   0.010524
     4  O   -0.000337   0.132799  -0.016503   8.443447  -0.000202   0.000175
     5  O    0.019198   0.026626  -0.013583  -0.000202   8.408533  -0.025057
     6  C   -0.014366   0.001270   0.010524   0.000175  -0.025057   5.435543
     7  O    0.044169  -0.061493   0.000560  -0.001551  -0.014961   0.003337
     8  C   -0.039463   0.003779  -0.007213  -0.000012  -0.029699   0.021141
     9  C   -0.002112   0.291749  -0.526992  -0.026398  -0.098650   0.049587
    10  C    0.031324   0.146161  -0.188376  -0.005949   0.255271  -0.003418
    11  C    0.000290  -0.206509   0.059455   0.088960  -0.011887   0.002825
    12  C   -0.054095  -0.496280   0.043166  -0.017303   0.047545  -0.040984
    13  C   -0.088248  -0.054590   0.005081   0.001102  -0.019097  -0.121552
    14  H    0.429120  -0.000208  -0.000031  -0.000008  -0.002589   0.002709
    15  H    0.534148   0.000121   0.002458  -0.000004  -0.000346  -0.001470
    16  H   -0.001971   0.366916   0.017855  -0.036004  -0.001657   0.000336
    17  H    0.000029   0.478735  -0.002153  -0.062741  -0.002357   0.000429
    18  H   -0.000325   0.002415   0.467712  -0.006867   0.000693  -0.000300
    19  H   -0.000278   0.003533   0.452535   0.008724  -0.000928   0.000459
    20  H   -0.000637  -0.002531   0.002898  -0.000065  -0.028209   0.479123
    21  H    0.007791   0.002998  -0.000697   0.000181  -0.072078   0.443024
    22  H   -0.018238  -0.001517   0.000181   0.000012  -0.002454  -0.071109
    23  H   -0.050719   0.000555  -0.000096  -0.000004   0.006340  -0.037620
    24  H    0.002534  -0.055403  -0.057295  -0.002185  -0.001668   0.005827
    25  H    0.000651   0.007633   0.013586  -0.002396   0.000905  -0.003305
    26  H   -0.034415   0.018661  -0.040465   0.001194  -0.048857   0.008655
    27  H    0.000115   0.015098  -0.030624  -0.070751  -0.000433   0.000079
    28  H   -0.000125  -0.021929  -0.034658  -0.038015   0.002712  -0.000574
    29  H   -0.003070  -0.097798  -0.001047   0.004882   0.002677   0.002082
    30  H   -0.008024   0.003693   0.001706   0.000236  -0.007297   0.005593
    31  H   -0.025435  -0.000629  -0.000485  -0.000009   0.004950   0.000997
               7          8          9         10         11         12
     1  C    0.044169  -0.039463  -0.002112   0.031324   0.000290  -0.054095
     2  C   -0.061493   0.003779   0.291749   0.146161  -0.206509  -0.496280
     3  C    0.000560  -0.007213  -0.526992  -0.188376   0.059455   0.043166
     4  O   -0.001551  -0.000012  -0.026398  -0.005949   0.088960  -0.017303
     5  O   -0.014961  -0.029699  -0.098650   0.255271  -0.011887   0.047545
     6  C    0.003337   0.021141   0.049587  -0.003418   0.002825  -0.040984
     7  O    8.502635   0.004533   0.041442   0.230724   0.009463   0.029714
     8  C    0.004533   5.642674  -0.021826  -0.028131  -0.002458  -0.000797
     9  C    0.041442  -0.021826   6.680142   0.362699   0.005331  -0.901627
    10  C    0.230724  -0.028131   0.362699   6.552471  -0.028132  -0.605595
    11  C    0.009463  -0.002458   0.005331  -0.028132   5.457120   0.042461
    12  C    0.029714  -0.000797  -0.901627  -0.605595   0.042461   7.117911
    13  C   -0.270771   0.112353  -0.365852  -1.015512   0.003685   0.305174
    14  H   -0.002106  -0.019939  -0.004596   0.026707   0.000114  -0.000414
    15  H    0.000803  -0.088135   0.006092   0.015359   0.000007   0.003196
    16  H   -0.011184  -0.001978  -0.066842  -0.064333   0.003395   0.097709
    17  H    0.013776   0.002402   0.009402   0.014743  -0.003502  -0.080401
    18  H   -0.000399   0.000294  -0.017277  -0.000898  -0.075824  -0.004780
    19  H   -0.000387   0.000043  -0.053649  -0.005035  -0.033929   0.002855
    20  H    0.003437  -0.059988  -0.004220  -0.046970   0.000050   0.013274
    21  H   -0.001018  -0.041980   0.004282   0.010418   0.000373  -0.009545
    22  H    0.002294   0.477924  -0.001615  -0.014569  -0.000139   0.008185
    23  H    0.000258   0.457846   0.002551   0.011164   0.000027  -0.004658
    24  H   -0.009556  -0.006139   0.456396  -0.021169  -0.004755   0.039480
    25  H    0.001771   0.001019   0.373552   0.010467  -0.000103  -0.008336
    26  H   -0.033447   0.028444   0.081399   0.462773  -0.004843  -0.096485
    27  H    0.000271  -0.000120   0.000658  -0.001641   0.429516  -0.001204
    28  H   -0.001382   0.000467  -0.022186  -0.003309   0.455274   0.030217
    29  H   -0.078822  -0.001308  -0.041161  -0.037486   0.007118   0.527428
    30  H    0.004194  -0.028163   0.003962  -0.086195  -0.000177   0.000950
    31  H   -0.001230   0.001471   0.004954  -0.016283   0.000013  -0.009775
              13         14         15         16         17         18
     1  C   -0.088248   0.429120   0.534148  -0.001971   0.000029  -0.000325
     2  C   -0.054590  -0.000208   0.000121   0.366916   0.478735   0.002415
     3  C    0.005081  -0.000031   0.002458   0.017855  -0.002153   0.467712
     4  O    0.001102  -0.000008  -0.000004  -0.036004  -0.062741  -0.006867
     5  O   -0.019097  -0.002589  -0.000346  -0.001657  -0.002357   0.000693
     6  C   -0.121552   0.002709  -0.001470   0.000336   0.000429  -0.000300
     7  O   -0.270771  -0.002106   0.000803  -0.011184   0.013776  -0.000399
     8  C    0.112353  -0.019939  -0.088135  -0.001978   0.002402   0.000294
     9  C   -0.365852  -0.004596   0.006092  -0.066842   0.009402  -0.017277
    10  C   -1.015512   0.026707   0.015359  -0.064333   0.014743  -0.000898
    11  C    0.003685   0.000114   0.000007   0.003395  -0.003502  -0.075824
    12  C    0.305174  -0.000414   0.003196   0.097709  -0.080401  -0.004780
    13  C    7.100105  -0.053417  -0.086875   0.001088   0.001460  -0.000996
    14  H   -0.053417   0.459082  -0.004682   0.000013   0.000000  -0.000015
    15  H   -0.086875  -0.004682   0.461430  -0.000426   0.000029  -0.000027
    16  H    0.001088   0.000013  -0.000426   0.494099  -0.023284  -0.000410
    17  H    0.001460   0.000000   0.000029  -0.023284   0.458237  -0.000971
    18  H   -0.000996  -0.000015  -0.000027  -0.000410  -0.000971   0.473013
    19  H   -0.001038  -0.000032   0.000041  -0.000655   0.001106  -0.012819
    20  H    0.023870  -0.001697   0.002591   0.000683  -0.000102   0.000031
    21  H    0.000641   0.000234  -0.001639  -0.002047   0.000267  -0.000071
    22  H   -0.006408  -0.001150   0.003989  -0.000739  -0.000067   0.000016
    23  H   -0.006117  -0.008790  -0.006289   0.000302   0.000016  -0.000004
    24  H   -0.006688   0.000128   0.001337   0.000158  -0.002401   0.000678
    25  H    0.007072   0.000134  -0.000231  -0.001547   0.000000  -0.006983
    26  H   -0.028196  -0.001437  -0.016435  -0.003225  -0.000163   0.001497
    27  H    0.000830   0.000008   0.000018  -0.003355   0.002724  -0.004004
    28  H    0.000040  -0.000004  -0.000081   0.003153  -0.002253   0.002745
    29  H    0.011558  -0.000034   0.000256   0.007411  -0.006511  -0.000070
    30  H    0.477017  -0.005029   0.006569  -0.000532   0.000002  -0.000049
    31  H    0.424018  -0.011252  -0.006182   0.000315  -0.000033   0.000033
              19         20         21         22         23         24
     1  C   -0.000278  -0.000637   0.007791  -0.018238  -0.050719   0.002534
     2  C    0.003533  -0.002531   0.002998  -0.001517   0.000555  -0.055403
     3  C    0.452535   0.002898  -0.000697   0.000181  -0.000096  -0.057295
     4  O    0.008724  -0.000065   0.000181   0.000012  -0.000004  -0.002185
     5  O   -0.000928  -0.028209  -0.072078  -0.002454   0.006340  -0.001668
     6  C    0.000459   0.479123   0.443024  -0.071109  -0.037620   0.005827
     7  O   -0.000387   0.003437  -0.001018   0.002294   0.000258  -0.009556
     8  C    0.000043  -0.059988  -0.041980   0.477924   0.457846  -0.006139
     9  C   -0.053649  -0.004220   0.004282  -0.001615   0.002551   0.456396
    10  C   -0.005035  -0.046970   0.010418  -0.014569   0.011164  -0.021169
    11  C   -0.033929   0.000050   0.000373  -0.000139   0.000027  -0.004755
    12  C    0.002855   0.013274  -0.009545   0.008185  -0.004658   0.039480
    13  C   -0.001038   0.023870   0.000641  -0.006408  -0.006117  -0.006688
    14  H   -0.000032  -0.001697   0.000234  -0.001150  -0.008790   0.000128
    15  H    0.000041   0.002591  -0.001639   0.003989  -0.006289   0.001337
    16  H   -0.000655   0.000683  -0.002047  -0.000739   0.000302   0.000158
    17  H    0.001106  -0.000102   0.000267  -0.000067   0.000016  -0.002401
    18  H   -0.012819   0.000031  -0.000071   0.000016  -0.000004   0.000678
    19  H    0.487794   0.000002   0.000083  -0.000003   0.000013  -0.005726
    20  H    0.000002   0.468723  -0.006503   0.003065  -0.000171  -0.002181
    21  H    0.000083  -0.006503   0.476884  -0.002640  -0.009511   0.000601
    22  H   -0.000003   0.003065  -0.002640   0.472344  -0.012317   0.000549
    23  H    0.000013  -0.000171  -0.009511  -0.012317   0.475210  -0.000140
    24  H   -0.005726  -0.002181   0.000601   0.000549  -0.000140   0.472979
    25  H   -0.011255   0.000582   0.000027  -0.000001  -0.000092  -0.024955
    26  H    0.000707  -0.006796  -0.000998  -0.001868   0.001750  -0.008892
    27  H   -0.008520   0.000036   0.000030  -0.000003  -0.000003  -0.000425
    28  H    0.004881   0.000195  -0.000356  -0.000001   0.000015  -0.008257
    29  H   -0.001063   0.000353  -0.000099   0.000165  -0.000093   0.006791
    30  H    0.000046   0.000582  -0.000379   0.002269  -0.003061   0.000243
    31  H    0.000030  -0.000643   0.001260  -0.001912   0.001746   0.000089
              25         26         27         28         29         30
     1  C    0.000651  -0.034415   0.000115  -0.000125  -0.003070  -0.008024
     2  C    0.007633   0.018661   0.015098  -0.021929  -0.097798   0.003693
     3  C    0.013586  -0.040465  -0.030624  -0.034658  -0.001047   0.001706
     4  O   -0.002396   0.001194  -0.070751  -0.038015   0.004882   0.000236
     5  O    0.000905  -0.048857  -0.000433   0.002712   0.002677  -0.007297
     6  C   -0.003305   0.008655   0.000079  -0.000574   0.002082   0.005593
     7  O    0.001771  -0.033447   0.000271  -0.001382  -0.078822   0.004194
     8  C    0.001019   0.028444  -0.000120   0.000467  -0.001308  -0.028163
     9  C    0.373552   0.081399   0.000658  -0.022186  -0.041161   0.003962
    10  C    0.010467   0.462773  -0.001641  -0.003309  -0.037486  -0.086195
    11  C   -0.000103  -0.004843   0.429516   0.455274   0.007118  -0.000177
    12  C   -0.008336  -0.096485  -0.001204   0.030217   0.527428   0.000950
    13  C    0.007072  -0.028196   0.000830   0.000040   0.011558   0.477017
    14  H    0.000134  -0.001437   0.000008  -0.000004  -0.000034  -0.005029
    15  H   -0.000231  -0.016435   0.000018  -0.000081   0.000256   0.006569
    16  H   -0.001547  -0.003225  -0.003355   0.003153   0.007411  -0.000532
    17  H    0.000000  -0.000163   0.002724  -0.002253  -0.006511   0.000002
    18  H   -0.006983   0.001497  -0.004004   0.002745  -0.000070  -0.000049
    19  H   -0.011255   0.000707  -0.008520   0.004881  -0.001063   0.000046
    20  H    0.000582  -0.006796   0.000036   0.000195   0.000353   0.000582
    21  H    0.000027  -0.000998   0.000030  -0.000356  -0.000099  -0.000379
    22  H   -0.000001  -0.001868  -0.000003  -0.000001   0.000165   0.002269
    23  H   -0.000092   0.001750  -0.000003   0.000015  -0.000093  -0.003061
    24  H   -0.024955  -0.008892  -0.000425  -0.008257   0.006791   0.000243
    25  H    0.462772  -0.007321   0.001477  -0.000904  -0.004577   0.000062
    26  H   -0.007321   0.454823  -0.001195   0.002230  -0.003750  -0.007279
    27  H    0.001477  -0.001195   0.455806  -0.006076  -0.001694   0.000007
    28  H   -0.000904   0.002230  -0.006076   0.483610   0.001745  -0.000026
    29  H   -0.004577  -0.003750  -0.001694   0.001745   0.425469   0.000066
    30  H    0.000062  -0.007279   0.000007  -0.000026   0.000066   0.461309
    31  H   -0.000842   0.001079   0.000001  -0.000038  -0.000204  -0.019683
              31
     1  C   -0.025435
     2  C   -0.000629
     3  C   -0.000485
     4  O   -0.000009
     5  O    0.004950
     6  C    0.000997
     7  O   -0.001230
     8  C    0.001471
     9  C    0.004954
    10  C   -0.016283
    11  C    0.000013
    12  C   -0.009775
    13  C    0.424018
    14  H   -0.011252
    15  H   -0.006182
    16  H    0.000315
    17  H   -0.000033
    18  H    0.000033
    19  H    0.000030
    20  H   -0.000643
    21  H    0.001260
    22  H   -0.001912
    23  H    0.001746
    24  H    0.000089
    25  H   -0.000842
    26  H    0.001079
    27  H    0.000001
    28  H   -0.000038
    29  H   -0.000204
    30  H   -0.019683
    31  H    0.468763
 Mulliken charges:
               1
     1  C   -0.382910
     2  C   -0.339981
     3  C   -0.469849
     4  O   -0.394405
     5  O   -0.393440
     6  C   -0.153955
     7  O   -0.405077
     8  C   -0.377040
     9  C   -0.219195
    10  C    0.042719
    11  C   -0.193216
    12  C    0.023015
    13  C   -0.349737
    14  H    0.199183
    15  H    0.174377
    16  H    0.226760
    17  H    0.203583
    18  H    0.183963
    19  H    0.172465
    20  H    0.161220
    21  H    0.200465
    22  H    0.165758
    23  H    0.181893
    24  H    0.230050
    25  H    0.191138
    26  H    0.282855
    27  H    0.223373
    28  H    0.152892
    29  H    0.280789
    30  H    0.197389
    31  H    0.184918
 Sum of Mulliken charges =  -0.00000
 Mulliken charges with hydrogens summed into heavy atoms:
               1
     1  C   -0.009350
     2  C    0.090362
     3  C   -0.113420
     4  O   -0.394405
     5  O   -0.393440
     6  C    0.207729
     7  O   -0.405077
     8  C   -0.029389
     9  C    0.201992
    10  C    0.325573
    11  C    0.183049
    12  C    0.303805
    13  C    0.032571
 Electronic spatial extent (au):  <R**2>=           3092.0572
 Charge=             -0.0000 electrons
 Dipole moment (field-independent basis, Debye):
    X=              2.2966    Y=             -0.1228    Z=              4.6667  Tot=              5.2026
 Quadrupole moment (field-independent basis, Debye-Ang):
   XX=            -74.1314   YY=            -79.2058   ZZ=            -80.7512
   XY=              2.7326   XZ=             -5.3963   YZ=              0.8674
 Traceless Quadrupole moment (field-independent basis, Debye-Ang):
   XX=              3.8981   YY=             -1.1764   ZZ=             -2.7217
   XY=              2.7326   XZ=             -5.3963   YZ=              0.8674
 Octapole moment (field-independent basis, Debye-Ang**2):
  XXX=             30.4205  YYY=              6.2769  ZZZ=             -0.5312  XYY=              2.4160
  XXY=             -1.3225  XXZ=             31.3185  XZZ=              2.6363  YZZ=              0.7502
  YYZ=              4.2152  XYZ=             -2.8595
 Hexadecapole moment (field-independent basis, Debye-Ang**3):
 XXXX=          -3129.6615 YYYY=           -504.0697 ZZZZ=           -387.6266 XXXY=             18.1073
 XXXZ=            -98.7996 YYYX=             13.6762 YYYZ=             -0.2860 ZZZX=             -1.0074
 ZZZY=             -0.2619 XXYY=           -603.1845 XXZZ=           -615.7823 YYZZ=           -157.5185
 XXYZ=             29.1780 YYXZ=              2.2789 ZZXY=              6.3936
 N-N= 8.915229251942D+02 E-N=-3.225123905007D+03  KE= 6.153591733162D+02
 D1PCM: PCM CHGder 1st derivatives, ID1Alg=3 FixD1E=F DoIter=F DoCFld=F I1PDM=0.
 Calling FoFJK, ICntrl=      2127 FMM=F ISym2X=0 I1Cent= 0 IOpClX= 0 NMat=1 NMatS=1 NMatT=0.
 ***** Axes restored to original set *****
 -------------------------------------------------------------------
 Center     Atomic                   Forces (Hartrees/Bohr)
 Number     Number              X              Y              Z
 -------------------------------------------------------------------
      1        6           0.002948828   -0.002471929   -0.001840628
      2        6          -0.000617363    0.004125658    0.004498042
      3        6          -0.002212213   -0.002392976   -0.000834321
      4        8           0.008151776    0.000213631   -0.009279793
      5        8           0.008338627   -0.008643126   -0.007931711
      6        6          -0.005469699    0.003762000   -0.000702859
      7        8          -0.002806388    0.005927480   -0.010122093
      8        6           0.001892730    0.002060602    0.001893247
      9        6           0.002750157   -0.000417758   -0.004037663
     10        6          -0.004867773    0.004021574    0.000818153
     11        6          -0.004016355    0.004984691    0.003589759
     12        6          -0.000162352   -0.005864730    0.006696577
     13        6          -0.000785593   -0.001313963    0.003237489
     14        1          -0.002158617    0.001043268   -0.001086093
     15        1           0.000895772    0.000369510    0.003214099
     16        1          -0.004347238   -0.004549788    0.003476416
     17        1          -0.001317974    0.000890728   -0.004702234
     18        1           0.001422954    0.002487461   -0.001806382
     19        1           0.000578343   -0.000505919    0.002837559
     20        1           0.000199432    0.001302845    0.005556570
     21        1           0.000043619   -0.004501901   -0.000959616
     22        1           0.000088661   -0.000553189   -0.003308608
     23        1          -0.001858587   -0.001061990    0.001731763
     24        1          -0.002801106   -0.004255833    0.000907965
     25        1          -0.001184459    0.002977367    0.001115812
     26        1           0.000855888    0.001213166    0.009014049
     27        1           0.004510108   -0.000214397    0.000092442
     28        1          -0.002920120   -0.004144474    0.002738205
     29        1           0.003966229    0.003933883   -0.002022866
     30        1           0.000337407   -0.001406148   -0.003639314
     31        1           0.000545307    0.002984255    0.000856033
 -------------------------------------------------------------------
 Cartesian Forces:  Max     0.010122093 RMS     0.003683862

 GradGradGradGradGradGradGradGradGradGradGradGradGradGradGradGradGradGrad
 Berny optimization.
 FormGI is forming the generalized inverse of G from B-inverse, IUseBI=4.
 Internal  Forces:  Max     0.017609113 RMS     0.002418833
 Search for a local minimum.
 Step number   1 out of a maximum of  186
 All quantities printed in internal units (Hartrees-Bohrs-Radians)
 Mixed Optimization -- RFO/linear search
 Second derivative matrix not updated -- first step.
 ITU=  0
     Eigenvalues ---    0.00612   0.00639   0.00734   0.00754   0.01437
     Eigenvalues ---    0.01491   0.01840   0.02606   0.02740   0.03117
     Eigenvalues ---    0.03147   0.03832   0.04171   0.04577   0.04775
     Eigenvalues ---    0.04861   0.04927   0.05156   0.05171   0.05234
     Eigenvalues ---    0.05370   0.05721   0.05767   0.06142   0.06209
     Eigenvalues ---    0.06342   0.06409   0.06515   0.07639   0.07688
     Eigenvalues ---    0.07945   0.07958   0.07967   0.07999   0.08018
     Eigenvalues ---    0.08723   0.09441   0.09840   0.10749   0.11473
     Eigenvalues ---    0.11558   0.11705   0.11716   0.12324   0.12492
     Eigenvalues ---    0.14469   0.14865   0.16466   0.16683   0.17961
     Eigenvalues ---    0.19160   0.21534   0.21860   0.25000   0.28363
     Eigenvalues ---    0.28517   0.28623   0.28783   0.28963   0.29131
     Eigenvalues ---    0.30069   0.30482   0.35030   0.35081   0.35083
     Eigenvalues ---    0.35125   0.35181   0.35182   0.35242   0.35306
     Eigenvalues ---    0.35307   0.35347   0.35362   0.35378   0.35493
     Eigenvalues ---    0.35565   0.35609   0.35819   0.35830   0.35880
     Eigenvalues ---    0.41147   0.41447   0.42036   0.42084   0.42820
     Eigenvalues ---    0.475271000.000001000.000001000.000001000.00000
     Eigenvalues --- 1000.000001000.000001000.000001000.000001000.00000
     Eigenvalues --- 1000.000001000.000001000.000001000.000001000.00000
     Eigenvalues --- 1000.000001000.000001000.000001000.000001000.00000
     Eigenvalues --- 1000.000001000.000001000.000001000.000001000.00000
     Eigenvalues --- 1000.000001000.000001000.000001000.000001000.00000
     Eigenvalues --- 1000.000001000.000001000.000001000.000001000.00000
     Eigenvalues --- 1000.000001000.000001000.000001000.000001000.00000
     Eigenvalues --- 1000.000001000.000001000.000001000.000001000.00000
     Eigenvalues --- 1000.000001000.000001000.000001000.000001000.00000
     Eigenvalues --- 1000.000001000.000001000.000001000.000001000.00000
     Eigenvalues --- 1000.000001000.000001000.000001000.000001000.00000
     Eigenvalues --- 1000.000001000.000001000.000001000.000001000.00000
     Eigenvalues --- 1000.000001000.000001000.000001000.000001000.00000
     Eigenvalues --- 1000.000001000.000001000.000001000.000001000.00000
     Eigenvalues --- 1000.000001000.000001000.000001000.000001000.00000
     Eigenvalues --- 1000.000001000.000001000.000001000.000001000.00000
     Eigenvalues --- 1000.000001000.000001000.000001000.000001000.00000
     Eigenvalues --- 1000.000001000.000001000.000001000.000001000.00000
     Eigenvalues --- 1000.000001000.000001000.000001000.000001000.00000
 RFO step:  Lambda=-4.01040262D-03 EMin= 6.12203129D-03
 Linear search not attempted -- first point.
 Iteration  1 RMS(Cart)=  0.08195426 RMS(Int)=  0.00120850
 Iteration  2 RMS(Cart)=  0.00390193 RMS(Int)=  0.00004256
 Iteration  3 RMS(Cart)=  0.00000347 RMS(Int)=  0.00004252
 Iteration  4 RMS(Cart)=  0.00000000 RMS(Int)=  0.00004252
 Iteration  1 RMS(Cart)=  0.00002904 RMS(Int)=  0.00000670
 Iteration  2 RMS(Cart)=  0.00001604 RMS(Int)=  0.00000748
 Iteration  3 RMS(Cart)=  0.00000886 RMS(Int)=  0.00000846
 Iteration  4 RMS(Cart)=  0.00000490 RMS(Int)=  0.00000912
 Iteration  5 RMS(Cart)=  0.00000271 RMS(Int)=  0.00000951
 Iteration  6 RMS(Cart)=  0.00000149 RMS(Int)=  0.00000973
 Iteration  7 RMS(Cart)=  0.00000083 RMS(Int)=  0.00000985
 Variable       Old X    -DE/DX   Delta X   Delta X   Delta X     New X
                                 (Linear)    (Quad)   (Total)
    R1        2.88983  -0.00065   0.00000  -0.00340  -0.00343   2.88640
    R2        2.89301  -0.00109   0.00000  -0.00408  -0.00411   2.88891
    R3        2.05091   0.00263   0.00000   0.00735   0.00735   2.05825
    R4        2.05626   0.00325   0.00000   0.00917   0.00917   2.06543
    R5        2.66935   0.00604   0.00000   0.01419   0.01422   2.68357
    R6        2.88462  -0.00069   0.00000  -0.00212  -0.00209   2.88253
    R7        2.04881   0.00692   0.00000   0.01929   0.01929   2.06810
    R8        2.04365   0.00490   0.00000   0.01352   0.01352   2.05717
    R9        2.89649  -0.00099   0.00000  -0.00404  -0.00408   2.89241
   R10        2.87377  -0.00068   0.00000  -0.00233  -0.00235   2.87142
   R11        2.05380   0.00329   0.00000   0.00923   0.00923   2.06304
   R12        2.05179   0.00294   0.00000   0.00823   0.00823   2.06002
   R13        2.67661   0.00624   0.00000   0.01473   0.01474   2.69135
   R14        2.68156   0.00586   0.00000   0.01394   0.01397   2.69553
   R15        2.65929   0.00851   0.00000   0.01981   0.01984   2.67913
   R16        2.87249  -0.00058   0.00000  -0.00202  -0.00202   2.87048
   R17        2.05544   0.00563   0.00000   0.01586   0.01586   2.07130
   R18        2.04270   0.00460   0.00000   0.01267   0.01267   2.05537
   R19        2.62446   0.00415   0.00000   0.00867   0.00867   2.63313
   R20        2.68877   0.00296   0.00000   0.00698   0.00698   2.69575
   R21        2.05472   0.00326   0.00000   0.00918   0.00918   2.06390
   R22        2.05283   0.00274   0.00000   0.00770   0.00770   2.06053
   R23        2.88121  -0.00269   0.00000  -0.00935  -0.00935   2.87186
   R24        2.05181   0.00498   0.00000   0.01394   0.01394   2.06575
   R25        2.05115   0.00336   0.00000   0.00939   0.00939   2.06054
   R26        2.86794  -0.00146   0.00000  -0.00447  -0.00447   2.86347
   R27        2.04768   0.00910   0.00000   0.02531   0.02531   2.07299
   R28        2.04348   0.00451   0.00000   0.01244   0.01244   2.05593
   R29        2.05540   0.00567   0.00000   0.01597   0.01597   2.07137
   R30        2.04697   0.00580   0.00000   0.01609   0.01609   2.06306
   R31        2.05382   0.00372   0.00000   0.01045   0.01045   2.06427
   R32        2.05066   0.00313   0.00000   0.00873   0.00873   2.05940
    A1        1.92575   0.00210   0.00000  -0.00041  -0.00048   1.92527
    A2        1.93176  -0.00052   0.00000   0.00041   0.00044   1.93220
    A3        1.90903  -0.00080   0.00000  -0.00175  -0.00174   1.90729
    A4        1.91981  -0.00064   0.00000  -0.00075  -0.00073   1.91908
    A5        1.90964  -0.00082   0.00000  -0.00207  -0.00205   1.90759
    A6        1.86683   0.00060   0.00000   0.00465   0.00464   1.87147
    A7        1.91288   0.00117   0.00000   0.00663   0.00672   1.91960
    A8        1.91130   0.00120   0.00000   0.00882   0.00883   1.92013
    A9        1.86712  -0.00036   0.00000   0.00397   0.00396   1.87108
   A10        1.94225  -0.00217   0.00000  -0.01599  -0.01602   1.92623
   A11        1.92849  -0.00061   0.00000  -0.00599  -0.00608   1.92241
   A12        1.90021   0.00086   0.00000   0.00348   0.00336   1.90357
   A13        1.93106  -0.00041   0.00000  -0.00542  -0.00549   1.92557
   A14        1.92019   0.00052   0.00000   0.00075   0.00075   1.92094
   A15        1.92380  -0.00037   0.00000   0.00003   0.00005   1.92385
   A16        1.90517  -0.00016   0.00000  -0.00093  -0.00090   1.90427
   A17        1.90720   0.00025   0.00000   0.00071   0.00071   1.90791
   A18        1.87546   0.00019   0.00000   0.00516   0.00515   1.88062
   A19        1.97445  -0.00534   0.00000  -0.02820  -0.02816   1.94629
   A20        1.97999  -0.00520   0.00000  -0.02668  -0.02661   1.95338
   A21        1.93522   0.00095   0.00000   0.00329   0.00333   1.93855
   A22        1.90351   0.00073   0.00000   0.00402   0.00402   1.90753
   A23        1.85141  -0.00075   0.00000  -0.00024  -0.00025   1.85115
   A24        1.93093  -0.00135   0.00000  -0.00751  -0.00753   1.92340
   A25        1.95066  -0.00004   0.00000  -0.00188  -0.00188   1.94879
   A26        1.88960   0.00052   0.00000   0.00280   0.00279   1.89239
   A27        2.12888  -0.01761   0.00000  -0.06932  -0.06932   2.05955
   A28        1.92199   0.00018   0.00000  -0.00300  -0.00307   1.91892
   A29        1.91885   0.00054   0.00000   0.00191   0.00193   1.92078
   A30        1.93592  -0.00066   0.00000  -0.00141  -0.00140   1.93452
   A31        1.90362  -0.00039   0.00000  -0.00168  -0.00166   1.90196
   A32        1.90619   0.00005   0.00000  -0.00061  -0.00059   1.90560
   A33        1.87645   0.00029   0.00000   0.00494   0.00493   1.88137
   A34        1.89363   0.00167   0.00000  -0.00218  -0.00221   1.89142
   A35        1.90075  -0.00019   0.00000   0.00355   0.00351   1.90427
   A36        1.93144  -0.00012   0.00000   0.00535   0.00536   1.93680
   A37        1.92809  -0.00136   0.00000  -0.00991  -0.00989   1.91820
   A38        1.92842  -0.00061   0.00000  -0.00217  -0.00217   1.92625
   A39        1.88153   0.00058   0.00000   0.00541   0.00536   1.88690
   A40        1.89799  -0.00230   0.00000  -0.01324  -0.01324   1.88475
   A41        1.92984   0.00178   0.00000   0.00961   0.00962   1.93946
   A42        1.89147   0.00001   0.00000  -0.00236  -0.00237   1.88910
   A43        1.89096   0.00049   0.00000   0.00211   0.00212   1.89308
   A44        1.92986   0.00058   0.00000   0.00475   0.00474   1.93459
   A45        1.92376  -0.00057   0.00000  -0.00094  -0.00094   1.92283
   A46        1.93726   0.00167   0.00000   0.00750   0.00754   1.94479
   A47        1.94382  -0.00035   0.00000  -0.00303  -0.00304   1.94078
   A48        1.93004  -0.00146   0.00000  -0.00880  -0.00883   1.92121
   A49        1.85649  -0.00099   0.00000  -0.00205  -0.00205   1.85444
   A50        1.90229   0.00050   0.00000   0.00378   0.00379   1.90607
   A51        1.89173   0.00065   0.00000   0.00298   0.00296   1.89468
   A52        1.93872   0.00039   0.00000  -0.00572  -0.00604   1.93268
   A53        1.92623   0.00015   0.00000  -0.00679  -0.00700   1.91924
   A54        1.87087  -0.00030   0.00000   0.00646   0.00647   1.87733
   A55        2.02090  -0.00222   0.00000  -0.01823  -0.01838   2.00252
   A56        1.80824   0.00124   0.00000   0.02067   0.02077   1.82901
   A57        1.88883   0.00095   0.00000   0.00783   0.00796   1.89679
   A58        1.92459  -0.00074   0.00000  -0.00736  -0.00740   1.91719
   A59        1.92444   0.00087   0.00000   0.00440   0.00435   1.92879
   A60        1.93592  -0.00004   0.00000   0.00309   0.00308   1.93900
   A61        1.89055  -0.00052   0.00000  -0.00651  -0.00650   1.88404
   A62        1.90303   0.00023   0.00000  -0.00047  -0.00044   1.90259
   A63        1.88422   0.00021   0.00000   0.00687   0.00685   1.89107
    D1        0.89706  -0.00006   0.00000   0.01155   0.01154   0.90860
    D2       -1.20090  -0.00003   0.00000   0.01432   0.01432  -1.18658
[...]
 0012672,-0.00001569,-0.00000708,0.00000698,0.00000157,0.00000105,0.000
 00092,-0.00001088,-0.00000039,0.00007873,0.00083784,-0.00168986,-0.001
 06595,0.00023667,-0.00021513,0.00013457,0.00064055,0.00017321,0.000333
 36,-0.00001478,-0.00000216,-0.00000283,-0.00000191,-0.00000540,0.00000
 050,0.00000118,-0.00000045,-0.00000110,-0.00000448,-0.00000146,-0.0000
 0053,-0.00405866,0.01000584,0.00610942,-0.03656278,0.11772707,0.118920
 73,0.00144952,0.00000741,-0.00086970,-0.00027351,0.00000618,-0.0002243
 7,-0.00000575,-0.00016448,0.00036929,-0.00022028,0.00017180,-0.0000356
 3,0.00418672,-0.00026814,0.00191838,0.00063497,-0.00057667,-0.00107693
 ,-0.00486468,-0.00247540,0.03509367,-0.00013521,0.00011933,0.00006276,
 -0.00318545,0.00096510,-0.00070362,-0.06370987,-0.00631781,-0.05071398
 ,0.00000859,0.00002320,0.00011410,0.00363778,0.00002284,0.00161753,-0.
 00512791,-0.00299142,-0.02753755,0.00011547,0.00012401,0.00023392,-0.0
 0007001,0.00003048,0.00043171,0.00000579,0.00003881,0.00000824,-0.0000
 2275,-0.00008246,-0.00009486,-0.00001374,0.00000704,0.00000334,0.00006
 279,-0.00001985,0.00001410,-0.00005555,-0.00009109,-0.00000532,0.00000
 114,0.00000610,-0.00007006,0.00003491,0.00000093,0.00004428,0.00002132
 ,-0.00009106,0.00000367,-0.00227494,0.00055883,-0.00087082,-0.00049897
 ,-0.00008580,-0.00051824,0.07373253,-0.00061350,-0.00006336,-0.0000080
 4,0.00000690,-0.00018625,-0.00018134,0.00006929,-0.00013275,0.00006347
 ,-0.00012734,0.00017323,0.00000072,-0.00877834,-0.03186799,-0.03656992
 ,0.00348755,0.00190273,-0.00499362,-0.00545728,0.00276047,0.01940460,-
 0.00031358,-0.00022662,0.00053455,-0.00018682,0.00022580,-0.00033019,-
 0.00448963,-0.05214865,-0.03639208,-0.00002518,-0.00005058,0.00000696,
 0.00190242,-0.00038805,-0.00008704,0.00377827,0.00470501,0.01314897,-0
 .00003164,-0.00008946,-0.00014839,-0.00004123,0.00002192,-0.00030547,-
 0.00002515,0.00009102,-0.00000719,0.00000011,-0.00003932,-0.00001358,-
 0.00006954,0.00000337,0.00000853,-0.00004767,0.00000672,-0.00002226,-0
 .00006943,0.00041140,0.00119485,0.00002537,-0.00001835,0.00045693,0.00
 005049,-0.00001466,0.00001160,-0.00023241,0.00014641,-0.00001143,0.001
 10465,-0.00048613,0.00025855,-0.00030732,0.00001451,-0.00023117,0.0087
 9401,0.07489208,0.00024887,-0.00019981,0.00038857,0.00011153,0.0001397
 7,0.00028327,-0.00016252,-0.00035961,0.00082837,0.00037284,-0.00024578
 ,0.00003370,-0.00128554,-0.01039156,-0.00410676,0.00016228,0.00123500,
 0.00124173,0.01110309,0.00471005,-0.02361268,0.00000287,-0.00028020,0.
 00010127,-0.00163541,0.00047238,-0.00009577,-0.04302677,-0.03859304,-0
 .28076724,-0.00014168,0.00000172,-0.00019046,-0.00372729,0.00103016,-0
 .00091468,-0.00261503,-0.00094442,-0.00880784,-0.00005685,0.00008516,0
 .00027279,-0.00026624,-0.00025268,0.00040233,0.00000599,-0.00002777,-0
 .00001640,-0.00000153,0.00005370,0.00003532,-0.00022776,0.00002932,-0.
 00001207,0.00012440,-0.00001483,-0.00001002,-0.00074483,-0.00045659,0.
 00036523,-0.00015970,-0.00011307,0.00053256,0.00003041,0.00004992,-0.0
 0018726,-0.00006734,-0.00003105,-0.00001300,-0.00144714,-0.00035526,0.
 00002254,-0.00019975,0.00037161,-0.00011639,0.04413932,0.04325014,0.31
 371276,-0.00000703,0.00000941,-0.00001303,0.00295814,0.00018505,-0.001
 38445,-0.00624794,0.00002894,0.00063299,-0.00788125,0.00107410,-0.0055
 8622,-0.00008615,-0.00005705,0.00002425,0.00002627,0.00002149,-0.00002
 756,-0.00033310,0.00006441,0.00001513,-0.00000443,-0.00000158,0.000009
 34,0.00119233,0.00152369,0.00115843,0.00014080,0.00011719,-0.00005778,
 -0.31811202,0.03678265,-0.00684657,0.00034976,-0.00042802,0.00020015,-
 0.00001581,-0.00002753,0.00001451,-0.00000813,-0.00000215,0.00000333,0
 .00000021,-0.00000033,0.00000181,0.00017365,0.00003973,0.00001901,-0.0
 0055467,0.00026652,-0.00008199,0.00073550,0.00017003,-0.00019244,0.000
 01081,0.00028315,0.00034757,-0.00000215,-0.00000034,0.00000521,-0.0000
 0374,-0.00000596,0.00000300,-0.00000015,-0.00000040,-0.00000159,-0.000
 00507,-0.00000099,-0.00000006,0.00018837,-0.00004570,0.00000003,-0.000
 58084,0.00009139,-0.00025444,0.00000123,-0.00001880,-0.00000392,0.3407
 7390,0.00000449,-0.00001160,0.00001285,-0.00061046,0.00015395,0.000331
 19,0.02716638,-0.00371907,0.00045200,0.00595336,-0.00010409,0.00254186
 ,0.00006219,0.00009643,0.00000116,-0.00002953,-0.00002053,0.00002586,0
 .00038038,0.00000727,0.00010614,0.00000330,0.00000099,-0.00000850,0.00
 025840,-0.00380815,-0.00310794,-0.00011361,-0.00016165,-0.00000385,0.0
 3334152,-0.05719268,0.00124867,-0.00060348,0.00023246,-0.00062455,0.00
 001011,0.00003282,0.00000200,0.00000889,0.00000293,-0.00000399,0.00000
 025,0.00000030,-0.00000140,0.00040547,0.00018952,-0.00013746,0.0001796
 3,0.00026505,-0.00005341,-0.00035400,0.00127344,0.00102602,-0.00057533
 ,0.00082031,0.00008735,0.00000295,-0.00000115,-0.00000600,0.00000590,0
 .00000646,-0.00000265,-0.00000016,0.00000043,0.00000144,0.00000415,0.0
 0000140,0.00000035,0.00017992,0.00018930,-0.00004792,0.00153367,-0.000
 26040,0.00017891,0.00000708,0.00002849,0.00004925,-0.04177561,0.056828
 97,-0.00000694,0.00000388,-0.00000882,0.00146816,0.00124048,-0.0056359
 6,0.01882867,-0.00114855,0.00229258,-0.04326520,0.00603930,-0.01161927
 ,-0.00007520,-0.00002475,0.00006048,-0.00000100,0.00002023,-0.00001621
 ,-0.00026195,0.00033311,0.00052042,-0.00000425,-0.00000501,0.00000725,
 0.00000653,-0.00391021,-0.00187486,0.00006515,0.00006020,-0.00011792,0
 .00518261,0.00070203,-0.04773755,-0.00014334,-0.00059137,-0.00121446,-
 0.00002200,-0.00000581,0.00004488,-0.00000364,-0.00000143,0.00000176,-
 0.00000053,0.00000049,0.00000061,-0.00009320,-0.00022642,0.00012272,-0
 .00180324,0.00042148,-0.00031830,-0.00077955,0.00033713,0.00053872,-0.
 00047988,0.00074802,0.00042249,-0.00000499,-0.00000186,0.00000462,-0.0
 0000067,-0.00000262,0.00000098,0.00000040,-0.00000012,0.00000016,-0.00
 000350,0.00000048,-0.00000074,-0.00037307,0.00004934,-0.00006259,0.001
 34598,-0.00049744,0.00039114,-0.00004559,-0.00000206,0.00004768,0.0114
 6634,-0.00123010,0.06218496,-0.00000021,-0.00000031,0.00000462,0.00253
 908,0.00252337,-0.00168526,0.00395137,0.00797755,-0.00207215,0.0046696
 0,0.00695808,-0.00440905,0.00008790,0.00001271,-0.00001583,-0.00000715
 ,-0.00002467,0.00001838,0.00003300,-0.00001959,0.00003566,0.00000406,0
 .00000491,-0.00000832,0.00113998,0.00050307,-0.00042177,-0.00003172,-0
 .00000160,0.00001231,-0.11285327,-0.09891287,0.03663682,-0.00028192,0.
 00016626,0.00011763,0.00000155,0.00000686,-0.00000014,0.00000206,0.000
 00016,-0.00000118,0.,-0.00000024,-0.00000114,0.00068438,-0.00060998,0.
 00055739,0.00019632,0.00008075,0.00004376,0.00060938,0.00162160,0.0007
 4561,0.00029249,-0.00061598,-0.00019160,0.00000129,0.00000040,-0.00000
 363,0.00000178,0.00000263,-0.00000078,-0.00000014,-0.00000035,0.000000
 99,0.00000355,-0.00000034,-0.00000008,0.00026852,-0.00016244,0.0001773
 9,0.00010229,-0.00010771,-0.00001888,-0.00000183,0.00000189,0.00000887
 ,-0.01269591,-0.02548645,0.00899627,0.11141832,0.00000545,-0.00000842,
 0.00000980,-0.00050683,0.00040398,-0.00060170,-0.01385975,-0.02334274,
 0.00635744,0.00014672,-0.00055951,0.01006428,0.00006435,0.00006148,-0.
 00002126,-0.00000661,-0.00001763,0.00002624,0.00035270,-0.00007780,0.0
 0006162,0.00000413,0.00000145,-0.00000873,-0.00096229,0.00106120,0.000
 88021,-0.00010598,-0.00012481,0.00007548,-0.09651610,-0.22142043,0.060
 19603,-0.00006778,0.00015006,-0.00007392,0.00001525,0.00002315,-0.0000
 1501,0.00000581,0.00000282,-0.00000284,0.00000006,-0.00000005,-0.00000
 147,0.00080104,-0.00041325,0.00020871,0.00029082,0.00020650,-0.0000349
 1,0.00182401,-0.00345355,-0.00309129,-0.00003196,0.00078811,-0.0001393
 2,0.00000394,-0.00000093,-0.00000746,0.00000531,0.00000674,-0.00000075
 ,-0.00000124,0.00000095,0.00000070,0.00000394,0.00000092,0.00000010,0.
 00063895,0.00017392,0.00009254,0.00008554,0.00030895,-0.00025955,0.000
 00167,0.00001118,-0.00000045,0.00167890,0.00519752,-0.00234139,0.10624
 622,0.24106539,-0.00000905,0.00000725,-0.00001226,0.00558620,0.0006735
 5,0.00120760,-0.00847384,-0.01651387,0.00675177,0.00900515,0.03254644,
 -0.03360709,-0.00007749,-0.00003911,0.00003524,0.00000848,0.00001905,-
 0.00001859,-0.00040469,0.00022879,0.00025336,-0.00000405,-0.00000248,0
 .00000613,-0.00077510,0.00047800,0.00032513,0.00009176,0.00012280,-0.0
 0009611,0.03251566,0.05849648,-0.06674278,-0.00030764,-0.00047070,-0.0
 0038631,-0.00002210,-0.00002480,0.00002605,-0.00000660,-0.00000191,0.0
 0000332,0.00000050,-0.00000031,0.00000137,-0.00068409,-0.00076166,0.00
 067278,-0.00018839,-0.00035483,0.00004806,0.00181505,-0.00364108,-0.00
 128864,-0.00020849,0.00100425,0.00073173,-0.00000191,-0.00000029,0.000
 00360,-0.00000362,-0.00000522,0.00000222,0.00000021,-0.00000086,-0.000
 00061,-0.00000369,-0.00000068,-0.00000008,0.00014221,0.00037104,-0.000
 06350,-0.00006245,0.00017156,-0.00010869,-0.00000751,-0.00000641,0.000
 01614,0.00056559,-0.00093086,0.00188484,-0.03852505,-0.07135660,0.0904
 0796,-0.00030543,0.00037306,-0.00032007,0.00403421,0.00631371,-0.00230
 386,0.00076955,0.00042320,-0.00067703,0.00208576,0.00038902,0.00033949
 ,-0.00084692,-0.00127931,0.00063590,0.00037827,-0.00006032,-0.00033596
 ,-0.03984357,-0.02132271,0.01308593,0.00000309,0.00003058,0.00008998,0
 .00290960,0.00336897,-0.00122906,-0.00057932,0.00192507,-0.00633608,-0
 .00000115,0.00002940,-0.00019510,-0.10965017,-0.10036431,0.04637745,-0
 .00079611,-0.00068901,0.00110114,-0.00019055,-0.00008696,0.00010550,-0
 .00000738,-0.00000502,0.00003352,-0.00039645,0.00169712,0.00062324,0.0
 0038032,-0.00046373,-0.00011629,0.00025940,-0.00011152,-0.00021754,0.0
 0015137,0.00018776,0.00002529,-0.00004299,-0.00001165,0.00006089,-0.00
 010560,-0.00009642,0.00007859,-0.00000457,-0.00001234,-0.00001973,-0.0
 0004394,-0.00002108,-0.00000105,0.00033172,0.00030125,-0.00145226,0.00
 005928,-0.00020996,0.00015814,0.00005860,-0.00011091,0.00032405,-0.000
 00592,0.00002656,-0.00000227,-0.00013950,-0.00012012,0.00003503,0.1415
 7272,0.00004677,-0.00006413,0.00004523,-0.01423840,-0.02694943,0.00897
 031,-0.00016785,0.00003509,0.00012461,-0.00014500,0.00290649,0.0004777
 7,0.00019817,0.00028388,-0.00014947,-0.00003408,0.00011080,0.00002561,
 0.00762796,0.00995804,-0.00376351,-0.00001299,-0.00001295,0.00000515,-
 0.00079675,-0.00127578,0.00103977,0.00213616,0.00061363,0.00021019,0.0
 0010631,0.00005895,-0.00020521,-0.10755682,-0.21060308,0.07317475,0.00
 016561,0.00008816,-0.00016977,0.00002924,0.00001448,-0.00001283,-0.000
 00060,0.00000010,-0.00000153,0.00227517,-0.00368380,-0.00289489,-0.000
 08394,0.00146535,-0.00003553,0.00028726,-0.00008984,-0.00004446,0.0001
 9009,0.00005550,0.00000231,-0.00000564,-0.00000442,-0.00000078,0.00002
 159,0.00001616,-0.00001520,0.00000075,0.00000163,0.00000121,-0.0000039
 3,0.00000233,-0.00000040,0.00001081,0.00112076,0.00019902,0.00029594,0
 .00066327,0.00034114,-0.00002186,-0.00002684,-0.00001793,0.00002372,-0
 .00004020,0.00003820,-0.00016118,-0.00004349,-0.00000699,0.10983553,0.
 22542071,-0.00003125,0.00005002,-0.00002747,-0.00787240,-0.01729368,0.
 00575381,0.00132513,0.00004171,0.00115215,-0.00091677,0.00173276,0.000
 18893,-0.00014677,-0.00026602,0.00015989,0.00000748,-0.00007087,-0.000
 04833,-0.00759450,-0.00461084,0.00500760,0.00000253,-0.00000180,0.0000
 1113,0.01583345,0.02709082,-0.01553652,-0.00054118,-0.00016296,-0.0005
 6582,-0.00010898,-0.00003945,-0.00026460,0.05090095,0.07378688,-0.0853
 4955,-0.00009407,0.00001914,0.00017057,-0.00001484,-0.00001000,0.00000
 631,0.00000195,0.00000233,0.00000189,0.00156309,-0.00308796,-0.0007985
 7,-0.00055856,0.00077341,0.00091872,-0.00056434,-0.00029644,0.00019539
 ,-0.00000308,-0.00041395,0.00009278,-0.00000066,0.00000619,0.00000620,
 -0.00002398,-0.00001318,0.00001180,0.00000101,-0.00000227,-0.00000144,
 -0.00000402,-0.00000002,-0.00000164,-0.00144884,0.00055603,-0.00596609
 ,0.00028514,-0.00060828,0.00153809,-0.00015718,0.00008872,0.00007643,-
 0.00001326,0.00008846,0.00007793,-0.00000232,-0.00001755,-0.00005158,-
 0.04982712,-0.07734373,0.09323404,0.00190704,0.00444230,0.02720893,0.0
 0001855,-0.00001365,0.00001654,0.00001509,-0.00007736,0.00007177,-0.00
 000762,0.00000452,0.00001040,0.00202400,-0.00137243,0.00194241,-0.0003
 3706,-0.00021849,0.00023639,0.00262106,0.00019409,-0.00021624,0.000976
 52,0.00114215,-0.00049167,-0.00025954,0.00018055,-0.00008066,-0.006926
 73,-0.00589140,-0.03234224,-0.00002198,-0.00001619,-0.00002797,0.00024
 200,0.00006824,-0.00002609,-0.04904271,-0.00350528,-0.02688378,0.00118
 811,0.00069996,-0.00072921,-0.00353480,-0.00292494,0.00291057,0.000005
 55,-0.00000621,-0.00000397,-0.00000406,0.00000665,0.00001044,-0.000052
 15,0.00000369,-0.00000297,-0.00000649,0.00000165,-0.00000844,-0.000049
 68,-0.00007708,-0.00002497,0.00009810,-0.00000392,0.00000650,0.0000416
 7,-0.00019466,-0.00043189,-0.00011912,0.00016361,-0.00025292,-0.000071
 28,-0.00014647,0.00010515,0.00001563,0.00004458,0.00002229,-0.00434452
 ,0.00262521,-0.00079290,-0.00000539,0.00001305,0.00001046,0.00000378,0
 .00000377,0.00000028,0.00001017,-0.00000607,0.00001581,0.05653612,0.00
 177185,0.00137700,0.01281854,-0.00000058,0.00000922,-0.00000369,-0.000
 00594,0.00003498,-0.00003715,0.00000162,-0.00000607,-0.00000253,-0.000
 43042,0.00176913,0.00016930,-0.00009752,-0.00007522,0.00013371,-0.0013
 4166,0.00017467,-0.00050217,0.00043845,0.00077033,0.00060532,0.0000994
 1,-0.00008730,0.00005180,0.00261003,0.00035991,0.01503281,0.00001086,0
 .00000784,0.00000958,-0.00006811,-0.00010658,0.00001952,-0.00459287,-0
 .05754591,-0.04469621,0.00038428,0.00036394,-0.00060352,-0.00184098,-0
 .00025373,0.00153317,-0.00000688,0.00000228,0.00000479,0.00000231,0.00
 000106,-0.00000102,0.00002300,-0.00000207,0.00000014,0.00000212,-0.000
 00039,0.00000358,-0.00003748,-0.00005201,-0.00011097,0.00002373,-0.000
 01374,-0.00000768,-0.00014135,0.00006921,-0.00011125,-0.00002277,0.000
 13774,-0.00008966,0.00005110,0.00007312,-0.00002403,-0.00000133,-0.000
 02324,-0.00000351,0.00211402,-0.00024011,0.00060830,0.00000215,-0.0000
 0610,-0.00000434,-0.00000125,-0.00000152,-0.00000030,-0.00001096,0.000
 00060,-0.00000811,0.00480748,0.05654024,-0.00082038,-0.00255778,-0.015
 51736,-0.00004178,-0.00004129,-0.00004773,0.00001883,-0.00002005,0.000
 07979,-0.00004535,0.00003890,0.00001487,0.00096463,0.00031158,0.001373
 07,0.00008938,0.00002150,0.00018297,0.00073387,-0.00031292,0.00135604,
 -0.00062579,-0.00043670,0.00050932,0.00015010,0.00007155,-0.00002333,-
 0.00148057,-0.00236907,-0.01374641,-0.00000781,-0.00001033,0.00000070,
 0.00000401,0.00011514,0.00035374,-0.02925481,-0.04236646,-0.29914500,0
 .00001465,-0.00014270,0.00081141,0.00247073,0.00151196,-0.00048986,-0.
 00000380,-0.00000119,0.00000028,-0.00000529,-0.00000009,0.00000819,-0.
 00002030,0.00000321,-0.00000015,0.00000725,-0.00000059,-0.00000298,-0.
 00002415,-0.00012877,-0.00008517,-0.00004859,0.00004356,-0.00003113,-0
 .00011732,0.00050648,0.00011024,0.00013515,0.00008181,0.00024938,-0.00
 003085,-0.00006344,0.00000619,0.00000178,0.00002867,-0.00000876,-0.001
 80680,0.00117566,0.00031843,-0.00000364,0.00000545,0.00000228,0.000001
 15,0.00000129,-0.00000163,-0.00003734,0.00000390,0.00000578,0.03019106
 ,0.04532927,0.32707292,0.00002712,-0.02640965,-0.00505875,0.00008678,0
 .00005799,0.00000073,0.00000100,-0.00000285,0.00000674,-0.00001739,-0.
 00003950,-0.00001498,-0.00534517,0.00721388,-0.00232774,-0.00149791,-0
 .00085183,0.00088002,0.00130284,0.00022259,-0.00016678,-0.00420687,-0.
 00118220,0.00368975,-0.00000633,0.00000761,-0.00004233,0.00283124,0.02
 602308,0.00744206,-0.00000018,0.00000166,0.00000204,0.00022816,-0.0002
 3826,-0.00007183,-0.04788671,-0.01045762,-0.00402982,0.00087478,0.0006
 5215,-0.00087873,0.00109695,0.00080560,-0.00022779,-0.00001330,-0.0000
 3728,0.00001814,-0.00000317,-0.00000679,-0.00000037,-0.00000321,-0.000
 00050,0.00000181,-0.00000018,-0.00000037,-0.00000195,0.00020129,0.0000
 8167,-0.00008614,0.00032018,0.00006997,-0.00011348,-0.00003794,0.00027
 551,-0.00006199,0.00022226,-0.00180744,0.00016671,0.00000161,-0.000008
 23,0.00000624,-0.00000858,-0.00000109,0.00000075,0.00085362,-0.0009004
 0,-0.00007234,-0.00000129,0.00000098,-0.00000057,0.00000093,0.00000007
 ,-0.00000032,-0.00004448,-0.00001595,-0.00001242,-0.00092027,-0.003742
 30,-0.00040804,0.05194421,-0.00024260,-0.01085536,-0.00171115,-0.00008
 765,-0.00004890,-0.00001205,-0.00000723,0.00001002,0.00000202,0.000015
 32,0.00003771,0.00000350,0.00291186,-0.00247273,0.00177843,0.00049447,
 0.00082622,-0.00089141,-0.00067597,0.00104872,-0.00011433,-0.00246617,
 0.00101432,0.00190218,0.00003717,-0.00002564,0.00000355,-0.00378876,-0
 .01330867,-0.00347581,-0.00000010,0.00000048,0.00000002,0.00009621,0.0
 0036378,0.00014061,-0.00712496,-0.30987362,-0.04373539,-0.00018095,0.0
 0045996,-0.00012156,0.00023393,0.00057532,0.00017029,0.00001634,0.0000
 3262,-0.00001322,0.00000214,-0.00000064,-0.00000488,0.00000813,0.00000
 048,-0.00000004,0.00000560,-0.00000194,0.00000373,-0.00004534,-0.00004
 254,0.00014571,-0.00003221,-0.00011072,0.00005060,-0.00000193,0.000089
 89,-0.00009334,0.00022417,-0.00083974,-0.00010820,-0.00000597,0.000017
 22,-0.00001039,0.00000963,-0.00000454,0.00000306,0.00018721,0.00058479
 ,0.00019757,0.00000194,-0.00000243,-0.00000088,-0.00000151,-0.00000017
 ,-0.00000026,0.00007512,-0.00002198,0.00001067,0.00005263,-0.00327728,
 -0.00079853,0.01028949,0.33582540,0.00008817,0.01778585,0.00155811,0.0
 0002235,0.00002140,0.00000680,0.00000256,-0.00000106,-0.00000033,0.000
 00665,-0.00001730,-0.00000298,-0.00192022,0.00192503,0.00098956,-0.000
 03452,-0.00050325,0.00023815,0.00075604,-0.00023893,0.00015305,0.00294
 645,0.00067152,-0.00116825,0.00000720,-0.00000223,-0.00001310,0.001633
 47,0.01016533,0.00014640,-0.00000072,0.00000264,-0.00000343,-0.0000186
 5,-0.00007709,-0.00006753,-0.00388696,-0.04633226,-0.05620428,-0.00041
 178,-0.00065272,0.00037660,-0.00082675,-0.00017362,0.00074374,-0.00000
 201,-0.00001324,-0.00000061,-0.00000217,-0.00000325,0.00000046,0.00000
 100,0.00000039,-0.00000025,0.00000004,-0.00000025,0.00000015,-0.000024
 03,-0.00003244,-0.00006937,-0.00001808,0.00000078,-0.00002463,-0.00001
 494,0.00032417,0.00017974,0.00009503,0.00086872,0.00019274,0.00000909,
 0.00000783,-0.00000263,-0.00000656,-0.00000032,0.00000070,0.00068383,-
 0.00029404,0.00017143,0.00000027,-0.00000028,0.00000020,0.00000030,-0.
 00000024,0.00000055,-0.00000339,0.00000307,0.00000214,-0.00044305,-0.0
 3011370,-0.00335609,0.00136140,0.04667950,0.05615292\\0.00000268,0.000
 01089,-0.00001026,0.00002223,0.00001548,-0.00001452,-0.00000691,0.0000
 0717,0.00000692,0.00000082,-0.00002392,-0.00000954,0.00000816,-0.00009
 000,0.00002600,0.00000031,0.00001708,-0.00004268,0.00006505,0.00121573
 ,0.00063969,-0.00000465,0.00000181,0.00000081,0.00012684,0.00069262,0.
 00001308,-0.00004882,-0.00051837,-0.00043550,0.00000900,0.00001878,-0.
 00000642,-0.00019661,-0.00126691,-0.00021671,-0.00001088,-0.00005490,0
 .00000787,0.00000517,0.00000220,0.00000939,-0.00000382,-0.00000919,-0.
 00000154,0.00000017,0.00001732,-0.00000253,0.00000265,0.00000377,0.000
 01448,-0.00000544,-0.00001211,-0.00000007,0.00001586,-0.00000495,-0.00
 000372,-0.00000548,-0.00000464,-0.00000016,-0.00000154,0.00000240,0.00
 000934,0.00000234,0.00000238,0.00001129,0.00000817,-0.00001597,0.00000
 036,-0.00000881,-0.00000397,-0.00000232,-0.00000759,-0.00001502,0.0000
 0249,0.00002490,-0.00000590,-0.00000851,-0.00001548,0.00000292,-0.0000
 1142,0.00000192,0.00000473,0.00000185,-0.00000258,-0.00000327,0.000003
 94,0.00000410,0.00001166,0.00001424,0.00001822,0.00000219,0.00000413\\
 \@


 TWO ROADS DIVERGED IN A WOOD, AND I--
 I TOOK THE ONE LESS TRAVELED BY,
 AND THAT HAS MADE ALL THE DIFFERENCE.

                       -- ROBERT FROST
 Job cpu time:       0 days 12 hours 44 minutes  8.3 seconds.
 Elapsed time:       0 days  1 hours  3 minutes 54.8 seconds.
 File lengths (MBytes):  RWF=    720 Int=      0 D2E=      0 Chk=     34 Scr=      1
 Normal termination of Gaussian 16 at Sun Mar 10 05:14:10 2019.
