 Entering Gaussian System, Link 0=g16
 Initial command:
 /sw/Projects/G16/g16/l1.exe "/nvme/pbs/tmpdir/pbs.74288[18].flm1/Gau-763.inp" -scrdir="/nvme/pbs/tmpdir/pbs.74288[18].flm1/"
 Entering Link 1 = /sw/Projects/G16/g16/l1.exe PID=       764.
  
 Copyright (c) 1988-2017, Gaussian, Inc.  All Rights Reserved.
  
 This is part of the Gaussian(R) 16 program.  It is based on
 the Gaussian(R) 09 system (copyright 2009, Gaussian, Inc.),
 the Gaussian(R) 03 system (copyright 2003, Gaussian, Inc.),
 the Gaussian(R) 98 system (copyright 1998, Gaussian, Inc.),
 the Gaussian(R) 94 system (copyright 1995, Gaussian, Inc.),
 the Gaussian 92(TM) system (copyright 1992, Gaussian, Inc.),
 the Gaussian 90(TM) system (copyright 1990, Gaussian, Inc.),
 the Gaussian 88(TM) system (copyright 1988, Gaussian, Inc.),
 the Gaussian 86(TM) system (copyright 1986, Carnegie Mellon
 University), and the Gaussian 82(TM) system (copyright 1983,
 Carnegie Mellon University). Gaussian is a federally registered
 trademark of Gaussian, Inc.
  
 This software contains proprietary and confidential information,
 including trade secrets, belonging to Gaussian, Inc.
  
 This software is provided under written license and may be
 used, copied, transmitted, or stored only in accord with that
 written license.
  
 The following legend is applicable only to US Government
 contracts under FAR:
  
                    RESTRICTED RIGHTS LEGEND
  
 Use, reproduction and disclosure by the US Government is
 subject to restrictions as set forth in subparagraphs (a)
 and (c) of the Commercial Computer Software - Restricted
 Rights clause in FAR 52.227-19.
  
 Gaussian, Inc.
 340 Quinnipiac St., Bldg. 40, Wallingford CT 06492
  
  
 ---------------------------------------------------------------
 Warning -- This program may not be used in any manner that
 competes with the business of Gaussian, Inc. or will provide
 assistance to any competitor of Gaussian, Inc.  The licensee
 of this program is prohibited from giving any competitor of
 Gaussian, Inc. access to this program.  By using this program,
 the user acknowledges that Gaussian, Inc. is engaged in the
 business of creating and licensing software in the field of
 computational chemistry and represents and warrants to the
 licensee that it is not a competitor of Gaussian, Inc. and that
 it will not use this program in any manner prohibited above.
 ---------------------------------------------------------------
  

 Cite this work as:
 Gaussian 16, Revision B.01,
 M. J. Frisch, G. W. Trucks, H. B. Schlegel, G. E. Scuseria, 
 M. A. Robb, J. R. Cheeseman, G. Scalmani, V. Barone, 
 G. A. Petersson, H. Nakatsuji, X. Li, M. Caricato, A. V. Marenich, 
 J. Bloino, B. G. Janesko, R. Gomperts, B. Mennucci, H. P. Hratchian, 
 J. V. Ortiz, A. F. Izmaylov, J. L. Sonnenberg, D. Williams-Young, 
 F. Ding, F. Lipparini, F. Egidi, J. Goings, B. Peng, A. Petrone, 
 T. Henderson, D. Ranasinghe, V. G. Zakrzewski, J. Gao, N. Rega, 
 G. Zheng, W. Liang, M. Hada, M. Ehara, K. Toyota, R. Fukuda, 
 J. Hasegawa, M. Ishida, T. Nakajima, Y. Honda, O. Kitao, H. Nakai, 
 T. Vreven, K. Throssell, J. A. Montgomery, Jr., J. E. Peralta, 
 F. Ogliaro, M. J. Bearpark, J. J. Heyd, E. N. Brothers, K. N. Kudin, 
 V. N. Staroverov, T. A. Keith, R. Kobayashi, J. Normand, 
 K. Raghavachari, A. P. Rendell, J. C. Burant, S. S. Iyengar, 
 J. Tomasi, M. Cossi, J. M. Millam, M. Klene, C. Adamo, R. Cammi, 
 J. W. Ochterski, R. L. Martin, K. Morokuma, O. Farkas, 
 J. B. Foresman, and D. J. Fox, Gaussian, Inc., Wallingford CT, 2016.
 
 ******************************************
 Gaussian 16:  ES64L-G16RevB.01 20-Dec-2017
                10-Mar-2019 
 ******************************************
 %mem=20gb
 %nproc=12
 Will use up to   12 processors via shared memory.
 %chk=4c1_b1_4e_4c1_PSI.inp_extract_18.chk
 ----------------------------------------------------------------------
 #M062X/6-311++G(2d,2p) opt=ModRedundant freq=noraman SCRF=(SMD,solvent
 =water)
 ----------------------------------------------------------------------
 1/18=120,19=15,26=3,38=1/1,3;
 2/9=110,12=2,17=6,18=5,40=1/2;
 3/5=4,6=6,7=1212,11=2,25=1,30=1,70=32201,71=1,72=1,74=-55/1,2,3;
 4//1;
 5/5=2,38=5,53=1/2;
 6/7=2,8=2,9=2,10=2,28=1/1;
 7//1,2,3,16;
 1/18=20,19=15,26=3/3(2);
 2/9=110/2;
 99//99;
 2/9=110/2;
 3/5=4,6=6,7=1212,11=2,25=1,30=1,70=32205,71=1,72=1,74=-55/1,2,3;
 4/5=5,16=3,69=1/1;
 5/5=2,38=5,53=1/2;
 7//1,2,3,16;
 1/18=20,19=15,26=3/3(-5);
 2/9=110/2;
 6/7=2,8=2,9=2,10=2,19=2,28=1/1;
 99/9=1/99;
 --------------------------------
 4c1_b1_4e_4c1_PSI.inp_extract_18
 --------------------------------
 Symbolic Z-matrix:
 Charge =  0 Multiplicity = 1
 C                    -3.65426   0.41933   0.60202 
 C                     2.10096   0.9299   -0.90704 
 C                     2.96227  -1.007     1.00038 
 O                     3.46496   0.66294  -0.67215 
 O                    -1.3454   -0.58007  -0.74387 
 C                    -2.46143  -1.43842  -0.56962 
 O                    -0.05319   1.10657   0.02929 
 C                    -3.75283  -0.63996  -0.49637 
 C                     1.46141  -0.73234   0.85011 
 C                    -1.16899   0.33436   0.31406 
 C                     3.70802  -0.67622  -0.28119 
 C                     1.2746    0.69892   0.35286 
 C                    -2.37697   1.24591   0.43141 
 H                    -4.52278   1.07002   0.58644 
 H                    -3.64137  -0.06921   1.57428 
 H                     1.73237   0.29572  -1.70991 
 H                     2.03091   1.96228  -1.22057 
 H                     3.36953  -0.41033   1.81248 
 H                     3.12403  -2.0507    1.25172 
 H                    -2.32119  -2.02425   0.33616 
 H                    -2.45534  -2.11343  -1.41398 
 H                    -3.93019  -0.16266  -1.45711 
 H                    -4.58182  -1.31668  -0.30951 
 H                     1.03542  -1.43282   0.13928 
 H                     0.96733  -0.88246   1.80281 
 H                    -1.03063  -0.22373   1.2316 
 H                     4.77757  -0.76658  -0.15015 
 H                     3.40274  -1.34101  -1.08605 
 H                     1.62554   1.3778    1.12282 
 H                    -2.43698   1.85044  -0.46984 
 H                    -2.23285   1.91515   1.27351 
 
 The following ModRedundant input section has been read:
 D      10       7      12       9 F                                           
 

 GradGradGradGradGradGradGradGradGradGradGradGradGradGradGradGradGradGrad
 Berny optimization.
 Initialization pass.
                           ----------------------------
                           !    Initial Parameters    !
                           ! (Angstroms and Degrees)  !
 --------------------------                            --------------------------
 ! Name  Definition              Value          Derivative Info.                !
 --------------------------------------------------------------------------------
 ! R1    R(1,8)                  1.5291         estimate D2E/DX2                !
 ! R2    R(1,13)                 1.531          estimate D2E/DX2                !
 ! R3    R(1,14)                 1.0853         estimate D2E/DX2                !
 ! R4    R(1,15)                 1.0882         estimate D2E/DX2                !
 ! R5    R(2,4)                  1.4096         estimate D2E/DX2                !
 ! R6    R(2,12)                 1.5243         estimate D2E/DX2                !
 ! R7    R(2,16)                 1.0875         estimate D2E/DX2                !
 ! R8    R(2,17)                 1.0812         estimate D2E/DX2                !
 ! R9    R(3,9)                  1.5332         estimate D2E/DX2                !
 ! R10   R(3,11)                 1.5192         estimate D2E/DX2                !
 ! R11   R(3,18)                 1.0869         estimate D2E/DX2                !
 ! R12   R(3,19)                 1.0857         estimate D2E/DX2                !
 ! R13   R(4,11)                 1.4161         estimate D2E/DX2                !
 ! R14   R(5,6)                  1.4187         estimate D2E/DX2                !
 ! R15   R(5,10)                 1.4094         estimate D2E/DX2                !
 ! R16   R(6,8)                  1.5201         estimate D2E/DX2                !
 ! R17   R(6,20)                 1.0878         estimate D2E/DX2                !
 ! R18   R(6,21)                 1.081          estimate D2E/DX2                !
 ! R19   R(7,10)                 1.3865         estimate D2E/DX2                !
 ! R20   R(7,12)                 1.4261         estimate D2E/DX2                !
 ! R21   R(8,22)                 1.0873         estimate D2E/DX2                !
 ! R22   R(8,23)                 1.0863         estimate D2E/DX2                !
 ! R23   R(9,12)                 1.5267         estimate D2E/DX2                !
 ! R24   R(9,24)                 1.0851         estimate D2E/DX2                !
 ! R25   R(9,25)                 1.0836         estimate D2E/DX2                !
 ! R26   R(10,13)                1.5179         estimate D2E/DX2                !
 ! R27   R(10,26)                1.0828         estimate D2E/DX2                !
 ! R28   R(11,27)                1.0813         estimate D2E/DX2                !
 ! R29   R(11,28)                1.0876         estimate D2E/DX2                !
 ! R30   R(12,29)                1.0848         estimate D2E/DX2                !
 ! R31   R(13,30)                1.0869         estimate D2E/DX2                !
 ! R32   R(13,31)                1.0853         estimate D2E/DX2                !
 ! A1    A(8,1,13)             110.3496         estimate D2E/DX2                !
 ! A2    A(8,1,14)             110.6966         estimate D2E/DX2                !
 ! A3    A(8,1,15)             109.3627         estimate D2E/DX2                !
 ! A4    A(13,1,14)            110.0196         estimate D2E/DX2                !
 ! A5    A(13,1,15)            109.3948         estimate D2E/DX2                !
 ! A6    A(14,1,15)            106.9463         estimate D2E/DX2                !
 ! A7    A(4,2,12)             110.9873         estimate D2E/DX2                !
 ! A8    A(4,2,16)             109.9111         estimate D2E/DX2                !
 ! A9    A(4,2,17)             106.969          estimate D2E/DX2                !
 ! A10   A(12,2,16)            109.7605         estimate D2E/DX2                !
 ! A11   A(12,2,17)            110.4408         estimate D2E/DX2                !
 ! A12   A(16,2,17)            108.7094         estimate D2E/DX2                !
 ! A13   A(9,3,11)             111.0296         estimate D2E/DX2                !
 ! A14   A(9,3,18)             109.9798         estimate D2E/DX2                !
 ! A15   A(9,3,19)             109.9237         estimate D2E/DX2                !
 ! A16   A(11,3,18)            109.0767         estimate D2E/DX2                !
 ! A17   A(11,3,19)            109.3583         estimate D2E/DX2                !
 ! A18   A(18,3,19)            107.394          estimate D2E/DX2                !
 ! A19   A(2,4,11)             113.029          estimate D2E/DX2                !
 ! A20   A(6,5,10)             113.5042         estimate D2E/DX2                !
 ! A21   A(5,6,8)              110.881          estimate D2E/DX2                !
 ! A22   A(5,6,20)             109.0684         estimate D2E/DX2                !
 ! A23   A(5,6,21)             106.1071         estimate D2E/DX2                !
 ! A24   A(8,6,20)             110.6272         estimate D2E/DX2                !
 ! A25   A(8,6,21)             111.7414         estimate D2E/DX2                !
 ! A26   A(20,6,21)            108.2626         estimate D2E/DX2                !
 ! A27   A(10,7,12)            122.9192         estimate D2E/DX2                !
 ! A28   A(1,8,6)              110.1043         estimate D2E/DX2                !
 ! A29   A(1,8,22)             109.9444         estimate D2E/DX2                !
 ! A30   A(1,8,23)             110.9264         estimate D2E/DX2                !
 ! A31   A(6,8,22)             109.0609         estimate D2E/DX2                !
 ! A32   A(6,8,23)             109.2315         estimate D2E/DX2                !
 ! A33   A(22,8,23)            107.5156         estimate D2E/DX2                !
 ! A34   A(3,9,12)             108.6424         estimate D2E/DX2                !
 ! A35   A(3,9,24)             109.4432         estimate D2E/DX2                !
 ! A36   A(3,9,25)             109.594          estimate D2E/DX2                !
 ! A37   A(12,9,24)            110.108          estimate D2E/DX2                !
 ! A38   A(12,9,25)            111.127          estimate D2E/DX2                !
 ! A39   A(24,9,25)            107.9097         estimate D2E/DX2                !
 ! A40   A(5,10,7)             107.9327         estimate D2E/DX2                !
 ! A41   A(5,10,13)            110.3679         estimate D2E/DX2                !
 ! A42   A(5,10,26)            108.5197         estimate D2E/DX2                !
 ! A43   A(7,10,13)            108.7759         estimate D2E/DX2                !
 ! A44   A(7,10,26)            110.9936         estimate D2E/DX2                !
 ! A45   A(13,10,26)           110.2252         estimate D2E/DX2                !
 ! A46   A(3,11,4)             110.7659         estimate D2E/DX2                !
 ! A47   A(3,11,27)            111.4146         estimate D2E/DX2                !
 ! A48   A(3,11,28)            110.6949         estimate D2E/DX2                !
 ! A49   A(4,11,27)            106.3948         estimate D2E/DX2                !
 ! A50   A(4,11,28)            108.9985         estimate D2E/DX2                !
 ! A51   A(27,11,28)           108.4349         estimate D2E/DX2                !
 ! A52   A(2,12,7)             105.896          estimate D2E/DX2                !
 ! A53   A(2,12,9)             110.1782         estimate D2E/DX2                !
 ! A54   A(2,12,29)            108.4466         estimate D2E/DX2                !
 ! A55   A(7,12,9)             117.1169         estimate D2E/DX2                !
 ! A56   A(7,12,29)            106.4595         estimate D2E/DX2                !
 ! A57   A(9,12,29)            108.4166         estimate D2E/DX2                !
 ! A58   A(1,13,10)            110.3866         estimate D2E/DX2                !
 ! A59   A(1,13,30)            110.2816         estimate D2E/DX2                !
 ! A60   A(1,13,31)            110.9322         estimate D2E/DX2                !
 ! A61   A(10,13,30)           108.2925         estimate D2E/DX2                !
 ! A62   A(10,13,31)           108.9441         estimate D2E/DX2                !
 ! A63   A(30,13,31)           107.9245         estimate D2E/DX2                !
 ! D1    D(13,1,8,6)            51.3334         estimate D2E/DX2                !
 ! D2    D(13,1,8,22)          -68.8503         estimate D2E/DX2                !
 ! D3    D(13,1,8,23)          172.364          estimate D2E/DX2                !
 ! D4    D(14,1,8,6)           173.369          estimate D2E/DX2                !
 ! D5    D(14,1,8,22)           53.1853         estimate D2E/DX2                !
 ! D6    D(14,1,8,23)          -65.6005         estimate D2E/DX2                !
 ! D7    D(15,1,8,6)           -69.0481         estimate D2E/DX2                !
 ! D8    D(15,1,8,22)          170.7682         estimate D2E/DX2                !
 ! D9    D(15,1,8,23)           51.9824         estimate D2E/DX2                !
 ! D10   D(8,1,13,10)          -51.9742         estimate D2E/DX2                !
 ! D11   D(8,1,13,30)           67.6499         estimate D2E/DX2                !
 ! D12   D(8,1,13,31)         -172.8356         estimate D2E/DX2                !
 ! D13   D(14,1,13,10)        -174.4081         estimate D2E/DX2                !
 ! D14   D(14,1,13,30)         -54.784          estimate D2E/DX2                !
 ! D15   D(14,1,13,31)          64.7305         estimate D2E/DX2                !
 ! D16   D(15,1,13,10)          68.388          estimate D2E/DX2                !
 ! D17   D(15,1,13,30)        -171.9878         estimate D2E/DX2                !
 ! D18   D(15,1,13,31)         -52.4733         estimate D2E/DX2                !
 ! D19   D(12,2,4,11)           60.8489         estimate D2E/DX2                !
 ! D20   D(16,2,4,11)          -60.7576         estimate D2E/DX2                !
 ! D21   D(17,2,4,11)         -178.6114         estimate D2E/DX2                !
 ! D22   D(4,2,12,7)           175.1675         estimate D2E/DX2                !
 ! D23   D(4,2,12,9)           -57.2735         estimate D2E/DX2                !
 ! D24   D(4,2,12,29)           61.2418         estimate D2E/DX2                !
 ! D25   D(16,2,12,7)          -63.1378         estimate D2E/DX2                !
 ! D26   D(16,2,12,9)           64.4211         estimate D2E/DX2                !
 ! D27   D(16,2,12,29)        -177.0636         estimate D2E/DX2                !
 ! D28   D(17,2,12,7)           56.7058         estimate D2E/DX2                !
 ! D29   D(17,2,12,9)         -175.7352         estimate D2E/DX2                !
 ! D30   D(17,2,12,29)         -57.2199         estimate D2E/DX2                !
 ! D31   D(11,3,9,12)          -52.8959         estimate D2E/DX2                !
 ! D32   D(11,3,9,24)           67.3599         estimate D2E/DX2                !
 ! D33   D(11,3,9,25)         -174.4877         estimate D2E/DX2                !
 ! D34   D(18,3,9,12)           67.9251         estimate D2E/DX2                !
 ! D35   D(18,3,9,24)         -171.8191         estimate D2E/DX2                !
 ! D36   D(18,3,9,25)          -53.6668         estimate D2E/DX2                !
 ! D37   D(19,3,9,12)         -174.033          estimate D2E/DX2                !
 ! D38   D(19,3,9,24)          -53.7773         estimate D2E/DX2                !
 ! D39   D(19,3,9,25)           64.3751         estimate D2E/DX2                !
 ! D40   D(9,3,11,4)            55.7075         estimate D2E/DX2                !
 ! D41   D(9,3,11,27)          173.9343         estimate D2E/DX2                !
 ! D42   D(9,3,11,28)          -65.3178         estimate D2E/DX2                !
 ! D43   D(18,3,11,4)          -65.6447         estimate D2E/DX2                !
 ! D44   D(18,3,11,27)          52.582          estimate D2E/DX2                !
 ! D45   D(18,3,11,28)         173.3299         estimate D2E/DX2                !
 ! D46   D(19,3,11,4)          177.1765         estimate D2E/DX2                !
 ! D47   D(19,3,11,27)         -64.5967         estimate D2E/DX2                !
 ! D48   D(19,3,11,28)          56.1512         estimate D2E/DX2                !
 ! D49   D(2,4,11,3)           -59.874          estimate D2E/DX2                !
 ! D50   D(2,4,11,27)          178.8881         estimate D2E/DX2                !
 ! D51   D(2,4,11,28)           62.1496         estimate D2E/DX2                !
 ! D52   D(10,5,6,8)            61.1991         estimate D2E/DX2                !
 ! D53   D(10,5,6,20)          -60.8607         estimate D2E/DX2                !
 ! D54   D(10,5,6,21)         -177.2796         estimate D2E/DX2                !
 ! D55   D(6,5,10,7)           179.809          estimate D2E/DX2                !
 ! D56   D(6,5,10,13)          -61.4394         estimate D2E/DX2                !
 ! D57   D(6,5,10,26)           59.4425         estimate D2E/DX2                !
 ! D58   D(5,6,8,1)            -54.9299         estimate D2E/DX2                !
 ! D59   D(5,6,8,22)            65.7861         estimate D2E/DX2                !
 ! D60   D(5,6,8,23)          -176.9701         estimate D2E/DX2                !
 ! D61   D(20,6,8,1)            66.2153         estimate D2E/DX2                !
 ! D62   D(20,6,8,22)         -173.0687         estimate D2E/DX2                !
 ! D63   D(20,6,8,23)          -55.8249         estimate D2E/DX2                !
 ! D64   D(21,6,8,1)          -173.0815         estimate D2E/DX2                !
 ! D65   D(21,6,8,22)          -52.3655         estimate D2E/DX2                !
 ! D66   D(21,6,8,23)           64.8783         estimate D2E/DX2                !
 ! D67   D(12,7,10,5)          -85.2633         estimate D2E/DX2                !
 ! D68   D(12,7,10,13)         154.9746         estimate D2E/DX2                !
 ! D69   D(12,7,10,26)          33.5379         estimate D2E/DX2                !
 ! D70   D(10,7,12,2)          132.1306         estimate D2E/DX2                !
 ! D71   D(10,7,12,9)            8.8468         Frozen                          !
 ! D72   D(10,7,12,29)        -112.5796         estimate D2E/DX2                !
 ! D73   D(3,9,12,2)            53.1961         estimate D2E/DX2                !
 ! D74   D(3,9,12,7)           174.2627         estimate D2E/DX2                !
 ! D75   D(3,9,12,29)          -65.3376         estimate D2E/DX2                !
 ! D76   D(24,9,12,2)          -66.6465         estimate D2E/DX2                !
 ! D77   D(24,9,12,7)           54.4201         estimate D2E/DX2                !
 ! D78   D(24,9,12,29)         174.8198         estimate D2E/DX2                !
 ! D79   D(25,9,12,2)          173.8456         estimate D2E/DX2                !
 ! D80   D(25,9,12,7)          -65.0878         estimate D2E/DX2                !
 ! D81   D(25,9,12,29)          55.3119         estimate D2E/DX2                !
 ! D82   D(5,10,13,1)           55.9277         estimate D2E/DX2                !
 ! D83   D(5,10,13,30)         -64.8915         estimate D2E/DX2                !
 ! D84   D(5,10,13,31)         177.9683         estimate D2E/DX2                !
 ! D85   D(7,10,13,1)          174.1639         estimate D2E/DX2                !
 ! D86   D(7,10,13,30)          53.3448         estimate D2E/DX2                !
 ! D87   D(7,10,13,31)         -63.7955         estimate D2E/DX2                !
 ! D88   D(26,10,13,1)         -63.9309         estimate D2E/DX2                !
 ! D89   D(26,10,13,30)        175.2499         estimate D2E/DX2                !
 ! D90   D(26,10,13,31)         58.1097         estimate D2E/DX2                !
 --------------------------------------------------------------------------------
 Trust Radius=3.00D-01 FncErr=1.00D-07 GrdErr=1.00D-06 EigMax=2.50D+02 EigMin=1.00D-04
 Number of steps in this run=    186 maximum allowed number of steps=    186.
 GradGradGradGradGradGradGradGradGradGradGradGradGradGradGradGradGradGrad

                          Input orientation:                          
 ---------------------------------------------------------------------
 Center     Atomic      Atomic             Coordinates (Angstroms)
 Number     Number       Type             X           Y           Z
 ---------------------------------------------------------------------
      1          6           0       -3.654263    0.419329    0.602020
      2          6           0        2.100965    0.929901   -0.907036
      3          6           0        2.962268   -1.007000    1.000384
      4          8           0        3.464962    0.662943   -0.672148
      5          8           0       -1.345401   -0.580067   -0.743865
      6          6           0       -2.461425   -1.438420   -0.569621
      7          8           0       -0.053185    1.106567    0.029290
      8          6           0       -3.752831   -0.639955   -0.496369
      9          6           0        1.461407   -0.732344    0.850114
     10          6           0       -1.168987    0.334362    0.314064
     11          6           0        3.708019   -0.676218   -0.281190
     12          6           0        1.274597    0.698915    0.352856
     13          6           0       -2.376965    1.245912    0.431412
     14          1           0       -4.522775    1.070022    0.586438
     15          1           0       -3.641365   -0.069213    1.574276
     16          1           0        1.732366    0.295723   -1.709912
     17          1           0        2.030909    1.962282   -1.220566
     18          1           0        3.369527   -0.410333    1.812480
     19          1           0        3.124028   -2.050698    1.251722
     20          1           0       -2.321188   -2.024248    0.336157
     21          1           0       -2.455337   -2.113434   -1.413980
     22          1           0       -3.930188   -0.162658   -1.457107
     23          1           0       -4.581820   -1.316676   -0.309506
     24          1           0        1.035421   -1.432816    0.139275
     25          1           0        0.967327   -0.882455    1.802809
     26          1           0       -1.030628   -0.223733    1.231597
     27          1           0        4.777569   -0.766581   -0.150154
     28          1           0        3.402735   -1.341006   -1.086049
     29          1           0        1.625541    1.377797    1.122820
     30          1           0       -2.436985    1.850437   -0.469837
     31          1           0       -2.232852    1.915153    1.273514
 ---------------------------------------------------------------------
                    Distance matrix (angstroms):
                    1          2          3          4          5
     1  C    0.000000
     2  C    5.971648   0.000000
     3  C    6.780235   2.851610   0.000000
     4  O    7.236451   1.409584   2.416356   0.000000
     5  O    2.853251   3.766174   4.666979   4.968884   0.000000
     6  C    2.499367   5.151524   5.662816   6.288744   1.418676
     7  O    3.710536   2.355479   3.808300   3.614717   2.261045
     8  C    1.529136   6.074539   6.889670   7.336551   2.420859
     9  C    5.249570   2.501933   1.533167   2.877210   3.231428
    10  C    2.503345   3.540952   4.397449   4.749112   1.409438
    11  C    7.495564   2.356676   1.519208   1.416078   5.075467
    12  C    4.943067   1.524325   2.485492   2.418600   3.114961
    13  C    1.530959   4.684353   5.822950   5.973760   2.404080
    14  H    1.085337   6.791467   7.778897   8.096524   3.819451
    15  H    1.088173   6.334784   6.694532   7.488815   3.302454
    16  H    5.863112   1.087500   3.248915   2.052728   3.342590
    17  H    6.166336   1.081212   3.823177   2.011356   4.253264
    18  H    7.175457   3.286525   1.086909   2.708211   5.366028
    19  H    7.243506   3.819799   1.085653   3.343854   5.110863
    20  H    2.796219   5.461498   5.421337   6.458886   2.050431
    21  H    3.452038   5.502615   6.033556   6.580921   2.008040
    22  H    2.157510   6.153947   7.366011   7.482381   2.713682
    23  H    2.169091   7.075575   7.663222   8.294643   3.347487
    24  H    5.063369   2.795100   2.153037   3.309574   2.678699
    25  H    4.949306   3.451526   2.153877   3.840813   3.453360
    26  H    2.773690   3.963773   4.075559   4.961932   2.031873
    27  H    8.547979   3.258087   2.162604   2.009715   6.154514
    28  H    7.466564   2.623675   2.158419   2.047193   4.820883
    29  H    5.391310   2.132359   2.736620   2.667657   4.017990
    30  H    2.163033   4.650970   6.283186   6.023624   2.678432
    31  H    2.169978   4.950504   5.966812   6.149692   3.329191
                    6          7          8          9         10
     6  C    0.000000
     7  O    3.554613   0.000000
     8  C    1.520079   4.124808   0.000000
     9  C    4.231170   2.519789   5.386077   0.000000
    10  C    2.365175   1.386510   2.877906   2.888630   0.000000
    11  C    6.223037   4.173892   7.464040   2.516002   5.016053
    12  C    4.401934   1.426142   5.271507   1.526652   2.470932
    13  C    2.866154   2.362429   2.512027   4.338422   1.517862
    14  H    3.446435   4.504329   2.165481   6.255276   3.444311
    15  H    2.804154   4.079764   2.150754   5.196387   2.804222
    16  H    4.679252   2.621161   5.695223   2.772016   3.537771
    17  H    5.671822   2.576400   6.383396   3.445730   3.904427
    18  H    6.382113   4.146771   7.490761   2.161194   4.837141
    19  H    5.906730   4.642989   7.234446   2.159550   4.999769
    20  H    1.087793   3.878145   2.158464   4.030036   2.625090
    21  H    1.081029   4.268696   2.167174   4.730160   3.260757
    22  H    2.138332   4.341827   1.087329   5.892122   3.317877
    23  H    2.139756   5.147371   1.086320   6.181161   3.842160
    24  H    3.567982   2.765072   4.894898   1.085089   2.830704
    25  H    4.206407   2.853598   5.255941   1.083640   2.874168
    26  H    2.601352   2.042213   3.251076   2.571858   1.082811
    27  H    7.282194   5.184310   8.538362   3.463905   6.065402
    28  H    5.887662   4.379267   7.213967   2.808550   5.066342
    29  H    5.243923   2.021755   5.968248   2.134011   3.090668
    30  H    3.290461   2.546561   2.816772   4.859063   2.126218
    31  H    3.833516   2.636826   3.459971   4.564653   2.133367
                   11         12         13         14         15
    11  C    0.000000
    12  C    2.866103   0.000000
    13  C    6.421014   3.693140   0.000000
    14  H    8.458611   5.813932   2.158581   0.000000
    15  H    7.604252   5.123336   2.152765   1.746586   0.000000
    16  H    2.624713   2.151076   4.730193   6.708170   6.308411
    17  H    3.264477   2.154939   4.761467   6.856542   6.641747
    18  H    2.137458   2.783822   6.137806   8.122996   7.023227
    19  H    2.140107   3.433472   6.465406   8.285837   7.056973
    20  H    6.208836   4.510606   3.272022   3.805803   2.664201
    21  H    6.429289   4.994339   3.833643   4.290730   3.809879
    22  H    7.745239   5.577460   2.821892   2.459011   3.046545
    23  H    8.314591   6.228880   3.460809   2.550006   2.447295
    24  H    2.809272   2.155713   4.348023   6.112094   5.078481
    25  H    3.449200   2.167374   4.194635   5.952558   4.685470
    26  H    4.994802   2.633919   2.147737   3.779566   2.637661
    27  H    1.081329   3.830341   7.454911   9.508527   8.621974
    28  H    1.087630   3.280350   6.511510   8.451271   7.636369
    29  H    3.244524   1.084844   4.063926   6.179338   5.480689
    30  H    6.646852   3.972237   1.086877   2.464809   3.051882
    31  H    6.665302   3.824793   1.085259   2.535758   2.451953
                   16         17         18         19         20
    16  H    0.000000
    17  H    1.762387   0.000000
    18  H    3.947918   4.076833   0.000000
    19  H    4.026623   4.838504   1.750862   0.000000
    20  H    5.099016   6.103815   6.096596   5.521715   0.000000
    21  H    4.840296   6.064262   6.873110   6.183787   1.757535
    22  H    5.686699   6.332930   8.002336   7.788736   3.044699
    23  H    6.665577   7.437055   8.279384   7.896601   2.455198
    24  H    2.625466   3.790363   3.048465   2.445730   3.413997
    25  H    3.783199   4.285386   2.448174   2.513931   3.777445
    26  H    4.068961   4.490520   4.442253   4.538653   2.389396
    27  H    3.582540   4.017041   2.441603   2.519605   7.225689
    28  H    2.420376   3.579345   3.044458   2.458966   5.937405
    29  H    3.034249   2.448960   2.591240   3.743883   5.269670
    30  H    4.619352   4.531907   6.635935   7.007673   3.959321
    31  H    5.219802   4.939870   6.089747   6.665179   4.050348
                   21         22         23         24         25
    21  H    0.000000
    22  H    2.445930   0.000000
    23  H    2.525196   1.753103   0.000000
    24  H    3.880880   5.368334   5.636337   0.000000
    25  H    4.855684   5.927125   5.953441   1.753533   0.000000
    26  H    3.549626   3.954783   4.022498   2.631275   2.179913
    27  H    7.464998   8.825978   9.376895   3.811996   4.283157
    28  H    5.917871   7.436259   8.022265   2.667213   3.806177
    29  H    5.939496   6.316261   6.916869   3.035646   2.450382
    30  H    4.074803   2.693865   3.828398   4.817507   4.921683
    31  H    4.847849   3.828125   4.297479   4.814250   4.283446
                   26         27         28         29         30
    26  H    0.000000
    27  H    5.994921   0.000000
    28  H    5.125865   1.759555   0.000000
    29  H    3.103541   4.019216   3.928029   0.000000
    30  H    3.029010   7.681196   6.683364   4.389084   0.000000
    31  H    2.453963   7.639668   6.923146   3.898545   1.756454
                   31
    31  H    0.000000
 Stoichiometry    C10H18O3
 Framework group  C1[X(C10H18O3)]
 Deg. of freedom    87
 Full point group                 C1      NOp   1
 Largest Abelian subgroup         C1      NOp   1
 Largest concise Abelian subgroup C1      NOp   1
                         Standard orientation:                         
 ---------------------------------------------------------------------
 Center     Atomic      Atomic             Coordinates (Angstroms)
 Number     Number       Type             X           Y           Z
 ---------------------------------------------------------------------
      1          6           0        3.654263   -0.419329    0.602020
      2          6           0       -2.100965   -0.929901   -0.907036
      3          6           0       -2.962268    1.007000    1.000384
      4          8           0       -3.464962   -0.662943   -0.672148
      5          8           0        1.345401    0.580067   -0.743865
      6          6           0        2.461425    1.438420   -0.569621
      7          8           0        0.053185   -1.106567    0.029290
      8          6           0        3.752831    0.639955   -0.496369
      9          6           0       -1.461407    0.732344    0.850114
     10          6           0        1.168987   -0.334362    0.314064
     11          6           0       -3.708019    0.676218   -0.281190
     12          6           0       -1.274597   -0.698915    0.352856
     13          6           0        2.376965   -1.245912    0.431412
     14          1           0        4.522775   -1.070022    0.586438
     15          1           0        3.641365    0.069213    1.574276
     16          1           0       -1.732366   -0.295723   -1.709912
     17          1           0       -2.030909   -1.962282   -1.220566
     18          1           0       -3.369527    0.410333    1.812480
     19          1           0       -3.124028    2.050698    1.251722
     20          1           0        2.321188    2.024248    0.336157
     21          1           0        2.455337    2.113434   -1.413980
     22          1           0        3.930188    0.162658   -1.457107
     23          1           0        4.581820    1.316676   -0.309506
     24          1           0       -1.035421    1.432816    0.139275
     25          1           0       -0.967327    0.882455    1.802809
     26          1           0        1.030628    0.223733    1.231597
     27          1           0       -4.777569    0.766581   -0.150154
     28          1           0       -3.402735    1.341006   -1.086049
     29          1           0       -1.625541   -1.377797    1.122820
     30          1           0        2.436985   -1.850437   -0.469837
     31          1           0        2.232852   -1.915153    1.273514
 ---------------------------------------------------------------------
 Rotational constants (GHZ):           2.0406664           0.3808560           0.3620435
 Standard basis: 6-311++G(2d,2p) (5D, 7F)
 There are   557 symmetry adapted cartesian basis functions of A   symmetry.
 There are   531 symmetry adapted basis functions of A   symmetry.
   531 basis functions,   762 primitive gaussians,   557 cartesian basis functions
    51 alpha electrons       51 beta electrons
       nuclear repulsion energy       885.5956047412 Hartrees.
 NAtoms=   31 NActive=   31 NUniq=   31 SFac= 1.00D+00 NAtFMM=   60 NAOKFM=F Big=F
 Integral buffers will be    131072 words long.
 Raffenetti 2 integral format.
 Two-electron integral symmetry is turned on.
 ------------------------------------------------------------------------------
 Polarizable Continuum Model (PCM)
 =================================
 Model                : PCM.
 Atomic radii         : SMD-Coulomb.
 Polarization charges : Total charges.
 Charge compensation  : None.
 Solution method      : On-the-fly selection.
 Cavity type          : VdW (van der Waals Surface) (Alpha=1.000).
 Cavity algorithm     : GePol (No added spheres)
                        Default sphere list used, NSphG=   31.
                        Lebedev-Laikov grids with approx.  5.0 points / Ang**2.
                        Smoothing algorithm: York/Karplus (Gamma=1.0000).
                        Polarization charges: spherical gaussians, with
                                              point-specific exponents (IZeta= 3).
                        Self-potential: point-specific (ISelfS= 7).
                        Self-field    : sphere-specific E.n sum rule (ISelfD= 2).
 1st derivatives      : Analytical E(r).r(x)/FMM algorithm (CHGder, D1EAlg=3).
                        Cavity 1st derivative terms included.
 Solvent              : Water, Eps=  78.355300 Eps(inf)=   1.777849
 ------------------------------------------------------------------------------
 ------------------------------------------------------------------------------
 Atomic radii for non-electrostatic terms: SMD-CDS.
 ------------------------------------------------------------------------------
 Nuclear repulsion after PCM non-electrostatic terms =      885.6019948310 Hartrees.
 One-electron integrals computed using PRISM.
 NBasis=   531 RedAO= T EigKep=  4.10D-06  NBF=   531
 NBsUse=   531 1.00D-06 EigRej= -1.00D+00 NBFU=   531
 ExpMin= 3.60D-02 ExpMax= 8.59D+03 ExpMxC= 1.30D+03 IAcc=3 IRadAn=         5 AccDes= 0.00D+00
 Harris functional with IExCor= 1009 and IRadAn=       5 diagonalized for initial guess.
 HarFok:  IExCor= 1009 AccDes= 0.00D+00 IRadAn=         5 IDoV= 1 UseB2=F ITyADJ=14
 ICtDFT=  3500011 ScaDFX=  1.000000  1.000000  1.000000  1.000000
 FoFCou: FMM=F IPFlag=           0 FMFlag=      100000 FMFlg1=           0
         NFxFlg=           0 DoJE=T BraDBF=F KetDBF=T FulRan=T
         wScrn=  0.000000 ICntrl=       500 IOpCl=  0 I1Cent=   200000004 NGrid=           0
         NMat0=    1 NMatS0=      1 NMatT0=    0 NMatD0=    1 NMtDS0=    0 NMtDT0=    0
 Petite list used in FoFCou.
 Requested convergence on RMS density matrix=1.00D-08 within 128 cycles.
 Requested convergence on MAX density matrix=1.00D-06.
 Requested convergence on             energy=1.00D-06.
 No special actions if energy rises.
 Inv3:  Mode=1 IEnd=    12108243.
 Iteration    1 A*A^-1 deviation from unit magnitude is 6.88D-15 for    225.
 Iteration    1 A*A^-1 deviation from orthogonality  is 5.28D-15 for   1687    225.
 Iteration    1 A^-1*A deviation from unit magnitude is 6.22D-15 for   1994.
 Iteration    1 A^-1*A deviation from orthogonality  is 2.19D-15 for   2006   1048.
 Error on total polarization charges =  0.06252
 SCF Done:  E(RM062X) =  -617.500875849     A.U. after   12 cycles
            NFock= 12  Conv=0.63D-08     -V/T= 2.0035
 SMD-CDS (non-electrostatic) energy       (kcal/mol) =       4.01
 (included in total energy above)

 **********************************************************************

            Population analysis using the SCF Density.

 **********************************************************************

 Orbital symmetries:
       Occupied  (A) (A) (A) (A) (A) (A) (A) (A) (A) (A) (A) (A)
                 (A) (A) (A) (A) (A) (A) (A) (A) (A) (A) (A) (A)
                 (A) (A) (A) (A) (A) (A) (A) (A) (A) (A) (A) (A)
                 (A) (A) (A) (A) (A) (A) (A) (A) (A) (A) (A) (A)
                 (A) (A) (A)
       Virtual   (A) (A) (A) (A) (A) (A) (A) (A) (A) (A) (A) (A)
                 (A) (A) (A) (A) (A) (A) (A) (A) (A) (A) (A) (A)
                 (A) (A) (A) (A) (A) (A) (A) (A) (A) (A) (A) (A)
                 (A) (A) (A) (A) (A) (A) (A) (A) (A) (A) (A) (A)
                 (A) (A) (A) (A) (A) (A) (A) (A) (A) (A) (A) (A)
                 (A) (A) (A) (A) (A) (A) (A) (A) (A) (A) (A) (A)
                 (A) (A) (A) (A) (A) (A) (A) (A) (A) (A) (A) (A)
                 (A) (A) (A) (A) (A) (A) (A) (A) (A) (A) (A) (A)
                 (A) (A) (A) (A) (A) (A) (A) (A) (A) (A) (A) (A)
                 (A) (A) (A) (A) (A) (A) (A) (A) (A) (A) (A) (A)
                 (A) (A) (A) (A) (A) (A) (A) (A) (A) (A) (A) (A)
                 (A) (A) (A) (A) (A) (A) (A) (A) (A) (A) (A) (A)
                 (A) (A) (A) (A) (A) (A) (A) (A) (A) (A) (A) (A)
                 (A) (A) (A) (A) (A) (A) (A) (A) (A) (A) (A) (A)
                 (A) (A) (A) (A) (A) (A) (A) (A) (A) (A) (A) (A)
                 (A) (A) (A) (A) (A) (A) (A) (A) (A) (A) (A) (A)
                 (A) (A) (A) (A) (A) (A) (A) (A) (A) (A) (A) (A)
                 (A) (A) (A) (A) (A) (A) (A) (A) (A) (A) (A) (A)
                 (A) (A) (A) (A) (A) (A) (A) (A) (A) (A) (A) (A)
                 (A) (A) (A) (A) (A) (A) (A) (A) (A) (A) (A) (A)
                 (A) (A) (A) (A) (A) (A) (A) (A) (A) (A) (A) (A)
                 (A) (A) (A) (A) (A) (A) (A) (A) (A) (A) (A) (A)
                 (A) (A) (A) (A) (A) (A) (A) (A) (A) (A) (A) (A)
                 (A) (A) (A) (A) (A) (A) (A) (A) (A) (A) (A) (A)
                 (A) (A) (A) (A) (A) (A) (A) (A) (A) (A) (A) (A)
                 (A) (A) (A) (A) (A) (A) (A) (A) (A) (A) (A) (A)
                 (A) (A) (A) (A) (A) (A) (A) (A) (A) (A) (A) (A)
                 (A) (A) (A) (A) (A) (A) (A) (A) (A) (A) (A) (A)
                 (A) (A) (A) (A) (A) (A) (A) (A) (A) (A) (A) (A)
                 (A) (A) (A) (A) (A) (A) (A) (A) (A) (A) (A) (A)
                 (A) (A) (A) (A) (A) (A) (A) (A) (A) (A) (A) (A)
                 (A) (A) (A) (A) (A) (A) (A) (A) (A) (A) (A) (A)
                 (A) (A) (A) (A) (A) (A) (A) (A) (A) (A) (A) (A)
                 (A) (A) (A) (A) (A) (A) (A) (A) (A) (A) (A) (A)
                 (A) (A) (A) (A) (A) (A) (A) (A) (A) (A) (A) (A)
                 (A) (A) (A) (A) (A) (A) (A) (A) (A) (A) (A) (A)
                 (A) (A) (A) (A) (A) (A) (A) (A) (A) (A) (A) (A)
                 (A) (A) (A) (A) (A) (A) (A) (A) (A) (A) (A) (A)
                 (A) (A) (A) (A) (A) (A) (A) (A) (A) (A) (A) (A)
                 (A) (A) (A) (A) (A) (A) (A) (A) (A) (A) (A) (A)
 The electronic state is 1-A.
 Alpha  occ. eigenvalues --  -19.63389 -19.62938 -19.62692 -10.63121 -10.58489
 Alpha  occ. eigenvalues --  -10.57282 -10.57279 -10.57212 -10.52682 -10.52531
 Alpha  occ. eigenvalues --  -10.52404 -10.52229 -10.52093  -1.20213  -1.16782
 Alpha  occ. eigenvalues --   -1.13897  -0.90494  -0.89329  -0.87344  -0.83804
 Alpha  occ. eigenvalues --   -0.75170  -0.73487  -0.72840  -0.69638  -0.65448
 Alpha  occ. eigenvalues --   -0.65012  -0.59748  -0.57891  -0.56421  -0.56003
 Alpha  occ. eigenvalues --   -0.54743  -0.52493  -0.52456  -0.50958  -0.50033
 Alpha  occ. eigenvalues --   -0.47960  -0.46242  -0.45719  -0.45344  -0.44666
 Alpha  occ. eigenvalues --   -0.43569  -0.40911  -0.40174  -0.39928  -0.39179
 Alpha  occ. eigenvalues --   -0.38434  -0.37300  -0.36417  -0.35327  -0.32255
 Alpha  occ. eigenvalues --   -0.31988
 Alpha virt. eigenvalues --    0.00430   0.01264   0.01368   0.01477   0.02628
 Alpha virt. eigenvalues --    0.02893   0.03043   0.03837   0.04085   0.04805
 Alpha virt. eigenvalues --    0.05073   0.05421   0.06022   0.06162   0.07261
 Alpha virt. eigenvalues --    0.07415   0.07937   0.08584   0.09519   0.09812
 Alpha virt. eigenvalues --    0.10809   0.10962   0.11337   0.11699   0.12444
 Alpha virt. eigenvalues --    0.12764   0.13031   0.13310   0.13673   0.13945
 Alpha virt. eigenvalues --    0.14031   0.14847   0.15039   0.15281   0.15425
 Alpha virt. eigenvalues --    0.15724   0.15813   0.16389   0.16630   0.16672
 Alpha virt. eigenvalues --    0.17039   0.17481   0.17710   0.17884   0.18020
 Alpha virt. eigenvalues --    0.18165   0.18842   0.19726   0.19785   0.20067
 Alpha virt. eigenvalues --    0.20408   0.20468   0.20931   0.21347   0.21780
 Alpha virt. eigenvalues --    0.22071   0.22953   0.23342   0.23914   0.24859
 Alpha virt. eigenvalues --    0.25602   0.26320   0.26872   0.27241   0.27729
 Alpha virt. eigenvalues --    0.28121   0.28686   0.28810   0.29303   0.29755
 Alpha virt. eigenvalues --    0.30459   0.31027   0.31447   0.31562   0.32008
 Alpha virt. eigenvalues --    0.32488   0.32865   0.33902   0.34299   0.34766
 Alpha virt. eigenvalues --    0.35210   0.35599   0.35902   0.36181   0.36833
 Alpha virt. eigenvalues --    0.37020   0.37607   0.38083   0.38215   0.38669
 Alpha virt. eigenvalues --    0.38918   0.39073   0.40024   0.40326   0.41114
 Alpha virt. eigenvalues --    0.41649   0.42002   0.42567   0.44426   0.44666
 Alpha virt. eigenvalues --    0.45681   0.48677   0.49338   0.50134   0.50903
 Alpha virt. eigenvalues --    0.53293   0.53779   0.54911   0.55649   0.55796
 Alpha virt. eigenvalues --    0.56937   0.57180   0.58605   0.59035   0.60001
 Alpha virt. eigenvalues --    0.60383   0.60541   0.61461   0.61521   0.62213
 Alpha virt. eigenvalues --    0.62906   0.63263   0.63943   0.64356   0.64421
 Alpha virt. eigenvalues --    0.64710   0.65140   0.65884   0.66247   0.67092
 Alpha virt. eigenvalues --    0.68364   0.68663   0.69883   0.70567   0.71910
 Alpha virt. eigenvalues --    0.72120   0.72226   0.73056   0.73318   0.74088
 Alpha virt. eigenvalues --    0.74386   0.74992   0.75493   0.76040   0.76556
 Alpha virt. eigenvalues --    0.77094   0.77421   0.78018   0.78733   0.79686
 Alpha virt. eigenvalues --    0.80128   0.82065   0.84106   0.84949   0.85767
 Alpha virt. eigenvalues --    0.86295   0.86806   0.89562   0.90371   0.91233
 Alpha virt. eigenvalues --    0.91863   0.92551   0.93776   0.94557   0.96504
 Alpha virt. eigenvalues --    0.97418   0.97748   1.00236   1.01448   1.03303
 Alpha virt. eigenvalues --    1.03916   1.04493   1.05055   1.06994   1.07787
 Alpha virt. eigenvalues --    1.08630   1.09115   1.09744   1.10548   1.11576
 Alpha virt. eigenvalues --    1.12638   1.13736   1.14551   1.15494   1.16566
 Alpha virt. eigenvalues --    1.17644   1.18451   1.18655   1.19892   1.20526
 Alpha virt. eigenvalues --    1.21504   1.22252   1.22559   1.23471   1.24112
 Alpha virt. eigenvalues --    1.24949   1.25404   1.25989   1.27173   1.27697
 Alpha virt. eigenvalues --    1.28624   1.29286   1.30322   1.31084   1.31403
 Alpha virt. eigenvalues --    1.32167   1.32621   1.33196   1.33631   1.34748
 Alpha virt. eigenvalues --    1.35621   1.35944   1.37235   1.37990   1.38437
 Alpha virt. eigenvalues --    1.39240   1.39588   1.40875   1.41293   1.41916
 Alpha virt. eigenvalues --    1.42667   1.43137   1.43426   1.44455   1.45427
 Alpha virt. eigenvalues --    1.46201   1.46417   1.47246   1.48574   1.49293
 Alpha virt. eigenvalues --    1.50090   1.50353   1.50553   1.51277   1.52610
 Alpha virt. eigenvalues --    1.53474   1.54346   1.54537   1.55216   1.55765
 Alpha virt. eigenvalues --    1.55993   1.56778   1.57887   1.58897   1.59484
 Alpha virt. eigenvalues --    1.60478   1.61282   1.61537   1.61890   1.63668
 Alpha virt. eigenvalues --    1.64324   1.65316   1.66149   1.66370   1.67796
 Alpha virt. eigenvalues --    1.68385   1.68850   1.69934   1.69998   1.71685
 Alpha virt. eigenvalues --    1.74266   1.74633   1.76504   1.77558   1.78458
 Alpha virt. eigenvalues --    1.79411   1.80274   1.81262   1.82774   1.84210
 Alpha virt. eigenvalues --    1.87052   1.88775   1.91204   1.95002   1.96845
 Alpha virt. eigenvalues --    1.98446   2.07272   2.13990   2.17760   2.19723
 Alpha virt. eigenvalues --    2.22110   2.26770   2.33982   2.34240   2.36529
 Alpha virt. eigenvalues --    2.40166   2.43060   2.46636   2.51106   2.52657
 Alpha virt. eigenvalues --    2.57630   2.76309   2.77498   2.79379   2.81199
 Alpha virt. eigenvalues --    2.88395   2.89308   2.92877   2.94143   2.95234
 Alpha virt. eigenvalues --    2.96763   2.98968   3.02325   3.03482   3.04870
 Alpha virt. eigenvalues --    3.07601   3.08337   3.08960   3.11378   3.12852
 Alpha virt. eigenvalues --    3.13240   3.15040   3.17304   3.19252   3.22080
 Alpha virt. eigenvalues --    3.25768   3.27362   3.31809   3.34347   3.35642
 Alpha virt. eigenvalues --    3.36280   3.37304   3.38895   3.40907   3.41333
 Alpha virt. eigenvalues --    3.42993   3.44256   3.45790   3.46553   3.46912
 Alpha virt. eigenvalues --    3.48584   3.49240   3.50279   3.51864   3.52459
 Alpha virt. eigenvalues --    3.53421   3.54190   3.55243   3.56583   3.57106
 Alpha virt. eigenvalues --    3.57842   3.58083   3.58656   3.59881   3.60093
 Alpha virt. eigenvalues --    3.60930   3.61481   3.63155   3.63790   3.65129
 Alpha virt. eigenvalues --    3.66433   3.67627   3.68111   3.68873   3.70313
 Alpha virt. eigenvalues --    3.71760   3.72113   3.72556   3.74158   3.74609
 Alpha virt. eigenvalues --    3.75572   3.76006   3.76450   3.77683   3.78619
 Alpha virt. eigenvalues --    3.78782   3.80362   3.81394   3.82421   3.84862
 Alpha virt. eigenvalues --    3.85961   3.87231   3.88668   3.90340   3.91054
 Alpha virt. eigenvalues --    3.91448   3.94494   3.96251   3.97229   3.98476
 Alpha virt. eigenvalues --    4.00244   4.03329   4.03796   4.04517   4.05062
 Alpha virt. eigenvalues --    4.05759   4.06406   4.07418   4.07835   4.07874
 Alpha virt. eigenvalues --    4.09563   4.10090   4.10284   4.12289   4.12617
 Alpha virt. eigenvalues --    4.13112   4.13597   4.13792   4.15469   4.16325
 Alpha virt. eigenvalues --    4.17213   4.19279   4.20360   4.20686   4.21189
 Alpha virt. eigenvalues --    4.22702   4.23263   4.24018   4.26435   4.27296
 Alpha virt. eigenvalues --    4.28448   4.29528   4.31559   4.32690   4.34131
 Alpha virt. eigenvalues --    4.35345   4.35908   4.36540   4.39108   4.39396
 Alpha virt. eigenvalues --    4.41884   4.43914   4.45636   4.48751   4.57129
 Alpha virt. eigenvalues --    4.60403   4.62641   4.76088   4.77373   4.84056
 Alpha virt. eigenvalues --    4.89120   4.92501   4.93599   4.99887   5.00729
 Alpha virt. eigenvalues --    5.06740   5.07594   5.08392   5.09205   5.12607
 Alpha virt. eigenvalues --    5.12835   5.14537   5.15871   5.29815   5.36208
 Alpha virt. eigenvalues --    5.38324   5.55952   5.58418   5.64077   5.86749
 Alpha virt. eigenvalues --    5.89440   6.02965   7.01746   7.04878   7.06264
 Alpha virt. eigenvalues --    7.09006   7.10634   7.12595   7.13802   7.17636
 Alpha virt. eigenvalues --    7.26128   7.36112   7.41791   7.45957   7.52579
 Alpha virt. eigenvalues --    7.55071   7.60443  23.96278  23.97341  24.06635
 Alpha virt. eigenvalues --   24.07580  24.11250  24.12561  24.14563  24.16825
 Alpha virt. eigenvalues --   24.18024  24.19602  50.17669  50.18523  50.24892
          Condensed to atoms (all electrons):
               1          2          3          4          5          6
     1  C    5.638456   0.013063   0.007599  -0.000307   0.023422  -0.019582
     2  C    0.013063   6.095003   0.266337   0.124625  -0.038581  -0.001728
     3  C    0.007599   0.266337   7.190873  -0.019227  -0.060542   0.026644
     4  O   -0.000307   0.124625  -0.019227   8.446240   0.000648   0.000166
     5  O    0.023422  -0.038581  -0.060542   0.000648   8.390498  -0.014607
     6  C   -0.019582  -0.001728   0.026644   0.000166  -0.014607   5.483505
     7  O    0.037861  -0.116726   0.028840  -0.000788   0.008336   0.007396
     8  C   -0.030832  -0.009026  -0.014512   0.000109  -0.035767  -0.052580
     9  C   -0.012274   0.336346  -1.178952  -0.035366  -0.037894   0.033521
    10  C    0.042985   0.183894  -0.364046  -0.006189   0.323763   0.024829
    11  C   -0.000025  -0.268071  -0.101553   0.095886   0.002707  -0.001655
    12  C   -0.041338  -0.850446   0.058073   0.000273   0.004683   0.005220
    13  C   -0.090073  -0.152740  -0.162664   0.002734  -0.015753  -0.207330
    14  H    0.429333  -0.000550  -0.000744  -0.000004  -0.002667   0.004882
    15  H    0.527348   0.000339   0.002347   0.000007  -0.000683  -0.004900
    16  H   -0.000870   0.356083   0.030307  -0.033588  -0.002634  -0.001492
    17  H   -0.000746   0.477051  -0.012465  -0.069534   0.002040  -0.000114
    18  H   -0.000242   0.002640   0.467993  -0.004577  -0.000186   0.000079
    19  H   -0.000358   0.004181   0.455202   0.008023  -0.000177   0.000174
    20  H    0.002492   0.002127   0.002027  -0.000046  -0.031082   0.483892
    21  H    0.008588   0.003903   0.001999   0.000012  -0.070086   0.435306
    22  H   -0.011800  -0.000691   0.000155  -0.000002  -0.002720  -0.064394
    23  H   -0.051948   0.000316   0.000287  -0.000003   0.007201  -0.044744
    24  H   -0.003958  -0.073474  -0.064207  -0.003502   0.003755   0.015964
    25  H    0.007099   0.024440   0.070177  -0.002151  -0.001795  -0.003222
    26  H   -0.044257  -0.019984  -0.040162   0.000620  -0.055185   0.019486
    27  H    0.000063   0.014534  -0.015688  -0.069247  -0.000200   0.000133
    28  H    0.000156  -0.021220  -0.038965  -0.041930   0.000493  -0.000633
    29  H   -0.004251  -0.121207  -0.019600   0.003656   0.001521   0.002367
    30  H   -0.011406   0.004089  -0.000043   0.000212  -0.010310   0.003944
    31  H   -0.025664   0.006413   0.001568  -0.000067   0.006836  -0.001306
               7          8          9         10         11         12
     1  C    0.037861  -0.030832  -0.012274   0.042985  -0.000025  -0.041338
     2  C   -0.116726  -0.009026   0.336346   0.183894  -0.268071  -0.850446
     3  C    0.028840  -0.014512  -1.178952  -0.364046  -0.101553   0.058073
     4  O   -0.000788   0.000109  -0.035366  -0.006189   0.095886   0.000273
     5  O    0.008336  -0.035767  -0.037894   0.323763   0.002707   0.004683
     6  C    0.007396  -0.052580   0.033521   0.024829  -0.001655   0.005220
     7  O    8.464117   0.003562   0.015572   0.207802   0.002452   0.147931
     8  C    0.003562   5.727053  -0.018333  -0.097545   0.000389   0.006597
     9  C    0.015572  -0.018333   7.261376   0.540612   0.050295  -1.045790
    10  C    0.207802  -0.097545   0.540612   7.245901   0.011086  -0.722221
    11  C    0.002452   0.000389   0.050295   0.011086   5.471854   0.152487
    12  C    0.147931   0.006597  -1.045790  -0.722221   0.152487   7.534216
    13  C   -0.330203   0.205373  -0.331832  -1.768776   0.010840   0.157984
    14  H   -0.002373  -0.025505  -0.003976   0.015288   0.000124  -0.002342
    15  H    0.000279  -0.076038   0.003286   0.009875  -0.000334   0.004903
    16  H    0.005136   0.003164  -0.062991  -0.045926  -0.006255   0.092009
    17  H   -0.002947   0.000003   0.031035   0.022680  -0.000389  -0.095006
    18  H    0.001305   0.000136  -0.015765  -0.003546  -0.079840  -0.006456
    19  H   -0.001340   0.000309  -0.051362  -0.003018  -0.034907   0.002129
    20  H    0.003290  -0.071724   0.004874  -0.030160  -0.000237  -0.000103
    21  H   -0.002373  -0.035968   0.004167   0.012530  -0.000712  -0.007141
    22  H    0.002092   0.468314  -0.000723  -0.011764  -0.000078   0.004084
    23  H    0.000401   0.460536   0.001818   0.022060   0.000063  -0.001177
    24  H    0.001293  -0.013529   0.414053  -0.027874   0.017686   0.073855
    25  H   -0.007786  -0.001007   0.352626   0.003498  -0.016912  -0.027365
    26  H   -0.020229   0.024265   0.028577   0.469032   0.010943   0.017845
    27  H    0.000478  -0.000106  -0.011671  -0.004486   0.425973   0.001413
    28  H   -0.000316   0.000643  -0.016115   0.001259   0.450608   0.025270
    29  H   -0.055348   0.000648  -0.032582  -0.061073   0.013472   0.549807
    30  H    0.003678  -0.023399   0.007248  -0.083529  -0.000343  -0.001311
    31  H   -0.000099   0.002975   0.003846   0.002851  -0.000488  -0.018973
              13         14         15         16         17         18
     1  C   -0.090073   0.429333   0.527348  -0.000870  -0.000746  -0.000242
     2  C   -0.152740  -0.000550   0.000339   0.356083   0.477051   0.002640
     3  C   -0.162664  -0.000744   0.002347   0.030307  -0.012465   0.467993
     4  O    0.002734  -0.000004   0.000007  -0.033588  -0.069534  -0.004577
     5  O   -0.015753  -0.002667  -0.000683  -0.002634   0.002040  -0.000186
     6  C   -0.207330   0.004882  -0.004900  -0.001492  -0.000114   0.000079
     7  O   -0.330203  -0.002373   0.000279   0.005136  -0.002947   0.001305
     8  C    0.205373  -0.025505  -0.076038   0.003164   0.000003   0.000136
     9  C   -0.331832  -0.003976   0.003286  -0.062991   0.031035  -0.015765
    10  C   -1.768776   0.015288   0.009875  -0.045926   0.022680  -0.003546
    11  C    0.010840   0.000124  -0.000334  -0.006255  -0.000389  -0.079840
    12  C    0.157984  -0.002342   0.004903   0.092009  -0.095006  -0.006456
    13  C    8.302190  -0.040581  -0.077490  -0.003705   0.001952  -0.000149
    14  H   -0.040581   0.458052  -0.002458  -0.000168   0.000061  -0.000019
    15  H   -0.077490  -0.002458   0.455732   0.000163  -0.000007   0.000003
    16  H   -0.003705  -0.000168   0.000163   0.489671  -0.023431   0.001601
    17  H    0.001952   0.000061  -0.000007  -0.023431   0.474566  -0.001199
    18  H   -0.000149  -0.000019   0.000003   0.001601  -0.001199   0.474087
    19  H   -0.001764  -0.000027   0.000025  -0.001344   0.001355  -0.011925
    20  H    0.006319  -0.001355   0.002368  -0.000116   0.000082  -0.000006
    21  H   -0.004216   0.000235  -0.001815  -0.000527   0.000066  -0.000028
    22  H   -0.009012  -0.000051   0.003424  -0.000034   0.000024   0.000005
    23  H   -0.016530  -0.009660  -0.006098   0.000083  -0.000042   0.000001
    24  H    0.004190   0.000326  -0.000720  -0.005273  -0.003005   0.000437
    25  H    0.005608   0.000147   0.001801  -0.001616   0.001798  -0.006823
    26  H   -0.066443  -0.002350  -0.016516  -0.000552  -0.001390   0.001397
    27  H   -0.000864   0.000002   0.000002  -0.002579   0.001430  -0.003070
    28  H    0.002012   0.000003  -0.000005   0.008376  -0.002263   0.001876
    29  H    0.017389  -0.000134   0.000375   0.009795  -0.014535  -0.002370
    30  H    0.480247  -0.003984   0.005707   0.000343  -0.001177  -0.000007
    31  H    0.405477  -0.010290  -0.006429  -0.000425   0.000779  -0.000003
              19         20         21         22         23         24
     1  C   -0.000358   0.002492   0.008588  -0.011800  -0.051948  -0.003958
     2  C    0.004181   0.002127   0.003903  -0.000691   0.000316  -0.073474
     3  C    0.455202   0.002027   0.001999   0.000155   0.000287  -0.064207
     4  O    0.008023  -0.000046   0.000012  -0.000002  -0.000003  -0.003502
     5  O   -0.000177  -0.031082  -0.070086  -0.002720   0.007201   0.003755
     6  C    0.000174   0.483892   0.435306  -0.064394  -0.044744   0.015964
     7  O   -0.001340   0.003290  -0.002373   0.002092   0.000401   0.001293
     8  C    0.000309  -0.071724  -0.035968   0.468314   0.460536  -0.013529
     9  C   -0.051362   0.004874   0.004167  -0.000723   0.001818   0.414053
    10  C   -0.003018  -0.030160   0.012530  -0.011764   0.022060  -0.027874
    11  C   -0.034907  -0.000237  -0.000712  -0.000078   0.000063   0.017686
    12  C    0.002129  -0.000103  -0.007141   0.004084  -0.001177   0.073855
    13  C   -0.001764   0.006319  -0.004216  -0.009012  -0.016530   0.004190
    14  H   -0.000027  -0.001355   0.000235  -0.000051  -0.009660   0.000326
    15  H    0.000025   0.002368  -0.001815   0.003424  -0.006098  -0.000720
    16  H   -0.001344  -0.000116  -0.000527  -0.000034   0.000083  -0.005273
    17  H    0.001355   0.000082   0.000066   0.000024  -0.000042  -0.003005
    18  H   -0.011925  -0.000006  -0.000028   0.000005   0.000001   0.000437
    19  H    0.484443  -0.000015   0.000049   0.000001   0.000005  -0.008729
    20  H   -0.000015   0.473082  -0.005611   0.003028   0.001067  -0.000049
    21  H    0.000049  -0.005611   0.475739  -0.002861  -0.010274  -0.002587
    22  H    0.000001   0.003028  -0.002861   0.469797  -0.010273   0.000187
    23  H    0.000005   0.001067  -0.010274  -0.010273   0.473107   0.000002
    24  H   -0.008729  -0.000049  -0.002587   0.000187   0.000002   0.454170
    25  H   -0.009008  -0.000140   0.000587   0.000149  -0.000449  -0.023551
    26  H   -0.000259  -0.008509  -0.001144  -0.002815   0.003257   0.008966
    27  H   -0.009976  -0.000029  -0.000010  -0.000002   0.000004   0.000109
    28  H    0.005214   0.000090  -0.000013   0.000005  -0.000010  -0.013031
    29  H   -0.000748   0.000053  -0.000110   0.000171  -0.000036   0.005195
    30  H    0.000015   0.000798  -0.000458   0.002537  -0.003044  -0.000773
    31  H    0.000000  -0.000094   0.001239  -0.002063   0.001506  -0.000906
              25         26         27         28         29         30
     1  C    0.007099  -0.044257   0.000063   0.000156  -0.004251  -0.011406
     2  C    0.024440  -0.019984   0.014534  -0.021220  -0.121207   0.004089
     3  C    0.070177  -0.040162  -0.015688  -0.038965  -0.019600  -0.000043
     4  O   -0.002151   0.000620  -0.069247  -0.041930   0.003656   0.000212
     5  O   -0.001795  -0.055185  -0.000200   0.000493   0.001521  -0.010310
     6  C   -0.003222   0.019486   0.000133  -0.000633   0.002367   0.003944
     7  O   -0.007786  -0.020229   0.000478  -0.000316  -0.055348   0.003678
     8  C   -0.001007   0.024265  -0.000106   0.000643   0.000648  -0.023399
     9  C    0.352626   0.028577  -0.011671  -0.016115  -0.032582   0.007248
    10  C    0.003498   0.469032  -0.004486   0.001259  -0.061073  -0.083529
    11  C   -0.016912   0.010943   0.425973   0.450608   0.013472  -0.000343
    12  C   -0.027365   0.017845   0.001413   0.025270   0.549807  -0.001311
    13  C    0.005608  -0.066443  -0.000864   0.002012   0.017389   0.480247
    14  H    0.000147  -0.002350   0.000002   0.000003  -0.000134  -0.003984
    15  H    0.001801  -0.016516   0.000002  -0.000005   0.000375   0.005707
    16  H   -0.001616  -0.000552  -0.002579   0.008376   0.009795   0.000343
    17  H    0.001798  -0.001390   0.001430  -0.002263  -0.014535  -0.001177
    18  H   -0.006823   0.001397  -0.003070   0.001876  -0.002370  -0.000007
    19  H   -0.009008  -0.000259  -0.009976   0.005214  -0.000748   0.000015
    20  H   -0.000140  -0.008509  -0.000029   0.000090   0.000053   0.000798
    21  H    0.000587  -0.001144  -0.000010  -0.000013  -0.000110  -0.000458
    22  H    0.000149  -0.002815  -0.000002   0.000005   0.000171   0.002537
    23  H   -0.000449   0.003257   0.000004  -0.000010  -0.000036  -0.003044
    24  H   -0.023551   0.008966   0.000109  -0.013031   0.005195  -0.000773
    25  H    0.467525  -0.009775   0.001210   0.000931  -0.007603   0.001190
    26  H   -0.009775   0.447057  -0.000110  -0.000776   0.001416  -0.010326
    27  H    0.001210  -0.000110   0.465138  -0.007191  -0.001321  -0.000024
    28  H    0.000931  -0.000776  -0.007191   0.485186   0.001400   0.000022
    29  H   -0.007603   0.001416  -0.001321   0.001400   0.457276   0.001620
    30  H    0.001190  -0.010326  -0.000024   0.000022   0.001620   0.460979
    31  H    0.000220   0.002246  -0.000009   0.000019  -0.002785  -0.018804
              31
     1  C   -0.025664
     2  C    0.006413
     3  C    0.001568
     4  O   -0.000067
     5  O    0.006836
     6  C   -0.001306
     7  O   -0.000099
     8  C    0.002975
     9  C    0.003846
    10  C    0.002851
    11  C   -0.000488
    12  C   -0.018973
    13  C    0.405477
    14  H   -0.010290
    15  H   -0.006429
    16  H   -0.000425
    17  H    0.000779
    18  H   -0.000003
    19  H    0.000000
    20  H   -0.000094
    21  H    0.001239
    22  H   -0.002063
    23  H    0.001506
    24  H   -0.000906
    25  H    0.000220
    26  H    0.002246
    27  H   -0.000009
    28  H    0.000019
    29  H   -0.002785
    30  H   -0.018804
    31  H    0.473378
 Mulliken charges:
               1
     1  C   -0.388533
     2  C   -0.240938
     3  C   -0.517057
     4  O   -0.396680
     5  O   -0.395035
     6  C   -0.129222
     7  O   -0.401291
     8  C   -0.398205
     9  C   -0.233626
    10  C    0.090210
    11  C   -0.205066
    12  C   -0.019112
    13  C   -0.322186
    14  H    0.200784
    15  H    0.175508
    16  H    0.196798
    17  H    0.213327
    18  H    0.184651
    19  H    0.173834
    20  H    0.163684
    21  H    0.201515
    22  H    0.165309
    23  H    0.182576
    24  H    0.244980
    25  H    0.180195
    26  H    0.265677
    27  H    0.216093
    28  H    0.158906
    29  H    0.257544
    30  H    0.196311
    31  H    0.179051
 Sum of Mulliken charges =  -0.00000
 Mulliken charges with hydrogens summed into heavy atoms:
               1
     1  C   -0.012241
     2  C    0.169187
     3  C   -0.158573
     4  O   -0.396680
     5  O   -0.395035
     6  C    0.235977
     7  O   -0.401291
     8  C   -0.050319
     9  C    0.191548
    10  C    0.355886
    11  C    0.169934
    12  C    0.238431
    13  C    0.053175
 Electronic spatial extent (au):  <R**2>=           3217.2449
 Charge=             -0.0000 electrons
 Dipole moment (field-independent basis, Debye):
    X=              2.5715    Y=              3.2383    Z=              3.0475  Tot=              5.1368
 Quadrupole moment (field-independent basis, Debye-Ang):
   XX=            -75.7992   YY=            -79.0081   ZZ=            -79.4062
   XY=             -5.1242   XZ=             -2.0490   YZ=             -0.7939
 Traceless Quadrupole moment (field-independent basis, Debye-Ang):
   XX=              2.2720   YY=             -0.9369   ZZ=             -1.3350
   XY=             -5.1242   XZ=             -2.0490   YZ=             -0.7939
 Octapole moment (field-independent basis, Debye-Ang**2):
  XXX=             45.9589  YYY=              4.6186  ZZZ=              0.4419  XYY=              2.8730
  XXY=             33.6748  XXZ=             13.0177  XZZ=             -1.1627  YZZ=              0.1678
  YYZ=             -2.1366  XYZ=              0.9012
 Hexadecapole moment (field-independent basis, Debye-Ang**3):
 XXXX=          -3385.5903 YYYY=           -524.1766 ZZZZ=           -347.0530 XXXY=            -99.1631
 XXXZ=            -60.1160 YYYX=             14.6138 YYYZ=             -1.0158 ZZZX=             -0.6996
 ZZZY=             -3.9839 XXYY=           -636.3174 XXZZ=           -633.4716 YYZZ=           -139.2935
 XXYZ=            -16.9906 YYXZ=             -3.6252 ZZXY=              2.9665
 N-N= 8.856019948310D+02 E-N=-3.213304634526D+03  KE= 6.153571133799D+02
 D1PCM: PCM CHGder 1st derivatives, ID1Alg=3 FixD1E=F DoIter=F DoCFld=F I1PDM=0.
 Calling FoFJK, ICntrl=      2127 FMM=F ISym2X=0 I1Cent= 0 IOpClX= 0 NMat=1 NMatS=1 NMatT=0.
 ***** Axes restored to original set *****
 -------------------------------------------------------------------
 Center     Atomic                   Forces (Hartrees/Bohr)
 Number     Number              X              Y              Z
 -------------------------------------------------------------------
      1        6           0.002762593   -0.000940312   -0.003035536
      2        6          -0.001733522   -0.003033940    0.004928904
      3        6          -0.001611102    0.000035270   -0.002865777
      4        8           0.008822826    0.008516091   -0.001005252
      5        8           0.007638704   -0.002174785   -0.011514428
      6        6          -0.005113727    0.003914401    0.001887294
      7        8          -0.001592847    0.009824601   -0.006362270
      8        6           0.001934787    0.000193904    0.002758616
      9        6           0.002913490    0.003895853   -0.001242249
     10        6          -0.004668510    0.003060486    0.003680925
     11        6          -0.005239023   -0.001634627    0.004907185
     12        6           0.000465899   -0.007744588   -0.000452357
     13        6          -0.001173171   -0.003094283    0.001686779
     14        1          -0.002039773    0.001688627   -0.000166730
     15        1           0.000759320   -0.001823180    0.002711502
     16        1          -0.003519230   -0.004262379   -0.003567264
     17        1          -0.000910527    0.004830635   -0.001029899
     18        1           0.001125731    0.002483624    0.002036438
     19        1           0.000345567   -0.002854133    0.000621947
     20        1          -0.000031689   -0.002586668    0.005127807
     21        1          -0.000206661   -0.002858279   -0.003583995
     22        1           0.000249416    0.001652809   -0.002907545
     23        1          -0.002030744   -0.001748649    0.000664000
     24        1          -0.002156549   -0.002257746   -0.004044648
     25        1          -0.001995481   -0.000003653    0.003143834
     26        1           0.000391458   -0.004816310    0.007568848
     27        1           0.004432224   -0.000350745    0.000838080
     28        1          -0.002356741   -0.003845704   -0.003560682
     29        1           0.003354633    0.003014525    0.003951942
     30        1           0.000466045    0.001220095   -0.003713334
     31        1           0.000716604    0.001699062    0.002537864
 -------------------------------------------------------------------
 Cartesian Forces:  Max     0.011514428 RMS     0.003624446

 GradGradGradGradGradGradGradGradGradGradGradGradGradGradGradGradGradGrad
 Berny optimization.
 FormGI is forming the generalized inverse of G from B-inverse, IUseBI=4.
 Internal  Forces:  Max     0.015799334 RMS     0.002349172
 Search for a local minimum.
 Step number   1 out of a maximum of  186
 All quantities printed in internal units (Hartrees-Bohrs-Radians)
 Mixed Optimization -- RFO/linear search
 Second derivative matrix not updated -- first step.
 ITU=  0
     Eigenvalues ---    0.00612   0.00628   0.00738   0.00752   0.01449
     Eigenvalues ---    0.01488   0.01870   0.02649   0.02740   0.03109
     Eigenvalues ---    0.03184   0.03944   0.04166   0.04499   0.04773
     Eigenvalues ---    0.04856   0.04928   0.05150   0.05156   0.05185
     Eigenvalues ---    0.05383   0.05718   0.05750   0.06159   0.06194
     Eigenvalues ---    0.06316   0.06410   0.06607   0.07654   0.07697
     Eigenvalues ---    0.07943   0.07964   0.07983   0.08074   0.08090
     Eigenvalues ---    0.08737   0.09349   0.09887   0.10872   0.11473
     Eigenvalues ---    0.11621   0.11693   0.11716   0.12323   0.12491
     Eigenvalues ---    0.14454   0.14637   0.16358   0.16694   0.17740
     Eigenvalues ---    0.19126   0.21421   0.21850   0.25000   0.28404
     Eigenvalues ---    0.28572   0.28622   0.28782   0.28959   0.28998
     Eigenvalues ---    0.30231   0.30470   0.35025   0.35069   0.35088
     Eigenvalues ---    0.35103   0.35123   0.35172   0.35176   0.35241
     Eigenvalues ---    0.35320   0.35357   0.35366   0.35386   0.35415
     Eigenvalues ---    0.35558   0.35657   0.35834   0.35848   0.35870
     Eigenvalues ---    0.41191   0.41497   0.41549   0.42495   0.42526
     Eigenvalues ---    0.479311000.000001000.000001000.000001000.00000
     Eigenvalues --- 1000.000001000.000001000.000001000.000001000.00000
     Eigenvalues --- 1000.000001000.000001000.000001000.000001000.00000
     Eigenvalues --- 1000.000001000.000001000.000001000.000001000.00000
     Eigenvalues --- 1000.000001000.000001000.000001000.000001000.00000
     Eigenvalues --- 1000.000001000.000001000.000001000.000001000.00000
     Eigenvalues --- 1000.000001000.000001000.000001000.000001000.00000
     Eigenvalues --- 1000.000001000.000001000.000001000.000001000.00000
     Eigenvalues --- 1000.000001000.000001000.000001000.000001000.00000
     Eigenvalues --- 1000.000001000.000001000.000001000.000001000.00000
     Eigenvalues --- 1000.000001000.000001000.000001000.000001000.00000
     Eigenvalues --- 1000.000001000.000001000.000001000.000001000.00000
     Eigenvalues --- 1000.000001000.000001000.000001000.000001000.00000
     Eigenvalues --- 1000.000001000.000001000.000001000.000001000.00000
     Eigenvalues --- 1000.000001000.000001000.000001000.000001000.00000
     Eigenvalues --- 1000.000001000.000001000.000001000.000001000.00000
     Eigenvalues --- 1000.000001000.000001000.000001000.000001000.00000
     Eigenvalues --- 1000.000001000.000001000.000001000.000001000.00000
     Eigenvalues --- 1000.000001000.000001000.000001000.000001000.00000
     Eigenvalues --- 1000.000001000.000001000.000001000.000001000.00000
 RFO step:  Lambda=-3.71831602D-03 EMin= 6.11811787D-03
 Linear search not attempted -- first point.
 Iteration  1 RMS(Cart)=  0.07192185 RMS(Int)=  0.00102401
 Iteration  2 RMS(Cart)=  0.00292838 RMS(Int)=  0.00003787
 Iteration  3 RMS(Cart)=  0.00000145 RMS(Int)=  0.00003786
 Iteration  4 RMS(Cart)=  0.00000000 RMS(Int)=  0.00003786
 Iteration  1 RMS(Cart)=  0.00002541 RMS(Int)=  0.00000602
 Iteration  2 RMS(Cart)=  0.00001397 RMS(Int)=  0.00000672
 Iteration  3 RMS(Cart)=  0.00000768 RMS(Int)=  0.00000760
 Iteration  4 RMS(Cart)=  0.00000422 RMS(Int)=  0.00000819
 Iteration  5 RMS(Cart)=  0.00000232 RMS(Int)=  0.00000853
 Iteration  6 RMS(Cart)=  0.00000128 RMS(Int)=  0.00000873
 Iteration  7 RMS(Cart)=  0.00000070 RMS(Int)=  0.00000884
 Variable       Old X    -DE/DX   Delta X   Delta X   Delta X     New X
                                 (Linear)    (Quad)   (Total)
    R1        2.88965  -0.00073   0.00000  -0.00356  -0.00358   2.88607
    R2        2.89309  -0.00104   0.00000  -0.00388  -0.00391   2.88918
    R3        2.05099   0.00265   0.00000   0.00740   0.00740   2.05839
    R4        2.05635   0.00325   0.00000   0.00919   0.00919   2.06554
    R5        2.66373   0.00596   0.00000   0.01403   0.01406   2.67779
    R6        2.88056  -0.00070   0.00000  -0.00216  -0.00213   2.87843
    R7        2.05508   0.00631   0.00000   0.01779   0.01779   2.07287
    R8        2.04319   0.00497   0.00000   0.01373   0.01373   2.05692
    R9        2.89727  -0.00094   0.00000  -0.00410  -0.00412   2.89314
   R10        2.87089  -0.00068   0.00000  -0.00233  -0.00235   2.86854
   R11        2.05396   0.00331   0.00000   0.00931   0.00931   2.06327
   R12        2.05159   0.00294   0.00000   0.00823   0.00823   2.05981
   R13        2.67600   0.00647   0.00000   0.01511   0.01512   2.69112
   R14        2.68091   0.00584   0.00000   0.01386   0.01389   2.69479
   R15        2.66345   0.00841   0.00000   0.01968   0.01971   2.68316
   R16        2.87253  -0.00063   0.00000  -0.00222  -0.00222   2.87031
   R17        2.05563   0.00566   0.00000   0.01597   0.01597   2.07160
   R18        2.04285   0.00458   0.00000   0.01265   0.01265   2.05550
   R19        2.62012   0.00475   0.00000   0.00982   0.00982   2.62995
   R20        2.69502   0.00331   0.00000   0.00790   0.00790   2.70292
   R21        2.05475   0.00325   0.00000   0.00916   0.00916   2.06391
   R22        2.05285   0.00276   0.00000   0.00774   0.00774   2.06058
   R23        2.88495  -0.00300   0.00000  -0.01023  -0.01024   2.87471
   R24        2.05052   0.00495   0.00000   0.01385   0.01385   2.06437
   R25        2.04778   0.00367   0.00000   0.01022   0.01022   2.05801
   R26        2.86834  -0.00131   0.00000  -0.00398  -0.00398   2.86437
   R27        2.04622   0.00895   0.00000   0.02483   0.02483   2.07105
   R28        2.04342   0.00451   0.00000   0.01247   0.01247   2.05589
   R29        2.05532   0.00565   0.00000   0.01592   0.01592   2.07124
   R30        2.05006   0.00578   0.00000   0.01614   0.01614   2.06620
   R31        2.05390   0.00373   0.00000   0.01049   0.01049   2.06439
   R32        2.05084   0.00311   0.00000   0.00871   0.00871   2.05955
    A1        1.92596   0.00206   0.00000  -0.00056  -0.00062   1.92534
    A2        1.93202  -0.00051   0.00000   0.00066   0.00069   1.93271
    A3        1.90874  -0.00078   0.00000  -0.00186  -0.00186   1.90688
    A4        1.92020  -0.00061   0.00000  -0.00043  -0.00040   1.91981
    A5        1.90930  -0.00084   0.00000  -0.00242  -0.00241   1.90689
    A6        1.86657   0.00060   0.00000   0.00469   0.00469   1.87125
    A7        1.93709   0.00102   0.00000   0.00525   0.00533   1.94242
    A8        1.91831   0.00113   0.00000   0.00824   0.00823   1.92654
    A9        1.86696  -0.00025   0.00000   0.00391   0.00390   1.87086
   A10        1.91568  -0.00209   0.00000  -0.01512  -0.01515   1.90054
   A11        1.92756  -0.00055   0.00000  -0.00535  -0.00542   1.92214
   A12        1.89734   0.00080   0.00000   0.00369   0.00359   1.90093
   A13        1.93783  -0.00029   0.00000  -0.00573  -0.00578   1.93205
   A14        1.91951   0.00052   0.00000   0.00077   0.00077   1.92028
   A15        1.91853  -0.00044   0.00000   0.00026   0.00028   1.91881
   A16        1.90375  -0.00031   0.00000  -0.00124  -0.00123   1.90251
   A17        1.90866   0.00033   0.00000   0.00126   0.00127   1.90994
   A18        1.87438   0.00020   0.00000   0.00503   0.00502   1.87940
   A19        1.97273  -0.00533   0.00000  -0.02757  -0.02753   1.94519
   A20        1.98102  -0.00506   0.00000  -0.02656  -0.02649   1.95453
   A21        1.93524   0.00095   0.00000   0.00332   0.00334   1.93858
   A22        1.90360   0.00073   0.00000   0.00432   0.00433   1.90793
   A23        1.85192  -0.00074   0.00000  -0.00031  -0.00032   1.85160
   A24        1.93081  -0.00130   0.00000  -0.00736  -0.00738   1.92343
   A25        1.95025  -0.00009   0.00000  -0.00206  -0.00206   1.94820
   A26        1.88954   0.00050   0.00000   0.00257   0.00255   1.89209
   A27        2.14534  -0.01580   0.00000  -0.06227  -0.06227   2.08307
   A28        1.92168   0.00016   0.00000  -0.00336  -0.00343   1.91825
   A29        1.91889   0.00055   0.00000   0.00202   0.00204   1.92094
   A30        1.93603  -0.00066   0.00000  -0.00131  -0.00130   1.93473
   A31        1.90347  -0.00042   0.00000  -0.00189  -0.00187   1.90160
   A32        1.90645   0.00008   0.00000  -0.00035  -0.00033   1.90612
   A33        1.87650   0.00029   0.00000   0.00505   0.00503   1.88154
   A34        1.89617   0.00148   0.00000  -0.00245  -0.00249   1.89368
   A35        1.91014   0.00003   0.00000   0.00495   0.00494   1.91508
   A36        1.91278  -0.00017   0.00000   0.00494   0.00494   1.91771
   A37        1.92175  -0.00131   0.00000  -0.00833  -0.00831   1.91344
   A38        1.93953  -0.00054   0.00000  -0.00350  -0.00348   1.93605
   A39        1.88338   0.00050   0.00000   0.00460   0.00455   1.88793
   A40        1.88378  -0.00190   0.00000  -0.01032  -0.01032   1.87346
   A41        1.92628   0.00154   0.00000   0.00812   0.00812   1.93440
   A42        1.89403   0.00003   0.00000  -0.00233  -0.00233   1.89170
   A43        1.89850   0.00033   0.00000   0.00146   0.00146   1.89996
   A44        1.93720   0.00057   0.00000   0.00475   0.00474   1.94194
   A45        1.92379  -0.00057   0.00000  -0.00172  -0.00171   1.92208
   A46        1.93323   0.00159   0.00000   0.00759   0.00762   1.94085
   A47        1.94455  -0.00038   0.00000  -0.00323  -0.00324   1.94131
   A48        1.93199  -0.00140   0.00000  -0.00873  -0.00875   1.92324
   A49        1.85694  -0.00098   0.00000  -0.00211  -0.00210   1.85484
   A50        1.90238   0.00055   0.00000   0.00383   0.00384   1.90622
   A51        1.89255   0.00065   0.00000   0.00303   0.00301   1.89555
   A52        1.84823   0.00113   0.00000  -0.00001  -0.00031   1.84793
   A53        1.92297   0.00053   0.00000  -0.00517  -0.00536   1.91761
   A54        1.89275  -0.00052   0.00000   0.00318   0.00316   1.89591
   A55        2.04408  -0.00326   0.00000  -0.02405  -0.02409   2.01999
   A56        1.85807   0.00144   0.00000   0.02157   0.02164   1.87971
   A57        1.89223   0.00081   0.00000   0.00665   0.00679   1.89902
   A58        1.92661  -0.00059   0.00000  -0.00642  -0.00647   1.92014
   A59        1.92478   0.00086   0.00000   0.00446   0.00442   1.92920
   A60        1.93613  -0.00009   0.00000   0.00291   0.00290   1.93903
   A61        1.89006  -0.00058   0.00000  -0.00680  -0.00679   1.88327
   A62        1.90143   0.00017   0.00000  -0.00086  -0.00082   1.90061
   A63        1.88364   0.00023   0.00000   0.00671   0.00668   1.89032
    D1        0.89594  -0.00011   0.00000   0.01093   0.01091   0.90685
    D2       -1.20166  -0.00005   0.00000   0.01411   0.01410  -1.18756
[...]
 0021,0.00035421,-0.00136739,-0.00103744,0.00037704,0.00099802,0.003379
 92,0.00039810,-0.00787897,-0.00015046,-0.00019536,0.00043042,0.0000194
 4,0.00000442,-0.00000155,-0.00000563,0.00000780,0.00000064,-0.00015263
 ,-0.00004677,0.00038842,0.00060423,0.00009695,-0.00044133,0.00048104,-
 0.00010246,0.00054772,0.00048367,-0.00027352,0.00015652,-0.00000166,-0
 .00001313,-0.00001996,0.00001563,0.00001172,0.00000588,0.00000216,-0.0
 0000591,0.00000656,0.00000484,0.00000689,0.00000618,0.01000713,0.00340
 487,-0.01765213,-0.11966068,-0.03960654,0.27275223,0.00139171,0.000436
 55,-0.00066415,-0.00019159,0.00026065,-0.00020077,0.00001232,-0.000178
 00,-0.00006807,-0.00020468,0.00007748,0.00004396,0.00320646,-0.0017584
 4,-0.00235894,0.00085897,0.00038461,-0.00155529,-0.00688632,-0.0250955
 1,0.02756210,-0.00014375,0.00003331,0.00014999,-0.00237205,0.00090670,
 -0.00020592,-0.06052606,0.02534027,-0.03628723,-0.00001673,-0.00010577
 ,0.00009655,0.00308188,-0.00129229,0.00131447,-0.00367777,0.01540077,-
 0.02144378,0.00010399,-0.00006823,0.00024467,-0.00007243,-0.00020177,0
 .00035579,0.00005787,0.00001196,-0.00001293,0.00002133,0.00010020,-0.0
 0013152,0.00002058,0.00000848,0.00001759,0.00004444,-0.00001874,0.0000
 0644,0.00001023,-0.00008825,0.00014827,0.00000166,0.00003550,-0.000049
 40,0.00002853,-0.00003475,0.00003794,-0.00000579,-0.00005905,-0.000044
 85,0.00020024,0.00013189,-0.00011360,-0.00317473,0.00160075,-0.0003937
 5,0.07137854,-0.00076719,0.00027521,-0.00010163,0.00004673,0.00005194,
 -0.00029712,0.00014309,0.00032988,-0.00027902,-0.00035400,0.00009214,0
 .00014248,-0.00664550,0.00405814,-0.03026908,0.00268308,0.00314729,-0.
 00280982,-0.01046472,-0.01557687,0.01978517,-0.00025463,-0.00020695,0.
 00024605,0.00132945,-0.00009002,0.00038105,0.02066821,-0.11828365,0.11
 299700,0.00013254,-0.00012268,-0.00001116,0.00338413,-0.00107826,-0.00
 004313,0.00452367,-0.00890915,0.01657920,0.00000892,0.00009915,-0.0003
 1733,0.00020045,0.00047390,-0.00026522,0.00001518,0.00001303,0.0000115
 7,-0.00000922,0.00004066,-0.00004100,0.00000749,-0.00000209,0.00000108
 ,-0.00009667,0.00002062,-0.00000865,0.00055952,-0.00008406,0.00098684,
 0.00012285,0.00001196,0.00005531,0.00000615,-0.00011616,0.00006863,-0.
 00012454,0.00011707,0.00009199,-0.00015742,-0.00009170,0.00005521,0.00
 178116,-0.00021875,-0.00016480,-0.01844435,0.13677245,-0.00024848,-0.0
 0033592,0.00014472,-0.00003214,-0.00010222,0.00005420,-0.00000911,-0.0
 0033130,0.00049770,0.00018220,-0.00006929,-0.00005549,-0.00786292,-0.0
 0322818,-0.03819190,0.00261232,0.00282799,-0.00039018,0.00528979,0.007
 18474,-0.00109911,-0.00023736,-0.00050152,0.00007267,-0.00124477,0.000
 51662,-0.00070340,-0.02867827,0.11053508,-0.22287092,-0.00023709,0.000
 13270,-0.00010313,-0.00133292,0.00100620,-0.00014263,0.00064967,0.0000
 9955,0.00348413,-0.00007405,-0.00005262,0.00007486,-0.00024972,-0.0001
 4621,-0.00005101,-0.00000781,-0.00000199,-0.00002696,-0.00000224,-0.00
 003233,0.00004737,-0.00005585,-0.00001947,-0.00002220,0.00003277,0.000
 01591,-0.00000625,-0.00069648,-0.00075868,0.00062319,-0.00014447,-0.00
 049955,0.00043493,0.00005438,0.00011192,-0.00008892,-0.00019397,0.0000
 8135,0.00003692,0.00022138,-0.00001409,-0.00013820,-0.00155960,0.00042
 015,0.00083236,0.03296215,-0.11656042,0.25637624,-0.00000386,0.0000186
 9,-0.00000326,0.00282480,0.00054317,0.00039163,-0.01379821,0.00071136,
 -0.00243570,-0.00284495,0.00445977,-0.00193389,-0.00009047,-0.00004714
 ,-0.00004789,0.00003908,0.00003275,-0.00001298,-0.00034012,0.00006767,
 -0.00004093,-0.00000416,-0.00000648,0.00000767,0.00028543,-0.00090618,
 0.00345360,0.00013838,0.00010600,0.00008227,-0.31664891,0.03184219,-0.
 03178329,0.00045290,-0.00059739,-0.00006172,-0.00001319,-0.00002279,-0
 .00002880,-0.00001021,-0.00000367,0.00000153,-0.00000020,-0.00000203,0
 .00000135,0.00005751,-0.00004504,0.00003973,-0.00035941,0.00008720,0.0
 0005013,0.00093612,0.00034596,-0.00008142,0.00014259,-0.00025509,0.000
 16161,-0.00000236,-0.00000383,0.00000422,-0.00000640,-0.00000731,-0.00
 000179,-0.00000012,0.00000087,-0.00000162,-0.00000539,-0.00000078,-0.0
 0000075,0.00022288,-0.00005122,-0.00002225,-0.00102286,0.00043271,-0.0
 0016958,-0.00000049,0.00000714,-0.00005098,0.33825235,0.00001268,-0.00
 001949,0.00000333,-0.00220971,-0.00547038,0.00049533,-0.00710795,0.002
 08821,-0.00269620,0.04140987,-0.01506578,0.00875162,-0.00000112,0.0000
 5264,0.00000990,-0.00000296,-0.00000388,0.00000758,0.00051849,0.000333
 62,-0.00029457,-0.00000076,0.00000138,-0.00000275,-0.00047664,0.000303
 07,0.00226547,-0.00008765,-0.00018943,-0.00004222,0.01943884,-0.051273
 03,-0.00033996,-0.00029930,-0.00061771,0.00086548,0.00003719,0.0000531
 6,-0.00002711,0.00000745,0.00000420,-0.00000052,-0.00000013,0.00000020
 ,-0.00000066,0.00024525,0.00026075,0.00026558,0.00175609,-0.00046246,0
 .00020424,0.00054751,0.00014364,0.00021052,0.00035240,0.00019293,-0.00
 043425,0.00000062,0.00000103,-0.00000059,0.00000254,0.00000271,0.00000
 032,-0.00000004,-0.00000012,0.00000039,0.00000093,0.00000078,0.0000007
 7,0.00038554,-0.00004337,0.00011431,-0.00070643,0.00040884,0.00009815,
 0.00005309,0.00002928,-0.00002851,-0.03698853,0.06506134,-0.00000463,-
 0.00000933,0.00000157,0.00074199,0.00203149,0.00003704,0.02936764,-0.0
 0389904,0.00417568,-0.01078574,0.00393195,-0.00149721,0.00008243,0.000
 02142,0.00005635,-0.00003390,-0.00002958,0.00000567,0.00013146,-0.0002
 1882,0.00018703,0.00000448,0.00000618,-0.00000563,0.00178152,0.0013083
 4,-0.00495725,-0.00004363,0.00000298,-0.00010617,-0.03074723,0.0019885
 8,-0.05510449,-0.00035724,0.00088509,-0.00049797,-0.00001067,-0.000008
 49,0.00004837,0.00000621,0.00000196,-0.00000090,0.00000041,0.00000146,
 -0.00000068,0.00032021,0.00006561,0.00013579,-0.00061649,0.00034384,0.
 00021826,-0.00078996,-0.00049842,0.00145388,-0.00090134,0.00013234,0.0
 0088778,0.00000096,0.00000261,-0.00000453,0.00000580,0.00000593,0.0000
 0173,0.00000048,-0.00000054,0.00000134,0.00000435,0.00000023,0.0000006
 6,0.00002776,0.00010836,0.00014141,0.00169360,-0.00041704,0.00011150,-
 0.00001156,-0.00003094,0.00008275,0.03343437,-0.00828515,0.05611186,0.
 00000140,-0.00000234,0.00000222,0.00161062,0.00221750,0.00202394,0.005
 06199,0.00874583,0.01370193,0.00296293,0.00287403,0.00274208,0.0000357
 3,0.00000346,0.00001004,-0.00000761,-0.00001302,0.00000191,0.00002156,
 -0.00001796,-0.00004375,0.00000187,0.00000338,-0.00000168,0.00136691,0
 .00060971,0.00024103,-0.00002804,-0.00001513,-0.00001323,-0.08358150,-
 0.04621416,-0.06444082,-0.00024695,-0.00006267,0.00014491,0.00000243,0
 .00000511,0.00000295,0.00000149,0.,-0.00000070,-0.00000012,-0.00000009
 ,-0.00000058,0.00066697,-0.00052915,-0.00018939,0.00013095,-0.00002397
 ,0.00012026,-0.00073112,-0.00040896,0.00301729,0.00050429,-0.00010825,
 -0.00080893,0.00000071,0.00000203,-0.00000112,0.00000053,0.00000176,0.
 00000041,-0.00000013,-0.00000025,0.00000055,0.00000173,0.00000003,-0.0
 0000002,0.00015682,-0.00027435,-0.00013767,0.00011941,-0.00011763,-0.0
 0012686,0.00000070,-0.00000004,0.00000545,-0.00817786,-0.01691026,-0.0
 2333408,0.08018526,0.00001077,-0.00002020,0.00000232,-0.00528534,0.001
 33497,-0.00221259,0.00184475,0.00600014,0.00546234,-0.00622546,-0.0433
 7167,-0.01844670,0.00003061,0.00005338,0.00002346,-0.00001348,-0.00001
 342,0.00000707,0.00055140,0.00014111,-0.00019431,0.00000073,0.00000195
 ,-0.00000448,0.00037048,-0.00009042,-0.00000050,-0.00008540,-0.0002011
 2,-0.00002905,-0.04198071,-0.12006441,-0.10387340,0.00013524,-0.000155
 39,0.00059077,0.00003362,0.00004904,-0.00000297,0.00000930,0.00000501,
 -0.00000090,-0.00000030,0.00000099,-0.00000082,0.00083624,0.00073106,0
 .00059027,0.00020221,0.00017938,0.00041872,-0.00147296,0.00072031,0.00
 167334,0.00038482,0.00041382,-0.00080043,0.00000186,0.00000193,-0.0000
 0201,0.00000497,0.00000557,0.00000170,0.00000037,-0.00000019,0.0000013
 6,0.00000260,0.00000098,0.00000094,0.00010428,-0.00017345,-0.00020150,
 0.00009269,-0.00002789,-0.00001575,0.00000726,0.00001525,-0.00000146,0
 .00021416,0.00418094,0.00267939,0.05028596,0.15032169,0.00000155,-0.00
 000791,0.00000088,0.00179660,0.00084606,0.00138741,-0.01011143,-0.0154
 3621,-0.02353700,0.00210876,0.00710158,0.01101603,0.00005023,0.0000229
 8,0.00002023,-0.00001044,-0.00001535,0.00000293,0.00016935,-0.00016075
 ,0.00006401,0.00000289,0.00000396,-0.00000291,-0.00114265,-0.00022542,
 0.00130284,-0.00010039,-0.00006888,-0.00000824,-0.06367254,-0.10674537
 ,-0.19811666,-0.00017746,0.00018485,-0.00012480,0.00000725,0.00001278,
 0.00000488,0.00000395,0.00000180,-0.00000030,0.00000029,0.00000058,-0.
 00000039,0.00069393,-0.00075109,-0.00040170,0.00021866,0.00001035,0.00
 011945,0.00353985,0.00131524,-0.00411202,-0.00022616,0.00027243,0.0008
 3997,0.00000074,0.00000147,-0.00000284,0.00000400,0.00000445,0.0000032
 3,0.00000013,-0.00000041,0.00000107,0.00000226,0.00000044,0.00000041,0
 .00062056,-0.00002627,0.00037423,0.00002739,0.00036825,0.00022233,-0.0
 0000283,0.00000644,0.00000335,-0.00096549,-0.00107923,-0.00151365,0.06
 723558,0.11436678,0.21256373,-0.00008118,0.00027671,0.00002213,0.00571
 132,0.01072094,0.01404811,0.00056910,0.00035244,0.00020863,0.00206834,
 -0.00063694,-0.00057575,-0.00166842,-0.00195574,-0.00030714,0.00039130
 ,0.00002214,-0.00032929,-0.03365689,-0.01323227,-0.02482456,-0.0000150
 7,-0.00006741,0.00005825,0.00162619,-0.00093258,0.00052938,0.00315369,
 0.00423208,-0.00469291,0.00001180,0.00005960,0.00000379,-0.06984025,-0
 .04947042,-0.05395253,-0.00034448,-0.00046992,0.00027070,-0.00011428,-
 0.00005530,0.00002048,-0.00002446,-0.00002474,0.00001261,-0.00193267,-
 0.00024101,0.00309242,0.00072516,-0.00019785,-0.00093124,0.00021942,0.
 00020667,-0.00003825,0.00016831,0.00004382,0.00019437,-0.00007180,-0.0
 0006224,0.00003582,-0.00013831,-0.00013220,0.00000692,-0.00000532,0.00
 000850,-0.00001757,-0.00005142,0.00000317,-0.00000631,0.00070350,0.000
 50267,-0.00014804,0.00013873,0.00008449,-0.00046486,-0.00009355,-0.000
 42445,0.00035223,-0.00000963,0.00003156,0.00001053,-0.00006222,-0.0000
 6035,-0.00007806,0.09267431,-0.00000611,-0.00001310,-0.00002412,0.0003
 9223,0.00385914,0.00535185,-0.00111751,0.00081925,-0.00056081,0.000772
 58,-0.00026759,-0.00045634,0.00049619,0.00075963,0.00004553,-0.0000273
 5,0.00010476,0.00009707,0.00924100,0.00902311,0.00862180,-0.00000471,0
 .00000541,0.00000245,-0.00974605,-0.02247150,-0.02284936,-0.00074376,-
 0.00092341,0.00145833,0.00003280,-0.00010259,0.00017873,-0.05200953,-0
 .14767010,-0.11487841,0.00001508,-0.00001845,-0.00004560,-0.00000153,-
 0.00000179,-0.00000135,0.00000402,0.00000269,0.00000070,-0.00059552,0.
 00085852,0.00119053,0.00056857,0.00080001,-0.00036163,0.00055351,0.000
 21440,0.00027607,0.00008580,0.00018659,0.00036561,0.00001135,0.0000051
 0,-0.00001000,0.00003452,0.00002974,-0.00000280,0.00000112,-0.00000219
 ,0.00000146,0.00000319,-0.00000518,-0.00000045,0.00100353,-0.00550974,
 0.00206882,-0.00023641,0.00169292,0.00027968,-0.00011990,0.00001368,-0
 .00019599,0.00005587,0.00002400,-0.00010394,-0.00004797,-0.00003724,-0
 .00000062,0.05139012,0.15861976,-0.00004477,0.00008004,-0.00001986,-0.
 00817675,-0.01849208,-0.02417856,0.00048549,-0.00039185,0.00023943,0.0
 0001897,0.00045241,0.00267971,-0.00054916,-0.00055866,-0.00025162,0.00
 014568,0.00007824,-0.00013187,-0.01039088,0.00057385,0.00066490,-0.000
 01017,-0.00002534,0.00002359,0.00315327,0.00775885,0.00795945,0.001807
 52,0.00146967,-0.00090924,0.00001837,0.00045842,-0.00006312,-0.0558635
 3,-0.11317331,-0.18589223,-0.00013696,-0.00017496,0.00003861,-0.000043
 88,-0.00001776,0.00000893,-0.00000476,-0.00000590,0.00000518,0.0029492
 4,0.00083417,-0.00407799,-0.00052291,0.00028589,0.00152300,0.00014573,
 -0.00010666,-0.00013911,0.00019018,-0.00008232,-0.00002207,-0.00001905
 ,-0.00001861,0.00001588,-0.00004395,-0.00004205,0.00000498,-0.00000046
 ,0.00000073,-0.00000639,-0.00001869,-0.00000084,-0.00000270,-0.0004364
 8,0.00252890,0.00035408,0.00020608,-0.00069762,0.00081610,-0.00013791,
 -0.00020490,-0.00013230,0.00001313,-0.00006254,0.00003287,-0.00015149,
 -0.00003268,-0.00010618,0.06745727,0.11959078,0.20158640,0.00101942,-0
 .01541994,0.02493278,0.00000409,-0.00003942,0.00001239,0.00002743,-0.0
 0004366,0.00011518,0.00000790,-0.00000811,0.00000049,0.00173424,-0.002
 45737,0.00050523,-0.00036531,-0.00028289,0.00005159,0.00239749,0.00013
 538,0.00002880,0.00117246,0.00115298,0.00040900,-0.00025237,0.00005704
 ,-0.00015185,-0.00549011,0.01612368,-0.02670012,-0.00005127,0.00002938
 ,-0.00003403,0.00030565,0.00002547,-0.00004330,-0.04758415,0.01033287,
 -0.01526684,0.00130120,0.00096765,-0.00015746,-0.00416302,-0.00388765,
 0.00041610,0.00000262,0.00000363,-0.00000127,-0.00001138,-0.00000372,0
 .00001139,-0.00001681,-0.00000224,-0.00000739,-0.00000786,0.00000874,-
 0.00000204,-0.00005404,-0.00003495,-0.00006594,0.00009932,-0.00002059,
 -0.00000185,0.00003533,0.00012460,-0.00046673,-0.00010233,0.00031696,-
 0.00009065,0.00003994,-0.00002967,-0.00002248,-0.00005717,-0.00006188,
 0.00015678,-0.00385561,0.00281701,0.00117208,-0.00001192,-0.00000767,0
 .00002062,0.00000176,0.00000104,0.00000313,0.00001616,0.00000042,-0.00
 000215,0.05491077,0.00103794,-0.00967563,0.01448068,0.00002174,0.00000
 476,0.00005402,-0.00001696,0.00005958,-0.00008011,0.00003799,-0.000004
 24,-0.00002267,-0.00095601,0.00180222,0.00018807,-0.00013273,-0.000037
 09,-0.00005370,-0.00152439,0.00109054,-0.00083253,0.00069659,0.0004512
 5,0.00058933,0.00002559,-0.00002100,0.00012903,0.00265670,-0.01371107,
 0.01908808,0.00003415,-0.00000711,0.00002599,-0.00006210,0.00001031,-0
 .00024428,0.01096068,-0.11920672,0.11321517,0.00024690,0.00080727,-0.0
 0050389,-0.00278990,-0.00120506,0.00036508,0.00000050,-0.00000506,-0.0
 0000255,0.00000434,0.00000170,-0.00000365,0.00001510,0.00000117,0.0000
 0476,0.00000023,-0.00000566,0.00000252,-0.00000297,0.00005869,0.000010
 57,0.00003888,-0.00003962,-0.00001568,-0.00002949,-0.00011788,-0.00022
 716,-0.00007865,0.00017014,-0.00013101,-0.00002495,0.00000720,0.000020
 83,0.00006104,0.00000745,-0.00012077,0.00302557,-0.00136649,-0.0005718
 9,0.00000957,0.00000250,-0.00001397,-0.00000151,-0.00000253,-0.0000025
 9,-0.00001396,0.00001786,-0.00000369,-0.01152507,0.12889428,0.00059460
 ,0.00161382,-0.00364199,-0.00002788,0.00003378,-0.00006182,0.00000303,
 -0.00002461,0.00001390,-0.00004500,0.00000356,0.00002468,0.00051264,0.
 00019379,0.00180620,0.00000064,-0.00015539,0.00015188,-0.00042950,-0.0
 0049234,0.00043486,-0.00020894,-0.00035214,0.00069569,0.00016608,-0.00
 003824,-0.00003078,0.00044124,-0.00107492,-0.00110645,0.00000090,-0.00
 000836,-0.00000183,-0.00006120,-0.00013853,0.00024034,-0.01743287,0.11
 570545,-0.23861868,0.00024016,-0.00008525,0.00024751,0.00078321,0.0003
 2311,0.00110250,-0.00000315,0.00000126,0.00000301,0.00000018,-0.000005
 73,-0.00000166,-0.00000035,0.00000063,0.00000103,0.00000606,-0.0000009
 3,-0.00000058,-0.00004630,-0.00000546,-0.00018737,-0.00001862,0.000039
 35,-0.00000709,-0.00013804,0.00034644,0.00030615,0.00009587,0.00001771
 ,0.00019625,0.00001625,0.00001059,0.00000613,-0.00001194,0.00001008,0.
 00001480,0.00011573,0.00009267,0.00095177,-0.00000145,0.00000113,-0.00
 000061,-0.00000013,0.00000154,0.00000016,0.00000036,-0.00001519,-0.000
 00712,0.01734731,-0.12849931,0.25604880,-0.00200522,-0.01772586,-0.022
 17356,0.00004580,-0.00001273,0.00003554,0.00000121,-0.00001329,-0.0000
 0163,0.00003016,-0.00000182,-0.00001577,-0.00425853,0.00720520,0.00294
 197,-0.00156789,-0.00092186,0.00015748,0.00153145,0.00041341,0.0001472
 6,-0.00477501,-0.00294265,0.00230377,0.00001824,0.00004645,0.00001105,
 0.00368278,0.01354342,0.02122764,-0.00000129,0.00001266,-0.00000585,0.
 00019489,-0.00020899,-0.00032468,-0.05037466,-0.01805409,-0.02496649,0
 .00095453,0.00104196,-0.00022873,0.00121590,0.00069463,0.00035187,0.00
 000259,-0.00000228,-0.00000196,-0.00000023,0.00000205,-0.00000106,-0.0
 0000600,-0.00000095,-0.00000124,0.00000003,0.00000040,0.00000085,0.000
 21178,0.00008799,-0.00000460,0.00033477,0.00009216,-0.00005298,-0.0000
 0957,0.00025435,0.00010763,0.00006221,-0.00156861,-0.00113853,-0.00000
 318,-0.00002020,-0.00001411,-0.00000719,0.00000152,0.00000409,0.000802
 11,-0.00069404,-0.00061619,-0.00000132,-0.00000090,0.00000166,-0.00000
 052,-0.00000136,0.00000033,-0.00006742,-0.00000554,-0.00003698,-0.0010
 5242,-0.00171483,-0.00189892,0.05504199,-0.00158081,-0.01178249,-0.012
 58335,-0.00004070,0.00000985,-0.00000986,-0.00000635,0.00000923,0.0000
 0276,-0.00000682,-0.00000184,0.00000491,0.00361783,-0.00387347,-0.0018
 9712,0.00068962,0.00130763,-0.00003679,-0.00104861,0.00101934,0.000767
 35,-0.00340470,-0.00050916,0.00176227,0.00001054,-0.00003811,0.0000113
 7,-0.00551562,-0.01179046,-0.01495382,0.00000481,-0.00000972,0.0000061
 3,0.00008588,0.00011314,0.00023528,-0.01540544,-0.15595654,-0.12902275
 ,0.00010262,0.00068873,0.00027142,0.00065559,0.00050033,0.00005417,0.0
 0000292,0.00000307,-0.00000489,0.00000157,0.00000073,0.00000012,0.0000
 0899,0.00000062,0.00000233,0.00000315,-0.00000245,-0.00000009,-0.00004
 864,-0.00011878,0.00011049,-0.00005789,-0.00010929,-0.00000397,0.00000
 532,-0.00001342,-0.00024820,0.00000919,-0.00064615,-0.00084042,-0.0000
 0824,0.00002348,0.00001293,0.00001022,-0.00000271,-0.00000802,-0.00034
 995,0.00058521,0.00051943,0.00000240,0.00000043,-0.00000252,-0.0000011
 2,0.00000041,-0.00000032,0.00004246,-0.00001369,-0.00002020,0.00172798
 ,0.01201822,0.01250147,0.02049382,0.16858785,0.00045893,0.00511836,0.0
 0457856,-0.00001782,-0.00001171,0.00002230,-0.00000551,0.00000731,-0.0
 0000424,0.00002328,-0.00000209,-0.00000701,0.00043816,-0.00159116,0.00
 128199,0.00035711,0.00038327,-0.00021518,0.00022163,0.00046636,0.00045
 890,0.00079050,0.00064163,0.00098486,0.00001800,-0.00000986,0.00000544
 ,-0.00135008,0.00051911,-0.00252852,0.00000154,0.00000198,0.00000380,0
 .00006654,0.00009310,0.00005108,-0.02284992,-0.13164070,-0.20751845,-0
 .00047397,-0.00026578,0.00004582,-0.00051507,-0.00022828,0.00067827,0.
 00000212,0.00000238,-0.00000282,0.00000162,0.00000354,-0.00000396,0.00
 000579,0.00000101,0.00000210,0.00000286,-0.00000262,0.00000032,-0.0000
 5799,-0.00006583,-0.00000121,-0.00004645,-0.00006054,-0.00003640,0.000
 00948,0.00018020,0.00025234,0.00022221,0.00004206,0.00014636,0.0000003
 4,0.00001304,0.00001784,0.00000151,-0.00000038,-0.00001051,0.00062687,
 -0.00009647,0.00030544,0.00000257,0.00000016,-0.00000246,-0.00000008,-
 0.00000047,-0.00000045,0.00004250,-0.00002282,-0.00001277,-0.00216875,
 -0.01684469,-0.01857967,0.02419210,0.14336990,0.22008825\\-0.00000908,
 0.00001988,-0.00000346,-0.00000484,0.00001052,-0.00001366,-0.00001319,
 0.00001291,-0.00000390,0.00000970,0.00001481,-0.00000302,0.00005824,-0
 .00001752,-0.00001516,-0.00001429,0.00000583,0.00000673,0.00011852,-0.
 00031739,-0.00080630,-0.00000176,0.00000277,0.00000341,0.00006486,-0.0
 0010244,-0.00035606,-0.00011932,0.00018433,0.00047309,0.00000974,-0.00
 001976,0.00000229,-0.00009791,0.00026217,0.00075537,-0.00001469,-0.000
 02331,-0.00000588,-0.00000047,-0.00000446,0.00000899,0.00000211,0.0000
 0359,-0.00000437,0.00000065,-0.00000117,0.00000632,-0.00000002,-0.0000
 1862,-0.00000451,-0.00000562,-0.00000112,-0.00001231,0.00000625,0.0000
 0121,0.00000015,-0.00000264,0.00000189,0.00000016,0.00000313,0.0000002
 7,0.00001340,0.00000126,-0.00000588,0.00001234,0.00000604,-0.00000982,
 -0.00000207,-0.00001406,0.00000149,-0.00000284,0.00000361,-0.00000359,
 -0.00000337,0.00001006,0.00000438,-0.00004273,-0.00001026,0.00000029,-
 0.00000608,0.00000158,0.00000473,0.00000640,0.00000031,-0.00000225,-0.
 00001050,0.00000012,-0.00000753,0.00001107,0.00001199,0.00000380,-0.00
 000348\\\@


 THE MEEK SHALL INHERIT THE EARTH.
 (THE REST OF US WILL ESCAPE TO THE STARS)
 Job cpu time:       0 days 12 hours 39 minutes  1.5 seconds.
 Elapsed time:       0 days  1 hours  3 minutes 31.7 seconds.
 File lengths (MBytes):  RWF=    721 Int=      0 D2E=      0 Chk=     34 Scr=      1
 Normal termination of Gaussian 16 at Sun Mar 10 05:19:17 2019.
