 Entering Gaussian System, Link 0=g16
 Initial command:
 /sw/Projects/G16/g16/l1.exe "/nvme/pbs/tmpdir/pbs.74288[20].flm1/Gau-17148.inp" -scrdir="/nvme/pbs/tmpdir/pbs.74288[20].flm1/"
 Entering Link 1 = /sw/Projects/G16/g16/l1.exe PID=     17149.
  
 Copyright (c) 1988-2017, Gaussian, Inc.  All Rights Reserved.
  
 This is part of the Gaussian(R) 16 program.  It is based on
 the Gaussian(R) 09 system (copyright 2009, Gaussian, Inc.),
 the Gaussian(R) 03 system (copyright 2003, Gaussian, Inc.),
 the Gaussian(R) 98 system (copyright 1998, Gaussian, Inc.),
 the Gaussian(R) 94 system (copyright 1995, Gaussian, Inc.),
 the Gaussian 92(TM) system (copyright 1992, Gaussian, Inc.),
 the Gaussian 90(TM) system (copyright 1990, Gaussian, Inc.),
 the Gaussian 88(TM) system (copyright 1988, Gaussian, Inc.),
 the Gaussian 86(TM) system (copyright 1986, Carnegie Mellon
 University), and the Gaussian 82(TM) system (copyright 1983,
 Carnegie Mellon University). Gaussian is a federally registered
 trademark of Gaussian, Inc.
  
 This software contains proprietary and confidential information,
 including trade secrets, belonging to Gaussian, Inc.
  
 This software is provided under written license and may be
 used, copied, transmitted, or stored only in accord with that
 written license.
  
 The following legend is applicable only to US Government
 contracts under FAR:
  
                    RESTRICTED RIGHTS LEGEND
  
 Use, reproduction and disclosure by the US Government is
 subject to restrictions as set forth in subparagraphs (a)
 and (c) of the Commercial Computer Software - Restricted
 Rights clause in FAR 52.227-19.
  
 Gaussian, Inc.
 340 Quinnipiac St., Bldg. 40, Wallingford CT 06492
  
  
 ---------------------------------------------------------------
 Warning -- This program may not be used in any manner that
 competes with the business of Gaussian, Inc. or will provide
 assistance to any competitor of Gaussian, Inc.  The licensee
 of this program is prohibited from giving any competitor of
 Gaussian, Inc. access to this program.  By using this program,
 the user acknowledges that Gaussian, Inc. is engaged in the
 business of creating and licensing software in the field of
 computational chemistry and represents and warrants to the
 licensee that it is not a competitor of Gaussian, Inc. and that
 it will not use this program in any manner prohibited above.
 ---------------------------------------------------------------
  

 Cite this work as:
 Gaussian 16, Revision B.01,
 M. J. Frisch, G. W. Trucks, H. B. Schlegel, G. E. Scuseria, 
 M. A. Robb, J. R. Cheeseman, G. Scalmani, V. Barone, 
 G. A. Petersson, H. Nakatsuji, X. Li, M. Caricato, A. V. Marenich, 
 J. Bloino, B. G. Janesko, R. Gomperts, B. Mennucci, H. P. Hratchian, 
 J. V. Ortiz, A. F. Izmaylov, J. L. Sonnenberg, D. Williams-Young, 
 F. Ding, F. Lipparini, F. Egidi, J. Goings, B. Peng, A. Petrone, 
 T. Henderson, D. Ranasinghe, V. G. Zakrzewski, J. Gao, N. Rega, 
 G. Zheng, W. Liang, M. Hada, M. Ehara, K. Toyota, R. Fukuda, 
 J. Hasegawa, M. Ishida, T. Nakajima, Y. Honda, O. Kitao, H. Nakai, 
 T. Vreven, K. Throssell, J. A. Montgomery, Jr., J. E. Peralta, 
 F. Ogliaro, M. J. Bearpark, J. J. Heyd, E. N. Brothers, K. N. Kudin, 
 V. N. Staroverov, T. A. Keith, R. Kobayashi, J. Normand, 
 K. Raghavachari, A. P. Rendell, J. C. Burant, S. S. Iyengar, 
 J. Tomasi, M. Cossi, J. M. Millam, M. Klene, C. Adamo, R. Cammi, 
 J. W. Ochterski, R. L. Martin, K. Morokuma, O. Farkas, 
 J. B. Foresman, and D. J. Fox, Gaussian, Inc., Wallingford CT, 2016.
 
 ******************************************
 Gaussian 16:  ES64L-G16RevB.01 20-Dec-2017
                10-Mar-2019 
 ******************************************
 %mem=20gb
 %nproc=12
 Will use up to   12 processors via shared memory.
 %chk=4c1_b1_4e_4c1_PSI.inp_extract_20.chk
 ----------------------------------------------------------------------
 #M062X/6-311++G(2d,2p) opt=ModRedundant freq=noraman SCRF=(SMD,solvent
 =water)
 ----------------------------------------------------------------------
 1/18=120,19=15,26=3,38=1/1,3;
 2/9=110,12=2,17=6,18=5,40=1/2;
 3/5=4,6=6,7=1212,11=2,25=1,30=1,70=32201,71=1,72=1,74=-55/1,2,3;
 4//1;
 5/5=2,38=5,53=1/2;
 6/7=2,8=2,9=2,10=2,28=1/1;
 7//1,2,3,16;
 1/18=20,19=15,26=3/3(2);
 2/9=110/2;
 99//99;
 2/9=110/2;
 3/5=4,6=6,7=1212,11=2,25=1,30=1,70=32205,71=1,72=1,74=-55/1,2,3;
 4/5=5,16=3,69=1/1;
 5/5=2,38=5,53=1/2;
 7//1,2,3,16;
 1/18=20,19=15,26=3/3(-5);
 2/9=110/2;
 6/7=2,8=2,9=2,10=2,19=2,28=1/1;
 99/9=1/99;
 --------------------------------
 4c1_b1_4e_4c1_PSI.inp_extract_20
 --------------------------------
 Symbolic Z-matrix:
 Charge =  0 Multiplicity = 1
 C                    -3.65693   0.59966   0.58078 
 C                     2.25293   1.16313  -0.62297 
 C                     2.90252  -1.27271   0.72257 
 O                     3.57003   0.84677  -0.23321 
 O                    -1.43992  -0.68732  -0.67339 
 C                    -2.60357  -1.44777  -0.38933 
 O                    -0.02853   0.98986  -0.11345 
 C                    -3.84184  -0.56636  -0.39082 
 C                     1.43826  -0.97996   0.37803 
 C                    -1.18597   0.32583   0.26978 
 C                     3.83505  -0.54494  -0.23159 
 C                     1.24352   0.53292   0.32644 
 C                    -2.33421   1.31826   0.3026 
 H                    -4.48317   1.29908   0.50285 
 H                    -3.65566   0.2223    1.6014 
 H                     2.07245   0.81414  -1.63696 
 H                     2.16912   2.24091  -0.60669 
 H                     3.11708  -0.95734   1.74048 
 H                     3.09288  -2.34014   0.66643 
 H                    -2.4819   -1.93616   0.57495 
 H                    -2.65495  -2.21206  -1.15206 
 H                    -4.00776  -0.18851  -1.39677 
 H                    -4.70711  -1.16444  -0.11936 
 H                     1.20248  -1.41171  -0.58991 
 H                     0.7848   -1.43566   1.11217 
 H                    -1.05461  -0.13153   1.24523 
 H                     4.86934  -0.65655   0.06338 
 H                     3.7229   -0.92765  -1.24346 
 H                     1.40944   0.93411   1.32285 
 H                    -2.37494   1.82237  -0.65958 
 H                    -2.13167   2.06604   1.06261 
 
 The following ModRedundant input section has been read:
 D      10       7      12       9 F                                           
 

 GradGradGradGradGradGradGradGradGradGradGradGradGradGradGradGradGradGrad
 Berny optimization.
 Initialization pass.
                           ----------------------------
                           !    Initial Parameters    !
                           ! (Angstroms and Degrees)  !
 --------------------------                            --------------------------
 ! Name  Definition              Value          Derivative Info.                !
 --------------------------------------------------------------------------------
 ! R1    R(1,8)                  1.529          estimate D2E/DX2                !
 ! R2    R(1,13)                 1.5308         estimate D2E/DX2                !
 ! R3    R(1,14)                 1.0853         estimate D2E/DX2                !
 ! R4    R(1,15)                 1.0882         estimate D2E/DX2                !
 ! R5    R(2,4)                  1.4095         estimate D2E/DX2                !
 ! R6    R(2,12)                 1.5223         estimate D2E/DX2                !
 ! R7    R(2,16)                 1.0874         estimate D2E/DX2                !
 ! R8    R(2,17)                 1.0812         estimate D2E/DX2                !
 ! R9    R(3,9)                  1.5325         estimate D2E/DX2                !
 ! R10   R(3,11)                 1.5198         estimate D2E/DX2                !
 ! R11   R(3,18)                 1.087          estimate D2E/DX2                !
 ! R12   R(3,19)                 1.0857         estimate D2E/DX2                !
 ! R13   R(4,11)                 1.4167         estimate D2E/DX2                !
 ! R14   R(5,6)                  1.4188         estimate D2E/DX2                !
 ! R15   R(5,10)                 1.4073         estimate D2E/DX2                !
 ! R16   R(6,8)                  1.5199         estimate D2E/DX2                !
 ! R17   R(6,20)                 1.0877         estimate D2E/DX2                !
 ! R18   R(6,21)                 1.081          estimate D2E/DX2                !
 ! R19   R(7,10)                 1.3883         estimate D2E/DX2                !
 ! R20   R(7,12)                 1.4214         estimate D2E/DX2                !
 ! R21   R(8,22)                 1.0873         estimate D2E/DX2                !
 ! R22   R(8,23)                 1.0863         estimate D2E/DX2                !
 ! R23   R(9,12)                 1.5262         estimate D2E/DX2                !
 ! R24   R(9,24)                 1.0858         estimate D2E/DX2                !
 ! R25   R(9,25)                 1.0833         estimate D2E/DX2                !
 ! R26   R(10,13)                1.518          estimate D2E/DX2                !
 ! R27   R(10,26)                1.0853         estimate D2E/DX2                !
 ! R28   R(11,27)                1.0813         estimate D2E/DX2                !
 ! R29   R(11,28)                1.0876         estimate D2E/DX2                !
 ! R30   R(12,29)                1.0869         estimate D2E/DX2                !
 ! R31   R(13,30)                1.087          estimate D2E/DX2                !
 ! R32   R(13,31)                1.0853         estimate D2E/DX2                !
 ! A1    A(8,1,13)             110.3046         estimate D2E/DX2                !
 ! A2    A(8,1,14)             110.7171         estimate D2E/DX2                !
 ! A3    A(8,1,15)             109.3714         estimate D2E/DX2                !
 ! A4    A(13,1,14)            110.0132         estimate D2E/DX2                !
 ! A5    A(13,1,15)            109.4044         estimate D2E/DX2                !
 ! A6    A(14,1,15)            106.9611         estimate D2E/DX2                !
 ! A7    A(4,2,12)             110.7459         estimate D2E/DX2                !
 ! A8    A(4,2,16)             109.9311         estimate D2E/DX2                !
 ! A9    A(4,2,17)             106.9786         estimate D2E/DX2                !
 ! A10   A(12,2,16)            109.7932         estimate D2E/DX2                !
 ! A11   A(12,2,17)            110.6037         estimate D2E/DX2                !
 ! A12   A(16,2,17)            108.7295         estimate D2E/DX2                !
 ! A13   A(9,3,11)             110.711          estimate D2E/DX2                !
 ! A14   A(9,3,18)             110.1024         estimate D2E/DX2                !
 ! A15   A(9,3,19)             110.1037         estimate D2E/DX2                !
 ! A16   A(11,3,18)            109.1395         estimate D2E/DX2                !
 ! A17   A(11,3,19)            109.315          estimate D2E/DX2                !
 ! A18   A(18,3,19)            107.3999         estimate D2E/DX2                !
 ! A19   A(2,4,11)             113.3036         estimate D2E/DX2                !
 ! A20   A(6,5,10)             113.5579         estimate D2E/DX2                !
 ! A21   A(5,6,8)              110.9257         estimate D2E/DX2                !
 ! A22   A(5,6,20)             109.0505         estimate D2E/DX2                !
 ! A23   A(5,6,21)             106.0613         estimate D2E/DX2                !
 ! A24   A(8,6,20)             110.632          estimate D2E/DX2                !
 ! A25   A(8,6,21)             111.7521         estimate D2E/DX2                !
 ! A26   A(20,6,21)            108.2627         estimate D2E/DX2                !
 ! A27   A(10,7,12)            120.4578         estimate D2E/DX2                !
 ! A28   A(1,8,6)              110.0653         estimate D2E/DX2                !
 ! A29   A(1,8,22)             109.9587         estimate D2E/DX2                !
 ! A30   A(1,8,23)             110.9402         estimate D2E/DX2                !
 ! A31   A(6,8,22)             109.0717         estimate D2E/DX2                !
 ! A32   A(6,8,23)             109.2323         estimate D2E/DX2                !
 ! A33   A(22,8,23)            107.5159         estimate D2E/DX2                !
 ! A34   A(3,9,12)             108.5952         estimate D2E/DX2                !
 ! A35   A(3,9,24)             109.387          estimate D2E/DX2                !
 ! A36   A(3,9,25)             110.0975         estimate D2E/DX2                !
 ! A37   A(12,9,24)            109.6535         estimate D2E/DX2                !
 ! A38   A(12,9,25)            111.2786         estimate D2E/DX2                !
 ! A39   A(24,9,25)            107.8104         estimate D2E/DX2                !
 ! A40   A(5,10,7)             108.0459         estimate D2E/DX2                !
 ! A41   A(5,10,13)            110.4044         estimate D2E/DX2                !
 ! A42   A(5,10,26)            108.7122         estimate D2E/DX2                !
 ! A43   A(7,10,13)            108.8976         estimate D2E/DX2                !
 ! A44   A(7,10,26)            110.4102         estimate D2E/DX2                !
 ! A45   A(13,10,26)           110.3411         estimate D2E/DX2                !
 ! A46   A(3,11,4)             110.8764         estimate D2E/DX2                !
 ! A47   A(3,11,27)            111.4834         estimate D2E/DX2                !
 ! A48   A(3,11,28)            110.6292         estimate D2E/DX2                !
 ! A49   A(4,11,27)            106.2985         estimate D2E/DX2                !
 ! A50   A(4,11,28)            108.9845         estimate D2E/DX2                !
 ! A51   A(27,11,28)           108.4275         estimate D2E/DX2                !
 ! A52   A(2,12,7)             105.5041         estimate D2E/DX2                !
 ! A53   A(2,12,9)             110.2938         estimate D2E/DX2                !
 ! A54   A(2,12,29)            108.5248         estimate D2E/DX2                !
 ! A55   A(7,12,9)             116.3151         estimate D2E/DX2                !
 ! A56   A(7,12,29)            107.5575         estimate D2E/DX2                !
 ! A57   A(9,12,29)            108.3868         estimate D2E/DX2                !
 ! A58   A(1,13,10)            110.5249         estimate D2E/DX2                !
 ! A59   A(1,13,30)            110.254          estimate D2E/DX2                !
 ! A60   A(1,13,31)            110.9433         estimate D2E/DX2                !
 ! A61   A(10,13,30)           108.2038         estimate D2E/DX2                !
 ! A62   A(10,13,31)           108.9312         estimate D2E/DX2                !
 ! A63   A(30,13,31)           107.898          estimate D2E/DX2                !
 ! D1    D(13,1,8,6)            51.3165         estimate D2E/DX2                !
 ! D2    D(13,1,8,22)          -68.8649         estimate D2E/DX2                !
 ! D3    D(13,1,8,23)          172.3312         estimate D2E/DX2                !
 ! D4    D(14,1,8,6)           173.3271         estimate D2E/DX2                !
 ! D5    D(14,1,8,22)           53.1457         estimate D2E/DX2                !
 ! D6    D(14,1,8,23)          -65.6582         estimate D2E/DX2                !
 ! D7    D(15,1,8,6)           -69.0544         estimate D2E/DX2                !
 ! D8    D(15,1,8,22)          170.7642         estimate D2E/DX2                !
 ! D9    D(15,1,8,23)           51.9603         estimate D2E/DX2                !
 ! D10   D(8,1,13,10)          -51.8559         estimate D2E/DX2                !
 ! D11   D(8,1,13,30)           67.7283         estimate D2E/DX2                !
 ! D12   D(8,1,13,31)         -172.801          estimate D2E/DX2                !
 ! D13   D(14,1,13,10)        -174.2812         estimate D2E/DX2                !
 ! D14   D(14,1,13,30)         -54.697          estimate D2E/DX2                !
 ! D15   D(14,1,13,31)          64.7737         estimate D2E/DX2                !
 ! D16   D(15,1,13,10)          68.4951         estimate D2E/DX2                !
 ! D17   D(15,1,13,30)        -171.9206         estimate D2E/DX2                !
 ! D18   D(15,1,13,31)         -52.4499         estimate D2E/DX2                !
 ! D19   D(12,2,4,11)           60.4576         estimate D2E/DX2                !
 ! D20   D(16,2,4,11)          -61.0443         estimate D2E/DX2                !
 ! D21   D(17,2,4,11)         -178.9383         estimate D2E/DX2                !
 ! D22   D(4,2,12,7)           176.3296         estimate D2E/DX2                !
 ! D23   D(4,2,12,9)           -57.295          estimate D2E/DX2                !
 ! D24   D(4,2,12,29)           61.2984         estimate D2E/DX2                !
 ! D25   D(16,2,12,7)          -62.0873         estimate D2E/DX2                !
 ! D26   D(16,2,12,9)           64.2881         estimate D2E/DX2                !
 ! D27   D(16,2,12,29)        -177.1186         estimate D2E/DX2                !
 ! D28   D(17,2,12,7)           57.9049         estimate D2E/DX2                !
 ! D29   D(17,2,12,9)         -175.7197         estimate D2E/DX2                !
 ! D30   D(17,2,12,29)         -57.1264         estimate D2E/DX2                !
 ! D31   D(11,3,9,12)          -53.2547         estimate D2E/DX2                !
 ! D32   D(11,3,9,24)           66.3876         estimate D2E/DX2                !
 ! D33   D(11,3,9,25)         -175.3157         estimate D2E/DX2                !
 ! D34   D(18,3,9,12)           67.5183         estimate D2E/DX2                !
 ! D35   D(18,3,9,24)         -172.8394         estimate D2E/DX2                !
 ! D36   D(18,3,9,25)          -54.5427         estimate D2E/DX2                !
 ! D37   D(19,3,9,12)         -174.2484         estimate D2E/DX2                !
 ! D38   D(19,3,9,24)          -54.6062         estimate D2E/DX2                !
 ! D39   D(19,3,9,25)           63.6905         estimate D2E/DX2                !
 ! D40   D(9,3,11,4)            55.6854         estimate D2E/DX2                !
 ! D41   D(9,3,11,27)          173.9076         estimate D2E/DX2                !
 ! D42   D(9,3,11,28)          -65.3522         estimate D2E/DX2                !
 ! D43   D(18,3,11,4)          -65.6576         estimate D2E/DX2                !
 ! D44   D(18,3,11,27)          52.5647         estimate D2E/DX2                !
 ! D45   D(18,3,11,28)         173.3048         estimate D2E/DX2                !
 ! D46   D(19,3,11,4)          177.1452         estimate D2E/DX2                !
 ! D47   D(19,3,11,27)         -64.6325         estimate D2E/DX2                !
 ! D48   D(19,3,11,28)          56.1076         estimate D2E/DX2                !
 ! D49   D(2,4,11,3)           -59.6764         estimate D2E/DX2                !
 ! D50   D(2,4,11,27)          178.9986         estimate D2E/DX2                !
 ! D51   D(2,4,11,28)           62.3272         estimate D2E/DX2                !
 ! D52   D(10,5,6,8)            61.1938         estimate D2E/DX2                !
 ! D53   D(10,5,6,20)          -60.8889         estimate D2E/DX2                !
 ! D54   D(10,5,6,21)         -177.2749         estimate D2E/DX2                !
 ! D55   D(6,5,10,7)           179.7918         estimate D2E/DX2                !
 ! D56   D(6,5,10,13)          -61.2198         estimate D2E/DX2                !
 ! D57   D(6,5,10,26)           59.95           estimate D2E/DX2                !
 ! D58   D(5,6,8,1)            -54.9991         estimate D2E/DX2                !
 ! D59   D(5,6,8,22)            65.7171         estimate D2E/DX2                !
 ! D60   D(5,6,8,23)          -177.0321         estimate D2E/DX2                !
 ! D61   D(20,6,8,1)            66.1567         estimate D2E/DX2                !
 ! D62   D(20,6,8,22)         -173.1271         estimate D2E/DX2                !
 ! D63   D(20,6,8,23)          -55.8762         estimate D2E/DX2                !
 ! D64   D(21,6,8,1)          -173.1294         estimate D2E/DX2                !
 ! D65   D(21,6,8,22)          -52.4132         estimate D2E/DX2                !
 ! D66   D(21,6,8,23)           64.8376         estimate D2E/DX2                !
 ! D67   D(12,7,10,5)          -88.6323         estimate D2E/DX2                !
 ! D68   D(12,7,10,13)         151.4268         estimate D2E/DX2                !
 ! D69   D(12,7,10,26)          30.1345         estimate D2E/DX2                !
 ! D70   D(10,7,12,2)          161.4443         estimate D2E/DX2                !
 ! D71   D(10,7,12,9)           38.8468         Frozen                          !
 ! D72   D(10,7,12,29)         -82.8599         estimate D2E/DX2                !
 ! D73   D(3,9,12,2)            53.8137         estimate D2E/DX2                !
 ! D74   D(3,9,12,7)           173.8684         estimate D2E/DX2                !
 ! D75   D(3,9,12,29)          -64.864          estimate D2E/DX2                !
 ! D76   D(24,9,12,2)          -65.662          estimate D2E/DX2                !
 ! D77   D(24,9,12,7)           54.3928         estimate D2E/DX2                !
 ! D78   D(24,9,12,29)         175.6603         estimate D2E/DX2                !
 ! D79   D(25,9,12,2)          175.1525         estimate D2E/DX2                !
 ! D80   D(25,9,12,7)          -64.7927         estimate D2E/DX2                !
 ! D81   D(25,9,12,29)          56.4748         estimate D2E/DX2                !
 ! D82   D(5,10,13,1)           55.7251         estimate D2E/DX2                !
 ! D83   D(5,10,13,30)         -65.088          estimate D2E/DX2                !
 ! D84   D(5,10,13,31)         177.8594         estimate D2E/DX2                !
 ! D85   D(7,10,13,1)          174.1945         estimate D2E/DX2                !
 ! D86   D(7,10,13,30)          53.3814         estimate D2E/DX2                !
 ! D87   D(7,10,13,31)         -63.6712         estimate D2E/DX2                !
 ! D88   D(26,10,13,1)         -64.471          estimate D2E/DX2                !
 ! D89   D(26,10,13,30)        174.7158         estimate D2E/DX2                !
 ! D90   D(26,10,13,31)         57.6633         estimate D2E/DX2                !
 --------------------------------------------------------------------------------
 Trust Radius=3.00D-01 FncErr=1.00D-07 GrdErr=1.00D-06 EigMax=2.50D+02 EigMin=1.00D-04
 Number of steps in this run=    186 maximum allowed number of steps=    186.
 GradGradGradGradGradGradGradGradGradGradGradGradGradGradGradGradGradGrad

                          Input orientation:                          
 ---------------------------------------------------------------------
 Center     Atomic      Atomic             Coordinates (Angstroms)
 Number     Number       Type             X           Y           Z
 ---------------------------------------------------------------------
      1          6           0       -3.656925    0.599659    0.580779
      2          6           0        2.252926    1.163133   -0.622970
      3          6           0        2.902523   -1.272714    0.722567
      4          8           0        3.570029    0.846771   -0.233211
      5          8           0       -1.439922   -0.687322   -0.673394
      6          6           0       -2.603568   -1.447773   -0.389332
      7          8           0       -0.028530    0.989860   -0.113446
      8          6           0       -3.841835   -0.566363   -0.390822
      9          6           0        1.438260   -0.979956    0.378026
     10          6           0       -1.185968    0.325827    0.269779
     11          6           0        3.835053   -0.544937   -0.231589
     12          6           0        1.243518    0.532918    0.326442
     13          6           0       -2.334209    1.318259    0.302596
     14          1           0       -4.483167    1.299081    0.502845
     15          1           0       -3.655657    0.222295    1.601403
     16          1           0        2.072448    0.814140   -1.636958
     17          1           0        2.169120    2.240914   -0.606692
     18          1           0        3.117078   -0.957344    1.740482
     19          1           0        3.092884   -2.340138    0.666433
     20          1           0       -2.481904   -1.936156    0.574950
     21          1           0       -2.654948   -2.212059   -1.152061
     22          1           0       -4.007757   -0.188509   -1.396770
     23          1           0       -4.707107   -1.164442   -0.119361
     24          1           0        1.202482   -1.411712   -0.589908
     25          1           0        0.784804   -1.435660    1.112173
     26          1           0       -1.054611   -0.131526    1.245230
     27          1           0        4.869342   -0.656545    0.063375
     28          1           0        3.722895   -0.927652   -1.243462
     29          1           0        1.409435    0.934110    1.322847
     30          1           0       -2.374940    1.822374   -0.659583
     31          1           0       -2.131669    2.066044    1.062611
 ---------------------------------------------------------------------
                    Distance matrix (angstroms):
                    1          2          3          4          5
     1  C    0.000000
     2  C    6.057463   0.000000
     3  C    6.822920   2.857586   0.000000
     4  O    7.276847   1.409524   2.418945   0.000000
     5  O    2.853835   4.130842   4.598719   5.258024   0.000000
     6  C    2.498530   5.518782   5.619965   6.588065   1.418820
     7  O    3.714762   2.344073   3.795949   3.603394   2.262412
     8  C    1.528989   6.339650   6.872040   7.547020   2.421500
     9  C    5.338277   2.501700   1.532476   2.873148   3.078157
    10  C    2.505461   3.650216   4.413174   4.810810   1.407316
    11  C    7.622321   2.360891   1.519765   1.416719   5.295359
    12  C    4.907493   1.522320   2.483852   2.413373   3.112797
    13  C    1.530800   4.682152   5.857720   5.947219   2.403052
    14  H    1.085330   6.830878   7.823735   8.099403   3.819774
    15  H    1.088154   6.383131   6.783593   7.481064   3.303269
    16  H    6.147363   1.087447   3.257506   2.052881   3.939491
    17  H    6.168193   1.081157   3.827583   2.011385   4.648032
    18  H    7.046722   3.290758   1.087034   2.712095   5.163909
    19  H    7.362721   3.826356   1.085717   3.345656   5.007321
    20  H    2.794828   5.784395   5.427154   6.709970   2.050287
    21  H    3.451442   5.979890   5.939872   6.996504   2.007544
    22  H    2.157543   6.451500   7.308834   7.736182   2.714012
    23  H    2.169131   7.356173   7.656829   8.518739   3.347998
    24  H    5.387946   2.781070   2.152220   3.291391   2.741169
    25  H    4.914658   3.452510   2.159416   3.844090   2.949180
    26  H    2.783553   4.013242   4.151433   4.952792   2.034328
    27  H    8.633828   3.260051   2.163926   2.009014   6.352211
    28  H    7.753856   2.630057   2.158089   2.047572   5.199751
    29  H    5.131328   2.133104   2.731249   2.664040   3.838340
    30  H    2.162641   4.674728   6.272282   6.039557   2.678250
    31  H    2.169989   4.783420   6.050291   5.972867   3.327650
                    6          7          8          9         10
     6  C    0.000000
     7  O    3.556542   0.000000
     8  C    1.519931   4.127961   0.000000
     9  C    4.140539   2.504634   5.351784   0.000000
    10  C    2.364249   1.388331   2.878546   2.933148   0.000000
    11  C    6.503525   4.158946   7.678569   2.511073   5.120571
    12  C    4.385834   1.421409   5.252019   1.526228   2.438955
    13  C    2.863957   2.365818   2.511088   4.418032   1.518043
    14  H    3.445879   4.507685   2.165601   6.346092   3.445731
    15  H    2.803399   4.084839   2.150722   5.374946   2.807722
    16  H    5.342092   2.601168   6.199789   2.771486   3.806753
    17  H    6.035910   2.576450   6.637694   3.446423   3.961360
    18  H    6.123922   4.138055   7.288470   2.162227   4.725008
    19  H    5.861785   4.630370   7.235634   2.161262   5.057003
    20  H    1.087732   3.880013   2.158347   4.039899   2.624718
    21  H    1.080985   4.269552   2.167141   4.540220   3.258895
    22  H    2.138323   4.343929   1.087306   5.782334   3.317291
    23  H    2.139635   5.150741   1.086317   6.168222   3.843274
    24  H    3.811502   2.740430   5.118533   1.085772   3.076166
    25  H    3.706174   2.836688   4.941706   1.083348   2.774240
    26  H    2.608365   2.038713   3.261038   2.772414   1.085325
    27  H    7.528305   5.170209   8.723476   3.460625   6.137951
    28  H    6.405014   4.361992   7.621198   2.802056   5.287537
    29  H    4.970827   2.033172   5.723977   2.134752   2.866196
    30  H    3.289250   2.548918   2.816039   4.844603   2.125328
    31  H    3.831153   2.639029   3.459292   4.742485   2.133375
                   11         12         13         14         15
    11  C    0.000000
    12  C    2.861682   0.000000
    13  C    6.466579   3.662985   0.000000
    14  H    8.551759   5.780402   2.158353   0.000000
    15  H    7.749790   5.071876   2.152734   1.746731   0.000000
    16  H    2.632286   2.149686   4.840933   6.913032   6.606697
    17  H    3.267568   2.155163   4.685944   6.809629   6.548170
    18  H    2.138839   2.780399   6.079672   8.024146   6.876106
    19  H    2.140095   3.433686   6.555119   8.406380   7.278945
    20  H    6.518431   4.476254   3.269129   3.804867   2.662745
    21  H    6.763629   4.991884   3.831716   4.290595   3.809076
    22  H    7.936898   5.573671   2.821162   2.459162   3.046601
    23  H    8.565330   6.204008   3.460130   2.550732   2.447369
    24  H    2.794659   2.150109   4.556039   6.392895   5.574346
    25  H    3.450087   2.168661   4.238836   5.966708   4.765066
    26  H    5.124521   2.562626   2.151234   3.788505   2.649054
    27  H    1.081302   3.825000   7.473167   9.564885   8.707095
    28  H    1.087629   3.277983   6.642509   8.680287   7.991162
    29  H    3.238437   1.086879   3.899148   5.960568   5.122444
    30  H    6.659681   3.965877   1.087005   2.463675   3.051647
    31  H    6.640327   3.779459   1.085278   2.535964   2.451988
                   16         17         18         19         20
    16  H    0.000000
    17  H    1.762520   0.000000
    18  H    3.954303   4.078812   0.000000
    19  H    4.036876   4.843576   1.751081   0.000000
    20  H    5.761839   6.362092   5.802167   5.590155   0.000000
    21  H    5.633940   6.587718   6.577036   6.030000   1.757451
    22  H    6.167000   6.684320   7.822834   7.701001   3.044697
    23  H    7.223590   7.688722   8.044860   7.927143   2.455430
    24  H    2.609132   3.778405   3.050057   2.452343   3.899569
    25  H    3.778538   4.288126   2.462328   2.518729   3.348206
    26  H    4.356580   4.410275   4.281383   4.734415   2.396483
    27  H    3.588407   4.016896   2.444094   2.520708   7.479300
    28  H    2.431595   3.586015   3.044966   2.457586   6.543946
    29  H    3.035527   2.451118   2.582259   3.739730   4.892882
    30  H    4.663803   4.563601   6.606770   6.998709   3.957532
    31  H    5.150683   4.616702   6.095058   6.845973   4.046984
                   21         22         23         24         25
    21  H    0.000000
    22  H    2.446371   0.000000
    23  H    2.524941   1.753086   0.000000
    24  H    3.979490   5.412379   5.933447   0.000000
    25  H    4.190638   5.551470   5.634831   1.752743   0.000000
    26  H    3.554814   3.962888   4.033578   3.178219   2.258742
    27  H    7.778936   9.008550   9.591649   3.800384   4.288409
    28  H    6.506530   7.767420   8.507914   2.648382   3.799930
    29  H    5.704626   6.164622   6.625403   3.033866   2.459747
    30  H    4.074014   2.693174   3.827782   4.823081   4.872154
    31  H    4.845695   3.827698   4.297206   5.093346   4.557434
                   26         27         28         29         30
    26  H    0.000000
    27  H    6.063468   0.000000
    28  H    5.445362   1.759450   0.000000
    29  H    2.685727   4.010911   3.924818   0.000000
    30  H    3.031387   7.690730   6.714697   4.363546   0.000000
    31  H    2.454123   7.577936   6.968221   3.726716   1.756277
                   31
    31  H    0.000000
 Stoichiometry    C10H18O3
 Framework group  C1[X(C10H18O3)]
 Deg. of freedom    87
 Full point group                 C1      NOp   1
 Largest Abelian subgroup         C1      NOp   1
 Largest concise Abelian subgroup C1      NOp   1
                         Standard orientation:                         
 ---------------------------------------------------------------------
 Center     Atomic      Atomic             Coordinates (Angstroms)
 Number     Number       Type             X           Y           Z
 ---------------------------------------------------------------------
      1          6           0        3.656925   -0.599659    0.580779
      2          6           0       -2.252926   -1.163133   -0.622970
      3          6           0       -2.902523    1.272714    0.722567
      4          8           0       -3.570029   -0.846771   -0.233211
      5          8           0        1.439922    0.687322   -0.673394
      6          6           0        2.603568    1.447773   -0.389332
      7          8           0        0.028530   -0.989860   -0.113446
      8          6           0        3.841835    0.566363   -0.390822
      9          6           0       -1.438260    0.979956    0.378026
     10          6           0        1.185968   -0.325827    0.269779
     11          6           0       -3.835053    0.544937   -0.231589
     12          6           0       -1.243518   -0.532918    0.326442
     13          6           0        2.334209   -1.318259    0.302596
     14          1           0        4.483167   -1.299081    0.502845
     15          1           0        3.655657   -0.222295    1.601403
     16          1           0       -2.072448   -0.814140   -1.636958
     17          1           0       -2.169120   -2.240914   -0.606692
     18          1           0       -3.117078    0.957344    1.740482
     19          1           0       -3.092884    2.340138    0.666433
     20          1           0        2.481904    1.936156    0.574950
     21          1           0        2.654948    2.212059   -1.152061
     22          1           0        4.007757    0.188509   -1.396770
     23          1           0        4.707107    1.164442   -0.119361
     24          1           0       -1.202482    1.411712   -0.589908
     25          1           0       -0.784804    1.435660    1.112173
     26          1           0        1.054611    0.131526    1.245230
     27          1           0       -4.869342    0.656545    0.063375
     28          1           0       -3.722895    0.927652   -1.243462
     29          1           0       -1.409435   -0.934110    1.322847
     30          1           0        2.374940   -1.822374   -0.659583
     31          1           0        2.131669   -2.066044    1.062611
 ---------------------------------------------------------------------
 Rotational constants (GHZ):           2.1436697           0.3768411           0.3438993
 Standard basis: 6-311++G(2d,2p) (5D, 7F)
 There are   557 symmetry adapted cartesian basis functions of A   symmetry.
 There are   531 symmetry adapted basis functions of A   symmetry.
   531 basis functions,   762 primitive gaussians,   557 cartesian basis functions
    51 alpha electrons       51 beta electrons
       nuclear repulsion energy       883.1603045220 Hartrees.
 NAtoms=   31 NActive=   31 NUniq=   31 SFac= 1.00D+00 NAtFMM=   60 NAOKFM=F Big=F
 Integral buffers will be    131072 words long.
 Raffenetti 2 integral format.
 Two-electron integral symmetry is turned on.
 ------------------------------------------------------------------------------
 Polarizable Continuum Model (PCM)
 =================================
 Model                : PCM.
 Atomic radii         : SMD-Coulomb.
 Polarization charges : Total charges.
 Charge compensation  : None.
 Solution method      : On-the-fly selection.
 Cavity type          : VdW (van der Waals Surface) (Alpha=1.000).
 Cavity algorithm     : GePol (No added spheres)
                        Default sphere list used, NSphG=   31.
                        Lebedev-Laikov grids with approx.  5.0 points / Ang**2.
                        Smoothing algorithm: York/Karplus (Gamma=1.0000).
                        Polarization charges: spherical gaussians, with
                                              point-specific exponents (IZeta= 3).
                        Self-potential: point-specific (ISelfS= 7).
                        Self-field    : sphere-specific E.n sum rule (ISelfD= 2).
 1st derivatives      : Analytical E(r).r(x)/FMM algorithm (CHGder, D1EAlg=3).
                        Cavity 1st derivative terms included.
 Solvent              : Water, Eps=  78.355300 Eps(inf)=   1.777849
 ------------------------------------------------------------------------------
 ------------------------------------------------------------------------------
 Atomic radii for non-electrostatic terms: SMD-CDS.
 ------------------------------------------------------------------------------
 Nuclear repulsion after PCM non-electrostatic terms =      883.1666720546 Hartrees.
 One-electron integrals computed using PRISM.
 NBasis=   531 RedAO= T EigKep=  4.60D-06  NBF=   531
 NBsUse=   531 1.00D-06 EigRej= -1.00D+00 NBFU=   531
 ExpMin= 3.60D-02 ExpMax= 8.59D+03 ExpMxC= 1.30D+03 IAcc=3 IRadAn=         5 AccDes= 0.00D+00
 Harris functional with IExCor= 1009 and IRadAn=       5 diagonalized for initial guess.
 HarFok:  IExCor= 1009 AccDes= 0.00D+00 IRadAn=         5 IDoV= 1 UseB2=F ITyADJ=14
 ICtDFT=  3500011 ScaDFX=  1.000000  1.000000  1.000000  1.000000
 FoFCou: FMM=F IPFlag=           0 FMFlag=      100000 FMFlg1=           0
         NFxFlg=           0 DoJE=T BraDBF=F KetDBF=T FulRan=T
         wScrn=  0.000000 ICntrl=       500 IOpCl=  0 I1Cent=   200000004 NGrid=           0
         NMat0=    1 NMatS0=      1 NMatT0=    0 NMatD0=    1 NMtDS0=    0 NMtDT0=    0
 Petite list used in FoFCou.
 Requested convergence on RMS density matrix=1.00D-08 within 128 cycles.
 Requested convergence on MAX density matrix=1.00D-06.
 Requested convergence on             energy=1.00D-06.
 No special actions if energy rises.
 Inv3:  Mode=1 IEnd=    11916147.
 Iteration    1 A*A^-1 deviation from unit magnitude is 8.44D-15 for    242.
 Iteration    1 A*A^-1 deviation from orthogonality  is 3.92D-15 for   1702    242.
 Iteration    1 A^-1*A deviation from unit magnitude is 6.22D-15 for    242.
 Iteration    1 A^-1*A deviation from orthogonality  is 1.42D-14 for   1993   1770.
 Error on total polarization charges =  0.06292
 SCF Done:  E(RM062X) =  -617.503451891     A.U. after   12 cycles
            NFock= 12  Conv=0.53D-08     -V/T= 2.0035
 SMD-CDS (non-electrostatic) energy       (kcal/mol) =       4.00
 (included in total energy above)

 **********************************************************************

            Population analysis using the SCF Density.

 **********************************************************************

 Orbital symmetries:
       Occupied  (A) (A) (A) (A) (A) (A) (A) (A) (A) (A) (A) (A)
                 (A) (A) (A) (A) (A) (A) (A) (A) (A) (A) (A) (A)
                 (A) (A) (A) (A) (A) (A) (A) (A) (A) (A) (A) (A)
                 (A) (A) (A) (A) (A) (A) (A) (A) (A) (A) (A) (A)
                 (A) (A) (A)
       Virtual   (A) (A) (A) (A) (A) (A) (A) (A) (A) (A) (A) (A)
                 (A) (A) (A) (A) (A) (A) (A) (A) (A) (A) (A) (A)
                 (A) (A) (A) (A) (A) (A) (A) (A) (A) (A) (A) (A)
                 (A) (A) (A) (A) (A) (A) (A) (A) (A) (A) (A) (A)
                 (A) (A) (A) (A) (A) (A) (A) (A) (A) (A) (A) (A)
                 (A) (A) (A) (A) (A) (A) (A) (A) (A) (A) (A) (A)
                 (A) (A) (A) (A) (A) (A) (A) (A) (A) (A) (A) (A)
                 (A) (A) (A) (A) (A) (A) (A) (A) (A) (A) (A) (A)
                 (A) (A) (A) (A) (A) (A) (A) (A) (A) (A) (A) (A)
                 (A) (A) (A) (A) (A) (A) (A) (A) (A) (A) (A) (A)
                 (A) (A) (A) (A) (A) (A) (A) (A) (A) (A) (A) (A)
                 (A) (A) (A) (A) (A) (A) (A) (A) (A) (A) (A) (A)
                 (A) (A) (A) (A) (A) (A) (A) (A) (A) (A) (A) (A)
                 (A) (A) (A) (A) (A) (A) (A) (A) (A) (A) (A) (A)
                 (A) (A) (A) (A) (A) (A) (A) (A) (A) (A) (A) (A)
                 (A) (A) (A) (A) (A) (A) (A) (A) (A) (A) (A) (A)
                 (A) (A) (A) (A) (A) (A) (A) (A) (A) (A) (A) (A)
                 (A) (A) (A) (A) (A) (A) (A) (A) (A) (A) (A) (A)
                 (A) (A) (A) (A) (A) (A) (A) (A) (A) (A) (A) (A)
                 (A) (A) (A) (A) (A) (A) (A) (A) (A) (A) (A) (A)
                 (A) (A) (A) (A) (A) (A) (A) (A) (A) (A) (A) (A)
                 (A) (A) (A) (A) (A) (A) (A) (A) (A) (A) (A) (A)
                 (A) (A) (A) (A) (A) (A) (A) (A) (A) (A) (A) (A)
                 (A) (A) (A) (A) (A) (A) (A) (A) (A) (A) (A) (A)
                 (A) (A) (A) (A) (A) (A) (A) (A) (A) (A) (A) (A)
                 (A) (A) (A) (A) (A) (A) (A) (A) (A) (A) (A) (A)
                 (A) (A) (A) (A) (A) (A) (A) (A) (A) (A) (A) (A)
                 (A) (A) (A) (A) (A) (A) (A) (A) (A) (A) (A) (A)
                 (A) (A) (A) (A) (A) (A) (A) (A) (A) (A) (A) (A)
                 (A) (A) (A) (A) (A) (A) (A) (A) (A) (A) (A) (A)
                 (A) (A) (A) (A) (A) (A) (A) (A) (A) (A) (A) (A)
                 (A) (A) (A) (A) (A) (A) (A) (A) (A) (A) (A) (A)
                 (A) (A) (A) (A) (A) (A) (A) (A) (A) (A) (A) (A)
                 (A) (A) (A) (A) (A) (A) (A) (A) (A) (A) (A) (A)
                 (A) (A) (A) (A) (A) (A) (A) (A) (A) (A) (A) (A)
                 (A) (A) (A) (A) (A) (A) (A) (A) (A) (A) (A) (A)
                 (A) (A) (A) (A) (A) (A) (A) (A) (A) (A) (A) (A)
                 (A) (A) (A) (A) (A) (A) (A) (A) (A) (A) (A) (A)
                 (A) (A) (A) (A) (A) (A) (A) (A) (A) (A) (A) (A)
                 (A) (A) (A) (A) (A) (A) (A) (A) (A) (A) (A) (A)
 The electronic state is 1-A.
 Alpha  occ. eigenvalues --  -19.63518 -19.62974 -19.62742 -10.63159 -10.58441
 Alpha  occ. eigenvalues --  -10.57439 -10.57312 -10.57223 -10.52524 -10.52462
 Alpha  occ. eigenvalues --  -10.52411 -10.52237 -10.52102  -1.20373  -1.16804
 Alpha  occ. eigenvalues --   -1.14068  -0.90495  -0.89320  -0.87378  -0.83802
 Alpha  occ. eigenvalues --   -0.74967  -0.73645  -0.72660  -0.69683  -0.65534
 Alpha  occ. eigenvalues --   -0.65069  -0.59764  -0.58251  -0.56495  -0.55756
 Alpha  occ. eigenvalues --   -0.54717  -0.52723  -0.52141  -0.51043  -0.50026
 Alpha  occ. eigenvalues --   -0.47831  -0.46739  -0.45767  -0.45382  -0.44604
 Alpha  occ. eigenvalues --   -0.42972  -0.41179  -0.40391  -0.39785  -0.39282
 Alpha  occ. eigenvalues --   -0.38612  -0.37299  -0.36623  -0.34641  -0.32580
 Alpha  occ. eigenvalues --   -0.32130
 Alpha virt. eigenvalues --    0.00489   0.01262   0.01372   0.01505   0.02634
 Alpha virt. eigenvalues --    0.02930   0.03004   0.03941   0.04103   0.04746
 Alpha virt. eigenvalues --    0.05002   0.05356   0.05943   0.06227   0.07211
 Alpha virt. eigenvalues --    0.07515   0.07902   0.08291   0.09094   0.10090
 Alpha virt. eigenvalues --    0.10753   0.11114   0.11590   0.11692   0.12062
 Alpha virt. eigenvalues --    0.12715   0.12873   0.13372   0.13663   0.13933
 Alpha virt. eigenvalues --    0.14148   0.14566   0.15003   0.15269   0.15438
 Alpha virt. eigenvalues --    0.15741   0.15916   0.16166   0.16262   0.16408
 Alpha virt. eigenvalues --    0.16955   0.17411   0.17819   0.17956   0.18269
 Alpha virt. eigenvalues --    0.18689   0.18855   0.19406   0.19646   0.19971
 Alpha virt. eigenvalues --    0.20156   0.20314   0.20895   0.21325   0.21734
 Alpha virt. eigenvalues --    0.22289   0.23073   0.23509   0.24247   0.25110
 Alpha virt. eigenvalues --    0.25586   0.26137   0.26955   0.27073   0.27516
 Alpha virt. eigenvalues --    0.28320   0.28344   0.28943   0.29865   0.30070
 Alpha virt. eigenvalues --    0.30499   0.31052   0.31149   0.31757   0.32349
 Alpha virt. eigenvalues --    0.32496   0.32973   0.33118   0.34008   0.34533
 Alpha virt. eigenvalues --    0.35166   0.35681   0.35977   0.36367   0.36590
 Alpha virt. eigenvalues --    0.36760   0.37338   0.38003   0.38246   0.38610
 Alpha virt. eigenvalues --    0.38721   0.39431   0.39868   0.40321   0.40573
 Alpha virt. eigenvalues --    0.41162   0.41878   0.42108   0.43967   0.44372
 Alpha virt. eigenvalues --    0.46329   0.47409   0.49708   0.50025   0.51500
 Alpha virt. eigenvalues --    0.51783   0.53452   0.54297   0.55820   0.56124
 Alpha virt. eigenvalues --    0.56304   0.57464   0.57994   0.58555   0.59625
 Alpha virt. eigenvalues --    0.60384   0.61155   0.61353   0.61906   0.62208
 Alpha virt. eigenvalues --    0.62676   0.63615   0.63747   0.63939   0.64408
 Alpha virt. eigenvalues --    0.64964   0.65235   0.66178   0.66792   0.67248
 Alpha virt. eigenvalues --    0.67696   0.69151   0.70179   0.70306   0.70901
 Alpha virt. eigenvalues --    0.71746   0.71858   0.73004   0.73628   0.73999
 Alpha virt. eigenvalues --    0.74168   0.75007   0.75359   0.76075   0.76158
 Alpha virt. eigenvalues --    0.76735   0.77901   0.78177   0.78811   0.80460
 Alpha virt. eigenvalues --    0.82008   0.82377   0.83498   0.84479   0.85436
 Alpha virt. eigenvalues --    0.85743   0.87322   0.88966   0.89968   0.90795
 Alpha virt. eigenvalues --    0.91713   0.92332   0.93645   0.94391   0.95673
 Alpha virt. eigenvalues --    0.97385   0.99017   1.00006   1.02301   1.02473
 Alpha virt. eigenvalues --    1.04029   1.04547   1.05056   1.06210   1.07295
 Alpha virt. eigenvalues --    1.07849   1.09188   1.09426   1.10845   1.11458
 Alpha virt. eigenvalues --    1.13034   1.13127   1.14389   1.16044   1.16375
 Alpha virt. eigenvalues --    1.16803   1.17875   1.18462   1.19198   1.20122
 Alpha virt. eigenvalues --    1.20615   1.21651   1.22606   1.23186   1.23703
 Alpha virt. eigenvalues --    1.24228   1.24844   1.26079   1.27383   1.27612
 Alpha virt. eigenvalues --    1.28403   1.29279   1.30090   1.30683   1.31057
 Alpha virt. eigenvalues --    1.31656   1.32478   1.33034   1.33710   1.34255
 Alpha virt. eigenvalues --    1.34933   1.36324   1.37148   1.37317   1.37832
 Alpha virt. eigenvalues --    1.38899   1.39996   1.40561   1.41586   1.41940
 Alpha virt. eigenvalues --    1.42941   1.43379   1.44183   1.45068   1.46057
 Alpha virt. eigenvalues --    1.46297   1.46735   1.47026   1.48116   1.48426
 Alpha virt. eigenvalues --    1.49057   1.50449   1.50692   1.51112   1.52660
 Alpha virt. eigenvalues --    1.53143   1.53478   1.54614   1.55194   1.56294
 Alpha virt. eigenvalues --    1.56925   1.57248   1.57806   1.58681   1.59147
 Alpha virt. eigenvalues --    1.59954   1.60588   1.61208   1.61840   1.62416
 Alpha virt. eigenvalues --    1.63372   1.64359   1.65869   1.66482   1.67977
 Alpha virt. eigenvalues --    1.68253   1.68898   1.69602   1.71647   1.72697
 Alpha virt. eigenvalues --    1.73473   1.75632   1.75709   1.78128   1.78750
 Alpha virt. eigenvalues --    1.79550   1.80874   1.81632   1.82731   1.85322
 Alpha virt. eigenvalues --    1.85955   1.89155   1.92969   1.96171   1.98235
 Alpha virt. eigenvalues --    1.99753   2.06737   2.13308   2.15361   2.19798
 Alpha virt. eigenvalues --    2.23208   2.27069   2.33119   2.34155   2.36527
 Alpha virt. eigenvalues --    2.41614   2.43839   2.46776   2.51021   2.51624
 Alpha virt. eigenvalues --    2.56613   2.76638   2.77607   2.79275   2.80145
 Alpha virt. eigenvalues --    2.87160   2.90213   2.93036   2.93279   2.95926
 Alpha virt. eigenvalues --    2.96523   2.98528   3.01577   3.03501   3.04699
 Alpha virt. eigenvalues --    3.07464   3.09019   3.09576   3.10253   3.10721
 Alpha virt. eigenvalues --    3.13120   3.15995   3.18643   3.20890   3.24263
 Alpha virt. eigenvalues --    3.27285   3.29377   3.32296   3.34477   3.35459
 Alpha virt. eigenvalues --    3.35511   3.37150   3.38600   3.40570   3.42709
 Alpha virt. eigenvalues --    3.44048   3.44149   3.44847   3.45461   3.47138
 Alpha virt. eigenvalues --    3.48865   3.49281   3.49818   3.51366   3.53472
 Alpha virt. eigenvalues --    3.53668   3.55207   3.55752   3.56281   3.56571
 Alpha virt. eigenvalues --    3.57283   3.58683   3.59038   3.59735   3.60062
 Alpha virt. eigenvalues --    3.61392   3.61642   3.62483   3.62997   3.65424
 Alpha virt. eigenvalues --    3.67235   3.68220   3.68701   3.70036   3.70482
 Alpha virt. eigenvalues --    3.71318   3.71533   3.72208   3.73395   3.74641
 Alpha virt. eigenvalues --    3.75124   3.76048   3.76620   3.77288   3.78635
 Alpha virt. eigenvalues --    3.78849   3.79999   3.80811   3.82213   3.84248
 Alpha virt. eigenvalues --    3.86009   3.87243   3.89683   3.90705   3.92065
 Alpha virt. eigenvalues --    3.92656   3.94060   3.96208   3.97031   3.98091
 Alpha virt. eigenvalues --    4.00663   4.03390   4.03981   4.04308   4.04730
 Alpha virt. eigenvalues --    4.05496   4.06386   4.06754   4.07701   4.07926
 Alpha virt. eigenvalues --    4.09074   4.09946   4.10648   4.11706   4.12313
 Alpha virt. eigenvalues --    4.12669   4.13510   4.14217   4.14460   4.15764
 Alpha virt. eigenvalues --    4.18036   4.18798   4.19355   4.20312   4.20961
 Alpha virt. eigenvalues --    4.23022   4.23496   4.24561   4.26100   4.27727
 Alpha virt. eigenvalues --    4.27893   4.29656   4.31650   4.31955   4.33537
 Alpha virt. eigenvalues --    4.33882   4.36380   4.36904   4.37291   4.39991
 Alpha virt. eigenvalues --    4.43386   4.44152   4.46327   4.50185   4.53953
 Alpha virt. eigenvalues --    4.59914   4.62227   4.76165   4.77681   4.84435
 Alpha virt. eigenvalues --    4.89010   4.91817   4.93675   4.99666   5.00869
 Alpha virt. eigenvalues --    5.06995   5.07596   5.08440   5.08953   5.12252
 Alpha virt. eigenvalues --    5.12533   5.14370   5.15707   5.30101   5.35494
 Alpha virt. eigenvalues --    5.39914   5.55946   5.58392   5.64607   5.87354
 Alpha virt. eigenvalues --    5.89354   6.03974   7.02327   7.05043   7.06573
 Alpha virt. eigenvalues --    7.08406   7.10365   7.12845   7.13350   7.17380
 Alpha virt. eigenvalues --    7.22316   7.36411   7.42847   7.46304   7.53772
 Alpha virt. eigenvalues --    7.55000   7.60003  23.96434  23.97171  24.06185
 Alpha virt. eigenvalues --   24.08414  24.11294  24.12591  24.15086  24.16691
 Alpha virt. eigenvalues --   24.17889  24.19925  50.17589  50.19288  50.24339
          Condensed to atoms (all electrons):
               1          2          3          4          5          6
     1  C    5.706433   0.014723  -0.003161  -0.000308   0.026215  -0.041520
     2  C    0.014723   5.993108   0.170278   0.123973  -0.022550   0.003609
     3  C   -0.003161   0.170278   6.431777  -0.001971  -0.009487   0.006137
     4  O   -0.000308   0.123973  -0.001971   8.442192  -0.000003   0.000003
     5  O    0.026215  -0.022550  -0.009487  -0.000003   8.459121   0.006596
     6  C   -0.041520   0.003609   0.006137   0.000003   0.006596   5.384661
     7  O    0.037333  -0.162892   0.002196  -0.002767  -0.007015   0.005401
     8  C    0.000199  -0.007961  -0.009943   0.000103  -0.045239   0.046021
     9  C   -0.018364   0.173509  -0.715728  -0.059575   0.014670   0.004968
    10  C    0.003856   0.029576  -0.195815  -0.008892   0.233642  -0.088820
    11  C    0.000367  -0.280519   0.016301   0.097889   0.002724   0.000076
    12  C   -0.044971  -0.432805   0.052179   0.013191  -0.056163   0.007597
    13  C   -0.079819  -0.035285  -0.021119   0.000618  -0.034110  -0.029892
    14  H    0.431089   0.000527  -0.000139  -0.000012  -0.002280   0.009353
    15  H    0.513840  -0.000192   0.000549   0.000020   0.000652  -0.011241
    16  H   -0.000472   0.365783   0.010156  -0.032821  -0.003234   0.000691
    17  H   -0.002374   0.466306  -0.003040  -0.070493   0.001071  -0.000463
    18  H   -0.000340   0.012498   0.466847  -0.000260  -0.000914   0.000189
    19  H   -0.000120  -0.000548   0.457315   0.007323   0.001014  -0.000068
    20  H   -0.002697  -0.000155   0.003779  -0.000021  -0.030686   0.491293
    21  H    0.004468   0.001621   0.001893   0.000007  -0.070566   0.432339
    22  H   -0.011605  -0.001161   0.000649   0.000005  -0.001898  -0.063867
    23  H   -0.053557   0.000448  -0.000407  -0.000005   0.006626  -0.042898
    24  H   -0.001790  -0.043399  -0.038292  -0.001244  -0.005343   0.006314
    25  H    0.004260   0.013013   0.006420  -0.001796  -0.008208  -0.001936
    26  H   -0.027682  -0.002620  -0.015026  -0.000109  -0.056769   0.018274
    27  H    0.000011   0.011179  -0.039639  -0.069114  -0.000022  -0.000001
    28  H    0.000081  -0.018725  -0.037477  -0.041339   0.000001  -0.000053
    29  H   -0.003638  -0.100908  -0.027053  -0.004756   0.002958  -0.000677
    30  H   -0.019830   0.005521   0.000791   0.000089  -0.007762  -0.001650
    31  H   -0.032285  -0.000173   0.000330   0.000259   0.005106   0.001193
               7          8          9         10         11         12
     1  C    0.037333   0.000199  -0.018364   0.003856   0.000367  -0.044971
     2  C   -0.162892  -0.007961   0.173509   0.029576  -0.280519  -0.432805
     3  C    0.002196  -0.009943  -0.715728  -0.195815   0.016301   0.052179
     4  O   -0.002767   0.000103  -0.059575  -0.008892   0.097889   0.013191
     5  O   -0.007015  -0.045239   0.014670   0.233642   0.002724  -0.056163
     6  C    0.005401   0.046021   0.004968  -0.088820   0.000076   0.007597
     7  O    8.513294   0.003794  -0.042901   0.152692   0.008051   0.221729
     8  C    0.003794   5.601364   0.008269   0.106125  -0.000412  -0.022474
     9  C   -0.042901   0.008269   6.633924   0.306437  -0.050330  -0.691882
    10  C    0.152692   0.106125   0.306437   6.360070  -0.004395  -0.546730
    11  C    0.008051  -0.000412  -0.050330  -0.004395   5.470060   0.192555
    12  C    0.221729  -0.022474  -0.691882  -0.546730   0.192555   6.833197
    13  C   -0.268369  -0.004120  -0.115406  -0.764702   0.000486   0.055699
    14  H   -0.002219  -0.030973  -0.000956   0.042860  -0.000005  -0.004162
    15  H   -0.000685  -0.061402   0.000415  -0.023540  -0.000145   0.005221
    16  H    0.007441   0.001256  -0.037511  -0.025668   0.002847   0.041365
    17  H   -0.002398  -0.000040   0.040533   0.022330  -0.000862  -0.105147
    18  H    0.002268   0.000127  -0.002845  -0.006572  -0.080959  -0.025511
    19  H   -0.001501   0.000188  -0.052982  -0.000778  -0.032149  -0.004265
    20  H    0.004425  -0.079994   0.002799  -0.044449   0.000822   0.005156
    21  H   -0.002196  -0.032144   0.000466   0.013664  -0.000703  -0.001794
    22  H    0.002108   0.468828   0.000108  -0.003316   0.000096   0.005176
    23  H    0.000350   0.456689  -0.000317   0.005533   0.000003  -0.001568
    24  H    0.010684  -0.004721   0.443550  -0.041289   0.001180   0.033899
    25  H   -0.015392  -0.000948   0.402799   0.036807  -0.013458  -0.045450
    26  H   -0.013803   0.005389   0.006676   0.444748   0.004096   0.040419
    27  H    0.000505  -0.000091  -0.002302  -0.003206   0.429731   0.012016
    28  H   -0.000525   0.000268  -0.009569   0.000555   0.454330   0.006750
    29  H   -0.051455   0.001790  -0.045108  -0.043873   0.013390   0.562533
    30  H    0.000987  -0.017066   0.006313  -0.084213  -0.000819   0.002936
    31  H   -0.002538   0.003199  -0.004560  -0.021904   0.000129  -0.002891
              13         14         15         16         17         18
     1  C   -0.079819   0.431089   0.513840  -0.000472  -0.002374  -0.000340
     2  C   -0.035285   0.000527  -0.000192   0.365783   0.466306   0.012498
     3  C   -0.021119  -0.000139   0.000549   0.010156  -0.003040   0.466847
     4  O    0.000618  -0.000012   0.000020  -0.032821  -0.070493  -0.000260
     5  O   -0.034110  -0.002280   0.000652  -0.003234   0.001071  -0.000914
     6  C   -0.029892   0.009353  -0.011241   0.000691  -0.000463   0.000189
     7  O   -0.268369  -0.002219  -0.000685   0.007441  -0.002398   0.002268
     8  C   -0.004120  -0.030973  -0.061402   0.001256  -0.000040   0.000127
     9  C   -0.115406  -0.000956   0.000415  -0.037511   0.040533  -0.002845
    10  C   -0.764702   0.042860  -0.023540  -0.025668   0.022330  -0.006572
    11  C    0.000486  -0.000005  -0.000145   0.002847  -0.000862  -0.080959
    12  C    0.055699  -0.004162   0.005221   0.041365  -0.105147  -0.025511
    13  C    6.878344  -0.074588  -0.037599  -0.001916  -0.002531  -0.000015
    14  H   -0.074588   0.459083  -0.002009  -0.000167   0.000076  -0.000026
    15  H   -0.037599  -0.002009   0.454364   0.000109  -0.000045   0.000051
    16  H   -0.001916  -0.000167   0.000109   0.480714  -0.022087   0.002229
    17  H   -0.002531   0.000076  -0.000045  -0.022087   0.476781  -0.001595
    18  H   -0.000015  -0.000026   0.000051   0.002229  -0.001595   0.470627
    19  H   -0.000232   0.000001  -0.000005  -0.001935   0.001649  -0.009885
    20  H    0.012748  -0.000895  -0.000522  -0.000083   0.000059  -0.000093
    21  H   -0.002146  -0.000049  -0.001448   0.000069   0.000076   0.000076
    22  H   -0.021939  -0.001148   0.002675   0.000189  -0.000088   0.000004
    23  H    0.005291  -0.007810  -0.005585  -0.000011  -0.000006  -0.000007
    24  H   -0.006930  -0.000026  -0.000306  -0.002016  -0.003524   0.001690
    25  H    0.004167   0.000072   0.001891  -0.000843   0.000291  -0.003417
    26  H   -0.067042  -0.001577  -0.010268  -0.000358   0.000620   0.000357
    27  H    0.000059   0.000001  -0.000004  -0.001888   0.001287  -0.003731
    28  H   -0.000268  -0.000003   0.000013   0.009339  -0.002463   0.002150
    29  H    0.008283  -0.000169   0.000401   0.005200  -0.012343  -0.003793
    30  H    0.474154  -0.004848   0.005038  -0.000481  -0.000067   0.000069
    31  H    0.438521  -0.009754  -0.006127   0.000376   0.000187   0.000048
              19         20         21         22         23         24
     1  C   -0.000120  -0.002697   0.004468  -0.011605  -0.053557  -0.001790
     2  C   -0.000548  -0.000155   0.001621  -0.001161   0.000448  -0.043399
     3  C    0.457315   0.003779   0.001893   0.000649  -0.000407  -0.038292
     4  O    0.007323  -0.000021   0.000007   0.000005  -0.000005  -0.001244
     5  O    0.001014  -0.030686  -0.070566  -0.001898   0.006626  -0.005343
     6  C   -0.000068   0.491293   0.432339  -0.063867  -0.042898   0.006314
     7  O   -0.001501   0.004425  -0.002196   0.002108   0.000350   0.010684
     8  C    0.000188  -0.079994  -0.032144   0.468828   0.456689  -0.004721
     9  C   -0.052982   0.002799   0.000466   0.000108  -0.000317   0.443550
    10  C   -0.000778  -0.044449   0.013664  -0.003316   0.005533  -0.041289
    11  C   -0.032149   0.000822  -0.000703   0.000096   0.000003   0.001180
    12  C   -0.004265   0.005156  -0.001794   0.005176  -0.001568   0.033899
    13  C   -0.000232   0.012748  -0.002146  -0.021939   0.005291  -0.006930
    14  H    0.000001  -0.000895  -0.000049  -0.001148  -0.007810  -0.000026
    15  H   -0.000005  -0.000522  -0.001448   0.002675  -0.005585  -0.000306
    16  H   -0.001935  -0.000083   0.000069   0.000189  -0.000011  -0.002016
    17  H    0.001649   0.000059   0.000076  -0.000088  -0.000006  -0.003524
    18  H   -0.009885  -0.000093   0.000076   0.000004  -0.000007   0.001690
    19  H    0.483712   0.000008  -0.000019   0.000000  -0.000010  -0.007265
    20  H    0.000008   0.478459  -0.007226   0.003195   0.001408   0.001438
    21  H   -0.000019  -0.007226   0.476605  -0.002860  -0.009658  -0.002059
    22  H    0.000000   0.003195  -0.002860   0.469756  -0.009743   0.000100
    23  H   -0.000010   0.001408  -0.009658  -0.009743   0.472687   0.000088
    24  H   -0.007265   0.001438  -0.002059   0.000100   0.000088   0.435275
    25  H   -0.008902  -0.004356   0.002152   0.000073  -0.000238  -0.018865
    26  H   -0.000056   0.001088  -0.001712  -0.001424   0.001258   0.005942
    27  H   -0.009615   0.000023  -0.000026   0.000007  -0.000001   0.000765
    28  H    0.004565  -0.000043   0.000116   0.000001  -0.000003  -0.008408
    29  H   -0.002029   0.000349  -0.000283   0.000274  -0.000092   0.004228
    30  H   -0.000006   0.000352  -0.000389   0.001853  -0.002536  -0.000493
    31  H   -0.000039  -0.000648   0.001453  -0.001793   0.001514  -0.000214
              25         26         27         28         29         30
     1  C    0.004260  -0.027682   0.000011   0.000081  -0.003638  -0.019830
     2  C    0.013013  -0.002620   0.011179  -0.018725  -0.100908   0.005521
     3  C    0.006420  -0.015026  -0.039639  -0.037477  -0.027053   0.000791
     4  O   -0.001796  -0.000109  -0.069114  -0.041339  -0.004756   0.000089
     5  O   -0.008208  -0.056769  -0.000022   0.000001   0.002958  -0.007762
     6  C   -0.001936   0.018274  -0.000001  -0.000053  -0.000677  -0.001650
     7  O   -0.015392  -0.013803   0.000505  -0.000525  -0.051455   0.000987
     8  C   -0.000948   0.005389  -0.000091   0.000268   0.001790  -0.017066
     9  C    0.402799   0.006676  -0.002302  -0.009569  -0.045108   0.006313
    10  C    0.036807   0.444748  -0.003206   0.000555  -0.043873  -0.084213
    11  C   -0.013458   0.004096   0.429731   0.454330   0.013390  -0.000819
    12  C   -0.045450   0.040419   0.012016   0.006750   0.562533   0.002936
    13  C    0.004167  -0.067042   0.000059  -0.000268   0.008283   0.474154
    14  H    0.000072  -0.001577   0.000001  -0.000003  -0.000169  -0.004848
    15  H    0.001891  -0.010268  -0.000004   0.000013   0.000401   0.005038
    16  H   -0.000843  -0.000358  -0.001888   0.009339   0.005200  -0.000481
    17  H    0.000291   0.000620   0.001287  -0.002463  -0.012343  -0.000067
    18  H   -0.003417   0.000357  -0.003731   0.002150  -0.003793   0.000069
    19  H   -0.008902  -0.000056  -0.009615   0.004565  -0.002029  -0.000006
    20  H   -0.004356   0.001088   0.000023  -0.000043   0.000349   0.000352
    21  H    0.002152  -0.001712  -0.000026   0.000116  -0.000283  -0.000389
    22  H    0.000073  -0.001424   0.000007   0.000001   0.000274   0.001853
    23  H   -0.000238   0.001258  -0.000001  -0.000003  -0.000092  -0.002536
    24  H   -0.018865   0.005942   0.000765  -0.008408   0.004228  -0.000493
    25  H    0.487926  -0.019134   0.001188   0.001068  -0.005832   0.000138
    26  H   -0.019134   0.433445  -0.000134  -0.000646  -0.005211  -0.002024
    27  H    0.001188  -0.000134   0.463720  -0.009404  -0.000935  -0.000041
    28  H    0.001068  -0.000646  -0.009404   0.485807   0.000682   0.000005
    29  H   -0.005832  -0.005211  -0.000935   0.000682   0.436943   0.001122
    30  H    0.000138  -0.002024  -0.000041   0.000005   0.001122   0.463817
    31  H    0.000530   0.001010   0.000001   0.000081  -0.002261  -0.019711
              31
     1  C   -0.032285
     2  C   -0.000173
     3  C    0.000330
     4  O    0.000259
     5  O    0.005106
     6  C    0.001193
     7  O   -0.002538
     8  C    0.003199
     9  C   -0.004560
    10  C   -0.021904
    11  C    0.000129
    12  C   -0.002891
    13  C    0.438521
    14  H   -0.009754
    15  H   -0.006127
    16  H    0.000376
    17  H    0.000187
    18  H    0.000048
    19  H   -0.000039
    20  H   -0.000648
    21  H    0.001453
    22  H   -0.001793
    23  H    0.001514
    24  H   -0.000214
    25  H    0.000530
    26  H    0.001010
    27  H    0.000001
    28  H    0.000081
    29  H   -0.002261
    30  H   -0.019711
    31  H    0.474672
 Mulliken charges:
               1
     1  C   -0.398343
     2  C   -0.275780
     3  C   -0.509301
     4  O   -0.390186
     5  O   -0.398149
     6  C   -0.141629
     7  O   -0.396603
     8  C   -0.386081
     9  C   -0.195097
    10  C    0.149266
    11  C   -0.230376
    12  C   -0.105804
    13  C   -0.310344
    14  H    0.200752
    15  H    0.175881
    16  H    0.203727
    17  H    0.218301
    18  H    0.180733
    19  H    0.176631
    20  H    0.164466
    21  H    0.200273
    22  H    0.165746
    23  H    0.182557
    24  H    0.241032
    25  H    0.185980
    26  H    0.262271
    27  H    0.219661
    28  H    0.163113
    29  H    0.272264
    30  H    0.198750
    31  H    0.176288
 Sum of Mulliken charges =  -0.00000
 Mulliken charges with hydrogens summed into heavy atoms:
               1
     1  C   -0.021709
     2  C    0.146249
     3  C   -0.151937
     4  O   -0.390186
     5  O   -0.398149
     6  C    0.223110
     7  O   -0.396603
     8  C   -0.037777
     9  C    0.231914
    10  C    0.411537
    11  C    0.152398
    12  C    0.166460
    13  C    0.064694
 Electronic spatial extent (au):  <R**2>=           3292.2608
 Charge=              0.0000 electrons
 Dipole moment (field-independent basis, Debye):
    X=              2.6381    Y=              2.9100    Z=              2.4277  Tot=              4.6175
 Quadrupole moment (field-independent basis, Debye-Ang):
   XX=            -75.3692   YY=            -79.0456   ZZ=            -79.3744
   XY=             -6.3608   XZ=              1.8422   YZ=             -0.0484
 Traceless Quadrupole moment (field-independent basis, Debye-Ang):
   XX=              2.5605   YY=             -1.1158   ZZ=             -1.4447
   XY=             -6.3608   XZ=              1.8422   YZ=             -0.0484
 Octapole moment (field-independent basis, Debye-Ang**2):
  XXX=             49.5589  YYY=              3.1297  ZZZ=             -0.2157  XYY=              5.2898
  XXY=             38.1691  XXZ=              0.9279  XZZ=             -3.7835  YZZ=             -0.3086
  YYZ=             -1.0856  XYZ=             -0.6909
 Hexadecapole moment (field-independent basis, Debye-Ang**3):
 XXXX=          -3512.2642 YYYY=           -582.8743 ZZZZ=           -251.7109 XXXY=           -113.3829
 XXXZ=            -16.3588 YYYX=             16.1045 YYYZ=             -4.0550 ZZZX=              1.7964
 ZZZY=             -2.4945 XXYY=           -675.8299 XXZZ=           -628.2907 YYZZ=           -138.5738
 XXYZ=             -4.1075 YYXZ=             -1.9588 ZZXY=              4.2396
 N-N= 8.831666720546D+02 E-N=-3.208431928120D+03  KE= 6.153592596188D+02
 D1PCM: PCM CHGder 1st derivatives, ID1Alg=3 FixD1E=F DoIter=F DoCFld=F I1PDM=0.
 Calling FoFJK, ICntrl=      2127 FMM=F ISym2X=0 I1Cent= 0 IOpClX= 0 NMat=1 NMatS=1 NMatT=0.
 ***** Axes restored to original set *****
 -------------------------------------------------------------------
 Center     Atomic                   Forces (Hartrees/Bohr)
 Number     Number              X              Y              Z
 -------------------------------------------------------------------
      1        6           0.002630913   -0.001431568   -0.002925564
      2        6          -0.002612957   -0.004397265    0.003297280
      3        6          -0.001053352    0.000901331   -0.002815187
      4        8           0.008258156    0.008280667    0.003409172
      5        8           0.007501176   -0.004140881   -0.011072379
      6        6          -0.004828355    0.004512228    0.001530703
      7        8           0.000378646    0.006765520   -0.013034212
      8        6           0.002025798    0.000267276    0.002680621
      9        6           0.003918344    0.003797574   -0.002161129
     10        6          -0.005349194    0.005495251    0.005858549
     11        6          -0.005929328   -0.003073536    0.003053508
     12        6          -0.000463870   -0.005631752    0.003210432
     13        6          -0.001299999   -0.002820182    0.002001897
     14        1          -0.001944228    0.001775189   -0.000315229
     15        1           0.000691732   -0.001577336    0.002888596
     16        1          -0.002337225   -0.002834812   -0.005088230
     17        1          -0.001024011    0.004929095    0.000404260
     18        1           0.000590439    0.001713083    0.002844338
     19        1           0.000436707   -0.002873745   -0.000236847
     20        1          -0.000069014   -0.001989945    0.005380640
     21        1          -0.000458832   -0.003214725   -0.003247871
     22        1           0.000297687    0.001303219   -0.003076543
     23        1          -0.002129905   -0.001528105    0.000874255
     24        1          -0.000901410   -0.000699847   -0.004533774
     25        1          -0.003175001   -0.001079851    0.002753525
     26        1           0.000337505   -0.003673679    0.007829580
     27        1           0.004229796   -0.000525139    0.001503962
     28        1          -0.001420791   -0.002548633   -0.004937557
     29        1           0.002352137    0.001603221    0.005395225
     30        1           0.000473527    0.000785721   -0.003823389
     31        1           0.000874910    0.001911626    0.002351368
 -------------------------------------------------------------------
 Cartesian Forces:  Max     0.013034212 RMS     0.003777337

 GradGradGradGradGradGradGradGradGradGradGradGradGradGradGradGradGradGrad
 Berny optimization.
 FormGI is forming the generalized inverse of G from B-inverse, IUseBI=4.
 Internal  Forces:  Max     0.015920730 RMS     0.002368852
 Search for a local minimum.
 Step number   1 out of a maximum of  186
 All quantities printed in internal units (Hartrees-Bohrs-Radians)
 Mixed Optimization -- RFO/linear search
 Second derivative matrix not updated -- first step.
 ITU=  0
     Eigenvalues ---    0.00613   0.00639   0.00749   0.00752   0.01451
     Eigenvalues ---    0.01490   0.01846   0.02678   0.02739   0.03114
     Eigenvalues ---    0.03180   0.04015   0.04161   0.04527   0.04773
     Eigenvalues ---    0.04865   0.04925   0.05148   0.05150   0.05187
     Eigenvalues ---    0.05373   0.05715   0.05773   0.06164   0.06191
     Eigenvalues ---    0.06315   0.06423   0.06610   0.07651   0.07691
     Eigenvalues ---    0.07938   0.07958   0.08005   0.08027   0.08072
     Eigenvalues ---    0.08742   0.09327   0.09897   0.10866   0.11485
     Eigenvalues ---    0.11605   0.11702   0.11722   0.12328   0.12475
     Eigenvalues ---    0.14472   0.14600   0.16294   0.16713   0.17707
     Eigenvalues ---    0.19145   0.21386   0.21852   0.25000   0.28463
     Eigenvalues ---    0.28632   0.28636   0.28794   0.28965   0.29034
     Eigenvalues ---    0.30275   0.30467   0.35027   0.35076   0.35088
     Eigenvalues ---    0.35109   0.35126   0.35158   0.35161   0.35176
     Eigenvalues ---    0.35242   0.35306   0.35312   0.35358   0.35358
     Eigenvalues ---    0.35364   0.35593   0.35837   0.35855   0.35876
     Eigenvalues ---    0.41172   0.41402   0.42249   0.42546   0.42813
     Eigenvalues ---    0.476101000.000001000.000001000.000001000.00000
     Eigenvalues --- 1000.000001000.000001000.000001000.000001000.00000
     Eigenvalues --- 1000.000001000.000001000.000001000.000001000.00000
     Eigenvalues --- 1000.000001000.000001000.000001000.000001000.00000
     Eigenvalues --- 1000.000001000.000001000.000001000.000001000.00000
     Eigenvalues --- 1000.000001000.000001000.000001000.000001000.00000
     Eigenvalues --- 1000.000001000.000001000.000001000.000001000.00000
     Eigenvalues --- 1000.000001000.000001000.000001000.000001000.00000
     Eigenvalues --- 1000.000001000.000001000.000001000.000001000.00000
     Eigenvalues --- 1000.000001000.000001000.000001000.000001000.00000
     Eigenvalues --- 1000.000001000.000001000.000001000.000001000.00000
     Eigenvalues --- 1000.000001000.000001000.000001000.000001000.00000
     Eigenvalues --- 1000.000001000.000001000.000001000.000001000.00000
     Eigenvalues --- 1000.000001000.000001000.000001000.000001000.00000
     Eigenvalues --- 1000.000001000.000001000.000001000.000001000.00000
     Eigenvalues --- 1000.000001000.000001000.000001000.000001000.00000
     Eigenvalues --- 1000.000001000.000001000.000001000.000001000.00000
     Eigenvalues --- 1000.000001000.000001000.000001000.000001000.00000
     Eigenvalues --- 1000.000001000.000001000.000001000.000001000.00000
     Eigenvalues --- 1000.000001000.000001000.000001000.000001000.00000
 RFO step:  Lambda=-3.76176085D-03 EMin= 6.13257975D-03
 Linear search not attempted -- first point.
 Iteration  1 RMS(Cart)=  0.07509695 RMS(Int)=  0.00115689
 Iteration  2 RMS(Cart)=  0.00293054 RMS(Int)=  0.00003047
 Iteration  3 RMS(Cart)=  0.00000164 RMS(Int)=  0.00003045
 Iteration  4 RMS(Cart)=  0.00000000 RMS(Int)=  0.00003045
 Iteration  1 RMS(Cart)=  0.00000876 RMS(Int)=  0.00000203
 Iteration  2 RMS(Cart)=  0.00000481 RMS(Int)=  0.00000227
 Iteration  3 RMS(Cart)=  0.00000264 RMS(Int)=  0.00000256
 Iteration  4 RMS(Cart)=  0.00000145 RMS(Int)=  0.00000276
 Iteration  5 RMS(Cart)=  0.00000080 RMS(Int)=  0.00000288
 Variable       Old X    -DE/DX   Delta X   Delta X   Delta X     New X
                                 (Linear)    (Quad)   (Total)
    R1        2.88937  -0.00069   0.00000  -0.00335  -0.00338   2.88599
    R2        2.89279  -0.00100   0.00000  -0.00371  -0.00374   2.88905
    R3        2.05098   0.00265   0.00000   0.00741   0.00741   2.05838
    R4        2.05631   0.00326   0.00000   0.00920   0.00920   2.06552
    R5        2.66361   0.00603   0.00000   0.01433   0.01435   2.67797
    R6        2.87677  -0.00067   0.00000  -0.00288  -0.00287   2.87389
    R7        2.05498   0.00605   0.00000   0.01705   0.01705   2.07202
    R8        2.04309   0.00500   0.00000   0.01379   0.01379   2.05688
    R9        2.89596  -0.00094   0.00000  -0.00425  -0.00427   2.89169
   R10        2.87194  -0.00088   0.00000  -0.00208  -0.00208   2.86986
   R11        2.05420   0.00328   0.00000   0.00922   0.00922   2.06342
   R12        2.05171   0.00291   0.00000   0.00816   0.00816   2.05987
   R13        2.67721   0.00625   0.00000   0.01515   0.01519   2.69240
   R14        2.68118   0.00580   0.00000   0.01374   0.01377   2.69495
   R15        2.65944   0.00830   0.00000   0.01925   0.01928   2.67872
   R16        2.87225  -0.00067   0.00000  -0.00232  -0.00232   2.86993
   R17        2.05551   0.00566   0.00000   0.01597   0.01597   2.07149
   R18        2.04277   0.00458   0.00000   0.01264   0.01264   2.05541
   R19        2.62357   0.00503   0.00000   0.01049   0.01049   2.63406
   R20        2.68607   0.00344   0.00000   0.00806   0.00806   2.69414
   R21        2.05471   0.00325   0.00000   0.00915   0.00915   2.06386
   R22        2.05284   0.00276   0.00000   0.00775   0.00775   2.06059
   R23        2.88415  -0.00262   0.00000  -0.00977  -0.00980   2.87436
   R24        2.05181   0.00451   0.00000   0.01265   0.01265   2.06446
   R25        2.04723   0.00424   0.00000   0.01177   0.01177   2.05901
   R26        2.86869  -0.00137   0.00000  -0.00420  -0.00419   2.86449
   R27        2.05097   0.00863   0.00000   0.02414   0.02414   2.07511
   R28        2.04336   0.00451   0.00000   0.01245   0.01245   2.05582
   R29        2.05532   0.00564   0.00000   0.01590   0.01590   2.07122
   R30        2.05390   0.00589   0.00000   0.01658   0.01658   2.07048
   R31        2.05414   0.00373   0.00000   0.01050   0.01050   2.06465
   R32        2.05088   0.00313   0.00000   0.00875   0.00875   2.05962
    A1        1.92518   0.00209   0.00000  -0.00038  -0.00044   1.92473
    A2        1.93238  -0.00049   0.00000   0.00079   0.00082   1.93320
    A3        1.90889  -0.00082   0.00000  -0.00219  -0.00218   1.90671
    A4        1.92009  -0.00061   0.00000  -0.00027  -0.00024   1.91985
    A5        1.90947  -0.00083   0.00000  -0.00249  -0.00248   1.90699
    A6        1.86682   0.00060   0.00000   0.00461   0.00460   1.87142
    A7        1.93288   0.00124   0.00000   0.00323   0.00328   1.93616
    A8        1.91866   0.00088   0.00000   0.00784   0.00783   1.92649
    A9        1.86713  -0.00028   0.00000   0.00378   0.00378   1.87091
   A10        1.91625  -0.00184   0.00000  -0.01344  -0.01347   1.90279
   A11        1.93040  -0.00075   0.00000  -0.00493  -0.00497   1.92543
   A12        1.89769   0.00081   0.00000   0.00413   0.00405   1.90174
   A13        1.93227  -0.00038   0.00000  -0.00701  -0.00706   1.92521
   A14        1.92165   0.00053   0.00000   0.00145   0.00145   1.92310
   A15        1.92167  -0.00037   0.00000   0.00036   0.00036   1.92204
   A16        1.90484  -0.00023   0.00000  -0.00095  -0.00096   1.90389
   A17        1.90791   0.00030   0.00000   0.00134   0.00136   1.90927
   A18        1.87448   0.00018   0.00000   0.00518   0.00517   1.87965
   A19        1.97752  -0.00540   0.00000  -0.02656  -0.02652   1.95100
   A20        1.98196  -0.00513   0.00000  -0.02716  -0.02708   1.95488
   A21        1.93602   0.00102   0.00000   0.00353   0.00355   1.93957
   A22        1.90329   0.00071   0.00000   0.00417   0.00418   1.90747
   A23        1.85112  -0.00077   0.00000  -0.00034  -0.00035   1.85077
   A24        1.93089  -0.00132   0.00000  -0.00729  -0.00732   1.92358
   A25        1.95044  -0.00010   0.00000  -0.00218  -0.00218   1.94826
   A26        1.88954   0.00051   0.00000   0.00259   0.00258   1.89212
   A27        2.10238  -0.01592   0.00000  -0.06274  -0.06274   2.03965
   A28        1.92100   0.00011   0.00000  -0.00325  -0.00332   1.91768
   A29        1.91914   0.00057   0.00000   0.00202   0.00204   1.92118
   A30        1.93627  -0.00066   0.00000  -0.00143  -0.00142   1.93485
   A31        1.90366  -0.00040   0.00000  -0.00188  -0.00186   1.90180
   A32        1.90646   0.00010   0.00000  -0.00032  -0.00030   1.90616
   A33        1.87651   0.00028   0.00000   0.00501   0.00500   1.88150
   A34        1.89534   0.00173   0.00000  -0.00336  -0.00344   1.89190
   A35        1.90916  -0.00008   0.00000   0.00376   0.00376   1.91292
   A36        1.92156  -0.00011   0.00000   0.00769   0.00769   1.92926
   A37        1.91381  -0.00121   0.00000  -0.00761  -0.00760   1.90622
   A38        1.94218  -0.00090   0.00000  -0.00518  -0.00513   1.93705
   A39        1.88165   0.00054   0.00000   0.00482   0.00475   1.88640
   A40        1.88576  -0.00200   0.00000  -0.00999  -0.01001   1.87575
   A41        1.92692   0.00170   0.00000   0.00958   0.00958   1.93650
   A42        1.89739  -0.00006   0.00000  -0.00361  -0.00362   1.89377
   A43        1.90062   0.00053   0.00000   0.00309   0.00309   1.90371
   A44        1.92702   0.00041   0.00000   0.00280   0.00279   1.92981
   A45        1.92582  -0.00059   0.00000  -0.00195  -0.00193   1.92388
   A46        1.93516   0.00163   0.00000   0.00792   0.00792   1.94308
   A47        1.94575  -0.00037   0.00000  -0.00342  -0.00343   1.94232
   A48        1.93084  -0.00142   0.00000  -0.00862  -0.00862   1.92222
   A49        1.85526  -0.00095   0.00000  -0.00234  -0.00233   1.85293
   A50        1.90214   0.00048   0.00000   0.00383   0.00386   1.90599
   A51        1.89242   0.00065   0.00000   0.00300   0.00297   1.89539
   A52        1.84139   0.00127   0.00000   0.00580   0.00564   1.84703
   A53        1.92499  -0.00012   0.00000  -0.00318  -0.00330   1.92168
   A54        1.89411  -0.00077   0.00000   0.00149   0.00146   1.89558
   A55        2.03008  -0.00325   0.00000  -0.02377  -0.02373   2.00635
   A56        1.87723   0.00137   0.00000   0.01759   0.01758   1.89481
   A57        1.89171   0.00158   0.00000   0.00370   0.00380   1.89550
   A58        1.92902  -0.00067   0.00000  -0.00695  -0.00699   1.92203
   A59        1.92430   0.00091   0.00000   0.00482   0.00478   1.92908
   A60        1.93633  -0.00009   0.00000   0.00284   0.00283   1.93915
   A61        1.88851  -0.00057   0.00000  -0.00662  -0.00661   1.88190
   A62        1.90121   0.00021   0.00000  -0.00086  -0.00083   1.90038
   A63        1.88318   0.00022   0.00000   0.00681   0.00678   1.88995
    D1        0.89564  -0.00011   0.00000   0.01087   0.01086   0.90650
    D2       -1.20192  -0.00005   0.00000   0.01396   0.01396  -1.18796
    D3        3.00775  -0.00035   0.00000   0.00737   0.00735   3.01510
[...]
 36,0.00032590,-0.00048878,-0.00172440,0.00086211,0.00016548,-0.0025505
 8,-0.00134348,0.00010319,-0.00008886,-0.00008450,0.00022794,0.00001849
 ,0.00000058,-0.00000322,-0.00000248,0.00000674,-0.00000433,-0.00024272
 ,-0.00013439,0.00036235,0.00021994,0.00000762,0.00016405,0.00062842,-0
 .00029663,0.00057699,0.00067107,-0.00012693,0.00009688,-0.00005736,0.0
 0002504,-0.00007262,0.00001572,0.00002555,-0.00000361,0.00000130,-0.00
 000545,0.00000510,0.00002359,-0.00000557,0.00000143,0.01814362,0.01237
 022,-0.01738652,-0.11984583,-0.07979301,0.16565136,0.00138724,0.000281
 66,-0.00078052,-0.00007536,0.00010220,-0.00021782,0.00006997,0.0000340
 9,-0.00002519,-0.00014790,0.00001199,-0.00003004,0.00187109,-0.0026749
 6,-0.00567983,0.00130487,0.00059345,-0.00188536,-0.00879376,-0.0217403
 8,0.03206096,-0.00018049,0.00001213,0.00018603,-0.00093626,0.00083643,
 0.00015116,-0.06058134,0.02047077,-0.03674012,-0.00002596,-0.00006850,
 0.00001353,0.00312254,-0.00116394,0.00258112,-0.00300542,0.01246918,-0
 .02210220,0.00009375,-0.00004600,0.00023860,-0.00009482,-0.00014212,0.
 00036615,-0.00000083,0.00000007,-0.00012254,0.00002960,0.00006166,-0.0
 0001980,-0.00000091,-0.00000677,-0.00000824,-0.00000406,-0.00000213,-0
 .00000213,0.00001681,0.00000760,0.00025436,-0.00002432,-0.00000651,-0.
 00002743,0.00003139,-0.00003805,0.00003987,-0.00003711,-0.00005075,-0.
 00003105,0.00003140,-0.00005939,0.00004641,-0.00196824,0.00149199,0.00
 049989,0.07045560,-0.00081910,0.00020492,-0.00005668,0.00011822,0.0000
 7515,-0.00030292,0.00002277,0.00020523,-0.00001564,-0.00032255,-0.0000
 0268,0.00006285,-0.00811951,0.00039267,-0.03345754,0.00288289,0.002822
 15,-0.00328116,-0.00988081,-0.01014060,0.01958355,-0.00027602,-0.00022
 063,0.00026902,0.00056221,-0.00035019,-0.00043078,0.01703973,-0.093735
 32,0.09578211,0.00008723,-0.00005499,-0.00005369,0.00291371,-0.0010184
 8,0.00018232,0.00462663,-0.00775595,0.01908614,0.00000546,0.00005493,-
 0.00032061,0.00019882,0.00039593,-0.00035550,0.00001259,0.00001977,-0.
 00002054,-0.00000567,0.00000946,0.00000616,-0.00000108,0.00000422,0.00
 000315,-0.00007053,0.00002600,-0.00001837,0.00049608,-0.00004106,0.001
 08559,0.00011804,-0.00001723,0.00009053,0.00000552,-0.00009002,0.00007
 017,-0.00012373,0.00014751,0.00008468,0.00002527,0.00000177,-0.0000453
 2,0.00173139,-0.00090011,-0.00043286,-0.01323143,0.11098997,-0.0002071
 4,-0.00033881,0.00023031,-0.00005468,-0.00019554,0.00027557,-0.0000549
 8,-0.00022812,0.00038051,0.00021454,-0.00001080,-0.00007921,-0.0085299
 5,-0.00738402,-0.03381797,0.00251180,0.00235409,-0.00035103,0.00667484
 ,0.00914161,-0.00664785,-0.00023556,-0.00047331,0.00013554,-0.00031471
 ,0.00051291,-0.00007475,-0.02998964,0.09308921,-0.23962858,-0.00017329
 ,0.00013367,-0.00007235,-0.00116342,0.00124750,0.00081019,0.00038305,0
 .00114621,0.00156993,-0.00010091,-0.00004828,0.00011412,-0.00028430,-0
 .00018778,-0.00000384,-0.00008421,-0.00004062,-0.00002658,-0.00002592,
 -0.00004780,0.00003626,0.00000194,-0.00001005,-0.00002557,0.00001478,0
 .00000661,0.00000087,-0.00067352,-0.00049938,0.00073421,-0.00016589,-0
 .00043657,0.00048701,0.00005817,0.00010672,-0.00011536,-0.00018750,0.0
 0008202,0.00002102,-0.00010627,-0.00004535,0.00017937,-0.00022827,-0.0
 0060426,0.00074091,0.03143372,-0.09723713,0.27413242,-0.00000316,0.000
 01967,-0.00000691,0.00260426,0.00038488,0.00108660,-0.01792694,0.00208
 453,-0.00662263,-0.00361353,0.00516028,-0.00151338,-0.00016799,-0.0000
 2764,-0.00003371,0.00005042,0.00004361,-0.00002433,-0.00039027,0.00012
 322,-0.00002627,-0.00000819,-0.00000928,0.00001026,-0.00084460,-0.0024
 7713,0.00353626,0.00019747,0.00007837,-0.00000445,-0.29544652,0.036333
 17,-0.07513871,0.00057632,-0.00068234,-0.00013411,-0.00002010,-0.00002
 688,-0.00002118,-0.00001106,-0.00000279,0.00000258,-0.00000033,-0.0000
 0212,0.00000209,-0.00002436,-0.00007062,-0.00004096,-0.00034759,0.0000
 5326,-0.00008194,0.00105460,0.00053625,0.00000982,0.00031969,-0.000272
 42,-0.00002213,-0.00000190,-0.00000536,0.00000725,-0.00000852,-0.00000
 881,-0.00000016,-0.00000005,0.00000065,-0.00000179,-0.00000745,0.00000
 058,-0.00000040,0.00019833,-0.00004495,-0.00005632,-0.00124449,0.00053
 072,-0.00033609,-0.00000537,-0.00000463,-0.00004090,0.31663092,0.00001
 129,-0.00001567,0.00000141,-0.00178460,-0.00566471,-0.00181432,-0.0151
 8867,0.00417449,-0.00624146,0.04093408,-0.01732541,0.01283479,-0.00005
 735,0.00006917,-0.00000608,0.00001185,0.00001903,0.00000349,0.00042490
 ,0.00049688,-0.00020767,-0.00000468,-0.00000340,0.00000120,-0.00174226
 ,-0.00136514,0.00320403,-0.00001708,-0.00016985,0.00002244,0.02503173,
 -0.05149914,0.00626460,-0.00027848,-0.00114859,0.00062099,0.00003636,0
 .00004139,-0.00003516,0.00000496,0.00000295,-0.00000060,0.00000011,-0.
 00000021,-0.00000022,0.00007066,0.00013858,0.00028451,0.00181466,-0.00
 055726,0.00035841,0.00078177,0.00036158,0.00003425,0.00074116,0.000360
 58,-0.00045343,0.00000126,-0.00000104,0.00000243,0.00000123,0.00000083
 ,-0.00000074,0.00000009,0.00000016,0.00000013,-0.00000150,0.00000127,0
 .00000049,0.00033462,-0.00009526,0.00011337,-0.00123361,0.00049869,-0.
 00007186,0.00002483,0.00001882,-0.00004879,-0.04129375,0.06854144,-0.0
 0000103,-0.00000891,0.00000365,0.00061346,0.00015880,0.00050885,0.0210
 4559,-0.00328674,0.00635596,0.00188792,-0.00021407,0.00126191,0.000132
 32,-0.00000351,0.00004061,-0.00002863,-0.00003174,0.00001461,0.0001777
 2,-0.00012244,0.00006592,0.00000666,0.00000739,-0.00000634,0.00202793,
 0.00208340,-0.00230255,-0.00008414,0.00000320,-0.00001661,-0.07814078,
 0.01125355,-0.07665642,-0.00030752,0.00051953,-0.00011764,0.00000535,0
 .00000855,0.00001488,0.00000516,0.00000108,-0.00000106,0.00000018,0.00
 000086,-0.00000067,0.00032864,0.00003686,0.00032269,-0.00018280,0.0000
 9181,0.00028355,-0.00062664,-0.00076284,0.00108007,-0.00083614,-0.0001
 2060,0.00054824,-0.00000056,0.00000282,-0.00000495,0.00000481,0.000005
 13,0.00000033,0.,-0.00000048,0.00000095,0.00000483,-0.00000114,0.00000
 016,0.00014095,0.00002208,0.00025591,0.00108999,-0.00019990,0.00032214
 ,0.00000549,-0.00000030,0.00003204,0.08051721,-0.01333072,0.07505173,0
 .00000003,-0.00000053,0.00000092,0.00106498,0.00112808,0.00259653,0.00
 194648,0.00506430,0.02143662,0.00217847,0.00395072,0.00384776,0.000009
 45,-0.00000008,-0.00000403,-0.00000212,-0.00000501,0.00000123,-0.00004
 317,0.00002768,-0.00004060,0.00000064,0.00000017,-0.00000034,0.0014329
 4,0.00061313,0.00068388,0.00000204,0.00000221,-0.00001644,-0.05935284,
 -0.00884773,-0.03108577,-0.00022026,-0.00012510,0.00006761,-0.00000175
 ,-0.00000068,0.00000310,0.00000031,-0.00000018,0.00000002,0.00000045,-
 0.00000009,-0.00000030,0.00048854,-0.00043143,-0.00014139,0.00005076,-
 0.00006156,0.00003864,-0.00202056,-0.00185390,0.00281994,0.00070479,0.
 00010717,-0.00076472,-0.00000051,0.00000066,-0.00000048,-0.00000064,0.
 00000030,0.00000041,-0.00000024,-0.00000014,0.,0.00000084,-0.00000011,
 -0.00000014,0.00000859,-0.00016053,-0.00024194,0.00014962,-0.00011933,
 -0.00019231,0.00000637,-0.00000161,0.00000378,-0.00152327,-0.00865568,
 -0.02781547,0.05512613,0.00000729,-0.00001625,0.00000324,-0.00488643,0
 .00178057,-0.00318491,0.00127533,0.00607598,0.01614679,0.00115264,-0.0
 3451507,-0.03417414,0.00001942,0.00003996,0.00000679,-0.00001245,-0.00
 000534,0.00000944,0.00046526,0.00023853,-0.00014182,0.00000028,0.00000
 060,-0.00000354,0.00080693,0.00012990,-0.00015136,-0.00003810,-0.00014
 285,0.00002841,-0.00585463,-0.06500923,-0.06302576,0.00011469,-0.00038
 964,0.00055775,0.00002787,0.00003696,-0.00000949,0.00000742,0.00000342
 ,-0.00000163,0.00000023,0.00000030,-0.00000098,0.00035941,0.00073275,0
 .00102656,0.00004372,0.00003981,0.00041862,-0.00308580,-0.00068273,0.0
 0218877,0.00061699,0.00062119,-0.00074265,0.00000103,0.00000132,-0.000
 00097,0.00000436,0.00000379,0.00000002,0.00000048,0.00000009,0.0000010
 3,0.00000167,0.00000068,0.00000049,0.00001714,-0.00003795,-0.00037778,
 0.00010144,-0.00011035,-0.00010519,0.00000620,0.00000745,-0.00000380,-
 0.00050875,0.00304251,0.00397787,0.00937668,0.08818998,0.00000459,-0.0
 0001340,0.00000371,0.00006125,0.00123415,0.00162894,-0.00296789,-0.004
 58667,-0.02072655,0.00008389,-0.00727287,0.00317834,0.00008109,0.00003
 255,0.00002228,-0.00001719,-0.00001686,0.00000955,0.00033538,-0.000112
 85,-0.00004227,0.00000296,0.00000444,-0.00000536,-0.00098738,-0.000525
 26,0.00086938,-0.00013561,-0.00009814,0.00002965,-0.02893905,-0.066639
 49,-0.27781318,-0.00020592,0.00007195,0.00010642,0.00002161,0.00002675
 ,-0.00000697,0.00000673,0.00000225,-0.00000110,0.00000003,0.00000074,-
 0.00000036,0.00109444,-0.00057386,-0.00018974,0.00022365,-0.00003104,0
 .00031283,0.00302887,0.00213545,-0.00140909,-0.00008172,0.00022034,0.0
 0043585,0.00000066,0.00000148,-0.00000252,0.00000510,0.00000567,0.0000
 0124,0.00000072,-0.00000068,0.00000187,0.00000320,0.00000031,0.0000004
 4,0.00057362,-0.00021758,0.00039344,0.00003388,0.00024120,0.00028207,-
 0.00000107,0.00001654,-0.00000342,-0.00110133,-0.00149756,-0.00704369,
 0.02894719,0.07757073,0.30011835,-0.00001413,0.00013961,0.00002415,0.0
 0235969,0.00728303,0.02251811,0.00041954,0.00037198,0.00044640,0.00201
 289,-0.00025888,-0.00046757,-0.00124584,-0.00147250,0.00015750,0.00030
 343,-0.00007657,-0.00016830,-0.02550322,-0.00202532,-0.03552643,-0.000
 01159,-0.00004116,0.00004311,0.00177230,-0.00097679,0.00011906,0.00522
 131,0.00353385,-0.00398414,0.00000425,-0.00007998,-0.00000823,-0.05075
 261,-0.01356670,-0.02298004,-0.00016239,-0.00012214,0.00018943,-0.0000
 5936,-0.00001765,0.00001616,-0.00002687,-0.00002204,0.00001063,-0.0031
 2162,-0.00160737,0.00272253,0.00094034,0.00012168,-0.00098167,0.000176
 00,0.00023141,0.00005274,0.00008147,-0.00001496,0.00020285,-0.00006771
 ,-0.00005561,0.00003180,-0.00009793,-0.00008304,0.00001442,-0.00000241
 ,0.00000669,-0.00001215,-0.00003568,0.00000516,-0.00000545,0.00079707,
 0.00042709,-0.00009265,0.00013948,0.00038615,-0.00049509,0.00027052,-0
 .00038461,0.00100068,-0.00002393,0.00004447,0.00001951,-0.00000658,-0.
 00002006,-0.00007353,0.06667255,-0.00000330,-0.00001903,-0.00002378,-0
 .00000181,0.00446439,0.01529574,-0.00111733,0.00108025,-0.00067739,0.0
 0120625,0.00003580,-0.00111820,0.00041798,0.00053263,0.00002674,-0.000
 08225,0.00005734,0.00005289,0.00896387,0.00517617,0.01410594,-0.000001
 88,0.00000221,-0.00000540,-0.00326317,-0.01501255,-0.03221623,-0.00155
 391,-0.00114711,0.00076860,0.00000154,-0.00027551,0.00011876,-0.012633
 71,-0.08066248,-0.08179116,-0.00002212,-0.00000262,0.00002350,0.000009
 95,-0.00000056,-0.00000180,0.00000733,0.00000526,0.00000248,-0.0019294
 9,-0.00022036,0.00199566,0.00078685,0.00084800,-0.00031340,0.00037966,
 0.00011354,0.00050198,-0.00007397,0.00008507,0.00040853,0.00001362,0.0
 0000945,-0.00000853,0.00002881,0.00002263,-0.00000227,0.00000149,-0.00
 000163,0.00000273,0.00000561,-0.00000292,0.00000095,0.00103025,-0.0063
 6072,-0.00012266,-0.00043841,0.00158093,0.00056797,-0.00009312,0.00004
 616,-0.00018233,0.00007488,0.00007136,-0.00007936,-0.00000649,-0.00003
 381,0.00002440,0.00828611,0.08962887,-0.00007089,0.00014375,-0.0000591
 2,-0.00176854,-0.00687060,-0.02135999,0.00015761,-0.00001861,0.0001935
 3,-0.00015140,-0.00047678,0.00226614,-0.00061594,-0.00053528,-0.000197
 40,0.00017280,0.00009583,-0.00016991,-0.01372481,0.00265006,-0.0070533
 3,-0.00002182,-0.00003511,0.00004485,0.00007745,-0.00052847,-0.0007567
 1,0.00203491,0.00158718,0.00000966,0.00000661,0.00034893,0.00017362,-0
 .02449295,-0.07978372,-0.26566667,-0.00023969,-0.00029626,0.00021698,-
 0.00007786,-0.00002659,0.00001404,-0.00000838,-0.00000447,0.00000693,0
 .00241805,0.00170936,-0.00170320,-0.00033274,0.00011958,0.00101204,0.0
 0033331,0.00009659,0.00005100,0.00021358,-0.00005631,0.00018774,-0.000
 02765,-0.00002281,0.00001675,-0.00005960,-0.00005098,0.00001122,-0.000
 00183,0.00000099,-0.00000867,-0.00002946,-0.00000131,-0.00000399,-0.00
 012421,0.00014295,0.00104633,0.00006603,-0.00034605,0.00057221,-0.0007
 3236,-0.00044867,-0.00023698,0.00003342,-0.00003994,-0.00001195,-0.000
 14363,-0.00001352,-0.00015088,0.03713010,0.08269702,0.29160365,0.00095
 677,-0.01278603,0.02734512,0.00000562,-0.00002787,0.00003300,0.0000010
 5,-0.00004428,0.00010289,0.00001430,-0.00000152,-0.00000573,0.00157085
 ,-0.00239486,0.00075453,-0.00037888,-0.00025858,0.00008278,0.00234643,
 -0.00015968,0.00007905,0.00127771,0.00111203,0.00031150,-0.00006232,0.
 00008044,-0.00009092,-0.00511792,0.01254401,-0.02715562,-0.00003744,0.
 00002634,-0.00002617,0.00033086,0.00000374,-0.00008898,-0.04700183,0.0
 0763384,-0.01530160,0.00136972,0.00090126,-0.00032694,-0.00451015,-0.0
 0359408,0.00104081,-0.00000750,-0.00000296,0.00000633,-0.00000962,-0.0
 0000687,0.00000611,-0.00000155,-0.00000015,-0.00000452,-0.00000583,0.0
 0000520,-0.00000041,-0.00005926,-0.00003527,-0.00006295,0.00009519,-0.
 00002949,-0.00000027,0.00002526,0.00006901,-0.00049265,-0.00008974,0.0
 0031584,-0.00013497,-0.00001491,0.00000125,0.00002086,-0.00006380,-0.0
 0012594,0.00009274,-0.00356983,0.00315087,0.00083247,-0.00001126,-0.00
 001091,0.00000880,0.00000071,0.00000064,0.00000172,-0.00000030,0.00001
 729,0.00002942,0.05408545,0.00087395,-0.00696123,0.01329336,0.00000418
 ,-0.00000854,0.00003163,-0.00000341,0.00003543,-0.00006860,0.00003268,
 -0.00000056,-0.00000581,-0.00090428,0.00203900,0.00016363,-0.00010494,
 -0.00002588,-0.00001294,-0.00157288,0.00109866,-0.00093499,0.00064420,
 0.00034562,0.00062303,-0.00001709,-0.00006100,0.00009614,0.00271821,-0
 .01237647,0.02190417,0.00002404,-0.00000812,0.00002562,-0.00012707,-0.
 00002876,-0.00020209,0.00789752,-0.09445299,0.09681213,0.00020979,0.00
 065591,-0.00054989,-0.00245527,-0.00070805,0.00062852,0.00000524,0.000
 00056,-0.00000524,0.00000566,0.00000299,-0.00000398,0.00000439,0.00000
 024,0.00000517,0.00000473,-0.00000565,0.00000203,-0.00000278,0.0000574
 9,-0.00001544,0.00002940,-0.00003425,-0.00001481,-0.00004671,-0.000105
 31,-0.00016838,-0.00005519,0.00014037,-0.00012159,0.00001400,0.0000038
 5,-0.00001846,0.00006585,0.00007871,-0.00008341,0.00319628,-0.00179305
 ,-0.00034466,0.00000996,0.00000526,-0.00000776,-0.00000057,-0.00000199
 ,-0.00000247,-0.00004141,0.00000299,-0.00001830,-0.00875734,0.10103584
 ,0.00045067,0.00235121,-0.00626113,-0.00002778,0.00005019,-0.00006358,
 0.00000500,-0.00001230,-0.00001749,-0.00005010,-0.00000483,0.00001482,
 0.00062604,0.00018356,0.00174023,0.00004225,-0.00012437,0.00017110,-0.
 00040070,-0.00048358,0.00059982,-0.00033003,-0.00033714,0.00064743,0.0
 0012063,-0.00001642,0.00001646,0.00007102,-0.00014118,-0.00281848,0.00
 000570,-0.00001014,-0.00000327,-0.00004725,-0.00012847,0.00030286,-0.0
 1720252,0.09940420,-0.26308679,0.00017892,-0.00017937,0.00033639,0.001
 28053,0.00060853,0.00093477,0.00000074,0.00000446,0.00000327,0.0000027
 6,-0.00000424,-0.00000324,-0.00000360,-0.00000015,-0.00000050,0.000003
 32,0.00000042,-0.00000073,-0.00005392,-0.00003212,-0.00017675,-0.00002
 496,0.00004293,-0.00000933,-0.00011226,0.00039357,0.00029523,0.0001107
 7,0.00001220,0.00020869,-0.00001880,-0.00000341,0.00000486,0.00001574,
 -0.00000636,0.00000701,-0.00011448,0.00030887,0.00093522,-0.00000065,0
 .00000147,-0.00000076,0.00000028,0.00000144,0.00000144,0.00005129,-0.0
 0001936,-0.00002104,0.01691564,-0.11087729,0.28375709,-0.00385614,-0.0
 2067664,-0.02031287,0.00001224,-0.00002374,0.00002053,-0.00000400,-0.0
 0001993,0.00000275,0.00002289,-0.00000053,-0.00000189,-0.00355410,0.00
 745142,0.00210354,-0.00155970,-0.00071990,0.00027273,0.00150353,0.0003
 9266,0.00011558,-0.00503755,-0.00233689,0.00286040,0.00002053,-0.00000
 101,0.00000495,0.00465833,0.01499035,0.01851558,-0.00000320,0.00001466
 ,-0.00000241,0.00017659,-0.00018966,-0.00027281,-0.05464246,-0.0319014
 8,-0.03318868,0.00101157,0.00098344,-0.00036329,0.00128108,0.00067457,
 0.00025244,-0.00000019,-0.00000165,-0.00000224,0.00000018,0.00000086,0
 .00000066,-0.00000377,-0.00000003,-0.00000243,0.00000143,-0.00000068,0
 .00000100,0.00021077,0.00006896,-0.00001050,0.00033073,0.00005396,-0.0
 0007176,0.00000777,0.00026514,0.00006443,-0.00005291,-0.00172161,-0.00
 096687,0.00000340,-0.00000423,-0.00001916,-0.00000483,0.00000318,0.000
 01419,0.00076079,-0.00075617,-0.00050871,-0.00000114,-0.00000145,0.000
 00117,-0.00000020,-0.00000091,0.00000010,-0.00003864,-0.00001051,-0.00
 004955,-0.00113779,-0.00165113,-0.00149424,0.05989482,-0.00230071,-0.0
 1112727,-0.00925700,-0.00000690,-0.00000836,0.00002123,-0.00000046,0.0
 0001666,-0.00000426,0.00002231,0.00000023,-0.00000708,0.00355711,-0.00
 492921,-0.00146790,0.00089653,0.00134613,-0.00025134,-0.00102293,0.001
 16969,0.00076663,-0.00295494,0.00011205,0.00179826,0.00000225,-0.00001
 272,-0.00001876,-0.00705668,-0.01386089,-0.01469877,0.00000363,-0.0000
 0458,0.00000587,0.00010260,0.00015009,0.00019667,-0.02890960,-0.184478
 43,-0.12920641,0.00004077,0.00061543,0.00020979,0.00053529,0.00040380,
 0.00004179,0.00000237,0.00000228,-0.00000400,0.00000227,0.00000253,-0.
 00000140,0.00000690,0.00000083,0.00000525,0.00000119,-0.00000222,-0.00
 000097,-0.00006954,-0.00011246,0.00012783,-0.00008724,-0.00011449,0.00
 001127,0.00000127,-0.00003604,-0.00022273,-0.00001983,-0.00061830,-0.0
 0067041,0.00001437,0.00000229,0.00002979,-0.00000924,0.00001113,-0.000
 01753,-0.00027649,0.00069819,0.00054685,0.00000344,0.00000071,-0.00000
 240,-0.00000035,-0.00000058,-0.00000022,0.00002955,-0.00002374,-0.0000
 1845,0.00237408,0.01106895,0.00901766,0.03511896,0.19972828,0.00129596
 ,0.00752419,0.00561236,-0.00000510,-0.00002992,0.00002365,-0.00000179,
 0.00001236,-0.00000847,0.00002683,0.00000393,-0.00000641,0.00004726,-0
 .00111324,0.00159869,0.00031369,0.00019506,-0.00024675,0.00031796,0.00
 032298,0.00031422,0.00135316,0.00076901,0.00058600,-0.00000192,-0.0000
 1264,-0.00000628,-0.00067255,0.00160260,-0.00138579,0.00000164,0.00000
 191,0.00000598,0.00007468,0.00010144,0.00004689,-0.03154150,-0.1319073
 3,-0.17458393,-0.00052903,-0.00033671,0.00007071,-0.00060806,-0.000176
 71,0.00070202,0.00000055,0.00000150,-0.00000386,0.00000302,0.00000610,
 -0.00000122,0.00000253,0.00000056,0.00000204,0.00000053,-0.00000189,0.
 00000031,-0.00005942,-0.00005161,-0.00000689,-0.00004987,-0.00005085,-
 0.00002682,0.00002649,0.00020734,0.00025727,0.00023337,0.00016643,0.00
 023999,0.00000993,0.00000003,0.00001086,0.00000612,0.00000992,-0.00001
 144,0.00064290,-0.00015398,0.00026801,0.00000288,0.00000057,-0.0000015
 7,-0.00000037,-0.00000042,-0.00000070,0.00004478,-0.00003203,-0.000026
 82,-0.00397203,-0.02012934,-0.01751361,0.03303735,0.14307073,0.1840915
 7\\-0.00001245,0.00002507,-0.00000530,-0.00000640,0.00001368,-0.000017
 37,-0.00000625,0.00000827,0.00001182,0.00000591,0.00000647,0.00000732,
 0.00002764,-0.00004101,-0.00000651,0.00000528,0.00002142,0.00000176,-0
 .00085242,0.00280522,0.00568806,-0.00000792,-0.00000310,-0.00000027,-0
 .00113635,-0.00013236,0.00305879,0.00017286,-0.00195720,-0.00289094,0.
 00001657,-0.00001516,-0.00000828,0.00175522,-0.00068901,-0.00577501,-0
 .00001110,-0.00003031,-0.00002463,0.00001027,-0.00001042,0.00000359,-0
 .00000403,0.00000490,-0.00000594,0.00000109,-0.00000078,0.00001387,0.0
 0000080,-0.00002681,-0.00001458,-0.00000185,0.00000503,-0.00001124,0.0
 0000878,0.00000931,0.00001073,-0.00000477,-0.00000029,-0.00000142,0.00
 000333,0.00000529,0.00002378,0.00000100,-0.00000824,0.00001103,0.00001
 435,-0.00000976,-0.00000680,0.00000049,-0.00000292,0.00000693,0.000010
 14,0.00000881,-0.00001597,0.00001057,0.00001144,-0.00003572,-0.0000215
 0,0.00000919,-0.00000688,0.00000306,-0.00000185,0.00001891,0.00000310,
 0.00000032,-0.00002176,0.00000089,-0.00000560,0.00000987,0.00001368,0.
 00000039,-0.00001785\\\@


 The hours that make us happy make us wise.
                         -- John Masefield
 Job cpu time:       0 days 11 hours 35 minutes 50.5 seconds.
 Elapsed time:       0 days  0 hours 57 minutes 60.0 seconds.
 File lengths (MBytes):  RWF=    719 Int=      0 D2E=      0 Chk=     34 Scr=      1
 Normal termination of Gaussian 16 at Sun Mar 10 06:18:03 2019.
