 Entering Gaussian System, Link 0=g16
 Initial command:
 /sw/Projects/G16/g16/l1.exe "/nvme/pbs/tmpdir/pbs.74288[12].flm1/Gau-22963.inp" -scrdir="/nvme/pbs/tmpdir/pbs.74288[12].flm1/"
 Entering Link 1 = /sw/Projects/G16/g16/l1.exe PID=     22964.
  
 Copyright (c) 1988-2017, Gaussian, Inc.  All Rights Reserved.
  
 This is part of the Gaussian(R) 16 program.  It is based on
 the Gaussian(R) 09 system (copyright 2009, Gaussian, Inc.),
 the Gaussian(R) 03 system (copyright 2003, Gaussian, Inc.),
 the Gaussian(R) 98 system (copyright 1998, Gaussian, Inc.),
 the Gaussian(R) 94 system (copyright 1995, Gaussian, Inc.),
 the Gaussian 92(TM) system (copyright 1992, Gaussian, Inc.),
 the Gaussian 90(TM) system (copyright 1990, Gaussian, Inc.),
 the Gaussian 88(TM) system (copyright 1988, Gaussian, Inc.),
 the Gaussian 86(TM) system (copyright 1986, Carnegie Mellon
 University), and the Gaussian 82(TM) system (copyright 1983,
 Carnegie Mellon University). Gaussian is a federally registered
 trademark of Gaussian, Inc.
  
 This software contains proprietary and confidential information,
 including trade secrets, belonging to Gaussian, Inc.
  
 This software is provided under written license and may be
 used, copied, transmitted, or stored only in accord with that
 written license.
  
 The following legend is applicable only to US Government
 contracts under FAR:
  
                    RESTRICTED RIGHTS LEGEND
  
 Use, reproduction and disclosure by the US Government is
 subject to restrictions as set forth in subparagraphs (a)
 and (c) of the Commercial Computer Software - Restricted
 Rights clause in FAR 52.227-19.
  
 Gaussian, Inc.
 340 Quinnipiac St., Bldg. 40, Wallingford CT 06492
  
  
 ---------------------------------------------------------------
 Warning -- This program may not be used in any manner that
 competes with the business of Gaussian, Inc. or will provide
 assistance to any competitor of Gaussian, Inc.  The licensee
 of this program is prohibited from giving any competitor of
 Gaussian, Inc. access to this program.  By using this program,
 the user acknowledges that Gaussian, Inc. is engaged in the
 business of creating and licensing software in the field of
 computational chemistry and represents and warrants to the
 licensee that it is not a competitor of Gaussian, Inc. and that
 it will not use this program in any manner prohibited above.
 ---------------------------------------------------------------
  

 Cite this work as:
 Gaussian 16, Revision B.01,
 M. J. Frisch, G. W. Trucks, H. B. Schlegel, G. E. Scuseria, 
 M. A. Robb, J. R. Cheeseman, G. Scalmani, V. Barone, 
 G. A. Petersson, H. Nakatsuji, X. Li, M. Caricato, A. V. Marenich, 
 J. Bloino, B. G. Janesko, R. Gomperts, B. Mennucci, H. P. Hratchian, 
 J. V. Ortiz, A. F. Izmaylov, J. L. Sonnenberg, D. Williams-Young, 
 F. Ding, F. Lipparini, F. Egidi, J. Goings, B. Peng, A. Petrone, 
 T. Henderson, D. Ranasinghe, V. G. Zakrzewski, J. Gao, N. Rega, 
 G. Zheng, W. Liang, M. Hada, M. Ehara, K. Toyota, R. Fukuda, 
 J. Hasegawa, M. Ishida, T. Nakajima, Y. Honda, O. Kitao, H. Nakai, 
 T. Vreven, K. Throssell, J. A. Montgomery, Jr., J. E. Peralta, 
 F. Ogliaro, M. J. Bearpark, J. J. Heyd, E. N. Brothers, K. N. Kudin, 
 V. N. Staroverov, T. A. Keith, R. Kobayashi, J. Normand, 
 K. Raghavachari, A. P. Rendell, J. C. Burant, S. S. Iyengar, 
 J. Tomasi, M. Cossi, J. M. Millam, M. Klene, C. Adamo, R. Cammi, 
 J. W. Ochterski, R. L. Martin, K. Morokuma, O. Farkas, 
 J. B. Foresman, and D. J. Fox, Gaussian, Inc., Wallingford CT, 2016.
 
 ******************************************
 Gaussian 16:  ES64L-G16RevB.01 20-Dec-2017
                10-Mar-2019 
 ******************************************
 %mem=20gb
 %nproc=12
 Will use up to   12 processors via shared memory.
 %chk=4c1_b1_4e_4c1_PSI.inp_extract_12.chk
 ----------------------------------------------------------------------
 #M062X/6-311++G(2d,2p) opt=ModRedundant freq=noraman SCRF=(SMD,solvent
 =water)
 ----------------------------------------------------------------------
 1/18=120,19=15,26=3,38=1/1,3;
 2/9=110,12=2,17=6,18=5,40=1/2;
 3/5=4,6=6,7=1212,11=2,25=1,30=1,70=32201,71=1,72=1,74=-55/1,2,3;
 4//1;
 5/5=2,38=5,53=1/2;
 6/7=2,8=2,9=2,10=2,28=1/1;
 7//1,2,3,16;
 1/18=20,19=15,26=3/3(2);
 2/9=110/2;
 99//99;
 2/9=110/2;
 3/5=4,6=6,7=1212,11=2,25=1,30=1,70=32205,71=1,72=1,74=-55/1,2,3;
 4/5=5,16=3,69=1/1;
 5/5=2,38=5,53=1/2;
 7//1,2,3,16;
 1/18=20,19=15,26=3/3(-5);
 2/9=110/2;
 6/7=2,8=2,9=2,10=2,19=2,28=1/1;
 99/9=1/99;
 --------------------------------
 4c1_b1_4e_4c1_PSI.inp_extract_12
 --------------------------------
 Symbolic Z-matrix:
 Charge =  0 Multiplicity = 1
 C                    -3.37516   0.87859   0.65876 
 C                     1.50568  -1.08249  -0.34712 
 C                     3.41467   0.92558   0.456 
 O                     2.88878  -1.33563  -0.2147 
 O                    -1.50674  -0.93493  -0.50786 
 C                    -2.53139  -1.45032   0.32698 
 O                    -0.05659   0.72451  -1.00703 
 C                    -3.75943  -0.55523   0.29184 
 C                     1.95349   1.3263    0.23575 
 C                    -1.05683   0.34208  -0.12097 
 C                     3.51387  -0.55414   0.78772 
 C                     1.29972   0.37417  -0.76043 
 C                    -2.19138   1.34731  -0.19134 
 H                    -4.21816   1.54854   0.52304 
 H                    -3.10274   0.92063   1.71143 
 H                     1.00981  -1.3081    0.59144 
 H                     1.13713  -1.75588  -1.1069 
 H                     3.99328   1.12631  -0.44215 
 H                     3.85204   1.50777   1.26148 
 H                    -2.15108  -1.53999   1.34214 
 H                    -2.7482   -2.44273  -0.0426 
 H                    -4.18857  -0.58043  -0.70688 
 H                    -4.50584  -0.94451   0.97842 
 H                     1.41943   1.28884   1.18208 
 H                     1.88461   2.34291  -0.13812 
 H                    -0.67141   0.27789   0.89097 
 H                     4.54328  -0.88239   0.83068 
 H                     3.04541  -0.76643   1.74616 
 H                     1.77765   0.50354  -1.72344 
 H                    -2.49081   1.44874  -1.23134 
 H                    -1.82881   2.31256   0.14711 
 
 The following ModRedundant input section has been read:
 D      10       7      12       9 F                                           
 

 GradGradGradGradGradGradGradGradGradGradGradGradGradGradGradGradGradGrad
 Berny optimization.
 Initialization pass.
                           ----------------------------
                           !    Initial Parameters    !
                           ! (Angstroms and Degrees)  !
 --------------------------                            --------------------------
 ! Name  Definition              Value          Derivative Info.                !
 --------------------------------------------------------------------------------
 ! R1    R(1,8)                  1.5291         estimate D2E/DX2                !
 ! R2    R(1,13)                 1.5309         estimate D2E/DX2                !
 ! R3    R(1,14)                 1.0853         estimate D2E/DX2                !
 ! R4    R(1,15)                 1.0882         estimate D2E/DX2                !
 ! R5    R(2,4)                  1.4123         estimate D2E/DX2                !
 ! R6    R(2,12)                 1.5281         estimate D2E/DX2                !
 ! R7    R(2,16)                 1.0852         estimate D2E/DX2                !
 ! R8    R(2,17)                 1.0801         estimate D2E/DX2                !
 ! R9    R(3,9)                  1.5311         estimate D2E/DX2                !
 ! R10   R(3,11)                 1.5197         estimate D2E/DX2                !
 ! R11   R(3,18)                 1.0871         estimate D2E/DX2                !
 ! R12   R(3,19)                 1.0858         estimate D2E/DX2                !
 ! R13   R(4,11)                 1.4164         estimate D2E/DX2                !
 ! R14   R(5,6)                  1.4186         estimate D2E/DX2                !
 ! R15   R(5,10)                 1.4081         estimate D2E/DX2                !
 ! R16   R(6,8)                  1.52           estimate D2E/DX2                !
 ! R17   R(6,20)                 1.0878         estimate D2E/DX2                !
 ! R18   R(6,21)                 1.081          estimate D2E/DX2                !
 ! R19   R(7,10)                 1.3899         estimate D2E/DX2                !
 ! R20   R(7,12)                 1.4224         estimate D2E/DX2                !
 ! R21   R(8,22)                 1.0873         estimate D2E/DX2                !
 ! R22   R(8,23)                 1.0863         estimate D2E/DX2                !
 ! R23   R(9,12)                 1.5252         estimate D2E/DX2                !
 ! R24   R(9,24)                 1.0873         estimate D2E/DX2                !
 ! R25   R(9,25)                 1.0854         estimate D2E/DX2                !
 ! R26   R(10,13)                1.5174         estimate D2E/DX2                !
 ! R27   R(10,26)                1.0848         estimate D2E/DX2                !
 ! R28   R(11,27)                1.0813         estimate D2E/DX2                !
 ! R29   R(11,28)                1.0877         estimate D2E/DX2                !
 ! R30   R(12,29)                1.0828         estimate D2E/DX2                !
 ! R31   R(13,30)                1.087          estimate D2E/DX2                !
 ! R32   R(13,31)                1.0852         estimate D2E/DX2                !
 ! A1    A(8,1,13)             110.3753         estimate D2E/DX2                !
 ! A2    A(8,1,14)             110.7093         estimate D2E/DX2                !
 ! A3    A(8,1,15)             109.3461         estimate D2E/DX2                !
 ! A4    A(13,1,14)            110.0092         estimate D2E/DX2                !
 ! A5    A(13,1,15)            109.3756         estimate D2E/DX2                !
 ! A6    A(14,1,15)            106.9528         estimate D2E/DX2                !
 ! A7    A(4,2,12)             109.1603         estimate D2E/DX2                !
 ! A8    A(4,2,16)             109.2166         estimate D2E/DX2                !
 ! A9    A(4,2,17)             106.7615         estimate D2E/DX2                !
 ! A10   A(12,2,16)            111.7468         estimate D2E/DX2                !
 ! A11   A(12,2,17)            110.9811         estimate D2E/DX2                !
 ! A12   A(16,2,17)            108.8358         estimate D2E/DX2                !
 ! A13   A(9,3,11)             110.3981         estimate D2E/DX2                !
 ! A14   A(9,3,18)             109.9249         estimate D2E/DX2                !
 ! A15   A(9,3,19)             110.5361         estimate D2E/DX2                !
 ! A16   A(11,3,18)            108.9894         estimate D2E/DX2                !
 ! A17   A(11,3,19)            109.5027         estimate D2E/DX2                !
 ! A18   A(18,3,19)            107.4267         estimate D2E/DX2                !
 ! A19   A(2,4,11)             113.5566         estimate D2E/DX2                !
 ! A20   A(6,5,10)             113.4882         estimate D2E/DX2                !
 ! A21   A(5,6,8)              110.8544         estimate D2E/DX2                !
 ! A22   A(5,6,20)             109.0644         estimate D2E/DX2                !
 ! A23   A(5,6,21)             106.0935         estimate D2E/DX2                !
 ! A24   A(8,6,20)             110.6453         estimate D2E/DX2                !
 ! A25   A(8,6,21)             111.7575         estimate D2E/DX2                !
 ! A26   A(20,6,21)            108.2716         estimate D2E/DX2                !
 ! A27   A(10,7,12)            120.5264         estimate D2E/DX2                !
 ! A28   A(1,8,6)              110.0962         estimate D2E/DX2                !
 ! A29   A(1,8,22)             109.9579         estimate D2E/DX2                !
 ! A30   A(1,8,23)             110.9187         estimate D2E/DX2                !
 ! A31   A(6,8,22)             109.0535         estimate D2E/DX2                !
 ! A32   A(6,8,23)             109.2372         estimate D2E/DX2                !
 ! A33   A(22,8,23)            107.5198         estimate D2E/DX2                !
 ! A34   A(3,9,12)             109.8553         estimate D2E/DX2                !
 ! A35   A(3,9,24)             109.5451         estimate D2E/DX2                !
 ! A36   A(3,9,25)             110.8096         estimate D2E/DX2                !
 ! A37   A(12,9,24)            109.6589         estimate D2E/DX2                !
 ! A38   A(12,9,25)            109.4217         estimate D2E/DX2                !
 ! A39   A(24,9,25)            107.5128         estimate D2E/DX2                !
 ! A40   A(5,10,7)             107.7165         estimate D2E/DX2                !
 ! A41   A(5,10,13)            110.4342         estimate D2E/DX2                !
 ! A42   A(5,10,26)            108.431          estimate D2E/DX2                !
 ! A43   A(7,10,13)            109.0398         estimate D2E/DX2                !
 ! A44   A(7,10,26)            110.8112         estimate D2E/DX2                !
 ! A45   A(13,10,26)           110.3722         estimate D2E/DX2                !
 ! A46   A(3,11,4)             110.7278         estimate D2E/DX2                !
 ! A47   A(3,11,27)            111.4933         estimate D2E/DX2                !
 ! A48   A(3,11,28)            110.7481         estimate D2E/DX2                !
 ! A49   A(4,11,27)            106.3052         estimate D2E/DX2                !
 ! A50   A(4,11,28)            109.0169         estimate D2E/DX2                !
 ! A51   A(27,11,28)           108.4061         estimate D2E/DX2                !
 ! A52   A(2,12,7)             114.2175         estimate D2E/DX2                !
 ! A53   A(2,12,9)             111.1394         estimate D2E/DX2                !
 ! A54   A(2,12,29)            107.1534         estimate D2E/DX2                !
 ! A55   A(7,12,9)             111.6051         estimate D2E/DX2                !
 ! A56   A(7,12,29)            103.725          estimate D2E/DX2                !
 ! A57   A(9,12,29)            108.4874         estimate D2E/DX2                !
 ! A58   A(1,13,10)            110.4606         estimate D2E/DX2                !
 ! A59   A(1,13,30)            110.2944         estimate D2E/DX2                !
 ! A60   A(1,13,31)            110.9458         estimate D2E/DX2                !
 ! A61   A(10,13,30)           108.1887         estimate D2E/DX2                !
 ! A62   A(10,13,31)           108.963          estimate D2E/DX2                !
 ! A63   A(30,13,31)           107.9039         estimate D2E/DX2                !
 ! D1    D(13,1,8,6)            51.2356         estimate D2E/DX2                !
 ! D2    D(13,1,8,22)          -68.9423         estimate D2E/DX2                !
 ! D3    D(13,1,8,23)          172.2629         estimate D2E/DX2                !
 ! D4    D(14,1,8,6)           173.284          estimate D2E/DX2                !
 ! D5    D(14,1,8,22)           53.106          estimate D2E/DX2                !
 ! D6    D(14,1,8,23)          -65.6887         estimate D2E/DX2                !
 ! D7    D(15,1,8,6)           -69.1277         estimate D2E/DX2                !
 ! D8    D(15,1,8,22)          170.6943         estimate D2E/DX2                !
 ! D9    D(15,1,8,23)           51.8996         estimate D2E/DX2                !
 ! D10   D(8,1,13,10)          -51.7405         estimate D2E/DX2                !
 ! D11   D(8,1,13,30)           67.81           estimate D2E/DX2                !
 ! D12   D(8,1,13,31)         -172.6842         estimate D2E/DX2                !
 ! D13   D(14,1,13,10)        -174.2005         estimate D2E/DX2                !
 ! D14   D(14,1,13,30)         -54.65           estimate D2E/DX2                !
 ! D15   D(14,1,13,31)          64.8559         estimate D2E/DX2                !
 ! D16   D(15,1,13,10)          68.6052         estimate D2E/DX2                !
 ! D17   D(15,1,13,30)        -171.8444         estimate D2E/DX2                !
 ! D18   D(15,1,13,31)         -52.3385         estimate D2E/DX2                !
 ! D19   D(12,2,4,11)           62.0225         estimate D2E/DX2                !
 ! D20   D(16,2,4,11)          -60.4224         estimate D2E/DX2                !
 ! D21   D(17,2,4,11)         -177.9425         estimate D2E/DX2                !
 ! D22   D(4,2,12,7)           176.2376         estimate D2E/DX2                !
 ! D23   D(4,2,12,9)           -56.4053         estimate D2E/DX2                !
 ! D24   D(4,2,12,29)           61.9636         estimate D2E/DX2                !
 ! D25   D(16,2,12,7)          -62.8491         estimate D2E/DX2                !
 ! D26   D(16,2,12,9)           64.5081         estimate D2E/DX2                !
 ! D27   D(16,2,12,29)        -177.123          estimate D2E/DX2                !
 ! D28   D(17,2,12,7)           58.8359         estimate D2E/DX2                !
 ! D29   D(17,2,12,9)         -173.807          estimate D2E/DX2                !
 ! D30   D(17,2,12,29)         -55.438          estimate D2E/DX2                !
 ! D31   D(11,3,9,12)          -50.9271         estimate D2E/DX2                !
 ! D32   D(11,3,9,24)           69.5869         estimate D2E/DX2                !
 ! D33   D(11,3,9,25)         -171.9545         estimate D2E/DX2                !
 ! D34   D(18,3,9,12)           69.3419         estimate D2E/DX2                !
 ! D35   D(18,3,9,24)         -170.1441         estimate D2E/DX2                !
 ! D36   D(18,3,9,25)          -51.6856         estimate D2E/DX2                !
 ! D37   D(19,3,9,12)         -172.2363         estimate D2E/DX2                !
 ! D38   D(19,3,9,24)          -51.7223         estimate D2E/DX2                !
 ! D39   D(19,3,9,25)           66.7362         estimate D2E/DX2                !
 ! D40   D(9,3,11,4)            55.0701         estimate D2E/DX2                !
 ! D41   D(9,3,11,27)          173.2104         estimate D2E/DX2                !
 ! D42   D(9,3,11,28)          -65.9888         estimate D2E/DX2                !
 ! D43   D(18,3,11,4)          -65.7589         estimate D2E/DX2                !
 ! D44   D(18,3,11,27)          52.3815         estimate D2E/DX2                !
 ! D45   D(18,3,11,28)         173.1823         estimate D2E/DX2                !
 ! D46   D(19,3,11,4)          176.991          estimate D2E/DX2                !
 ! D47   D(19,3,11,27)         -64.8687         estimate D2E/DX2                !
 ! D48   D(19,3,11,28)          55.9322         estimate D2E/DX2                !
 ! D49   D(2,4,11,3)           -62.161          estimate D2E/DX2                !
 ! D50   D(2,4,11,27)          176.5831         estimate D2E/DX2                !
 ! D51   D(2,4,11,28)           59.9169         estimate D2E/DX2                !
 ! D52   D(10,5,6,8)            61.3114         estimate D2E/DX2                !
 ! D53   D(10,5,6,20)          -60.7513         estimate D2E/DX2                !
 ! D54   D(10,5,6,21)         -177.1715         estimate D2E/DX2                !
 ! D55   D(6,5,10,7)           179.6075         estimate D2E/DX2                !
 ! D56   D(6,5,10,13)          -61.4137         estimate D2E/DX2                !
 ! D57   D(6,5,10,26)           59.6335         estimate D2E/DX2                !
 ! D58   D(5,6,8,1)            -55.0066         estimate D2E/DX2                !
 ! D59   D(5,6,8,22)            65.7164         estimate D2E/DX2                !
 ! D60   D(5,6,8,23)          -177.0357         estimate D2E/DX2                !
 ! D61   D(20,6,8,1)            66.128          estimate D2E/DX2                !
 ! D62   D(20,6,8,22)         -173.149          estimate D2E/DX2                !
 ! D63   D(20,6,8,23)          -55.9011         estimate D2E/DX2                !
 ! D64   D(21,6,8,1)          -173.134          estimate D2E/DX2                !
 ! D65   D(21,6,8,22)          -52.4111         estimate D2E/DX2                !
 ! D66   D(21,6,8,23)           64.8368         estimate D2E/DX2                !
 ! D67   D(12,7,10,5)          -88.2099         estimate D2E/DX2                !
 ! D68   D(12,7,10,13)         151.9242         estimate D2E/DX2                !
 ! D69   D(12,7,10,26)          30.2466         estimate D2E/DX2                !
 ! D70   D(10,7,12,2)           45.9642         estimate D2E/DX2                !
 ! D71   D(10,7,12,9)          -81.1531         Frozen                          !
 ! D72   D(10,7,12,29)         162.2437         estimate D2E/DX2                !
 ! D73   D(3,9,12,2)            52.0478         estimate D2E/DX2                !
 ! D74   D(3,9,12,7)          -179.1848         estimate D2E/DX2                !
 ! D75   D(3,9,12,29)          -65.5134         estimate D2E/DX2                !
 ! D76   D(24,9,12,2)          -68.3973         estimate D2E/DX2                !
 ! D77   D(24,9,12,7)           60.37           estimate D2E/DX2                !
 ! D78   D(24,9,12,29)         174.0415         estimate D2E/DX2                !
 ! D79   D(25,9,12,2)          173.9067         estimate D2E/DX2                !
 ! D80   D(25,9,12,7)          -57.326          estimate D2E/DX2                !
 ! D81   D(25,9,12,29)          56.3455         estimate D2E/DX2                !
 ! D82   D(5,10,13,1)           55.7437         estimate D2E/DX2                !
 ! D83   D(5,10,13,30)         -65.0706         estimate D2E/DX2                !
 ! D84   D(5,10,13,31)         177.8608         estimate D2E/DX2                !
 ! D85   D(7,10,13,1)          173.9153         estimate D2E/DX2                !
 ! D86   D(7,10,13,30)          53.101          estimate D2E/DX2                !
 ! D87   D(7,10,13,31)         -63.9676         estimate D2E/DX2                !
 ! D88   D(26,10,13,1)         -64.1412         estimate D2E/DX2                !
 ! D89   D(26,10,13,30)        175.0445         estimate D2E/DX2                !
 ! D90   D(26,10,13,31)         57.9759         estimate D2E/DX2                !
 --------------------------------------------------------------------------------
 Trust Radius=3.00D-01 FncErr=1.00D-07 GrdErr=1.00D-06 EigMax=2.50D+02 EigMin=1.00D-04
 Number of steps in this run=    186 maximum allowed number of steps=    186.
 GradGradGradGradGradGradGradGradGradGradGradGradGradGradGradGradGradGrad

                          Input orientation:                          
 ---------------------------------------------------------------------
 Center     Atomic      Atomic             Coordinates (Angstroms)
 Number     Number       Type             X           Y           Z
 ---------------------------------------------------------------------
      1          6           0       -3.375163    0.878587    0.658758
      2          6           0        1.505684   -1.082493   -0.347121
      3          6           0        3.414669    0.925581    0.456001
      4          8           0        2.888776   -1.335626   -0.214700
      5          8           0       -1.506742   -0.934931   -0.507856
      6          6           0       -2.531390   -1.450318    0.326982
      7          8           0       -0.056592    0.724508   -1.007026
      8          6           0       -3.759427   -0.555225    0.291841
      9          6           0        1.953489    1.326299    0.235752
     10          6           0       -1.056830    0.342080   -0.120971
     11          6           0        3.513867   -0.554139    0.787722
     12          6           0        1.299723    0.374174   -0.760430
     13          6           0       -2.191380    1.347310   -0.191342
     14          1           0       -4.218164    1.548543    0.523036
     15          1           0       -3.102736    0.920628    1.711426
     16          1           0        1.009806   -1.308100    0.591437
     17          1           0        1.137132   -1.755877   -1.106901
     18          1           0        3.993281    1.126309   -0.442150
     19          1           0        3.852040    1.507769    1.261477
     20          1           0       -2.151083   -1.539991    1.342142
     21          1           0       -2.748201   -2.442733   -0.042603
     22          1           0       -4.188570   -0.580430   -0.706875
     23          1           0       -4.505839   -0.944513    0.978419
     24          1           0        1.419433    1.288836    1.182078
     25          1           0        1.884612    2.342911   -0.138124
     26          1           0       -0.671409    0.277886    0.890967
     27          1           0        4.543282   -0.882393    0.830684
     28          1           0        3.045405   -0.766426    1.746161
     29          1           0        1.777653    0.503535   -1.723437
     30          1           0       -2.490814    1.448743   -1.231340
     31          1           0       -1.828813    2.312556    0.147105
 ---------------------------------------------------------------------
                    Distance matrix (angstroms):
                    1          2          3          4          5
     1  C    0.000000
     2  C    5.355399   0.000000
     3  C    6.793021   2.884717   0.000000
     4  O    6.700940   1.412287   2.416498   0.000000
     5  O    2.853214   3.020318   5.348908   4.423469   0.000000
     6  C    2.499165   4.109462   6.404464   5.448373   1.418620
     7  O    3.716381   2.478192   3.772338   3.680642   2.259611
     8  C    1.529086   5.329885   7.327168   6.712988   2.420389
     9  C    5.364132   2.518442   1.531056   2.857186   4.199918
    10  C    2.504094   2.940583   4.546171   4.288507   1.408140
    11  C    7.037618   2.366395   1.519688   1.416443   5.199042
    12  C    4.911526   1.528111   2.501350   2.397150   3.107056
    13  C    1.530919   4.426793   5.659036   5.745144   2.403650
    14  H    1.085317   6.359399   7.658506   7.705276   3.818663
    15  H    1.088161   5.430253   6.637220   6.685721   3.303863
    16  H    4.900417   1.085212   3.284972   2.044784   2.771410
    17  H    5.515320   1.080066   3.849682   2.010197   2.832468
    18  H    7.454350   3.328059   1.087087   2.707912   5.873949
    19  H    7.279533   3.847393   1.085830   3.345425   6.149298
    20  H    2.795515   4.053993   6.151576   5.278797   2.050309
    21  H    3.451978   4.476441   7.040960   5.747244   2.007772
    22  H    2.157618   5.727654   7.837703   7.134521   2.712468
    23  H    2.168941   6.157475   8.155036   7.500456   3.347191
    24  H    4.840487   2.822958   2.154091   3.316287   4.045184
    25  H    5.517653   3.452631   2.168613   3.813901   4.730986
    26  H    2.779397   2.850128   4.159896   4.062122   2.031111
    27  H    8.113716   3.264087   2.164007   2.008890   6.196551
    28  H    6.716562   2.617722   2.159573   2.047803   5.082424
    29  H    5.689203   2.117474   2.758241   2.625528   3.786036
    30  H    2.163243   4.812587   6.164053   6.142170   2.678382
    31  H    2.170082   4.784296   5.432607   5.974595   3.328494
                    6          7          8          9         10
     6  C    0.000000
     7  O    3.554444   0.000000
     8  C    1.520033   4.127440   0.000000
     9  C    5.275610   2.438663   6.015038   0.000000
    10  C    2.363827   1.389900   2.877430   3.187155   0.000000
    11  C    6.128666   4.195740   7.290179   2.505094   4.745546
    12  C    4.380487   1.422369   5.250339   1.525231   2.441983
    13  C    2.865482   2.368658   2.512345   4.166868   1.517446
    14  H    3.446275   4.509856   2.165579   6.182332   3.444464
    15  H    2.804373   4.087473   2.150490   5.282764   2.806800
    16  H    3.553904   2.797103   4.837578   2.820835   2.738906
    17  H    3.950625   2.754498   5.232049   3.459619   3.191700
    18  H    7.057046   4.108771   7.966855   2.158772   5.120722
    19  H    7.097305   4.586612   7.945475   2.165534   5.231348
    20  H    1.087761   3.877298   2.158626   5.127107   2.623029
    21  H    1.080966   4.266883   2.167283   6.032327   3.259150
    22  H    2.138179   4.343523   1.087305   6.499927   3.316942
    23  H    2.139780   5.150089   1.086308   6.887021   3.841828
    24  H    4.882945   2.699869   5.568992   1.087268   2.954008
    25  H    5.840033   2.672544   6.359185   1.085370   3.557485
    26  H    2.600826   2.044468   3.254056   2.901477   1.084753
    27  H    7.115282   5.207509   8.326606   3.455328   5.810872
    28  H    5.795034   4.407415   6.961709   2.802341   4.641476
    29  H    5.156512   1.981547   5.986783   2.132201   3.260101
    30  H    3.291591   2.549563   2.818749   4.681792   2.124602
    31  H    3.832126   2.644746   3.460114   3.909779   2.133213
                   11         12         13         14         15
    11  C    0.000000
    12  C    2.856742   0.000000
    13  C    6.092940   3.668604   0.000000
    14  H    8.017209   5.785629   2.158398   0.000000
    15  H    6.841608   5.078418   2.152476   1.746633   0.000000
    16  H    2.622462   2.177531   4.232202   5.957916   4.809845
    17  H    3.268431   2.164162   4.641876   6.500391   5.751793
    18  H    2.136897   2.814652   6.193689   8.278750   7.418467
    19  H    2.142491   3.447821   6.217665   8.104021   6.994004
    20  H    5.776759   4.471342   3.269511   3.805628   2.663956
    21  H    6.593157   4.983566   3.833614   4.290807   3.809791
    22  H    7.846149   5.570951   2.823247   2.458878   3.046373
    23  H    8.031466   6.202184   3.460855   2.550580   2.446375
    24  H    2.817575   2.150413   3.863635   5.681926   4.567910
    25  H    3.450299   2.145993   4.196161   6.189671   5.506121
    26  H    4.268426   2.573275   2.150668   3.785421   2.645302
    27  H    1.081338   3.825086   7.167411   9.097639   7.904947
    28  H    1.087717   3.260579   5.970403   7.721046   6.375500
    29  H    3.230949   1.082836   4.337337   6.487565   5.982512
    30  H    6.644121   3.967950   1.086989   2.464048   3.051758
    31  H    6.096930   3.790604   1.085219   2.536541   2.451009
                   16         17         18         19         20
    16  H    0.000000
    17  H    1.760985   0.000000
    18  H    3.986950   4.111749   0.000000
    19  H    4.056645   4.861206   1.751515   0.000000
    20  H    3.257077   4.105700   6.931527   6.732966   0.000000
    21  H    3.976432   4.086602   7.638408   7.801940   1.757558
    22  H    5.407239   5.468528   8.362160   8.537353   3.044763
    23  H    5.541145   6.070419   8.862356   8.714812   2.455965
    24  H    2.694574   3.819607   3.047823   2.443729   4.558121
    25  H    3.824582   4.277536   2.453373   2.554823   5.792663
    26  H    2.330569   3.376165   4.925074   4.702285   2.386979
    27  H    3.567060   4.014856   2.440797   2.525128   6.746002
    28  H    2.402178   3.572182   3.044605   2.461207   5.269262
    29  H    3.038133   2.428029   2.634113   3.771111   5.385976
    30  H    4.814254   4.842217   6.539899   6.815381   3.958631
    31  H    4.622157   5.188594   5.970861   5.844792   4.046491
                   21         22         23         24         25
    21  H    0.000000
    22  H    2.446241   0.000000
    23  H    2.525161   1.753121   0.000000
    24  H    5.726572   6.205803   6.335469   0.000000
    25  H    6.661416   6.764092   7.272667   1.752255   0.000000
    26  H    3.547730   3.957300   4.025514   2.340595   3.443341
    27  H    7.507531   8.871331   9.050540   3.820490   4.290653
    28  H    6.290910   7.640836   7.592261   2.680686   3.816536
    29  H    5.655887   6.148512   6.991362   3.031012   2.430630
    30  H    4.077123   2.697217   3.830279   4.597846   4.597718
    31  H    4.847065   3.829765   4.297214   3.559533   3.724487
                   26         27         28         29         30
    26  H    0.000000
    27  H    5.342554   0.000000
    28  H    3.954321   1.759313   0.000000
    29  H    3.589419   4.011612   3.906163   0.000000
    30  H    3.030731   7.691856   6.664999   4.399476   0.000000
    31  H    2.456175   7.160906   5.982902   4.447255   1.756283
                   31
    31  H    0.000000
 Stoichiometry    C10H18O3
 Framework group  C1[X(C10H18O3)]
 Deg. of freedom    87
 Full point group                 C1      NOp   1
 Largest Abelian subgroup         C1      NOp   1
 Largest concise Abelian subgroup C1      NOp   1
                         Standard orientation:                         
 ---------------------------------------------------------------------
 Center     Atomic      Atomic             Coordinates (Angstroms)
 Number     Number       Type             X           Y           Z
 ---------------------------------------------------------------------
      1          6           0        3.375163   -0.878587    0.658758
      2          6           0       -1.505684    1.082493   -0.347121
      3          6           0       -3.414669   -0.925581    0.456001
      4          8           0       -2.888776    1.335626   -0.214700
      5          8           0        1.506742    0.934931   -0.507856
      6          6           0        2.531390    1.450318    0.326982
      7          8           0        0.056592   -0.724508   -1.007026
      8          6           0        3.759427    0.555225    0.291841
      9          6           0       -1.953489   -1.326299    0.235752
     10          6           0        1.056830   -0.342080   -0.120971
     11          6           0       -3.513867    0.554139    0.787722
     12          6           0       -1.299723   -0.374174   -0.760430
     13          6           0        2.191380   -1.347310   -0.191342
     14          1           0        4.218164   -1.548543    0.523036
     15          1           0        3.102736   -0.920628    1.711426
     16          1           0       -1.009806    1.308100    0.591437
     17          1           0       -1.137132    1.755877   -1.106901
     18          1           0       -3.993281   -1.126309   -0.442150
     19          1           0       -3.852040   -1.507769    1.261477
     20          1           0        2.151083    1.539991    1.342142
     21          1           0        2.748201    2.442733   -0.042603
     22          1           0        4.188570    0.580430   -0.706875
     23          1           0        4.505839    0.944513    0.978419
     24          1           0       -1.419433   -1.288836    1.182078
     25          1           0       -1.884612   -2.342911   -0.138124
     26          1           0        0.671409   -0.277886    0.890967
     27          1           0       -4.543282    0.882393    0.830684
     28          1           0       -3.045405    0.766426    1.746161
     29          1           0       -1.777653   -0.503535   -1.723437
     30          1           0        2.490814   -1.448743   -1.231340
     31          1           0        1.828813   -2.312556    0.147105
 ---------------------------------------------------------------------
 Rotational constants (GHZ):           1.8772013           0.4094412           0.3698068
 Standard basis: 6-311++G(2d,2p) (5D, 7F)
 There are   557 symmetry adapted cartesian basis functions of A   symmetry.
 There are   531 symmetry adapted basis functions of A   symmetry.
   531 basis functions,   762 primitive gaussians,   557 cartesian basis functions
    51 alpha electrons       51 beta electrons
       nuclear repulsion energy       890.0121113432 Hartrees.
 NAtoms=   31 NActive=   31 NUniq=   31 SFac= 1.00D+00 NAtFMM=   60 NAOKFM=F Big=F
 Integral buffers will be    131072 words long.
 Raffenetti 2 integral format.
 Two-electron integral symmetry is turned on.
 ------------------------------------------------------------------------------
 Polarizable Continuum Model (PCM)
 =================================
 Model                : PCM.
 Atomic radii         : SMD-Coulomb.
 Polarization charges : Total charges.
 Charge compensation  : None.
 Solution method      : On-the-fly selection.
 Cavity type          : VdW (van der Waals Surface) (Alpha=1.000).
 Cavity algorithm     : GePol (No added spheres)
                        Default sphere list used, NSphG=   31.
                        Lebedev-Laikov grids with approx.  5.0 points / Ang**2.
                        Smoothing algorithm: York/Karplus (Gamma=1.0000).
                        Polarization charges: spherical gaussians, with
                                              point-specific exponents (IZeta= 3).
                        Self-potential: point-specific (ISelfS= 7).
                        Self-field    : sphere-specific E.n sum rule (ISelfD= 2).
 1st derivatives      : Analytical E(r).r(x)/FMM algorithm (CHGder, D1EAlg=3).
                        Cavity 1st derivative terms included.
 Solvent              : Water, Eps=  78.355300 Eps(inf)=   1.777849
 ------------------------------------------------------------------------------
 ------------------------------------------------------------------------------
 Atomic radii for non-electrostatic terms: SMD-CDS.
 ------------------------------------------------------------------------------
 Nuclear repulsion after PCM non-electrostatic terms =      890.0183274239 Hartrees.
 One-electron integrals computed using PRISM.
 NBasis=   531 RedAO= T EigKep=  5.90D-06  NBF=   531
 NBsUse=   531 1.00D-06 EigRej= -1.00D+00 NBFU=   531
 ExpMin= 3.60D-02 ExpMax= 8.59D+03 ExpMxC= 1.30D+03 IAcc=3 IRadAn=         5 AccDes= 0.00D+00
 Harris functional with IExCor= 1009 and IRadAn=       5 diagonalized for initial guess.
 HarFok:  IExCor= 1009 AccDes= 0.00D+00 IRadAn=         5 IDoV= 1 UseB2=F ITyADJ=14
 ICtDFT=  3500011 ScaDFX=  1.000000  1.000000  1.000000  1.000000
 FoFCou: FMM=F IPFlag=           0 FMFlag=      100000 FMFlg1=           0
         NFxFlg=           0 DoJE=T BraDBF=F KetDBF=T FulRan=T
         wScrn=  0.000000 ICntrl=       500 IOpCl=  0 I1Cent=   200000004 NGrid=           0
         NMat0=    1 NMatS0=      1 NMatT0=    0 NMatD0=    1 NMtDS0=    0 NMtDT0=    0
 Petite list used in FoFCou.
 Requested convergence on RMS density matrix=1.00D-08 within 128 cycles.
 Requested convergence on MAX density matrix=1.00D-06.
 Requested convergence on             energy=1.00D-06.
 No special actions if energy rises.
 Inv3:  Mode=1 IEnd=    11868363.
 Iteration    1 A*A^-1 deviation from unit magnitude is 3.11D-15 for    878.
 Iteration    1 A*A^-1 deviation from orthogonality  is 2.33D-15 for   1989    624.
 Iteration    1 A^-1*A deviation from unit magnitude is 3.55D-15 for    878.
 Iteration    1 A^-1*A deviation from orthogonality  is 2.93D-15 for   1533   1513.
 Error on total polarization charges =  0.06274
 SCF Done:  E(RM062X) =  -617.503577745     A.U. after   12 cycles
            NFock= 12  Conv=0.49D-08     -V/T= 2.0035
 SMD-CDS (non-electrostatic) energy       (kcal/mol) =       3.90
 (included in total energy above)

 **********************************************************************

            Population analysis using the SCF Density.

 **********************************************************************

 Orbital symmetries:
       Occupied  (A) (A) (A) (A) (A) (A) (A) (A) (A) (A) (A) (A)
                 (A) (A) (A) (A) (A) (A) (A) (A) (A) (A) (A) (A)
                 (A) (A) (A) (A) (A) (A) (A) (A) (A) (A) (A) (A)
                 (A) (A) (A) (A) (A) (A) (A) (A) (A) (A) (A) (A)
                 (A) (A) (A)
       Virtual   (A) (A) (A) (A) (A) (A) (A) (A) (A) (A) (A) (A)
                 (A) (A) (A) (A) (A) (A) (A) (A) (A) (A) (A) (A)
                 (A) (A) (A) (A) (A) (A) (A) (A) (A) (A) (A) (A)
                 (A) (A) (A) (A) (A) (A) (A) (A) (A) (A) (A) (A)
                 (A) (A) (A) (A) (A) (A) (A) (A) (A) (A) (A) (A)
                 (A) (A) (A) (A) (A) (A) (A) (A) (A) (A) (A) (A)
                 (A) (A) (A) (A) (A) (A) (A) (A) (A) (A) (A) (A)
                 (A) (A) (A) (A) (A) (A) (A) (A) (A) (A) (A) (A)
                 (A) (A) (A) (A) (A) (A) (A) (A) (A) (A) (A) (A)
                 (A) (A) (A) (A) (A) (A) (A) (A) (A) (A) (A) (A)
                 (A) (A) (A) (A) (A) (A) (A) (A) (A) (A) (A) (A)
                 (A) (A) (A) (A) (A) (A) (A) (A) (A) (A) (A) (A)
                 (A) (A) (A) (A) (A) (A) (A) (A) (A) (A) (A) (A)
                 (A) (A) (A) (A) (A) (A) (A) (A) (A) (A) (A) (A)
                 (A) (A) (A) (A) (A) (A) (A) (A) (A) (A) (A) (A)
                 (A) (A) (A) (A) (A) (A) (A) (A) (A) (A) (A) (A)
                 (A) (A) (A) (A) (A) (A) (A) (A) (A) (A) (A) (A)
                 (A) (A) (A) (A) (A) (A) (A) (A) (A) (A) (A) (A)
                 (A) (A) (A) (A) (A) (A) (A) (A) (A) (A) (A) (A)
                 (A) (A) (A) (A) (A) (A) (A) (A) (A) (A) (A) (A)
                 (A) (A) (A) (A) (A) (A) (A) (A) (A) (A) (A) (A)
                 (A) (A) (A) (A) (A) (A) (A) (A) (A) (A) (A) (A)
                 (A) (A) (A) (A) (A) (A) (A) (A) (A) (A) (A) (A)
                 (A) (A) (A) (A) (A) (A) (A) (A) (A) (A) (A) (A)
                 (A) (A) (A) (A) (A) (A) (A) (A) (A) (A) (A) (A)
                 (A) (A) (A) (A) (A) (A) (A) (A) (A) (A) (A) (A)
                 (A) (A) (A) (A) (A) (A) (A) (A) (A) (A) (A) (A)
                 (A) (A) (A) (A) (A) (A) (A) (A) (A) (A) (A) (A)
                 (A) (A) (A) (A) (A) (A) (A) (A) (A) (A) (A) (A)
                 (A) (A) (A) (A) (A) (A) (A) (A) (A) (A) (A) (A)
                 (A) (A) (A) (A) (A) (A) (A) (A) (A) (A) (A) (A)
                 (A) (A) (A) (A) (A) (A) (A) (A) (A) (A) (A) (A)
                 (A) (A) (A) (A) (A) (A) (A) (A) (A) (A) (A) (A)
                 (A) (A) (A) (A) (A) (A) (A) (A) (A) (A) (A) (A)
                 (A) (A) (A) (A) (A) (A) (A) (A) (A) (A) (A) (A)
                 (A) (A) (A) (A) (A) (A) (A) (A) (A) (A) (A) (A)
                 (A) (A) (A) (A) (A) (A) (A) (A) (A) (A) (A) (A)
                 (A) (A) (A) (A) (A) (A) (A) (A) (A) (A) (A) (A)
                 (A) (A) (A) (A) (A) (A) (A) (A) (A) (A) (A) (A)
                 (A) (A) (A) (A) (A) (A) (A) (A) (A) (A) (A) (A)
 The electronic state is 1-A.
 Alpha  occ. eigenvalues --  -19.63526 -19.62936 -19.62763 -10.63141 -10.58423
 Alpha  occ. eigenvalues --  -10.57444 -10.57310 -10.57215 -10.52420 -10.52403
 Alpha  occ. eigenvalues --  -10.52353 -10.52262 -10.52107  -1.20364  -1.16722
 Alpha  occ. eigenvalues --   -1.14029  -0.90310  -0.89368  -0.86979  -0.84067
 Alpha  occ. eigenvalues --   -0.74834  -0.73970  -0.72683  -0.69885  -0.65952
 Alpha  occ. eigenvalues --   -0.64586  -0.59796  -0.57571  -0.57049  -0.55816
 Alpha  occ. eigenvalues --   -0.54343  -0.52826  -0.51251  -0.51062  -0.50049
 Alpha  occ. eigenvalues --   -0.48451  -0.47180  -0.45629  -0.45198  -0.44185
 Alpha  occ. eigenvalues --   -0.42740  -0.41583  -0.40296  -0.39507  -0.39449
 Alpha  occ. eigenvalues --   -0.38756  -0.37472  -0.37125  -0.34643  -0.32536
 Alpha  occ. eigenvalues --   -0.31677
 Alpha virt. eigenvalues --    0.00445   0.01258   0.01333   0.01573   0.02601
 Alpha virt. eigenvalues --    0.02927   0.03057   0.03889   0.04154   0.04826
 Alpha virt. eigenvalues --    0.05020   0.05258   0.05930   0.06535   0.07670
 Alpha virt. eigenvalues --    0.07744   0.08007   0.08287   0.09697   0.10051
 Alpha virt. eigenvalues --    0.10754   0.11215   0.11767   0.11909   0.12076
 Alpha virt. eigenvalues --    0.12916   0.13138   0.13638   0.13928   0.13983
 Alpha virt. eigenvalues --    0.14188   0.14387   0.14568   0.14971   0.15259
 Alpha virt. eigenvalues --    0.15529   0.15841   0.16069   0.16479   0.16939
 Alpha virt. eigenvalues --    0.17068   0.17221   0.17854   0.17899   0.18187
 Alpha virt. eigenvalues --    0.18538   0.18924   0.19269   0.19442   0.19836
 Alpha virt. eigenvalues --    0.20154   0.20426   0.20680   0.20992   0.21569
 Alpha virt. eigenvalues --    0.21751   0.23184   0.23729   0.24319   0.24373
 Alpha virt. eigenvalues --    0.25735   0.26463   0.26915   0.26983   0.27547
 Alpha virt. eigenvalues --    0.27842   0.28352   0.29115   0.29407   0.30222
 Alpha virt. eigenvalues --    0.30551   0.31148   0.31650   0.32228   0.32600
 Alpha virt. eigenvalues --    0.33016   0.33657   0.33837   0.34413   0.34875
 Alpha virt. eigenvalues --    0.35155   0.35350   0.35482   0.36238   0.36331
 Alpha virt. eigenvalues --    0.36852   0.37534   0.37821   0.38192   0.38254
 Alpha virt. eigenvalues --    0.39084   0.39512   0.40178   0.40348   0.40740
 Alpha virt. eigenvalues --    0.41789   0.43263   0.43780   0.44775   0.45266
 Alpha virt. eigenvalues --    0.46046   0.47663   0.49553   0.50640   0.51063
 Alpha virt. eigenvalues --    0.52286   0.53046   0.53471   0.53964   0.55415
 Alpha virt. eigenvalues --    0.56216   0.57874   0.58417   0.58971   0.59747
 Alpha virt. eigenvalues --    0.60478   0.60907   0.61245   0.61560   0.62195
 Alpha virt. eigenvalues --    0.62968   0.63722   0.64192   0.64410   0.64491
 Alpha virt. eigenvalues --    0.65114   0.65699   0.66653   0.66729   0.67336
 Alpha virt. eigenvalues --    0.67823   0.68598   0.68942   0.71203   0.71533
 Alpha virt. eigenvalues --    0.71577   0.72495   0.73316   0.73540   0.73816
 Alpha virt. eigenvalues --    0.74178   0.75050   0.75270   0.75917   0.76333
 Alpha virt. eigenvalues --    0.77114   0.77373   0.78222   0.78879   0.79610
 Alpha virt. eigenvalues --    0.81224   0.83471   0.83702   0.85092   0.85949
 Alpha virt. eigenvalues --    0.87131   0.88405   0.88722   0.90487   0.90905
 Alpha virt. eigenvalues --    0.91391   0.92043   0.92624   0.94258   0.95481
 Alpha virt. eigenvalues --    0.96369   0.98469   1.00136   1.00699   1.02171
 Alpha virt. eigenvalues --    1.03911   1.04001   1.05195   1.06840   1.07379
 Alpha virt. eigenvalues --    1.08340   1.09693   1.10524   1.10824   1.11911
 Alpha virt. eigenvalues --    1.12323   1.14216   1.15117   1.15294   1.16395
 Alpha virt. eigenvalues --    1.17963   1.18573   1.19125   1.20686   1.20972
 Alpha virt. eigenvalues --    1.21238   1.22154   1.22582   1.23442   1.24209
 Alpha virt. eigenvalues --    1.25054   1.25374   1.25818   1.26955   1.28132
 Alpha virt. eigenvalues --    1.28591   1.28828   1.29468   1.29863   1.30668
 Alpha virt. eigenvalues --    1.31580   1.32241   1.33475   1.34566   1.35251
 Alpha virt. eigenvalues --    1.35567   1.36078   1.37090   1.38051   1.39054
 Alpha virt. eigenvalues --    1.39354   1.40205   1.40537   1.41473   1.41876
 Alpha virt. eigenvalues --    1.42498   1.43210   1.43852   1.44869   1.46173
 Alpha virt. eigenvalues --    1.46898   1.47131   1.47684   1.48092   1.48903
 Alpha virt. eigenvalues --    1.50538   1.51028   1.51299   1.51676   1.52113
 Alpha virt. eigenvalues --    1.53428   1.54032   1.54608   1.55377   1.56031
 Alpha virt. eigenvalues --    1.56726   1.57057   1.57948   1.58945   1.59524
 Alpha virt. eigenvalues --    1.60216   1.60505   1.61602   1.62567   1.63258
 Alpha virt. eigenvalues --    1.64713   1.64848   1.65618   1.66212   1.68701
 Alpha virt. eigenvalues --    1.69374   1.69833   1.70130   1.71583   1.72745
 Alpha virt. eigenvalues --    1.73003   1.75236   1.76447   1.77874   1.78318
 Alpha virt. eigenvalues --    1.78677   1.80657   1.82329   1.83264   1.85349
 Alpha virt. eigenvalues --    1.87594   1.88661   1.93549   1.96225   1.97681
 Alpha virt. eigenvalues --    1.99382   2.07811   2.11958   2.14663   2.20673
 Alpha virt. eigenvalues --    2.23288   2.24698   2.32342   2.34137   2.37851
 Alpha virt. eigenvalues --    2.42161   2.45029   2.47558   2.50380   2.51907
 Alpha virt. eigenvalues --    2.57794   2.76140   2.77112   2.79150   2.83087
 Alpha virt. eigenvalues --    2.88346   2.90019   2.92764   2.93640   2.94759
 Alpha virt. eigenvalues --    2.97264   2.98601   3.01782   3.03457   3.05122
 Alpha virt. eigenvalues --    3.07467   3.08345   3.09815   3.10739   3.12374
 Alpha virt. eigenvalues --    3.13226   3.13596   3.17398   3.19602   3.21547
 Alpha virt. eigenvalues --    3.25687   3.29048   3.32238   3.34291   3.35316
 Alpha virt. eigenvalues --    3.35927   3.37871   3.38938   3.41961   3.42629
 Alpha virt. eigenvalues --    3.43510   3.44486   3.45253   3.46963   3.47586
 Alpha virt. eigenvalues --    3.48037   3.49641   3.50717   3.51014   3.53477
 Alpha virt. eigenvalues --    3.54156   3.55130   3.55497   3.56150   3.56743
 Alpha virt. eigenvalues --    3.57476   3.57855   3.59144   3.60336   3.60973
 Alpha virt. eigenvalues --    3.61471   3.62723   3.63302   3.64061   3.65067
 Alpha virt. eigenvalues --    3.66948   3.67265   3.68536   3.69109   3.70622
 Alpha virt. eigenvalues --    3.71668   3.71938   3.72432   3.73519   3.74385
 Alpha virt. eigenvalues --    3.75571   3.75924   3.76569   3.77765   3.79007
 Alpha virt. eigenvalues --    3.80151   3.80564   3.81494   3.81934   3.84510
 Alpha virt. eigenvalues --    3.86643   3.87284   3.90245   3.90738   3.92423
 Alpha virt. eigenvalues --    3.92755   3.93773   3.95239   3.96342   3.98613
 Alpha virt. eigenvalues --    4.00951   4.03644   4.03960   4.04355   4.04991
 Alpha virt. eigenvalues --    4.05711   4.06484   4.06864   4.07158   4.08009
 Alpha virt. eigenvalues --    4.09724   4.10632   4.11190   4.11962   4.12411
 Alpha virt. eigenvalues --    4.13083   4.13795   4.14925   4.15606   4.16477
 Alpha virt. eigenvalues --    4.17818   4.18251   4.18863   4.20501   4.21287
 Alpha virt. eigenvalues --    4.23799   4.24328   4.25480   4.27286   4.27713
 Alpha virt. eigenvalues --    4.29669   4.30842   4.31312   4.32166   4.32964
 Alpha virt. eigenvalues --    4.34910   4.35258   4.35894   4.37924   4.39875
 Alpha virt. eigenvalues --    4.42481   4.43792   4.45584   4.47432   4.53287
 Alpha virt. eigenvalues --    4.58120   4.61700   4.76850   4.77602   4.83336
 Alpha virt. eigenvalues --    4.89242   4.92000   4.93875   4.99475   5.01142
 Alpha virt. eigenvalues --    5.06782   5.07314   5.08398   5.09291   5.12275
 Alpha virt. eigenvalues --    5.13027   5.14485   5.16752   5.31567   5.35785
 Alpha virt. eigenvalues --    5.40370   5.56461   5.59338   5.66068   5.86118
 Alpha virt. eigenvalues --    5.91482   6.00643   7.01749   7.05087   7.05816
 Alpha virt. eigenvalues --    7.09329   7.11001   7.13023   7.13422   7.17737
 Alpha virt. eigenvalues --    7.22844   7.36932   7.42286   7.45959   7.53544
 Alpha virt. eigenvalues --    7.56661   7.61670  23.96207  23.97842  24.07252
 Alpha virt. eigenvalues --   24.09108  24.12127  24.12476  24.14420  24.15439
 Alpha virt. eigenvalues --   24.17050  24.20077  50.18038  50.20104  50.23850
          Condensed to atoms (all electrons):
               1          2          3          4          5          6
     1  C    5.658485  -0.006156  -0.008952   0.000216   0.026367  -0.056807
     2  C   -0.006156   5.805387   0.046615   0.143859  -0.049772   0.020212
     3  C   -0.008952   0.046615   5.654087  -0.035899  -0.002906  -0.002123
     4  O    0.000216   0.143859  -0.035899   8.423975   0.000231  -0.001429
     5  O    0.026367  -0.049772  -0.002906   0.000231   8.431368   0.008569
     6  C   -0.056807   0.020212  -0.002123  -0.001429   0.008569   5.461329
     7  O    0.030657   0.084636  -0.002781   0.003989   0.004553  -0.006521
     8  C   -0.036552   0.007584   0.001606   0.000460  -0.054250  -0.010468
     9  C   -0.006408   0.357075  -0.107346  -0.021381   0.009002  -0.022224
    10  C   -0.033925   0.100332  -0.042197  -0.000721   0.289491  -0.092806
    11  C    0.004086  -0.194006   0.036558   0.095816   0.003587  -0.003008
    12  C   -0.048476  -0.565329   0.054743  -0.016913  -0.028445   0.023063
    13  C    0.057914  -0.139831  -0.013352   0.001459  -0.054928  -0.022816
    14  H    0.430619  -0.001054  -0.000315   0.000017  -0.003290   0.004598
    15  H    0.527590  -0.001122  -0.000384  -0.000035   0.001473  -0.002753
    16  H    0.003534   0.302271   0.012937  -0.043487   0.008831   0.018233
    17  H   -0.002580   0.506180   0.013684  -0.057028  -0.014631   0.001181
    18  H   -0.000248   0.001361   0.503575  -0.007421  -0.000080  -0.000069
    19  H   -0.000418   0.004772   0.435732   0.007975  -0.000064   0.000169
    20  H    0.013790   0.007577  -0.000780   0.000681  -0.031850   0.475498
    21  H    0.005721   0.000470   0.000012   0.000048  -0.069808   0.430648
    22  H   -0.003928  -0.000999  -0.000028  -0.000021  -0.002860  -0.059137
    23  H   -0.061136   0.001478   0.000079  -0.000003   0.007470  -0.046547
    24  H    0.006630  -0.043447  -0.074622  -0.000754  -0.000143  -0.000882
    25  H   -0.000697   0.005010   0.006033  -0.001662   0.000438   0.000729
    26  H   -0.075710   0.015801   0.013189   0.001893  -0.075227   0.014267
    27  H    0.000060   0.009873  -0.045386  -0.069081   0.000282  -0.000312
    28  H   -0.000563  -0.024067  -0.049455  -0.036853   0.000228   0.000403
    29  H   -0.000301  -0.096644   0.001278   0.001389  -0.003119   0.000946
    30  H   -0.011538  -0.000390  -0.000706   0.000261  -0.009528  -0.001000
    31  H   -0.027942   0.001666  -0.000009  -0.000164   0.005684   0.000695
               7          8          9         10         11         12
     1  C    0.030657  -0.036552  -0.006408  -0.033925   0.004086  -0.048476
     2  C    0.084636   0.007584   0.357075   0.100332  -0.194006  -0.565329
     3  C   -0.002781   0.001606  -0.107346  -0.042197   0.036558   0.054743
     4  O    0.003989   0.000460  -0.021381  -0.000721   0.095816  -0.016913
     5  O    0.004553  -0.054250   0.009002   0.289491   0.003587  -0.028445
     6  C   -0.006521  -0.010468  -0.022224  -0.092806  -0.003008   0.023063
     7  O    8.462115   0.016391  -0.094970   0.295737   0.005065  -0.032339
     8  C    0.016391   5.709926   0.025234   0.103351  -0.001777  -0.057053
     9  C   -0.094970   0.025234   6.637312  -0.036033  -0.139089  -1.136774
    10  C    0.295737   0.103351  -0.036033   6.328415   0.056933  -0.299109
    11  C    0.005065  -0.001777  -0.139089   0.056933   5.438871   0.088319
    12  C   -0.032339  -0.057053  -1.136774  -0.299109   0.088319   7.553343
    13  C   -0.274382  -0.064604   0.081506  -0.934667   0.027935  -0.005113
    14  H   -0.002256  -0.022935   0.000318   0.033280   0.000431  -0.004653
    15  H   -0.000393  -0.082674   0.000133  -0.027823  -0.000004   0.005783
    16  H   -0.018919  -0.022413  -0.169462  -0.008107   0.008441   0.182827
    17  H    0.009026   0.001935   0.010245  -0.006494  -0.009450  -0.078958
    18  H    0.001022   0.000177  -0.023658  -0.007170  -0.080859  -0.014016
    19  H   -0.002395   0.000026  -0.039685  -0.004234  -0.041577   0.005491
    20  H    0.004871  -0.064441   0.005804  -0.037272   0.000131  -0.015163
    21  H   -0.001717  -0.035674   0.001176   0.012524  -0.000061  -0.000538
    22  H    0.001883   0.459141  -0.001060  -0.020439  -0.000049   0.004519
    23  H    0.000231   0.468134   0.000110   0.010440  -0.000132  -0.002671
    24  H   -0.016457  -0.003421   0.460366  -0.018463   0.006791   0.050480
    25  H   -0.000115  -0.000212   0.409908   0.000928   0.006340  -0.034160
    26  H   -0.020163   0.043444   0.006377   0.459996  -0.025264   0.046059
    27  H    0.000560   0.000012   0.008179   0.003002   0.436203  -0.000668
    28  H   -0.000984   0.000218  -0.003016  -0.006924   0.464091   0.028034
    29  H   -0.078531  -0.003057  -0.076687  -0.015394   0.010768   0.560603
    30  H    0.000249  -0.021711   0.003926  -0.114026  -0.000030   0.000355
    31  H    0.005758   0.003302   0.000774  -0.003636  -0.000700   0.006022
              13         14         15         16         17         18
     1  C    0.057914   0.430619   0.527590   0.003534  -0.002580  -0.000248
     2  C   -0.139831  -0.001054  -0.001122   0.302271   0.506180   0.001361
     3  C   -0.013352  -0.000315  -0.000384   0.012937   0.013684   0.503575
     4  O    0.001459   0.000017  -0.000035  -0.043487  -0.057028  -0.007421
     5  O   -0.054928  -0.003290   0.001473   0.008831  -0.014631  -0.000080
     6  C   -0.022816   0.004598  -0.002753   0.018233   0.001181  -0.000069
     7  O   -0.274382  -0.002256  -0.000393  -0.018919   0.009026   0.001022
     8  C   -0.064604  -0.022935  -0.082674  -0.022413   0.001935   0.000177
     9  C    0.081506   0.000318   0.000133  -0.169462   0.010245  -0.023658
    10  C   -0.934667   0.033280  -0.027823  -0.008107  -0.006494  -0.007170
    11  C    0.027935   0.000431  -0.000004   0.008441  -0.009450  -0.080859
    12  C   -0.005113  -0.004653   0.005783   0.182827  -0.078958  -0.014016
    13  C    6.880714  -0.063911  -0.029956   0.006565  -0.022290  -0.000431
    14  H   -0.063911   0.458439  -0.001110   0.000359  -0.000265  -0.000019
    15  H   -0.029956  -0.001110   0.454383   0.001558  -0.000188  -0.000006
    16  H    0.006565   0.000359   0.001558   0.535821  -0.025621  -0.001042
    17  H   -0.022290  -0.000265  -0.000188  -0.025621   0.444109  -0.000616
    18  H   -0.000431  -0.000019  -0.000006  -0.001042  -0.000616   0.467133
    19  H   -0.000124  -0.000022   0.000022  -0.002254   0.001663  -0.010813
    20  H    0.026420  -0.000929   0.001006  -0.007517   0.000992   0.000026
    21  H   -0.002471   0.000324  -0.001848   0.000843  -0.001009  -0.000012
    22  H   -0.001820  -0.000117   0.002552   0.000121  -0.000160   0.000002
    23  H   -0.001619  -0.007967  -0.006327  -0.000199   0.000380   0.000001
    24  H    0.018396   0.000424   0.001120   0.005859  -0.003185   0.001165
    25  H   -0.004757  -0.000013   0.000006  -0.002914  -0.000109  -0.008191
    26  H   -0.111459  -0.003893  -0.016449  -0.033744   0.006642   0.001443
    27  H    0.000950   0.000013  -0.000010  -0.001084   0.001359  -0.003356
    28  H    0.000293  -0.000044   0.000099  -0.000343  -0.001522   0.001715
    29  H    0.008474  -0.000065   0.000310   0.011866  -0.003855  -0.000301
    30  H    0.514857  -0.002830   0.005098  -0.000446  -0.000568  -0.000017
    31  H    0.395176  -0.011736  -0.006395  -0.000051   0.000336   0.000074
              19         20         21         22         23         24
     1  C   -0.000418   0.013790   0.005721  -0.003928  -0.061136   0.006630
     2  C    0.004772   0.007577   0.000470  -0.000999   0.001478  -0.043447
     3  C    0.435732  -0.000780   0.000012  -0.000028   0.000079  -0.074622
     4  O    0.007975   0.000681   0.000048  -0.000021  -0.000003  -0.000754
     5  O   -0.000064  -0.031850  -0.069808  -0.002860   0.007470  -0.000143
     6  C    0.000169   0.475498   0.430648  -0.059137  -0.046547  -0.000882
     7  O   -0.002395   0.004871  -0.001717   0.001883   0.000231  -0.016457
     8  C    0.000026  -0.064441  -0.035674   0.459141   0.468134  -0.003421
     9  C   -0.039685   0.005804   0.001176  -0.001060   0.000110   0.460366
    10  C   -0.004234  -0.037272   0.012524  -0.020439   0.010440  -0.018463
    11  C   -0.041577   0.000131  -0.000061  -0.000049  -0.000132   0.006791
    12  C    0.005491  -0.015163  -0.000538   0.004519  -0.002671   0.050480
    13  C   -0.000124   0.026420  -0.002471  -0.001820  -0.001619   0.018396
    14  H   -0.000022  -0.000929   0.000324  -0.000117  -0.007967   0.000424
    15  H    0.000022   0.001006  -0.001848   0.002552  -0.006327   0.001120
    16  H   -0.002254  -0.007517   0.000843   0.000121  -0.000199   0.005859
    17  H    0.001663   0.000992  -0.001009  -0.000160   0.000380  -0.003185
    18  H   -0.010813   0.000026  -0.000012   0.000002   0.000001   0.001165
    19  H    0.491516  -0.000048   0.000009   0.000002   0.000002  -0.004361
    20  H   -0.000048   0.474342  -0.003952   0.002658   0.000850   0.001857
    21  H    0.000009  -0.003952   0.471360  -0.001734  -0.010486  -0.000151
    22  H    0.000002   0.002658  -0.001734   0.467307  -0.009614   0.000246
    23  H    0.000002   0.000850  -0.010486  -0.009614   0.472725  -0.000317
    24  H   -0.004361   0.001857  -0.000151   0.000246  -0.000317   0.470687
    25  H   -0.009172  -0.000051   0.000019  -0.000018   0.000009  -0.020498
    26  H    0.000427  -0.008861  -0.000369  -0.003048   0.003511  -0.015939
    27  H   -0.010010   0.000029  -0.000022   0.000002  -0.000006  -0.001931
    28  H    0.005135  -0.000053  -0.000012  -0.000006   0.000005  -0.003350
    29  H   -0.000783  -0.000251   0.000193   0.000070  -0.000081   0.008567
    30  H    0.000033   0.001351  -0.000422   0.001706  -0.002873   0.001274
    31  H    0.000101  -0.000732   0.001234  -0.001324   0.001537  -0.001216
              25         26         27         28         29         30
     1  C   -0.000697  -0.075710   0.000060  -0.000563  -0.000301  -0.011538
     2  C    0.005010   0.015801   0.009873  -0.024067  -0.096644  -0.000390
     3  C    0.006033   0.013189  -0.045386  -0.049455   0.001278  -0.000706
     4  O   -0.001662   0.001893  -0.069081  -0.036853   0.001389   0.000261
     5  O    0.000438  -0.075227   0.000282   0.000228  -0.003119  -0.009528
     6  C    0.000729   0.014267  -0.000312   0.000403   0.000946  -0.001000
     7  O   -0.000115  -0.020163   0.000560  -0.000984  -0.078531   0.000249
     8  C   -0.000212   0.043444   0.000012   0.000218  -0.003057  -0.021711
     9  C    0.409908   0.006377   0.008179  -0.003016  -0.076687   0.003926
    10  C    0.000928   0.459996   0.003002  -0.006924  -0.015394  -0.114026
    11  C    0.006340  -0.025264   0.436203   0.464091   0.010768  -0.000030
    12  C   -0.034160   0.046059  -0.000668   0.028034   0.560603   0.000355
    13  C   -0.004757  -0.111459   0.000950   0.000293   0.008474   0.514857
    14  H   -0.000013  -0.003893   0.000013  -0.000044  -0.000065  -0.002830
    15  H    0.000006  -0.016449  -0.000010   0.000099   0.000310   0.005098
    16  H   -0.002914  -0.033744  -0.001084  -0.000343   0.011866  -0.000446
    17  H   -0.000109   0.006642   0.001359  -0.001522  -0.003855  -0.000568
    18  H   -0.008191   0.001443  -0.003356   0.001715  -0.000301  -0.000017
    19  H   -0.009172   0.000427  -0.010010   0.005135  -0.000783   0.000033
    20  H   -0.000051  -0.008861   0.000029  -0.000053  -0.000251   0.001351
    21  H    0.000019  -0.000369  -0.000022  -0.000012   0.000193  -0.000422
    22  H   -0.000018  -0.003048   0.000002  -0.000006   0.000070   0.001706
    23  H    0.000009   0.003511  -0.000006   0.000005  -0.000081  -0.002873
    24  H   -0.020498  -0.015939  -0.001931  -0.003350   0.008567   0.001274
    25  H    0.468028   0.003008   0.001319  -0.000816  -0.005457   0.000363
    26  H    0.003008   0.470088  -0.000524   0.001266  -0.004933  -0.007328
    27  H    0.001319  -0.000524   0.456841  -0.007113  -0.002351  -0.000009
    28  H   -0.000816   0.001266  -0.007113   0.483290   0.001605   0.000104
    29  H   -0.005457  -0.004933  -0.002351   0.001605   0.418320   0.000064
    30  H    0.000363  -0.007328  -0.000009   0.000104   0.000064   0.460729
    31  H   -0.001896   0.005971  -0.000070   0.000011   0.000799  -0.020398
              31
     1  C   -0.027942
     2  C    0.001666
     3  C   -0.000009
     4  O   -0.000164
     5  O    0.005684
     6  C    0.000695
     7  O    0.005758
     8  C    0.003302
     9  C    0.000774
    10  C   -0.003636
    11  C   -0.000700
    12  C    0.006022
    13  C    0.395176
    14  H   -0.011736
    15  H   -0.006395
    16  H   -0.000051
    17  H    0.000336
    18  H    0.000074
    19  H    0.000101
    20  H   -0.000732
    21  H    0.001234
    22  H   -0.001324
    23  H    0.001537
    24  H   -0.001216
    25  H   -0.001896
    26  H    0.005971
    27  H   -0.000070
    28  H    0.000011
    29  H    0.000799
    30  H   -0.020398
    31  H    0.480905
 Mulliken charges:
               1
     1  C   -0.383332
     2  C   -0.299342
     3  C   -0.392888
     4  O   -0.389420
     5  O   -0.396673
     6  C   -0.131636
     7  O   -0.373818
     8  C   -0.359700
     9  C   -0.139652
    10  C    0.015010
    11  C   -0.194362
    12  C   -0.269263
    13  C   -0.272128
    14  H    0.198604
    15  H    0.176342
    16  H    0.237537
    17  H    0.230799
    18  H    0.180630
    19  H    0.172885
    20  H    0.154018
    21  H    0.205706
    22  H    0.166152
    23  H    0.183013
    24  H    0.175276
    25  H    0.188601
    26  H    0.309529
    27  H    0.223248
    28  H    0.148624
    29  H    0.266560
    30  H    0.203452
    31  H    0.166227
 Sum of Mulliken charges =  -0.00000
 Mulliken charges with hydrogens summed into heavy atoms:
               1
     1  C   -0.008386
     2  C    0.168994
     3  C   -0.039373
     4  O   -0.389420
     5  O   -0.396673
     6  C    0.228088
     7  O   -0.373818
     8  C   -0.010534
     9  C    0.224225
    10  C    0.324539
    11  C    0.177511
    12  C   -0.002703
    13  C    0.097551
 Electronic spatial extent (au):  <R**2>=           3121.5115
 Charge=              0.0000 electrons
 Dipole moment (field-independent basis, Debye):
    X=              1.3025    Y=             -1.7408    Z=              4.4325  Tot=              4.9370
 Quadrupole moment (field-independent basis, Debye-Ang):
   XX=            -71.2877   YY=            -82.1607   ZZ=            -80.9083
   XY=              6.9723   XZ=             -0.4881   YZ=              1.1521
 Traceless Quadrupole moment (field-independent basis, Debye-Ang):
   XX=              6.8312   YY=             -4.0418   ZZ=             -2.7894
   XY=              6.9723   XZ=             -0.4881   YZ=              1.1521
 Octapole moment (field-independent basis, Debye-Ang**2):
  XXX=             13.7491  YYY=              1.3772  ZZZ=              1.1402  XYY=             13.5204
  XXY=            -15.7556  XXZ=             19.0040  XZZ=             -6.4626  YZZ=              2.9357
  YYZ=              2.5361  XYZ=             -1.2170
 Hexadecapole moment (field-independent basis, Debye-Ang**3):
 XXXX=          -3082.0640 YYYY=           -637.5156 ZZZZ=           -285.7938 XXXY=             60.7393
 XXXZ=            -49.8267 YYYX=             29.0008 YYYZ=             -2.7389 ZZZX=              1.8948
 ZZZY=              0.0849 XXYY=           -656.6658 XXZZ=           -574.6395 YYZZ=           -155.2715
 XXYZ=             23.9031 YYXZ=             -2.6895 ZZXY=              1.4534
 N-N= 8.900183274239D+02 E-N=-3.221970639718D+03  KE= 6.153570190684D+02
 D1PCM: PCM CHGder 1st derivatives, ID1Alg=3 FixD1E=F DoIter=F DoCFld=F I1PDM=0.
 Calling FoFJK, ICntrl=      2127 FMM=F ISym2X=0 I1Cent= 0 IOpClX= 0 NMat=1 NMatS=1 NMatT=0.
 ***** Axes restored to original set *****
 -------------------------------------------------------------------
 Center     Atomic                   Forces (Hartrees/Bohr)
 Number     Number              X              Y              Z
 -------------------------------------------------------------------
      1        6           0.001870584   -0.002617829   -0.002658799
      2        6           0.000020912    0.007123930   -0.000285596
      3        6          -0.002622378   -0.001545457    0.001347716
      4        8           0.006374461   -0.008298220   -0.006629374
      5        8           0.004664396   -0.008533351   -0.010152211
      6        6          -0.004440683    0.004985454    0.000858152
      7        8          -0.003218714    0.003997589   -0.011188199
      8        6           0.002608470    0.001239849    0.001753656
      9        6           0.002098590   -0.004461744   -0.000608759
     10        6          -0.003499498    0.006404853    0.003695819
     11        6          -0.002550094    0.006777607   -0.001022801
     12        6           0.000783349   -0.000151743    0.007198804
     13        6          -0.000627967   -0.001892290    0.003143145
     14        1          -0.002017053    0.001641563   -0.000506014
     15        1           0.001451247   -0.000377242    0.002999313
     16        1          -0.004532720    0.000214874    0.006082800
     17        1          -0.002541681   -0.002804761   -0.004028217
     18        1           0.001356815   -0.000009382   -0.003062889
     19        1           0.001074600    0.001563590    0.002207921
     20        1           0.001394754    0.000218081    0.005573760
     21        1          -0.001147477   -0.004175767   -0.001537704
     22        1          -0.000539784    0.000002824   -0.003315944
     23        1          -0.001773590   -0.000941369    0.001898742
     24        1          -0.002599427   -0.001465868    0.003426920
     25        1          -0.000397972    0.002730293   -0.001566359
     26        1           0.002865670   -0.000361050    0.008651208
     27        1           0.004362044   -0.001163785    0.000018015
     28        1          -0.002817553   -0.000156494    0.005021712
     29        1           0.003457246    0.000127072   -0.004655280
     30        1          -0.000541323   -0.000742458   -0.003831413
     31        1           0.001484774    0.002671231    0.001171877
 -------------------------------------------------------------------
 Cartesian Forces:  Max     0.011188199 RMS     0.003705014

 GradGradGradGradGradGradGradGradGradGradGradGradGradGradGradGradGradGrad
 Berny optimization.
 FormGI is forming the generalized inverse of G from B-inverse, IUseBI=4.
 Internal  Forces:  Max     0.019094424 RMS     0.002492406
 Search for a local minimum.
 Step number   1 out of a maximum of  186
 All quantities printed in internal units (Hartrees-Bohrs-Radians)
 Mixed Optimization -- RFO/linear search
 Second derivative matrix not updated -- first step.
 ITU=  0
     Eigenvalues ---    0.00611   0.00629   0.00716   0.00754   0.01449
     Eigenvalues ---    0.01493   0.01825   0.02659   0.02741   0.03111
     Eigenvalues ---    0.03114   0.03842   0.04160   0.04610   0.04775
     Eigenvalues ---    0.04847   0.04927   0.05145   0.05149   0.05198
     Eigenvalues ---    0.05374   0.05676   0.05711   0.06093   0.06178
     Eigenvalues ---    0.06304   0.06315   0.06585   0.07699   0.07869
     Eigenvalues ---    0.07942   0.07969   0.07974   0.07997   0.08060
     Eigenvalues ---    0.08748   0.09533   0.09912   0.10714   0.11478
     Eigenvalues ---    0.11570   0.11693   0.11717   0.12325   0.12531
     Eigenvalues ---    0.14472   0.14934   0.16571   0.16708   0.17939
     Eigenvalues ---    0.19143   0.21411   0.21847   0.25000   0.28310
     Eigenvalues ---    0.28628   0.28683   0.28788   0.28975   0.29105
     Eigenvalues ---    0.30085   0.30495   0.35026   0.35073   0.35078
     Eigenvalues ---    0.35126   0.35130   0.35151   0.35163   0.35243
     Eigenvalues ---    0.35299   0.35353   0.35360   0.35371   0.35372
     Eigenvalues ---    0.35426   0.35654   0.35833   0.35878   0.35986
     Eigenvalues ---    0.41197   0.41401   0.42106   0.42112   0.42686
     Eigenvalues ---    0.473361000.000001000.000001000.000001000.00000
     Eigenvalues --- 1000.000001000.000001000.000001000.000001000.00000
     Eigenvalues --- 1000.000001000.000001000.000001000.000001000.00000
     Eigenvalues --- 1000.000001000.000001000.000001000.000001000.00000
     Eigenvalues --- 1000.000001000.000001000.000001000.000001000.00000
     Eigenvalues --- 1000.000001000.000001000.000001000.000001000.00000
     Eigenvalues --- 1000.000001000.000001000.000001000.000001000.00000
     Eigenvalues --- 1000.000001000.000001000.000001000.000001000.00000
     Eigenvalues --- 1000.000001000.000001000.000001000.000001000.00000
     Eigenvalues --- 1000.000001000.000001000.000001000.000001000.00000
     Eigenvalues --- 1000.000001000.000001000.000001000.000001000.00000
     Eigenvalues --- 1000.000001000.000001000.000001000.000001000.00000
     Eigenvalues --- 1000.000001000.000001000.000001000.000001000.00000
     Eigenvalues --- 1000.000001000.000001000.000001000.000001000.00000
     Eigenvalues --- 1000.000001000.000001000.000001000.000001000.00000
     Eigenvalues --- 1000.000001000.000001000.000001000.000001000.00000
     Eigenvalues --- 1000.000001000.000001000.000001000.000001000.00000
     Eigenvalues --- 1000.000001000.000001000.000001000.000001000.00000
     Eigenvalues --- 1000.000001000.000001000.000001000.000001000.00000
     Eigenvalues --- 1000.000001000.000001000.000001000.000001000.00000
 RFO step:  Lambda=-4.30459363D-03 EMin= 6.11445036D-03
 Linear search not attempted -- first point.
 Iteration  1 RMS(Cart)=  0.09003042 RMS(Int)=  0.00154098
 Iteration  2 RMS(Cart)=  0.00465889 RMS(Int)=  0.00005334
 Iteration  3 RMS(Cart)=  0.00000523 RMS(Int)=  0.00005327
 Iteration  4 RMS(Cart)=  0.00000000 RMS(Int)=  0.00005327
 Iteration  1 RMS(Cart)=  0.00002309 RMS(Int)=  0.00000517
 Iteration  2 RMS(Cart)=  0.00001281 RMS(Int)=  0.00000577
 Iteration  3 RMS(Cart)=  0.00000710 RMS(Int)=  0.00000653
 Iteration  4 RMS(Cart)=  0.00000394 RMS(Int)=  0.00000704
 Iteration  5 RMS(Cart)=  0.00000219 RMS(Int)=  0.00000734
 Iteration  6 RMS(Cart)=  0.00000121 RMS(Int)=  0.00000752
 Iteration  7 RMS(Cart)=  0.00000067 RMS(Int)=  0.00000762
 Variable       Old X    -DE/DX   Delta X   Delta X   Delta X     New X
                                 (Linear)    (Quad)   (Total)
    R1        2.88955  -0.00070   0.00000  -0.00331  -0.00334   2.88622
    R2        2.89302  -0.00103   0.00000  -0.00385  -0.00388   2.88914
    R3        2.05095   0.00264   0.00000   0.00738   0.00738   2.05834
    R4        2.05633   0.00326   0.00000   0.00918   0.00918   2.06551
    R5        2.66884   0.00640   0.00000   0.01485   0.01490   2.68374
    R6        2.88771  -0.00141   0.00000  -0.00440  -0.00437   2.88334
    R7        2.05075   0.00729   0.00000   0.02035   0.02035   2.07110
    R8        2.04103   0.00545   0.00000   0.01497   0.01497   2.05600
    R9        2.89328  -0.00104   0.00000  -0.00402  -0.00407   2.88920
   R10        2.87179  -0.00057   0.00000  -0.00207  -0.00210   2.86969
   R11        2.05430   0.00326   0.00000   0.00915   0.00915   2.06345
   R12        2.05192   0.00290   0.00000   0.00813   0.00813   2.06005
   R13        2.67669   0.00606   0.00000   0.01459   0.01457   2.69126
   R14        2.68080   0.00583   0.00000   0.01380   0.01384   2.69464
   R15        2.66100   0.00829   0.00000   0.01919   0.01922   2.68022
   R16        2.87245  -0.00058   0.00000  -0.00193  -0.00193   2.87051
   R17        2.05557   0.00568   0.00000   0.01599   0.01599   2.07156
   R18        2.04273   0.00459   0.00000   0.01263   0.01263   2.05536
   R19        2.62653   0.00439   0.00000   0.00920   0.00920   2.63573
   R20        2.68789   0.00236   0.00000   0.00555   0.00555   2.69344
   R21        2.05471   0.00325   0.00000   0.00915   0.00915   2.06386
   R22        2.05282   0.00276   0.00000   0.00774   0.00774   2.06056
   R23        2.88227  -0.00193   0.00000  -0.00721  -0.00720   2.87507
   R24        2.05464   0.00431   0.00000   0.01211   0.01211   2.06675
   R25        2.05105   0.00312   0.00000   0.00873   0.00873   2.05978
   R26        2.86756  -0.00152   0.00000  -0.00477  -0.00477   2.86279
   R27        2.04989   0.00911   0.00000   0.02541   0.02541   2.07530
   R28        2.04343   0.00451   0.00000   0.01243   0.01243   2.05586
   R29        2.05549   0.00566   0.00000   0.01595   0.01595   2.07144
   R30        2.04626   0.00568   0.00000   0.01575   0.01575   2.06201
   R31        2.05411   0.00374   0.00000   0.01051   0.01051   2.06463
   R32        2.05077   0.00324   0.00000   0.00905   0.00905   2.05982
    A1        1.92641   0.00207   0.00000  -0.00043  -0.00050   1.92591
    A2        1.93224  -0.00048   0.00000   0.00073   0.00076   1.93300
    A3        1.90845  -0.00082   0.00000  -0.00199  -0.00198   1.90647
    A4        1.92002  -0.00062   0.00000  -0.00042  -0.00039   1.91963
    A5        1.90896  -0.00083   0.00000  -0.00239  -0.00238   1.90658
    A6        1.86668   0.00060   0.00000   0.00458   0.00457   1.87125
    A7        1.90521   0.00118   0.00000   0.00877   0.00888   1.91409
    A8        1.90619   0.00147   0.00000   0.01062   0.01067   1.91686
    A9        1.86334  -0.00035   0.00000   0.00569   0.00567   1.86900
   A10        1.95035  -0.00233   0.00000  -0.01791  -0.01797   1.93237
   A11        1.93699  -0.00061   0.00000  -0.00659  -0.00672   1.93027
   A12        1.89954   0.00075   0.00000   0.00078   0.00061   1.90015
   A13        1.92681  -0.00081   0.00000  -0.00594  -0.00604   1.92077
   A14        1.91855   0.00065   0.00000   0.00164   0.00164   1.92019
   A15        1.92922  -0.00025   0.00000  -0.00026  -0.00023   1.92899
   A16        1.90222   0.00007   0.00000  -0.00065  -0.00060   1.90163
   A17        1.91118   0.00025   0.00000   0.00054   0.00053   1.91172
   A18        1.87495   0.00011   0.00000   0.00497   0.00495   1.87990
   A19        1.98194  -0.00507   0.00000  -0.02741  -0.02732   1.95461
   A20        1.98074  -0.00516   0.00000  -0.02736  -0.02728   1.95347
   A21        1.93477   0.00098   0.00000   0.00358   0.00361   1.93838
   A22        1.90353   0.00072   0.00000   0.00408   0.00409   1.90762
   A23        1.85168  -0.00077   0.00000  -0.00051  -0.00053   1.85115
   A24        1.93112  -0.00131   0.00000  -0.00717  -0.00719   1.92393
   A25        1.95054  -0.00007   0.00000  -0.00210  -0.00210   1.94843
   A26        1.88970   0.00050   0.00000   0.00258   0.00256   1.89226
   A27        2.10358  -0.01909   0.00000  -0.07508  -0.07508   2.02850
   A28        1.92154   0.00012   0.00000  -0.00274  -0.00282   1.91872
   A29        1.91913   0.00057   0.00000   0.00198   0.00200   1.92113
   A30        1.93590  -0.00066   0.00000  -0.00155  -0.00154   1.93435
   A31        1.90334  -0.00039   0.00000  -0.00187  -0.00185   1.90150
   A32        1.90655   0.00008   0.00000  -0.00060  -0.00058   1.90597
   A33        1.87657   0.00028   0.00000   0.00492   0.00491   1.88148
   A34        1.91734   0.00193   0.00000  -0.00190  -0.00191   1.91542
   A35        1.91192  -0.00060   0.00000   0.00124   0.00118   1.91310
   A36        1.93399   0.00001   0.00000   0.00517   0.00518   1.93918
   A37        1.91391  -0.00122   0.00000  -0.00920  -0.00918   1.90473
   A38        1.90977  -0.00088   0.00000  -0.00243  -0.00245   1.90732
   A39        1.87645   0.00071   0.00000   0.00712   0.00710   1.88355
   A40        1.88001  -0.00195   0.00000  -0.00914  -0.00916   1.87085
   A41        1.92744   0.00176   0.00000   0.01050   0.01050   1.93794
   A42        1.89248  -0.00000   0.00000  -0.00240  -0.00242   1.89006
   A43        1.90310   0.00052   0.00000   0.00299   0.00300   1.90610
   A44        1.93402   0.00019   0.00000  -0.00025  -0.00026   1.93376
   A45        1.92636  -0.00054   0.00000  -0.00177  -0.00175   1.92460
   A46        1.93256   0.00168   0.00000   0.00754   0.00759   1.94015
   A47        1.94593  -0.00027   0.00000  -0.00292  -0.00293   1.94299
   A48        1.93292  -0.00148   0.00000  -0.00845  -0.00847   1.92445
   A49        1.85538  -0.00100   0.00000  -0.00253  -0.00252   1.85286
   A50        1.90270   0.00046   0.00000   0.00376   0.00375   1.90646
   A51        1.89204   0.00064   0.00000   0.00296   0.00294   1.89498
   A52        1.99347  -0.00228   0.00000  -0.02305  -0.02320   1.97027
   A53        1.93975  -0.00013   0.00000  -0.00597  -0.00617   1.93358
   A54        1.87018   0.00005   0.00000   0.00796   0.00805   1.87822
   A55        1.94788   0.00028   0.00000  -0.00450  -0.00492   1.94296
   A56        1.81034   0.00136   0.00000   0.02105   0.02116   1.83151
   A57        1.89346   0.00099   0.00000   0.00882   0.00884   1.90231
   A58        1.92790  -0.00066   0.00000  -0.00713  -0.00717   1.92073
   A59        1.92500   0.00092   0.00000   0.00509   0.00506   1.93006
   A60        1.93637  -0.00007   0.00000   0.00303   0.00301   1.93938
   A61        1.88825  -0.00056   0.00000  -0.00620  -0.00619   1.88206
   A62        1.90176   0.00016   0.00000  -0.00157  -0.00154   1.90022
   A63        1.88328   0.00022   0.00000   0.00680   0.00676   1.89004
    D1        0.89423  -0.00010   0.00000   0.01055   0.01055   0.90478
    D2       -1.20327  -0.00005   0.00000   0.01335   0.01335  -1.18992
[...]
 37784,0.00047890,0.00032030,0.00004300,-0.00011255,0.00000146,-0.00000
 209,-0.00000180,0.00000560,0.00000299,-0.00000383,0.00000003,-0.000000
 79,0.00000080,0.00000044,-0.00000142,-0.00000075,-0.00161723,0.0251596
 7,-0.00850705,0.00454339,-0.09162360,0.08307363,0.00110500,-0.00018902
 ,-0.00105409,-0.00045442,0.00079105,0.00009552,0.00010342,0.00018035,-
 0.00007354,0.00002298,-0.00004151,0.00005094,-0.00331921,-0.00912233,-
 0.01005396,0.00130324,0.00022992,-0.00245001,0.00304485,-0.00615699,0.
 03338168,-0.00015987,0.00000407,0.00028596,0.00005789,-0.00035156,-0.0
 0048083,-0.09308760,0.01130100,-0.09066452,-0.00001738,0.00001933,0.00
 001045,0.00195560,-0.00010565,0.00122870,-0.00897059,0.00376112,-0.023
 18785,0.00012797,0.00004268,0.00024565,-0.00008075,-0.00006792,0.00043
 947,-0.00145865,0.00163829,0.00051084,0.00003162,-0.00007320,0.0001226
 4,0.00005783,-0.00000592,0.00003933,0.00003253,-0.00000160,0.00001749,
 -0.00006925,0.00014397,0.00039331,-0.00004255,-0.00006816,0.00014888,0
 .00004252,-0.00000256,-0.00000441,-0.00008425,-0.00003977,0.00000658,-
 0.00120264,-0.00077099,0.00008874,0.00010845,0.00004423,0.00002169,0.1
 0347874,-0.00092359,0.00017184,0.00029497,0.00013441,-0.00049689,-0.00
 030765,0.00004441,-0.00000542,-0.00021519,-0.00020591,0.00017257,-0.00
 003591,-0.02165412,-0.01755134,-0.03484681,0.00245712,0.00179707,-0.00
 491745,-0.00124491,0.00128878,0.01439315,-0.00022425,-0.00021393,0.000
 47910,-0.00012689,0.00016105,0.00004482,0.01109609,-0.04941081,0.02026
 001,0.00004284,0.00005089,0.00009018,0.00128245,-0.00027094,-0.0006028
 8,0.00990935,-0.00007227,0.01939841,-0.00011575,-0.00006704,-0.0002444
 2,-0.00001450,0.00014285,-0.00046543,0.00143835,-0.00129760,-0.0003415
 6,-0.00000224,-0.00000622,-0.00000981,0.00004456,-0.00001142,0.0000154
 6,-0.00004355,0.00000867,-0.00000599,0.00062249,0.00036998,0.00106249,
 0.00012392,-0.00006484,0.00028752,0.00003303,-0.00003679,0.00002616,-0
 .00015520,0.00020224,0.00006031,-0.00068436,-0.00012404,-0.00021374,0.
 00002637,-0.00002635,-0.00001733,-0.00443589,0.06643416,-0.00010438,-0
 .00025855,0.00061128,0.00029921,0.00050985,-0.00051686,0.00000016,0.00
 010300,0.00040225,-0.00032134,-0.00016857,0.00037894,-0.00846130,-0.01
 104468,-0.01041757,0.00108305,0.00127469,0.00088912,0.00517810,0.00678
 885,-0.02812693,-0.00005091,-0.00032331,0.00010093,0.00050427,-0.00035
 930,-0.00043099,-0.08354917,0.01721132,-0.25402895,0.00006245,0.000035
 14,0.00002090,-0.00334728,0.00118858,-0.00036635,-0.00074121,0.0006704
 1,-0.00024364,-0.00005405,0.00002119,0.00019248,-0.00027785,-0.0002248
 1,0.00021527,-0.00022160,-0.00034849,0.00052397,-0.00006491,0.00003532
 ,0.00019788,-0.00012485,0.00005456,-0.00000746,0.00007253,-0.00002083,
 0.00000484,-0.00078842,-0.00035721,0.00054580,-0.00004866,-0.00018039,
 0.00055590,-0.00000043,0.00007318,-0.00018498,-0.00009942,0.00003165,0
 .00001061,-0.00043284,-0.00019145,0.00091387,-0.00012463,-0.00007453,0
 .00013256,0.09093263,-0.01441752,0.28765277,-0.00000510,0.00001169,-0.
 00000926,0.00250875,-0.00219591,-0.00234094,0.00227044,-0.00017362,0.0
 0125917,-0.01766991,0.00032978,-0.00596445,-0.00013561,-0.00002348,0.0
 0003182,0.00002649,0.00002757,-0.00003914,-0.00022533,0.00024465,0.000
 02208,-0.00000506,-0.00000479,0.00001184,0.00119096,-0.00008673,0.0000
 5114,0.00015084,0.00002566,-0.00007738,-0.28949922,0.08532240,-0.01713
 539,0.00008823,-0.00051780,0.00026941,-0.00001749,-0.00002216,0.000011
 28,-0.00000711,-0.00000060,0.00000450,0.00000051,-0.00000064,0.0000015
 9,0.00017469,-0.00000158,0.00001875,-0.00086275,0.00036523,-0.00032223
 ,0.00053277,0.00018932,-0.00028528,0.00000149,0.00072945,-0.00012229,-
 0.00000067,-0.00000106,0.00000703,-0.00000576,-0.00000611,0.00000304,-
 0.00000054,-0.00000017,-0.00000161,-0.00000613,0.00000101,0.00000103,0
 .00010695,-0.00005251,-0.00000633,-0.00007502,-0.00012321,-0.00002514,
 0.00001083,-0.00000830,-0.00000899,0.31415591,0.00000345,-0.00000652,0
 .00000306,-0.00076368,-0.00175955,-0.00308314,0.03151102,-0.00944581,0
 .00189823,-0.02487457,0.00530617,-0.00510591,-0.00004411,0.00007676,0.
 00001083,-0.00000220,0.00002091,-0.00000618,0.00037054,0.00045985,0.00
 010238,-0.00000371,-0.00000449,0.00000334,-0.00185787,-0.00621712,0.00
 191707,-0.00009173,-0.00013218,0.00006656,0.09211876,-0.08161964,0.008
 29421,-0.00094688,-0.00084262,-0.00066047,0.00000779,0.00001463,-0.000
 00904,0.00000316,0.00000102,-0.00000179,0.,0.00000011,-0.00000002,0.00
 013125,-0.00005880,0.00003542,-0.00097978,0.00033499,-0.00038357,-0.00
 055298,0.00168745,-0.00001499,-0.00050590,0.00098169,-0.00052720,0.000
 00057,-0.00000041,0.00000104,0.00000245,0.00000097,-0.00000157,0.00000
 051,0.00000010,0.00000039,-0.00000106,0.00000210,0.00000006,-0.0001410
 8,0.00011020,-0.00019129,0.00208451,-0.00057855,0.00061643,-0.00001038
 ,-0.00000682,0.00000497,-0.08945391,0.08866090,-0.00000523,0.00001296,
 -0.00001184,0.00048218,-0.00241858,-0.00323977,-0.00688510,0.00418174,
 -0.00032841,-0.03300999,0.00441882,-0.00736339,-0.00019790,-0.00002382
 ,0.00004754,0.00002359,0.00004180,-0.00005432,-0.00028312,0.00038269,0
 .00004419,-0.00000905,-0.00000885,0.00001795,0.00001846,0.00092213,0.0
 0058499,0.00017551,0.00001310,-0.00012050,-0.00691628,0.00534503,-0.05
 207210,0.00008194,-0.00072492,0.00012579,-0.00002232,-0.00002662,0.000
 02478,-0.00000790,-0.00000095,0.00000570,0.,0.00000006,0.00000257,-0.0
 0038181,0.00003601,0.00038414,-0.00122911,0.00024563,-0.00005935,-0.00
 047569,-0.00068478,0.00031706,0.00013153,0.00003194,0.00022681,-0.0000
 0168,-0.00000241,0.00000940,-0.00000624,-0.00000652,0.00000444,0.00000
 026,-0.00000061,-0.00000113,-0.00000819,0.00000239,0.00000094,-0.00039
 599,0.00003732,0.00008878,-0.00020892,0.00008195,0.00019457,-0.0000064
 3,-0.00000777,-0.00000714,0.02477350,-0.00285469,0.05709762,-0.0000023
 0,-0.00000095,0.00000332,0.00357426,-0.00016047,-0.00313670,0.00010891
 ,0.00074856,-0.00016555,0.00577942,-0.00033868,-0.01784048,0.00006754,
 -0.00000417,0.00000696,-0.00001223,-0.00001226,0.00002025,0.00006566,0
 .00011297,0.00005790,0.00000225,0.00000089,-0.00000592,0.00081095,0.00
 010822,-0.00075734,-0.00003990,0.00001620,-0.00001615,-0.11955000,-0.0
 2177799,0.10877630,-0.00037107,0.00012595,-0.00002601,0.00000078,0.000
 00393,0.00000985,0.00000174,-0.00000018,-0.00000089,-0.00000003,0.0000
 0084,-0.00000148,0.00057586,-0.00025239,0.00098219,0.00019901,0.000003
 60,0.00000317,0.00124015,-0.00020507,-0.00026382,0.00018178,-0.0002449
 6,0.00014775,-0.00000167,-0.00000119,-0.00000373,0.00000283,0.00000220
 ,-0.00000114,0.00000029,-0.00000004,0.00000023,0.00000254,-0.00000028,
 -0.00000022,0.00040773,0.00002542,0.00015652,0.00006716,-0.00010393,-0
 .00004200,0.00002902,-0.00000743,0.00004010,-0.01270082,-0.00604881,0.
 02439300,0.11969152,0.00000021,0.00000222,-0.00000181,0.00309975,-0.00
 001334,0.00034847,-0.01733253,-0.00735367,0.02882714,0.00432580,0.0005
 0125,-0.02672320,-0.00002810,0.00000213,0.00000205,0.00000826,0.000009
 61,-0.00000727,0.00002625,0.00023008,0.00003589,-0.00000147,-0.0000021
 6,0.00000332,-0.00106605,0.00163921,-0.00004637,0.00002453,-0.00000555
 ,0.00002242,-0.02328897,-0.05968130,0.04427080,-0.00030021,-0.00036354
 ,-0.00001018,-0.00000334,-0.00000630,-0.00000378,-0.00000186,0.0000000
 3,0.00000104,0.00000024,-0.00000016,-0.00000039,-0.00019302,-0.0000502
 1,0.00080470,-0.00000795,-0.00008873,0.00011855,0.00076989,-0.00619430
 ,0.00184339,0.00005708,0.00130826,-0.00074415,0.00000104,-0.00000039,0
 .00000095,-0.00000129,-0.00000105,0.00000014,-0.00000041,0.00000016,-0
 .00000037,-0.00000138,0.00000039,0.00000030,0.00047998,0.00007360,-0.0
 0037739,-0.00001875,0.00004986,-0.00040565,-0.00000337,-0.00000419,-0.
 00001178,0.00539393,0.00294041,-0.00902585,0.02808997,0.06702689,-0.00
 000762,0.00001453,-0.00001287,0.00407207,0.00001468,0.00080099,0.00524
 999,0.00262469,-0.00505181,0.00168158,-0.00852317,-0.03583960,-0.00011
 579,-0.00004350,0.00004093,0.00002023,0.00002225,-0.00004872,-0.000467
 50,0.00031682,-0.00005507,-0.00000361,-0.00000306,0.00001214,-0.000002
 99,-0.00066200,0.00010562,0.00017086,0.00007557,-0.00013879,0.10387752
 ,0.04367727,-0.22227210,-0.00023519,-0.00038780,0.00018287,-0.00002610
 ,-0.00002747,0.00001471,-0.00000797,-0.00000135,0.00000610,0.00000042,
 -0.00000027,0.00000438,-0.00107938,0.00030673,0.00029592,-0.00034828,-
 0.00012232,0.00036424,0.00015246,0.00114585,0.00085132,0.00003513,0.00
 053342,0.00029829,-0.00000197,-0.00000192,0.00001030,-0.00000596,-0.00
 000615,0.00000457,0.00000080,-0.00000076,-0.00000060,-0.00000631,0.000
 00047,0.00000123,-0.00037151,0.00010616,-0.00012585,-0.00009487,0.0000
 4784,0.00016491,-0.00001040,-0.00000733,-0.00001838,-0.00011370,-0.000
 19122,0.00413270,-0.11245382,-0.03889613,0.25632260,-0.00040281,0.0005
 7315,-0.00028693,0.00070687,-0.00025221,-0.00056739,0.00116368,0.00001
 044,-0.00002243,0.00181365,0.00049276,-0.00057116,-0.00045993,-0.00088
 265,0.00016698,0.00025793,0.00006389,-0.00039589,-0.03596171,-0.003620
 28,0.02906992,0.00002384,0.00003313,0.00010126,0.00688706,0.00099338,-
 0.01184349,-0.00103143,0.00578574,-0.00307212,-0.00007368,-0.00016349,
 -0.00017942,-0.09741372,-0.01354325,0.09983044,-0.00105919,-0.00109091
 ,0.00133611,-0.00023729,-0.00008023,0.00016298,0.00001856,-0.00000486,
 0.00002656,0.00010053,0.00063139,-0.00026673,0.00012110,-0.00012101,0.
 00014065,-0.00000068,-0.00022572,0.00015251,0.00017484,-0.00003840,0.0
 0007193,-0.00002366,-0.00001010,0.00005641,-0.00008179,-0.00007302,0.0
 0005874,-0.00000982,-0.00000958,-0.00001989,-0.00004708,-0.00002266,0.
 00000465,-0.00078802,-0.00187310,-0.00227408,0.00029842,0.00021887,0.0
 0061184,-0.00004191,-0.00010039,0.00029602,0.00000264,0.00004711,-0.00
 002638,-0.00013561,-0.00002591,0.00009571,0.12618275,0.00009517,-0.000
 13623,0.00006279,-0.01550032,-0.00855790,0.03131815,0.00077740,0.00046
 325,0.00064205,-0.00081381,0.00236501,-0.00187950,0.00010640,0.0003498
 5,-0.00001966,-0.00002669,0.00001098,0.00008012,0.00954684,0.00310611,
 -0.00791822,-0.00001727,-0.00000815,-0.00001220,0.00841588,0.00142375,
 -0.02163111,0.00048022,-0.00120156,0.00044323,-0.00009945,-0.00021048,
 -0.00019642,-0.01615372,-0.05442052,0.02832021,0.00027035,0.00020053,-
 0.00034074,0.00005650,0.00001684,-0.00003514,-0.00000520,-0.00000145,-
 0.00000281,0.00139605,-0.00563353,0.00191431,-0.00020311,0.00170646,-0
 .00064212,-0.00026129,0.00008257,0.00031707,-0.00003855,-0.00015824,0.
 00026655,0.00000880,0.00000146,-0.00000226,0.00001497,0.00001072,-0.00
 000818,0.00000016,0.00000306,0.00000300,0.00000579,0.00000764,0.000000
 59,-0.00199833,-0.00171931,-0.00320019,0.00069017,0.00099815,0.0006897
 3,0.00008134,-0.00005534,-0.00014362,0.00002685,0.00007539,0.00002547,
 -0.00007381,-0.00002190,-0.00001833,0.01323823,0.06129114,-0.00005909,
 0.00005956,-0.00002850,0.00455254,0.00196240,-0.00818234,0.00077150,0.
 00021047,0.00038461,-0.00072615,-0.00058765,0.00062765,0.00014985,-0.0
 0003169,-0.00000554,-0.00000269,-0.00000902,0.00000266,-0.00514072,-0.
 00101398,0.00938858,0.00001038,0.00000824,-0.00000236,0.00934778,0.001
 17004,-0.02174505,-0.00215704,0.00017037,0.00128694,-0.00013228,-0.000
 06645,0.00008993,0.10966221,0.02725156,-0.25669921,-0.00013978,-0.0000
 5116,0.00021888,-0.00003134,-0.00000721,0.00001205,0.00000592,0.000004
 90,-0.00000361,-0.00019253,0.00149790,0.00067242,-0.00028431,0.0001478
 7,0.00088183,-0.00052562,0.00019609,0.00011469,-0.00022645,-0.00010708
 ,0.00022685,-0.00000197,0.00000112,-0.00000354,-0.00000238,-0.00000240
 ,-0.00000018,-0.00000040,-0.00000103,-0.00000047,0.00000117,-0.0000035
 7,-0.00000191,-0.00208886,-0.00280395,-0.00198875,0.00003095,0.0000311
 6,0.00125956,-0.00037423,-0.00002201,0.00016699,-0.00001218,0.00007588
 ,-0.00005250,0.00011850,-0.00002439,-0.00005017,-0.11257899,-0.0280525
 1,0.27345483,0.00772282,-0.00168219,0.02566258,0.00011632,0.00006859,-
 0.00015692,-0.00000371,-0.00001474,0.00003177,-0.00009521,-0.00001404,
 0.00006848,0.00203508,-0.00171770,0.00149618,-0.00030497,-0.00019977,0
 .00032857,0.00219934,-0.00035809,-0.00011548,0.00113171,0.00098331,-0.
 00022556,0.00000132,0.00000441,-0.00003905,-0.01248368,0.00159393,-0.0
 2795924,0.00001987,0.00001308,0.00001703,0.00036002,-0.00011903,-0.000
 11714,-0.07262509,0.00485666,-0.07852817,0.00123585,0.00056431,-0.0008
 3890,-0.00332095,-0.00228464,0.00331725,-0.00004465,-0.00008001,0.0001
 3311,-0.00002113,0.00000194,0.00003258,-0.00001837,0.00000609,-0.00000
 121,-0.00000293,-0.00000335,-0.00000038,-0.00009878,-0.00007596,-0.000
 06532,0.00008242,-0.00002004,-0.00001908,-0.00009797,0.00001597,-0.000
 41747,-0.00008256,0.00025522,-0.00016379,0.00003467,0.00003260,0.00007
 243,-0.00001929,-0.00001555,0.00001043,-0.00332544,0.00360738,0.000654
 92,-0.00000403,0.00000101,-0.00000298,0.00000441,-0.00000247,-0.000003
 51,-0.00001873,-0.00001415,0.00002489,0.08124519,0.00313276,-0.0013429
 9,0.00864121,-0.00008283,-0.00004742,0.00015211,-0.00000647,0.00000993
 ,-0.00003713,0.00009165,0.00000149,-0.00005273,-0.00054482,0.00224453,
 -0.00000867,-0.00004707,-0.00002316,0.00006237,-0.00192727,0.00070123,
 -0.00046049,0.00054243,0.00038735,0.00057331,0.00002551,-0.00000419,0.
 00007297,0.00886623,-0.00384495,0.02277882,-0.00001518,-0.00001219,-0.
 00001790,-0.00021274,-0.00003702,0.00003837,0.00370802,-0.05044465,0.0
 1171200,0.00004303,0.00029412,-0.00054208,-0.00116346,0.00026893,0.001
 18758,0.00006431,0.00004180,-0.00011017,0.00001053,-0.00000005,-0.0000
 2531,0.00001674,-0.00000574,0.00000097,0.00000262,0.00000327,0.0000018
 2,-0.00003562,0.00001101,-0.00007617,0.00000621,-0.00001993,-0.0000122
 8,-0.00008701,0.00005139,-0.00000682,-0.00001463,0.00009356,-0.0000628
 0,0.00001832,-0.00001908,-0.00007801,0.00001022,0.00000822,-0.00000766
 ,0.00313202,-0.00189071,-0.00018959,0.00000300,-0.00000157,0.00000409,
 -0.00000402,0.00000193,0.00000409,0.00001878,0.00000907,-0.00000801,-0
 .00662482,0.05028538,-0.00506753,0.00084411,-0.01861428,0.00013133,-0.
 00002462,-0.00001672,0.00000636,0.00001093,0.00000304,-0.00002888,-0.0
 0000388,-0.00002919,0.00076815,0.00047969,0.00096698,0.00020697,0.0000
 0442,0.00010150,-0.00009306,-0.00039229,0.00112818,-0.00070811,-0.0005
 0371,0.00072141,0.00008100,-0.00001860,-0.00002592,-0.00068289,-0.0001
 9126,-0.00394485,0.00000068,0.00000179,0.00000269,-0.00000065,0.000022
 44,0.00035359,-0.08012499,0.01410972,-0.28190371,-0.00009418,-0.000350
 54,0.00084593,0.00310443,0.00149113,-0.00117243,0.00001336,0.00000821,
 0.00001579,-0.00001420,-0.00000386,0.00000805,-0.00000334,0.00000121,0
 .00000135,-0.00000014,-0.00000053,-0.00000238,-0.00006670,-0.00008435,
 -0.00010109,-0.00005879,0.00005834,-0.00000974,0.00002983,0.00051818,0
 .00028220,0.00021124,-0.00002008,0.00024378,0.00000192,-0.00000130,0.0
 0001447,-0.00000694,-0.00000036,0.00000663,-0.00018976,0.00042041,0.00
 073226,-0.00000269,0.00000129,-0.00000046,-0.00000081,-0.00000109,-0.0
 0000064,-0.00008480,0.00002292,-0.00002052,0.08500500,-0.01682913,0.30
 775713,-0.00727242,-0.02265781,-0.00835812,0.00005716,0.00000400,-0.00
 000360,-0.00002268,-0.00001598,-0.00002678,-0.00001385,-0.00002600,0.0
 0001071,-0.00293380,0.00768169,0.00042637,-0.00132058,-0.00046017,0.00
 082237,0.00164932,0.00037657,-0.00039736,-0.00340601,-0.00049632,0.004
 42809,0.00002995,0.00000483,0.00004142,0.00853930,0.02060187,0.0090623
 7,0.00000691,0.00000341,0.00000808,0.00002553,-0.00027719,-0.00023643,
 -0.07582270,-0.07840174,-0.02761474,0.00066913,0.00059310,-0.00082000,
 0.00109029,0.00062785,-0.00009479,-0.00000300,0.00000667,0.00001264,-0
 .00000190,-0.00000286,-0.00002068,0.00000568,-0.00000151,0.00000133,-0
 .00000445,0.00000026,-0.00000033,0.00017567,0.00003404,-0.00008435,0.0
 0027667,-0.00000617,-0.00016389,0.00003982,0.00034156,0.00000097,-0.00
 015750,-0.00179873,-0.00016210,0.00001883,-0.00001450,-0.00003952,0.00
 001673,-0.00003805,0.00000292,0.00080200,-0.00091549,-0.00030122,-0.00
 000096,-0.00000348,0.00000037,-0.00000016,0.00000013,-0.00000027,0.000
 03522,-0.00000541,0.00000135,-0.00362152,-0.00892643,-0.00233183,0.081
 14329,-0.00243663,-0.00728427,-0.00182430,-0.00007874,-0.00002358,0.00
 001372,-0.00000329,0.00002123,0.00000074,0.00004052,0.00002592,-0.0000
 0223,0.00338469,-0.00563030,0.00036027,0.00087726,0.00104176,-0.001097
 06,-0.00073098,0.00151246,0.00057311,-0.00138047,0.00128303,0.00175970
 ,0.00011534,-0.00006390,0.00002200,-0.01044677,-0.01776824,-0.00691287
 ,-0.00000347,-0.00001191,-0.00001806,0.00010784,0.00025138,0.00009406,
 -0.07446249,-0.26610306,-0.07092170,-0.00017644,0.00044627,0.00014244,
 0.00023626,0.00033741,0.00010958,-0.00000600,0.00001214,-0.00002404,0.
 00001929,0.00000835,0.00002133,0.00000467,-0.00000145,0.00000088,0.000
 00677,-0.00000097,0.00000372,-0.00006167,-0.00006816,0.00018018,-0.000
 11389,-0.00011028,0.00008639,-0.00002019,-0.00001670,-0.00011269,-0.00
 003926,-0.00053916,-0.00028490,0.00004887,-0.00001521,-0.00003668,0.00
 001662,-0.00001617,-0.00000850,0.00007744,0.00081286,0.00031190,0.0000
 0204,0.00000044,0.00000324,-0.00000212,0.00000077,0.00000241,0.0000308
 8,0.00000264,0.00000456,0.00122205,0.00328047,0.00043081,0.08377185,0.
 28861625,0.00597762,0.01989762,0.00531636,-0.00002937,-0.00000069,0.00
 001377,0.00000136,0.00001384,-0.00000015,0.00002062,0.00000568,-0.0000
 0399,0.00003412,-0.00036395,0.00174546,0.00028085,-0.00023657,-0.00019
 463,0.00027137,-0.00027186,-0.00002220,0.00320276,0.00055285,-0.002171
 14,0.00004319,-0.00003914,0.00000644,0.00058900,0.00240157,-0.00162344
 ,-0.00000391,-0.00000220,-0.00000537,-0.00003008,0.00008967,0.00002488
 ,-0.02735553,-0.07268100,-0.07175945,-0.00065766,-0.00064474,0.0005491
 0,-0.00085197,-0.00016228,0.00092716,0.00001354,-0.00000156,-0.0000137
 6,0.00000207,-0.00000165,0.00000064,0.00000429,-0.00000143,0.00000107,
 0.00000492,-0.00000054,0.00000154,-0.00009020,-0.00003274,-0.00001799,
 -0.00009471,-0.00001230,0.00002245,0.00009180,0.00022494,0.00020509,0.
 00038009,0.00101957,0.00027053,0.00001462,-0.00001480,-0.00002082,0.00
 000789,0.00000126,-0.00000218,0.00052953,-0.00015416,0.00010060,0.0000
 0081,-0.00000009,0.00000093,0.00000003,0.00000062,0.00000077,0.0000069
 9,-0.00000317,-0.00000382,-0.00820103,-0.02670475,-0.00734305,0.025837
 02,0.07712199,0.07399521\\-0.00000808,0.00001113,-0.00000317,-0.000006
 34,-0.00001515,-0.00002558,-0.00000499,0.00000405,-0.00001096,-0.00000
 387,0.00000804,-0.00000957,0.00003172,-0.00000505,0.00000507,0.0000173
 5,0.00002015,-0.00001071,0.00054834,0.00252238,0.00087277,-0.00001138,
 0.00000539,-0.00000536,0.00052101,0.00093515,-0.00115252,-0.00027805,-
 0.00149945,-0.00087684,-0.00000075,-0.00000214,0.00001544,-0.00081887,
 -0.00194386,0.00118407,-0.00001399,-0.00000781,0.00000391,0.00000738,-
 0.00000739,0.00001184,-0.00000094,-0.00000245,0.00000119,0.00000203,0.
 00000825,-0.00000974,0.00000948,0.00000512,0.00001508,-0.00000434,0.00
 000002,0.00000711,0.00000738,-0.00001208,0.00000100,-0.00000598,-0.000
 00511,-0.00000522,0.00000397,0.00001275,0.00000297,0.00000310,0.000003
 06,0.00000637,0.00000857,-0.00000909,-0.00000689,0.00000075,-0.0000028
 1,-0.00001033,-0.00000327,-0.00000487,0.00001360,-0.00000409,-0.000013
 64,-0.00002984,-0.00001733,0.00000168,-0.00000765,0.00000937,-0.000000
 09,-0.00000766,0.00000063,-0.00000532,0.00001947,0.00000572,0.00000220
 ,0.00001509,0.00000549,-0.00000306,-0.00000292\\\@


 SCIENCE IS A VERY HUMAN FORM OF KNOWLEDGE.
 WE ARE ALWAYS AT THE BRINK OF THE KNOWN,
 WE ALWAYS FEEL FORWARD FOR WHAT IS HOPED.
 EVERY JUDGEMENT IN SCIENCE STANDS ON THE EDGE OF ERROR, AND IS PERSONAL.
 SCIENCE IS A TRIBUTE TO WHAT WE CAN KNOW ALTHOUGH WE ARE FALLIBLE.

                     -- J. BRONOWSKI
 Job cpu time:       0 days 12 hours 57 minutes  8.6 seconds.
 Elapsed time:       0 days  1 hours  5 minutes  2.9 seconds.
 File lengths (MBytes):  RWF=    721 Int=      0 D2E=      0 Chk=     34 Scr=      1
 Normal termination of Gaussian 16 at Sun Mar 10 05:06:10 2019.
