 Entering Gaussian System, Link 0=g16
 Initial command:
 /sw/Projects/G16/g16/l1.exe "/nvme/pbs/tmpdir/pbs.74288[0].flm1/Gau-25224.inp" -scrdir="/nvme/pbs/tmpdir/pbs.74288[0].flm1/"
 Entering Link 1 = /sw/Projects/G16/g16/l1.exe PID=     25225.
  
 Copyright (c) 1988-2017, Gaussian, Inc.  All Rights Reserved.
  
 This is part of the Gaussian(R) 16 program.  It is based on
 the Gaussian(R) 09 system (copyright 2009, Gaussian, Inc.),
 the Gaussian(R) 03 system (copyright 2003, Gaussian, Inc.),
 the Gaussian(R) 98 system (copyright 1998, Gaussian, Inc.),
 the Gaussian(R) 94 system (copyright 1995, Gaussian, Inc.),
 the Gaussian 92(TM) system (copyright 1992, Gaussian, Inc.),
 the Gaussian 90(TM) system (copyright 1990, Gaussian, Inc.),
 the Gaussian 88(TM) system (copyright 1988, Gaussian, Inc.),
 the Gaussian 86(TM) system (copyright 1986, Carnegie Mellon
 University), and the Gaussian 82(TM) system (copyright 1983,
 Carnegie Mellon University). Gaussian is a federally registered
 trademark of Gaussian, Inc.
  
 This software contains proprietary and confidential information,
 including trade secrets, belonging to Gaussian, Inc.
  
 This software is provided under written license and may be
 used, copied, transmitted, or stored only in accord with that
 written license.
  
 The following legend is applicable only to US Government
 contracts under FAR:
  
                    RESTRICTED RIGHTS LEGEND
  
 Use, reproduction and disclosure by the US Government is
 subject to restrictions as set forth in subparagraphs (a)
 and (c) of the Commercial Computer Software - Restricted
 Rights clause in FAR 52.227-19.
  
 Gaussian, Inc.
 340 Quinnipiac St., Bldg. 40, Wallingford CT 06492
  
  
 ---------------------------------------------------------------
 Warning -- This program may not be used in any manner that
 competes with the business of Gaussian, Inc. or will provide
 assistance to any competitor of Gaussian, Inc.  The licensee
 of this program is prohibited from giving any competitor of
 Gaussian, Inc. access to this program.  By using this program,
 the user acknowledges that Gaussian, Inc. is engaged in the
 business of creating and licensing software in the field of
 computational chemistry and represents and warrants to the
 licensee that it is not a competitor of Gaussian, Inc. and that
 it will not use this program in any manner prohibited above.
 ---------------------------------------------------------------
  

 Cite this work as:
 Gaussian 16, Revision B.01,
 M. J. Frisch, G. W. Trucks, H. B. Schlegel, G. E. Scuseria, 
 M. A. Robb, J. R. Cheeseman, G. Scalmani, V. Barone, 
 G. A. Petersson, H. Nakatsuji, X. Li, M. Caricato, A. V. Marenich, 
 J. Bloino, B. G. Janesko, R. Gomperts, B. Mennucci, H. P. Hratchian, 
 J. V. Ortiz, A. F. Izmaylov, J. L. Sonnenberg, D. Williams-Young, 
 F. Ding, F. Lipparini, F. Egidi, J. Goings, B. Peng, A. Petrone, 
 T. Henderson, D. Ranasinghe, V. G. Zakrzewski, J. Gao, N. Rega, 
 G. Zheng, W. Liang, M. Hada, M. Ehara, K. Toyota, R. Fukuda, 
 J. Hasegawa, M. Ishida, T. Nakajima, Y. Honda, O. Kitao, H. Nakai, 
 T. Vreven, K. Throssell, J. A. Montgomery, Jr., J. E. Peralta, 
 F. Ogliaro, M. J. Bearpark, J. J. Heyd, E. N. Brothers, K. N. Kudin, 
 V. N. Staroverov, T. A. Keith, R. Kobayashi, J. Normand, 
 K. Raghavachari, A. P. Rendell, J. C. Burant, S. S. Iyengar, 
 J. Tomasi, M. Cossi, J. M. Millam, M. Klene, C. Adamo, R. Cammi, 
 J. W. Ochterski, R. L. Martin, K. Morokuma, O. Farkas, 
 J. B. Foresman, and D. J. Fox, Gaussian, Inc., Wallingford CT, 2016.
 
 ******************************************
 Gaussian 16:  ES64L-G16RevB.01 20-Dec-2017
                10-Mar-2019 
 ******************************************
 %mem=20gb
 %nproc=12
 Will use up to   12 processors via shared memory.
 %chk=4c1_b1_4e_4c1_PSI.inp_extract_0.chk
 ----------------------------------------------------------------------
 #M062X/6-311++G(2d,2p) opt=ModRedundant freq=noraman SCRF=(SMD,solvent
 =water)
 ----------------------------------------------------------------------
 1/18=120,19=15,26=3,38=1/1,3;
 2/9=110,12=2,17=6,18=5,40=1/2;
 3/5=4,6=6,7=1212,11=2,25=1,30=1,70=32201,71=1,72=1,74=-55/1,2,3;
 4//1;
 5/5=2,38=5,53=1/2;
 6/7=2,8=2,9=2,10=2,28=1/1;
 7//1,2,3,16;
 1/18=20,19=15,26=3/3(2);
 2/9=110/2;
 99//99;
 2/9=110/2;
 3/5=4,6=6,7=1212,11=2,25=1,30=1,70=32205,71=1,72=1,74=-55/1,2,3;
 4/5=5,16=3,69=1/1;
 5/5=2,38=5,53=1/2;
 7//1,2,3,16;
 1/18=20,19=15,26=3/3(-5);
 2/9=110/2;
 6/7=2,8=2,9=2,10=2,19=2,28=1/1;
 99/9=1/99;
 -------------------------------
 4c1_b1_4e_4c1_PSI.inp_extract_0
 -------------------------------
 Symbolic Z-matrix:
 Charge =  0 Multiplicity = 1
 C                    -3.67836  -0.90215  -0.15411 
 C                     2.1954   -1.32349  -0.06283 
 C                     3.08542   1.39917  -0.00474 
 O                     3.43818  -0.91902  -0.59209 
 O                    -1.53677   0.96342   0.12613 
 C                    -2.75549   1.40139  -0.45407 
 O                    -0.01845  -0.69265   0.4383 
 C                    -3.92812   0.58956   0.07169 
 C                     1.68831   1.05814   0.52167 
 C                    -1.23157  -0.38089  -0.15772 
 C                     4.00192   0.19062   0.0845 
 C                     1.16908  -0.20182  -0.16313 
 C                    -2.30484  -1.30081   0.39248 
 H                    -4.45293  -1.49662   0.31958 
 H                    -3.71976  -1.11776  -1.21985 
 H                     2.31631  -1.6198    0.97671 
 H                     1.87388  -2.18399  -0.6332 
 H                     3.02348   1.72134  -1.04133 
 H                     3.51338   2.21897   0.56441 
 H                    -2.68423   1.31581  -1.53597 
 H                    -2.8477    2.44844  -0.20192 
 H                    -4.05069   0.78877   1.13354 
 H                    -4.83767   0.9102   -0.42826 
 H                     1.73543   0.87398   1.59284 
 H                     1.00933   1.88661   0.36167 
 H                    -1.14694  -0.4901   -1.23593 
 H                     4.95612   0.38105  -0.38737 
 H                     4.17997  -0.08085   1.12262 
 H                     0.97642   0.00199  -1.21145 
 H                    -2.29497  -1.22565   1.4767 
 H                    -2.06368  -2.32471   0.12608 
 
 The following ModRedundant input section has been read:
 D      10       7      12       9 F                                           
 

 GradGradGradGradGradGradGradGradGradGradGradGradGradGradGradGradGradGrad
 Berny optimization.
 Initialization pass.
                           ----------------------------
                           !    Initial Parameters    !
                           ! (Angstroms and Degrees)  !
 --------------------------                            --------------------------
 ! Name  Definition              Value          Derivative Info.                !
 --------------------------------------------------------------------------------
 ! R1    R(1,8)                  1.5292         estimate D2E/DX2                !
 ! R2    R(1,13)                 1.5311         estimate D2E/DX2                !
 ! R3    R(1,14)                 1.0852         estimate D2E/DX2                !
 ! R4    R(1,15)                 1.0881         estimate D2E/DX2                !
 ! R5    R(2,4)                  1.41           estimate D2E/DX2                !
 ! R6    R(2,12)                 1.5237         estimate D2E/DX2                !
 ! R7    R(2,16)                 1.0877         estimate D2E/DX2                !
 ! R8    R(2,17)                 1.0813         estimate D2E/DX2                !
 ! R9    R(3,9)                  1.5315         estimate D2E/DX2                !
 ! R10   R(3,11)                 1.5194         estimate D2E/DX2                !
 ! R11   R(3,18)                 1.0873         estimate D2E/DX2                !
 ! R12   R(3,19)                 1.0859         estimate D2E/DX2                !
 ! R13   R(4,11)                 1.4166         estimate D2E/DX2                !
 ! R14   R(5,6)                  1.4191         estimate D2E/DX2                !
 ! R15   R(5,10)                 1.4074         estimate D2E/DX2                !
 ! R16   R(6,8)                  1.52           estimate D2E/DX2                !
 ! R17   R(6,20)                 1.0876         estimate D2E/DX2                !
 ! R18   R(6,21)                 1.0809         estimate D2E/DX2                !
 ! R19   R(7,10)                 1.3871         estimate D2E/DX2                !
 ! R20   R(7,12)                 1.4187         estimate D2E/DX2                !
 ! R21   R(8,22)                 1.0873         estimate D2E/DX2                !
 ! R22   R(8,23)                 1.0863         estimate D2E/DX2                !
 ! R23   R(9,12)                 1.5251         estimate D2E/DX2                !
 ! R24   R(9,24)                 1.0879         estimate D2E/DX2                !
 ! R25   R(9,25)                 1.083          estimate D2E/DX2                !
 ! R26   R(10,13)                1.5169         estimate D2E/DX2                !
 ! R27   R(10,26)                1.087          estimate D2E/DX2                !
 ! R28   R(11,27)                1.0814         estimate D2E/DX2                !
 ! R29   R(11,28)                1.0877         estimate D2E/DX2                !
 ! R30   R(12,29)                1.0852         estimate D2E/DX2                !
 ! R31   R(13,30)                1.0869         estimate D2E/DX2                !
 ! R32   R(13,31)                1.0851         estimate D2E/DX2                !
 ! A1    A(8,1,13)             110.3521         estimate D2E/DX2                !
 ! A2    A(8,1,14)             110.69           estimate D2E/DX2                !
 ! A3    A(8,1,15)             109.3713         estimate D2E/DX2                !
 ! A4    A(13,1,14)            109.9886         estimate D2E/DX2                !
 ! A5    A(13,1,15)            109.4019         estimate D2E/DX2                !
 ! A6    A(14,1,15)            106.9666         estimate D2E/DX2                !
 ! A7    A(4,2,12)             110.9654         estimate D2E/DX2                !
 ! A8    A(4,2,16)             109.8103         estimate D2E/DX2                !
 ! A9    A(4,2,17)             106.9996         estimate D2E/DX2                !
 ! A10   A(12,2,16)            109.7756         estimate D2E/DX2                !
 ! A11   A(12,2,17)            110.5385         estimate D2E/DX2                !
 ! A12   A(16,2,17)            108.6877         estimate D2E/DX2                !
 ! A13   A(9,3,11)             110.6696         estimate D2E/DX2                !
 ! A14   A(9,3,18)             109.9818         estimate D2E/DX2                !
 ! A15   A(9,3,19)             110.3337         estimate D2E/DX2                !
 ! A16   A(11,3,18)            109.03           estimate D2E/DX2                !
 ! A17   A(11,3,19)            109.3902         estimate D2E/DX2                !
 ! A18   A(18,3,19)            107.3644         estimate D2E/DX2                !
 ! A19   A(2,4,11)             113.3384         estimate D2E/DX2                !
 ! A20   A(6,5,10)             113.4889         estimate D2E/DX2                !
 ! A21   A(5,6,8)              110.8716         estimate D2E/DX2                !
 ! A22   A(5,6,20)             109.0352         estimate D2E/DX2                !
 ! A23   A(5,6,21)             106.0726         estimate D2E/DX2                !
 ! A24   A(8,6,20)             110.6452         estimate D2E/DX2                !
 ! A25   A(8,6,21)             111.7686         estimate D2E/DX2                !
 ! A26   A(20,6,21)            108.2918         estimate D2E/DX2                !
 ! A27   A(10,7,12)            118.1727         estimate D2E/DX2                !
 ! A28   A(1,8,6)              110.1156         estimate D2E/DX2                !
 ! A29   A(1,8,22)             109.9577         estimate D2E/DX2                !
 ! A30   A(1,8,23)             110.8989         estimate D2E/DX2                !
 ! A31   A(6,8,22)             109.0806         estimate D2E/DX2                !
 ! A32   A(6,8,23)             109.2136         estimate D2E/DX2                !
 ! A33   A(22,8,23)            107.5169         estimate D2E/DX2                !
 ! A34   A(3,9,12)             109.8894         estimate D2E/DX2                !
 ! A35   A(3,9,24)             109.6715         estimate D2E/DX2                !
 ! A36   A(3,9,25)             110.5366         estimate D2E/DX2                !
 ! A37   A(12,9,24)            108.4813         estimate D2E/DX2                !
 ! A38   A(12,9,25)            110.6209         estimate D2E/DX2                !
 ! A39   A(24,9,25)            107.5844         estimate D2E/DX2                !
 ! A40   A(5,10,7)             108.5218         estimate D2E/DX2                !
 ! A41   A(5,10,13)            110.6511         estimate D2E/DX2                !
 ! A42   A(5,10,26)            108.2328         estimate D2E/DX2                !
 ! A43   A(7,10,13)            109.0655         estimate D2E/DX2                !
 ! A44   A(7,10,26)            109.6043         estimate D2E/DX2                !
 ! A45   A(13,10,26)           110.7284         estimate D2E/DX2                !
 ! A46   A(3,11,4)             110.7903         estimate D2E/DX2                !
 ! A47   A(3,11,27)            111.5032         estimate D2E/DX2                !
 ! A48   A(3,11,28)            110.691          estimate D2E/DX2                !
 ! A49   A(4,11,27)            106.3            estimate D2E/DX2                !
 ! A50   A(4,11,28)            108.9943         estimate D2E/DX2                !
 ! A51   A(27,11,28)           108.4195         estimate D2E/DX2                !
 ! A52   A(2,12,7)             106.333          estimate D2E/DX2                !
 ! A53   A(2,12,9)             110.4442         estimate D2E/DX2                !
 ! A54   A(2,12,29)            108.7497         estimate D2E/DX2                !
 ! A55   A(7,12,9)             112.3604         estimate D2E/DX2                !
 ! A56   A(7,12,29)            109.0192         estimate D2E/DX2                !
 ! A57   A(9,12,29)            109.8182         estimate D2E/DX2                !
 ! A58   A(1,13,10)            110.3248         estimate D2E/DX2                !
 ! A59   A(1,13,30)            110.2591         estimate D2E/DX2                !
 ! A60   A(1,13,31)            110.941          estimate D2E/DX2                !
 ! A61   A(10,13,30)           108.2687         estimate D2E/DX2                !
 ! A62   A(10,13,31)           109.0231         estimate D2E/DX2                !
 ! A63   A(30,13,31)           107.947          estimate D2E/DX2                !
 ! D1    D(13,1,8,6)            51.4115         estimate D2E/DX2                !
 ! D2    D(13,1,8,22)          -68.8122         estimate D2E/DX2                !
 ! D3    D(13,1,8,23)          172.4091         estimate D2E/DX2                !
 ! D4    D(14,1,8,6)           173.4051         estimate D2E/DX2                !
 ! D5    D(14,1,8,22)           53.1814         estimate D2E/DX2                !
 ! D6    D(14,1,8,23)          -65.5973         estimate D2E/DX2                !
 ! D7    D(15,1,8,6)           -68.9859         estimate D2E/DX2                !
 ! D8    D(15,1,8,22)          170.7904         estimate D2E/DX2                !
 ! D9    D(15,1,8,23)           52.0117         estimate D2E/DX2                !
 ! D10   D(8,1,13,10)          -51.8365         estimate D2E/DX2                !
 ! D11   D(8,1,13,30)           67.7046         estimate D2E/DX2                !
 ! D12   D(8,1,13,31)         -172.7618         estimate D2E/DX2                !
 ! D13   D(14,1,13,10)        -174.2429         estimate D2E/DX2                !
 ! D14   D(14,1,13,30)         -54.7019         estimate D2E/DX2                !
 ! D15   D(14,1,13,31)          64.8318         estimate D2E/DX2                !
 ! D16   D(15,1,13,10)          68.5425         estimate D2E/DX2                !
 ! D17   D(15,1,13,30)        -171.9164         estimate D2E/DX2                !
 ! D18   D(15,1,13,31)         -52.3828         estimate D2E/DX2                !
 ! D19   D(12,2,4,11)           60.7538         estimate D2E/DX2                !
 ! D20   D(16,2,4,11)          -60.7895         estimate D2E/DX2                !
 ! D21   D(17,2,4,11)         -178.5809         estimate D2E/DX2                !
 ! D22   D(4,2,12,7)          -177.8297         estimate D2E/DX2                !
 ! D23   D(4,2,12,9)           -55.6674         estimate D2E/DX2                !
 ! D24   D(4,2,12,29)           64.9061         estimate D2E/DX2                !
 ! D25   D(16,2,12,7)          -56.266          estimate D2E/DX2                !
 ! D26   D(16,2,12,9)           65.8963         estimate D2E/DX2                !
 ! D27   D(16,2,12,29)        -173.5302         estimate D2E/DX2                !
 ! D28   D(17,2,12,7)           63.6219         estimate D2E/DX2                !
 ! D29   D(17,2,12,9)         -174.2158         estimate D2E/DX2                !
 ! D30   D(17,2,12,29)         -53.6423         estimate D2E/DX2                !
 ! D31   D(11,3,9,12)          -51.6852         estimate D2E/DX2                !
 ! D32   D(11,3,9,24)           67.4802         estimate D2E/DX2                !
 ! D33   D(11,3,9,25)         -174.0609         estimate D2E/DX2                !
 ! D34   D(18,3,9,12)           68.8451         estimate D2E/DX2                !
 ! D35   D(18,3,9,24)         -171.9895         estimate D2E/DX2                !
 ! D36   D(18,3,9,25)          -53.5306         estimate D2E/DX2                !
 ! D37   D(19,3,9,12)         -172.8986         estimate D2E/DX2                !
 ! D38   D(19,3,9,24)          -53.7333         estimate D2E/DX2                !
 ! D39   D(19,3,9,25)           64.7257         estimate D2E/DX2                !
 ! D40   D(9,3,11,4)            55.2501         estimate D2E/DX2                !
 ! D41   D(9,3,11,27)          173.4309         estimate D2E/DX2                !
 ! D42   D(9,3,11,28)          -65.7837         estimate D2E/DX2                !
 ! D43   D(18,3,11,4)          -65.8455         estimate D2E/DX2                !
 ! D44   D(18,3,11,27)          52.3352         estimate D2E/DX2                !
 ! D45   D(18,3,11,28)         173.1207         estimate D2E/DX2                !
 ! D46   D(19,3,11,4)          177.0199         estimate D2E/DX2                !
 ! D47   D(19,3,11,27)         -64.7993         estimate D2E/DX2                !
 ! D48   D(19,3,11,28)          55.9861         estimate D2E/DX2                !
 ! D49   D(2,4,11,3)           -60.5494         estimate D2E/DX2                !
 ! D50   D(2,4,11,27)          178.1501         estimate D2E/DX2                !
 ! D51   D(2,4,11,28)           61.4823         estimate D2E/DX2                !
 ! D52   D(10,5,6,8)            61.0282         estimate D2E/DX2                !
 ! D53   D(10,5,6,20)          -61.026          estimate D2E/DX2                !
 ! D54   D(10,5,6,21)         -177.4443         estimate D2E/DX2                !
 ! D55   D(6,5,10,7)           179.1166         estimate D2E/DX2                !
 ! D56   D(6,5,10,13)          -61.2523         estimate D2E/DX2                !
 ! D57   D(6,5,10,26)           60.2406         estimate D2E/DX2                !
 ! D58   D(5,6,8,1)            -54.9808         estimate D2E/DX2                !
 ! D59   D(5,6,8,22)            65.771          estimate D2E/DX2                !
 ! D60   D(5,6,8,23)          -176.9824         estimate D2E/DX2                !
 ! D61   D(20,6,8,1)            66.1284         estimate D2E/DX2                !
 ! D62   D(20,6,8,22)         -173.1198         estimate D2E/DX2                !
 ! D63   D(20,6,8,23)          -55.8733         estimate D2E/DX2                !
 ! D64   D(21,6,8,1)          -173.1005         estimate D2E/DX2                !
 ! D65   D(21,6,8,22)          -52.3487         estimate D2E/DX2                !
 ! D66   D(21,6,8,23)           64.8979         estimate D2E/DX2                !
 ! D67   D(12,7,10,5)          -75.2067         estimate D2E/DX2                !
 ! D68   D(12,7,10,13)         164.1752         estimate D2E/DX2                !
 ! D69   D(12,7,10,26)          42.8015         estimate D2E/DX2                !
 ! D70   D(10,7,12,2)         -140.2142         estimate D2E/DX2                !
 ! D71   D(10,7,12,9)           98.8468         Frozen                          !
 ! D72   D(10,7,12,29)         -23.1295         estimate D2E/DX2                !
 ! D73   D(3,9,12,2)            51.6438         estimate D2E/DX2                !
 ! D74   D(3,9,12,7)           170.1902         estimate D2E/DX2                !
 ! D75   D(3,9,12,29)          -68.2887         estimate D2E/DX2                !
 ! D76   D(24,9,12,2)          -68.2483         estimate D2E/DX2                !
 ! D77   D(24,9,12,7)           50.2982         estimate D2E/DX2                !
 ! D78   D(24,9,12,29)         171.8193         estimate D2E/DX2                !
 ! D79   D(25,9,12,2)          173.9695         estimate D2E/DX2                !
 ! D80   D(25,9,12,7)          -67.484          estimate D2E/DX2                !
 ! D81   D(25,9,12,29)          54.037          estimate D2E/DX2                !
 ! D82   D(5,10,13,1)           55.7597         estimate D2E/DX2                !
 ! D83   D(5,10,13,30)         -64.9796         estimate D2E/DX2                !
 ! D84   D(5,10,13,31)         177.8234         estimate D2E/DX2                !
 ! D85   D(7,10,13,1)          175.0633         estimate D2E/DX2                !
 ! D86   D(7,10,13,30)          54.3241         estimate D2E/DX2                !
 ! D87   D(7,10,13,31)         -62.873          estimate D2E/DX2                !
 ! D88   D(26,10,13,1)         -64.2493         estimate D2E/DX2                !
 ! D89   D(26,10,13,30)        175.0115         estimate D2E/DX2                !
 ! D90   D(26,10,13,31)         57.8144         estimate D2E/DX2                !
 --------------------------------------------------------------------------------
 Trust Radius=3.00D-01 FncErr=1.00D-07 GrdErr=1.00D-06 EigMax=2.50D+02 EigMin=1.00D-04
 Number of steps in this run=    186 maximum allowed number of steps=    186.
 GradGradGradGradGradGradGradGradGradGradGradGradGradGradGradGradGradGrad

                          Input orientation:                          
 ---------------------------------------------------------------------
 Center     Atomic      Atomic             Coordinates (Angstroms)
 Number     Number       Type             X           Y           Z
 ---------------------------------------------------------------------
      1          6           0       -3.678355   -0.902152   -0.154112
      2          6           0        2.195401   -1.323493   -0.062828
      3          6           0        3.085423    1.399167   -0.004744
      4          8           0        3.438175   -0.919017   -0.592086
      5          8           0       -1.536767    0.963417    0.126127
      6          6           0       -2.755493    1.401393   -0.454067
      7          8           0       -0.018445   -0.692650    0.438295
      8          6           0       -3.928115    0.589558    0.071688
      9          6           0        1.688306    1.058144    0.521670
     10          6           0       -1.231568   -0.380890   -0.157717
     11          6           0        4.001918    0.190623    0.084503
     12          6           0        1.169079   -0.201820   -0.163126
     13          6           0       -2.304839   -1.300811    0.392479
     14          1           0       -4.452931   -1.496615    0.319579
     15          1           0       -3.719756   -1.117759   -1.219852
     16          1           0        2.316307   -1.619800    0.976706
     17          1           0        1.873881   -2.183988   -0.633203
     18          1           0        3.023478    1.721340   -1.041331
     19          1           0        3.513378    2.218975    0.564406
     20          1           0       -2.684230    1.315805   -1.535974
     21          1           0       -2.847701    2.448442   -0.201924
     22          1           0       -4.050688    0.788766    1.133537
     23          1           0       -4.837672    0.910201   -0.428262
     24          1           0        1.735429    0.873981    1.592844
     25          1           0        1.009330    1.886614    0.361666
     26          1           0       -1.146935   -0.490096   -1.235929
     27          1           0        4.956115    0.381051   -0.387365
     28          1           0        4.179969   -0.080851    1.122622
     29          1           0        0.976422    0.001988   -1.211447
     30          1           0       -2.294969   -1.225654    1.476698
     31          1           0       -2.063683   -2.324712    0.126076
 ---------------------------------------------------------------------
                    Distance matrix (angstroms):
                    1          2          3          4          5
     1  C    0.000000
     2  C    5.889556   0.000000
     3  C    7.146123   2.865029   0.000000
     4  O    7.130014   1.410036   2.417309   0.000000
     5  O    2.853994   4.381180   4.644529   5.367442   0.000000
     6  C    2.499593   5.664753   5.858173   6.615503   1.419063
     7  O    3.713459   2.355887   3.769082   3.614021   2.268327
     8  C    1.529237   6.416799   7.060526   7.548419   2.421008
     9  C    5.753303   2.504192   1.531452   2.865599   3.250619
    10  C    2.501698   3.555506   4.672089   4.720673   1.407436
    11  C    7.761294   2.361728   1.519377   1.416644   5.592493
    12  C    4.897771   1.523662   2.502123   2.418093   2.960244
    13  C    1.531090   4.523271   6.041737   5.839293   2.405744
    14  H    1.085236   6.661571   8.081926   7.964566   3.820104
    15  H    1.088119   6.030764   7.356756   7.188154   3.302786
    16  H    6.142454   1.087680   3.266335   2.052022   4.716214
    17  H    5.718388   1.081274   3.834292   2.012177   4.702686
    18  H    7.251512   3.303663   1.087265   2.710218   4.767939
    19  H    7.872657   3.831392   1.085892   3.345164   5.222306
    20  H    2.795919   5.739935   5.969967   6.585529   2.050226
    21  H    3.452355   6.299184   6.028418   7.141726   2.007851
    22  H    2.157748   6.701235   7.252059   7.872571   2.713886
    23  H    2.168824   7.388305   7.949458   8.477176   3.347559
    24  H    5.959493   2.789573   2.156523   3.299713   3.586994
    25  H    5.478835   3.448441   2.163798   3.831514   2.718526
    26  H    2.783560   3.638946   4.795621   4.649918   2.029745
    27  H    8.732416   3.260726   2.163896   2.009037   6.539139
    28  H    8.003614   2.624493   2.158573   2.047683   5.896149
    29  H    4.858228   2.135916   2.802878   2.700386   3.004924
    30  H    2.162857   4.747961   6.167088   6.102691   2.681594
    31  H    2.170103   4.379260   6.355917   5.723825   3.330080
                    6          7          8          9         10
     6  C    0.000000
     7  O    3.559882   0.000000
     8  C    1.520045   4.130857   0.000000
     9  C    4.562591   2.446473   5.653870   0.000000
    10  C    2.363621   1.387116   2.875024   3.325365   0.000000
    11  C    6.886118   4.131423   7.940072   2.509284   5.270168
    12  C    4.249377   1.418744   5.163604   1.525140   2.407322
    13  C    2.867339   2.366338   2.512255   4.639673   1.516865
    14  H    3.446487   4.508339   2.165410   6.654504   3.442359
    15  H    2.803989   4.077974   2.150912   6.083961   2.803959
    16  H    6.074362   2.569156   6.685292   2.787979   3.925459
    17  H    5.858170   2.636872   6.469357   3.446678   3.622301
    18  H    5.817538   4.155711   7.130525   2.159973   4.827583
    19  H    6.403473   4.579000   7.633714   2.163387   5.458505
    20  H    1.087624   3.877891   2.158532   4.839355   2.624613
    21  H    1.080921   4.275632   2.167397   4.799154   3.258675
    22  H    2.138534   4.351659   1.087305   5.777802   3.314041
    23  H    2.139487   5.152184   1.086304   6.596412   3.839804
    24  H    4.963506   2.619807   5.871162   1.087911   3.666366
    25  H    3.882622   2.777552   5.113199   1.083038   3.230009
    26  H    2.603171   2.029173   3.257373   3.677607   1.087028
    27  H    7.779103   5.155657   8.898525   3.458811   6.238647
    28  H    7.265234   4.297590   8.203349   2.804788   5.569024
    29  H    4.056988   2.047909   5.103544   2.150800   2.476320
    30  H    3.292615   2.558307   2.817129   4.689807   2.125032
    31  H    3.833931   2.635167   3.460063   5.067310   2.133401
                   11         12         13         14         15
    11  C    0.000000
    12  C    2.870594   0.000000
    13  C    6.488020   3.685727   0.000000
    14  H    8.624761   5.789343   2.158229   0.000000
    15  H    7.939613   5.084911   2.152930   1.746690   0.000000
    16  H    2.629628   2.150818   4.668840   6.802174   6.442901
    17  H    3.268397   2.155622   4.392462   6.434969   5.724489
    18  H    2.137274   2.812220   6.291277   8.252515   7.318713
    19  H    2.140839   3.447505   6.802213   8.793613   8.163063
    20  H    6.971123   4.363014   3.272545   3.805402   2.663547
    21  H    7.217830   4.812475   3.834698   4.290944   3.809783
    22  H    8.142648   5.468872   2.821965   2.459125   3.046768
    23  H    8.883641   6.114568   3.460843   2.549521   2.447238
    24  H    2.806963   2.135774   4.742822   6.748091   6.452699
    25  H    3.450911   2.159278   4.598298   6.425286   5.821659
    26  H    5.358881   2.568644   2.156319   3.789762   2.648325
    27  H    1.081395   3.838185   7.493882   9.620579   8.843653
    28  H    1.087700   3.276162   6.638836   8.785000   8.304699
    29  H    3.296770   1.085187   3.877697   5.836756   4.827835
    30  H    6.602638   3.966975   1.086866   2.463563   3.051728
    31  H    6.566594   3.878280   1.085127   2.536078   2.451701
                   16         17         18         19         20
    16  H    0.000000
    17  H    1.762344   0.000000
    18  H    3.966835   4.091421   0.000000
    19  H    4.042173   4.848536   1.751009   0.000000
    20  H    6.319550   5.817209   5.743436   6.605880   0.000000
    21  H    6.678828   6.628631   5.975284   6.411181   1.757634
    22  H    6.809142   6.859968   7.459462   7.719100   3.044875
    23  H    7.717140   7.393304   7.926631   8.511070   2.455372
    24  H    2.633627   3.784921   3.052207   2.455157   5.433056
    25  H    3.792282   4.278670   2.460185   2.534132   4.191568
    26  H    4.262163   3.515377   4.724475   5.683202   2.390519
    27  H    3.582273   4.017465   2.441133   2.522959   7.782541
    28  H    2.421341   3.581082   3.044348   2.458688   7.492397
    29  H    3.035375   2.432754   2.678722   3.808521   3.902795
    30  H    4.655020   4.769633   6.581119   6.814297   3.960648
    31  H    4.517166   4.012570   6.603982   7.206999   4.049797
                   21         22         23         24         25
    21  H    0.000000
    22  H    2.446458   0.000000
    23  H    2.525351   1.753085   0.000000
    24  H    5.167707   5.804944   6.876906   0.000000
    25  H    3.938270   5.234963   5.980368   1.751698   0.000000
    26  H    3.549194   3.960005   4.029230   4.262709   3.584765
    27  H    8.075149   9.143406   9.808157   3.812745   4.290091
    28  H    7.585505   8.276477   9.203547   2.666194   3.808271
    29  H    4.650612   5.602660   5.936490   3.033234   2.455114
    30  H    4.077041   2.694104   3.828327   4.545994   4.674174
    31  H    4.848223   3.828435   4.297321   5.178445   5.218638
                   26         27         28         29         30
    26  H    0.000000
    27  H    6.223036   0.000000
    28  H    5.840047   1.759493   0.000000
    29  H    2.179769   4.081759   3.964524   0.000000
    30  H    3.036013   7.657314   6.584889   4.408540   0.000000
    31  H    2.461971   7.540712   6.709039   4.055211   1.756588
                   31
    31  H    0.000000
 Stoichiometry    C10H18O3
 Framework group  C1[X(C10H18O3)]
 Deg. of freedom    87
 Full point group                 C1      NOp   1
 Largest Abelian subgroup         C1      NOp   1
 Largest concise Abelian subgroup C1      NOp   1
                         Standard orientation:                         
 ---------------------------------------------------------------------
 Center     Atomic      Atomic             Coordinates (Angstroms)
 Number     Number       Type             X           Y           Z
 ---------------------------------------------------------------------
      1          6           0       -3.678355   -0.902152   -0.154112
      2          6           0        2.195401   -1.323493   -0.062828
      3          6           0        3.085423    1.399167   -0.004744
      4          8           0        3.438175   -0.919017   -0.592086
      5          8           0       -1.536767    0.963417    0.126127
      6          6           0       -2.755493    1.401393   -0.454067
      7          8           0       -0.018445   -0.692650    0.438295
      8          6           0       -3.928115    0.589558    0.071688
      9          6           0        1.688306    1.058144    0.521670
     10          6           0       -1.231568   -0.380890   -0.157717
     11          6           0        4.001918    0.190623    0.084503
     12          6           0        1.169079   -0.201820   -0.163126
     13          6           0       -2.304839   -1.300811    0.392479
     14          1           0       -4.452931   -1.496615    0.319579
     15          1           0       -3.719756   -1.117759   -1.219852
     16          1           0        2.316307   -1.619800    0.976706
     17          1           0        1.873881   -2.183988   -0.633203
     18          1           0        3.023478    1.721340   -1.041331
     19          1           0        3.513378    2.218975    0.564406
     20          1           0       -2.684230    1.315805   -1.535974
     21          1           0       -2.847701    2.448442   -0.201924
     22          1           0       -4.050688    0.788766    1.133537
     23          1           0       -4.837672    0.910201   -0.428262
     24          1           0        1.735429    0.873981    1.592844
     25          1           0        1.009330    1.886614    0.361666
     26          1           0       -1.146935   -0.490096   -1.235929
     27          1           0        4.956115    0.381051   -0.387365
     28          1           0        4.179969   -0.080851    1.122622
     29          1           0        0.976422    0.001988   -1.211447
     30          1           0       -2.294969   -1.225654    1.476698
     31          1           0       -2.063683   -2.324712    0.126076
 ---------------------------------------------------------------------
 Rotational constants (GHZ):           2.2030074           0.3672995           0.3292447
 Standard basis: 6-311++G(2d,2p) (5D, 7F)
 There are   557 symmetry adapted cartesian basis functions of A   symmetry.
 There are   531 symmetry adapted basis functions of A   symmetry.
   531 basis functions,   762 primitive gaussians,   557 cartesian basis functions
    51 alpha electrons       51 beta electrons
       nuclear repulsion energy       878.4774145064 Hartrees.
 NAtoms=   31 NActive=   31 NUniq=   31 SFac= 1.00D+00 NAtFMM=   60 NAOKFM=F Big=F
 Integral buffers will be    131072 words long.
 Raffenetti 2 integral format.
 Two-electron integral symmetry is turned on.
 ------------------------------------------------------------------------------
 Polarizable Continuum Model (PCM)
 =================================
 Model                : PCM.
 Atomic radii         : SMD-Coulomb.
 Polarization charges : Total charges.
 Charge compensation  : None.
 Solution method      : On-the-fly selection.
 Cavity type          : VdW (van der Waals Surface) (Alpha=1.000).
 Cavity algorithm     : GePol (No added spheres)
                        Default sphere list used, NSphG=   31.
                        Lebedev-Laikov grids with approx.  5.0 points / Ang**2.
                        Smoothing algorithm: York/Karplus (Gamma=1.0000).
                        Polarization charges: spherical gaussians, with
                                              point-specific exponents (IZeta= 3).
                        Self-potential: point-specific (ISelfS= 7).
                        Self-field    : sphere-specific E.n sum rule (ISelfD= 2).
 1st derivatives      : Analytical E(r).r(x)/FMM algorithm (CHGder, D1EAlg=3).
                        Cavity 1st derivative terms included.
 Solvent              : Water, Eps=  78.355300 Eps(inf)=   1.777849
 ------------------------------------------------------------------------------
 ------------------------------------------------------------------------------
 Atomic radii for non-electrostatic terms: SMD-CDS.
 ------------------------------------------------------------------------------
 Nuclear repulsion after PCM non-electrostatic terms =      878.4838921492 Hartrees.
 One-electron integrals computed using PRISM.
 NBasis=   531 RedAO= T EigKep=  6.29D-06  NBF=   531
 NBsUse=   531 1.00D-06 EigRej= -1.00D+00 NBFU=   531
 ExpMin= 3.60D-02 ExpMax= 8.59D+03 ExpMxC= 1.30D+03 IAcc=3 IRadAn=         5 AccDes= 0.00D+00
 Harris functional with IExCor= 1009 and IRadAn=       5 diagonalized for initial guess.
 HarFok:  IExCor= 1009 AccDes= 0.00D+00 IRadAn=         5 IDoV= 1 UseB2=F ITyADJ=14
 ICtDFT=  3500011 ScaDFX=  1.000000  1.000000  1.000000  1.000000
 FoFCou: FMM=F IPFlag=           0 FMFlag=      100000 FMFlg1=           0
         NFxFlg=           0 DoJE=T BraDBF=F KetDBF=T FulRan=T
         wScrn=  0.000000 ICntrl=       500 IOpCl=  0 I1Cent=   200000004 NGrid=           0
         NMat0=    1 NMatS0=      1 NMatT0=    0 NMatD0=    1 NMtDS0=    0 NMtDT0=    0
 Petite list used in FoFCou.
 Requested convergence on RMS density matrix=1.00D-08 within 128 cycles.
 Requested convergence on MAX density matrix=1.00D-06.
 Requested convergence on             energy=1.00D-06.
 No special actions if energy rises.
 Inv3:  Mode=1 IEnd=    12000000.
 Iteration    1 A*A^-1 deviation from unit magnitude is 5.33D-15 for    206.
 Iteration    1 A*A^-1 deviation from orthogonality  is 3.12D-15 for    270    248.
 Iteration    1 A^-1*A deviation from unit magnitude is 5.33D-15 for    234.
 Iteration    1 A^-1*A deviation from orthogonality  is 3.54D-15 for   1083   1051.
 Error on total polarization charges =  0.06319
 SCF Done:  E(RM062X) =  -617.505788519     A.U. after   12 cycles
            NFock= 12  Conv=0.46D-08     -V/T= 2.0035
 SMD-CDS (non-electrostatic) energy       (kcal/mol) =       4.06
 (included in total energy above)

 **********************************************************************

            Population analysis using the SCF Density.

 **********************************************************************

 Orbital symmetries:
       Occupied  (A) (A) (A) (A) (A) (A) (A) (A) (A) (A) (A) (A)
                 (A) (A) (A) (A) (A) (A) (A) (A) (A) (A) (A) (A)
                 (A) (A) (A) (A) (A) (A) (A) (A) (A) (A) (A) (A)
                 (A) (A) (A) (A) (A) (A) (A) (A) (A) (A) (A) (A)
                 (A) (A) (A)
       Virtual   (A) (A) (A) (A) (A) (A) (A) (A) (A) (A) (A) (A)
                 (A) (A) (A) (A) (A) (A) (A) (A) (A) (A) (A) (A)
                 (A) (A) (A) (A) (A) (A) (A) (A) (A) (A) (A) (A)
                 (A) (A) (A) (A) (A) (A) (A) (A) (A) (A) (A) (A)
                 (A) (A) (A) (A) (A) (A) (A) (A) (A) (A) (A) (A)
                 (A) (A) (A) (A) (A) (A) (A) (A) (A) (A) (A) (A)
                 (A) (A) (A) (A) (A) (A) (A) (A) (A) (A) (A) (A)
                 (A) (A) (A) (A) (A) (A) (A) (A) (A) (A) (A) (A)
                 (A) (A) (A) (A) (A) (A) (A) (A) (A) (A) (A) (A)
                 (A) (A) (A) (A) (A) (A) (A) (A) (A) (A) (A) (A)
                 (A) (A) (A) (A) (A) (A) (A) (A) (A) (A) (A) (A)
                 (A) (A) (A) (A) (A) (A) (A) (A) (A) (A) (A) (A)
                 (A) (A) (A) (A) (A) (A) (A) (A) (A) (A) (A) (A)
                 (A) (A) (A) (A) (A) (A) (A) (A) (A) (A) (A) (A)
                 (A) (A) (A) (A) (A) (A) (A) (A) (A) (A) (A) (A)
                 (A) (A) (A) (A) (A) (A) (A) (A) (A) (A) (A) (A)
                 (A) (A) (A) (A) (A) (A) (A) (A) (A) (A) (A) (A)
                 (A) (A) (A) (A) (A) (A) (A) (A) (A) (A) (A) (A)
                 (A) (A) (A) (A) (A) (A) (A) (A) (A) (A) (A) (A)
                 (A) (A) (A) (A) (A) (A) (A) (A) (A) (A) (A) (A)
                 (A) (A) (A) (A) (A) (A) (A) (A) (A) (A) (A) (A)
                 (A) (A) (A) (A) (A) (A) (A) (A) (A) (A) (A) (A)
                 (A) (A) (A) (A) (A) (A) (A) (A) (A) (A) (A) (A)
                 (A) (A) (A) (A) (A) (A) (A) (A) (A) (A) (A) (A)
                 (A) (A) (A) (A) (A) (A) (A) (A) (A) (A) (A) (A)
                 (A) (A) (A) (A) (A) (A) (A) (A) (A) (A) (A) (A)
                 (A) (A) (A) (A) (A) (A) (A) (A) (A) (A) (A) (A)
                 (A) (A) (A) (A) (A) (A) (A) (A) (A) (A) (A) (A)
                 (A) (A) (A) (A) (A) (A) (A) (A) (A) (A) (A) (A)
                 (A) (A) (A) (A) (A) (A) (A) (A) (A) (A) (A) (A)
                 (A) (A) (A) (A) (A) (A) (A) (A) (A) (A) (A) (A)
                 (A) (A) (A) (A) (A) (A) (A) (A) (A) (A) (A) (A)
                 (A) (A) (A) (A) (A) (A) (A) (A) (A) (A) (A) (A)
                 (A) (A) (A) (A) (A) (A) (A) (A) (A) (A) (A) (A)
                 (A) (A) (A) (A) (A) (A) (A) (A) (A) (A) (A) (A)
                 (A) (A) (A) (A) (A) (A) (A) (A) (A) (A) (A) (A)
                 (A) (A) (A) (A) (A) (A) (A) (A) (A) (A) (A) (A)
                 (A) (A) (A) (A) (A) (A) (A) (A) (A) (A) (A) (A)
                 (A) (A) (A) (A) (A) (A) (A) (A) (A) (A) (A) (A)
                 (A) (A) (A) (A) (A) (A) (A) (A) (A) (A) (A) (A)
 The electronic state is 1-A.
 Alpha  occ. eigenvalues --  -19.63659 -19.62930 -19.62811 -10.63199 -10.58317
 Alpha  occ. eigenvalues --  -10.57349 -10.57331 -10.57188 -10.52448 -10.52359
 Alpha  occ. eigenvalues --  -10.52286 -10.52258 -10.52118  -1.20579  -1.16751
 Alpha  occ. eigenvalues --   -1.14180  -0.90544  -0.89299  -0.87183  -0.83751
 Alpha  occ. eigenvalues --   -0.74451  -0.73885  -0.72566  -0.69957  -0.66227
 Alpha  occ. eigenvalues --   -0.64336  -0.60067  -0.58140  -0.57029  -0.55644
 Alpha  occ. eigenvalues --   -0.54857  -0.52652  -0.51321  -0.50974  -0.50230
 Alpha  occ. eigenvalues --   -0.48011  -0.46777  -0.45798  -0.45272  -0.44247
 Alpha  occ. eigenvalues --   -0.42735  -0.40539  -0.40290  -0.40069  -0.39313
 Alpha  occ. eigenvalues --   -0.39010  -0.37644  -0.36886  -0.35206  -0.32433
 Alpha  occ. eigenvalues --   -0.31808
 Alpha virt. eigenvalues --    0.00513   0.01283   0.01326   0.01515   0.02600
 Alpha virt. eigenvalues --    0.02894   0.03039   0.04036   0.04219   0.04663
 Alpha virt. eigenvalues --    0.04840   0.05307   0.05978   0.06068   0.07164
 Alpha virt. eigenvalues --    0.07545   0.07714   0.08418   0.09110   0.10308
 Alpha virt. eigenvalues --    0.10384   0.10907   0.11279   0.11836   0.12224
 Alpha virt. eigenvalues --    0.12595   0.13025   0.13573   0.13802   0.13902
 Alpha virt. eigenvalues --    0.14090   0.14367   0.14758   0.15230   0.15315
 Alpha virt. eigenvalues --    0.15760   0.15986   0.16134   0.16409   0.16587
 Alpha virt. eigenvalues --    0.17155   0.17458   0.17558   0.17968   0.18034
 Alpha virt. eigenvalues --    0.18365   0.18694   0.19075   0.19512   0.19813
 Alpha virt. eigenvalues --    0.20149   0.20344   0.20666   0.21532   0.22168
 Alpha virt. eigenvalues --    0.22265   0.22979   0.23737   0.24453   0.24812
 Alpha virt. eigenvalues --    0.25394   0.25854   0.26879   0.27285   0.27363
 Alpha virt. eigenvalues --    0.28158   0.28432   0.29053   0.29602   0.29671
 Alpha virt. eigenvalues --    0.30497   0.30774   0.31250   0.31595   0.31845
 Alpha virt. eigenvalues --    0.32571   0.32754   0.33349   0.33829   0.34356
 Alpha virt. eigenvalues --    0.35155   0.35741   0.36063   0.36406   0.36595
 Alpha virt. eigenvalues --    0.36879   0.37202   0.37272   0.37722   0.38380
 Alpha virt. eigenvalues --    0.38818   0.39168   0.39845   0.40144   0.40890
 Alpha virt. eigenvalues --    0.41540   0.41729   0.42568   0.44409   0.44717
 Alpha virt. eigenvalues --    0.46762   0.47233   0.49091   0.49804   0.50702
 Alpha virt. eigenvalues --    0.51741   0.53617   0.53875   0.54456   0.55680
 Alpha virt. eigenvalues --    0.56494   0.57016   0.58340   0.59051   0.59777
 Alpha virt. eigenvalues --    0.61004   0.61169   0.61334   0.61459   0.62148
 Alpha virt. eigenvalues --    0.62567   0.62987   0.63662   0.64142   0.64392
 Alpha virt. eigenvalues --    0.64531   0.65130   0.66221   0.66831   0.67166
 Alpha virt. eigenvalues --    0.67506   0.67794   0.69243   0.70405   0.71222
 Alpha virt. eigenvalues --    0.71406   0.71929   0.72576   0.73040   0.73837
 Alpha virt. eigenvalues --    0.74432   0.74861   0.75249   0.75501   0.76488
 Alpha virt. eigenvalues --    0.76889   0.77142   0.77768   0.78443   0.80186
 Alpha virt. eigenvalues --    0.81625   0.83529   0.83957   0.84517   0.85696
 Alpha virt. eigenvalues --    0.86413   0.86585   0.88959   0.89376   0.90580
 Alpha virt. eigenvalues --    0.91335   0.91911   0.93373   0.93737   0.95164
 Alpha virt. eigenvalues --    0.96254   0.97993   1.00778   1.01414   1.02141
 Alpha virt. eigenvalues --    1.03097   1.03679   1.05325   1.06447   1.07390
 Alpha virt. eigenvalues --    1.07882   1.07992   1.09512   1.11088   1.11756
 Alpha virt. eigenvalues --    1.13387   1.14237   1.14757   1.16219   1.17164
 Alpha virt. eigenvalues --    1.17264   1.18432   1.19041   1.19348   1.19897
 Alpha virt. eigenvalues --    1.20350   1.21519   1.22231   1.22874   1.23869
 Alpha virt. eigenvalues --    1.24303   1.24945   1.25855   1.26901   1.27439
 Alpha virt. eigenvalues --    1.28871   1.29010   1.29350   1.30069   1.31337
 Alpha virt. eigenvalues --    1.31905   1.32202   1.32594   1.32917   1.34385
 Alpha virt. eigenvalues --    1.34829   1.35657   1.35939   1.36357   1.37570
 Alpha virt. eigenvalues --    1.37856   1.39548   1.40031   1.40929   1.42031
 Alpha virt. eigenvalues --    1.42250   1.42793   1.43923   1.44491   1.44812
 Alpha virt. eigenvalues --    1.45460   1.46033   1.46919   1.47467   1.48631
 Alpha virt. eigenvalues --    1.49064   1.50092   1.50507   1.51191   1.51611
 Alpha virt. eigenvalues --    1.52800   1.53290   1.53625   1.55079   1.55206
 Alpha virt. eigenvalues --    1.56517   1.57980   1.58347   1.58533   1.59066
 Alpha virt. eigenvalues --    1.59286   1.60072   1.61253   1.62266   1.62695
 Alpha virt. eigenvalues --    1.63505   1.63932   1.64633   1.66246   1.68125
 Alpha virt. eigenvalues --    1.68458   1.69231   1.70019   1.70109   1.72449
 Alpha virt. eigenvalues --    1.72849   1.75334   1.76074   1.77412   1.78613
 Alpha virt. eigenvalues --    1.79432   1.80055   1.80946   1.82471   1.83718
 Alpha virt. eigenvalues --    1.87740   1.87872   1.91891   1.92878   1.97118
 Alpha virt. eigenvalues --    1.99291   2.09185   2.10658   2.17013   2.18745
 Alpha virt. eigenvalues --    2.24275   2.26273   2.28733   2.33450   2.35472
 Alpha virt. eigenvalues --    2.41306   2.41721   2.44645   2.49349   2.51688
 Alpha virt. eigenvalues --    2.59373   2.76192   2.76605   2.77869   2.82429
 Alpha virt. eigenvalues --    2.87603   2.90571   2.93074   2.93427   2.94904
 Alpha virt. eigenvalues --    2.96630   2.98146   3.00323   3.02610   3.04229
 Alpha virt. eigenvalues --    3.07292   3.07520   3.08521   3.09997   3.11191
 Alpha virt. eigenvalues --    3.13628   3.15587   3.16828   3.17666   3.20908
 Alpha virt. eigenvalues --    3.25173   3.30065   3.31867   3.32918   3.36116
 Alpha virt. eigenvalues --    3.36297   3.37860   3.38970   3.39836   3.41600
 Alpha virt. eigenvalues --    3.42828   3.43634   3.44241   3.46246   3.46562
 Alpha virt. eigenvalues --    3.46900   3.48664   3.49627   3.50894   3.51799
 Alpha virt. eigenvalues --    3.53297   3.54450   3.54913   3.55726   3.56312
 Alpha virt. eigenvalues --    3.57174   3.58265   3.58574   3.59392   3.60425
 Alpha virt. eigenvalues --    3.60644   3.62150   3.63056   3.63736   3.65282
 Alpha virt. eigenvalues --    3.66590   3.67234   3.67883   3.68294   3.70078
 Alpha virt. eigenvalues --    3.70831   3.71473   3.72844   3.73152   3.73540
 Alpha virt. eigenvalues --    3.74624   3.75504   3.76176   3.77017   3.77911
 Alpha virt. eigenvalues --    3.78274   3.78617   3.79920   3.83415   3.84149
 Alpha virt. eigenvalues --    3.85599   3.87394   3.89894   3.90878   3.91440
 Alpha virt. eigenvalues --    3.92706   3.93801   3.95507   3.96833   3.99047
 Alpha virt. eigenvalues --    4.01624   4.02241   4.03513   4.04562   4.05096
 Alpha virt. eigenvalues --    4.05952   4.06090   4.06858   4.07194   4.07699
 Alpha virt. eigenvalues --    4.08905   4.09176   4.09582   4.10599   4.12171
 Alpha virt. eigenvalues --    4.12524   4.12593   4.14413   4.15605   4.16322
 Alpha virt. eigenvalues --    4.16664   4.17279   4.18657   4.19587   4.21931
 Alpha virt. eigenvalues --    4.22293   4.23157   4.24578   4.25653   4.26286
 Alpha virt. eigenvalues --    4.26872   4.29943   4.30921   4.32225   4.32696
 Alpha virt. eigenvalues --    4.33596   4.34353   4.35783   4.36557   4.38410
 Alpha virt. eigenvalues --    4.41448   4.43641   4.45621   4.46526   4.54979
 Alpha virt. eigenvalues --    4.58291   4.61649   4.76789   4.77325   4.83281
 Alpha virt. eigenvalues --    4.89056   4.92401   4.93374   4.99855   4.99924
 Alpha virt. eigenvalues --    5.06661   5.07362   5.08263   5.09250   5.12062
 Alpha virt. eigenvalues --    5.13103   5.14578   5.15541   5.29980   5.35206
 Alpha virt. eigenvalues --    5.36882   5.56539   5.59520   5.61594   5.86983
 Alpha virt. eigenvalues --    5.88859   6.04789   7.01270   7.05165   7.05364
 Alpha virt. eigenvalues --    7.09849   7.11404   7.11696   7.12792   7.16348
 Alpha virt. eigenvalues --    7.23434   7.35296   7.40580   7.43983   7.53820
 Alpha virt. eigenvalues --    7.55436   7.63210  23.95983  23.97800  24.06125
 Alpha virt. eigenvalues --   24.09573  24.11472  24.13260  24.15000  24.16147
 Alpha virt. eigenvalues --   24.17355  24.18363  50.16957  50.18759  50.21723
          Condensed to atoms (all electrons):
               1          2          3          4          5          6
     1  C    5.681475   0.001363  -0.002152  -0.000304   0.027173  -0.012769
     2  C    0.001363   6.060877   0.162919   0.149160   0.009322   0.016152
     3  C   -0.002152   0.162919   5.596500  -0.021345  -0.000955   0.002213
     4  O   -0.000304   0.149160  -0.021345   8.405959  -0.000122  -0.000257
     5  O    0.027173   0.009322  -0.000955  -0.000122   8.453393  -0.002471
     6  C   -0.012769   0.016152   0.002213  -0.000257  -0.002471   5.433403
     7  O    0.031850  -0.148814  -0.011990   0.000559   0.009787  -0.005621
     8  C   -0.011321  -0.007872   0.000202   0.000065  -0.055796   0.041227
     9  C    0.019262  -0.108822  -0.008654  -0.034909   0.026501  -0.031153
    10  C    0.000183  -0.035444  -0.114376   0.001390   0.260028  -0.144183
    11  C   -0.002256  -0.194458   0.058471   0.087390  -0.000888   0.000529
    12  C   -0.105988  -0.271657  -0.081542   0.008707  -0.108638   0.049707
    13  C    0.021734   0.008153   0.021835   0.002454  -0.037552   0.035079
    14  H    0.427595   0.000481   0.000115  -0.000002  -0.002975   0.006322
    15  H    0.516367  -0.001386   0.000026   0.000005   0.002294  -0.012712
    16  H   -0.002055   0.381013  -0.004900  -0.033511   0.000111  -0.001369
    17  H    0.000801   0.422858   0.003270  -0.074162   0.000428  -0.000030
    18  H    0.000270   0.010985   0.500987   0.000960   0.001555  -0.000706
    19  H    0.000038  -0.001958   0.429347   0.006887  -0.000677  -0.000257
    20  H   -0.009489   0.001842   0.001021  -0.000007  -0.027655   0.479797
    21  H    0.007633   0.000600  -0.000542   0.000005  -0.071579   0.436634
    22  H   -0.018926  -0.000306   0.000036   0.000007  -0.001933  -0.074214
    23  H   -0.059155  -0.000048  -0.000019  -0.000006   0.006588  -0.038786
    24  H    0.001357  -0.022666  -0.070615  -0.000604  -0.004983  -0.000814
    25  H   -0.002697   0.001009   0.000965  -0.002039  -0.000121   0.002149
    26  H   -0.030030  -0.008465  -0.007076   0.001233  -0.061586   0.009920
    27  H   -0.000082   0.022061  -0.045824  -0.068191  -0.000081  -0.000000
    28  H    0.000054  -0.032644  -0.038619  -0.042815   0.000204  -0.000018
    29  H   -0.002278  -0.082013  -0.004929  -0.013033  -0.007257   0.000867
    30  H   -0.025568  -0.004616   0.000431   0.000007  -0.007842  -0.000673
    31  H   -0.028560   0.003501   0.000228   0.000280   0.005199   0.001599
               7          8          9         10         11         12
     1  C    0.031850  -0.011321   0.019262   0.000183  -0.002256  -0.105988
     2  C   -0.148814  -0.007872  -0.108822  -0.035444  -0.194458  -0.271657
     3  C   -0.011990   0.000202  -0.008654  -0.114376   0.058471  -0.081542
     4  O    0.000559   0.000065  -0.034909   0.001390   0.087390   0.008707
     5  O    0.009787  -0.055796   0.026501   0.260028  -0.000888  -0.108638
     6  C   -0.005621   0.041227  -0.031153  -0.144183   0.000529   0.049707
     7  O    8.416719   0.008989  -0.191068   0.155322   0.013446   0.370839
     8  C    0.008989   5.550410  -0.013040   0.145268   0.001505   0.008165
     9  C   -0.191068  -0.013040   6.370161   0.201763  -0.096846  -0.759107
    10  C    0.155322   0.145268   0.201763   6.204269  -0.033674  -0.589246
    11  C    0.013446   0.001505  -0.096846  -0.033674   5.445339   0.156299
    12  C    0.370839   0.008165  -0.759107  -0.589246   0.156299   7.032748
    13  C   -0.236866  -0.104994   0.057305  -0.297229  -0.004709  -0.184806
    14  H   -0.003100  -0.029963   0.000866   0.043448  -0.000089  -0.006697
    15  H    0.001355  -0.060625   0.001142  -0.027358   0.000086   0.004594
    16  H    0.003993   0.000820  -0.007708   0.001712  -0.000531  -0.015944
    17  H    0.000025  -0.000445   0.033549   0.007866   0.005637  -0.054819
    18  H    0.001125   0.000090  -0.024475   0.008644  -0.088550  -0.034132
    19  H   -0.001623  -0.000206  -0.026562  -0.002377  -0.031635  -0.006467
    20  H    0.004921  -0.056540  -0.001519  -0.050798   0.000107   0.013578
    21  H   -0.002273  -0.039773   0.000451   0.009065   0.000151  -0.001012
    22  H    0.002993   0.487043  -0.000618  -0.018221   0.000091   0.005673
    23  H    0.000125   0.463866  -0.000654   0.006580  -0.000017  -0.000108
    24  H    0.008129   0.000988   0.492363   0.017927  -0.007693  -0.041972
    25  H   -0.006997  -0.002512   0.451153  -0.010562  -0.007595  -0.059087
    26  H   -0.040100   0.015375   0.006071   0.462965  -0.003002   0.003076
    27  H    0.000816   0.000042   0.007774  -0.004693   0.436609  -0.005642
    28  H   -0.000229   0.000018  -0.015768   0.006605   0.453952   0.024678
    29  H   -0.026113  -0.000157   0.000972  -0.039827   0.025231   0.512482
    30  H    0.002334  -0.010362   0.007692  -0.107581  -0.000458  -0.000098
    31  H   -0.003049   0.002171  -0.003537  -0.037486   0.000557   0.007323
              13         14         15         16         17         18
     1  C    0.021734   0.427595   0.516367  -0.002055   0.000801   0.000270
     2  C    0.008153   0.000481  -0.001386   0.381013   0.422858   0.010985
     3  C    0.021835   0.000115   0.000026  -0.004900   0.003270   0.500987
     4  O    0.002454  -0.000002   0.000005  -0.033511  -0.074162   0.000960
     5  O   -0.037552  -0.002975   0.002294   0.000111   0.000428   0.001555
     6  C    0.035079   0.006322  -0.012712  -0.001369  -0.000030  -0.000706
     7  O   -0.236866  -0.003100   0.001355   0.003993   0.000025   0.001125
     8  C   -0.104994  -0.029963  -0.060625   0.000820  -0.000445   0.000090
     9  C    0.057305   0.000866   0.001142  -0.007708   0.033549  -0.024475
    10  C   -0.297229   0.043448  -0.027358   0.001712   0.007866   0.008644
    11  C   -0.004709  -0.000089   0.000086  -0.000531   0.005637  -0.088550
    12  C   -0.184806  -0.006697   0.004594  -0.015944  -0.054819  -0.034132
    13  C    6.189966  -0.067241  -0.040334   0.006544  -0.002272   0.001280
    14  H   -0.067241   0.458219  -0.000004   0.000000   0.000049   0.000016
    15  H   -0.040334  -0.000004   0.451503  -0.000085   0.000290  -0.000038
    16  H    0.006544   0.000000  -0.000085   0.479203  -0.018266   0.002729
    17  H   -0.002272   0.000049   0.000290  -0.018266   0.473884  -0.001718
    18  H    0.001280   0.000016  -0.000038   0.002729  -0.001718   0.470815
    19  H    0.000422   0.000001   0.000015  -0.002451   0.002143  -0.009697
    20  H    0.013673  -0.001639   0.001830   0.000068  -0.000095  -0.000027
    21  H    0.004208   0.000287  -0.001697  -0.000014   0.000024  -0.000141
    22  H   -0.006659  -0.000926   0.002781   0.000100  -0.000063   0.000018
    23  H    0.004225  -0.008932  -0.005819  -0.000027  -0.000024  -0.000013
    24  H   -0.004436  -0.000047   0.000024  -0.001008  -0.002014   0.002168
    25  H    0.008337   0.000068  -0.000161  -0.000933  -0.001200  -0.002524
    26  H   -0.031515  -0.001155  -0.008766   0.002585  -0.003633   0.001603
    27  H   -0.000050  -0.000003   0.000005  -0.002299   0.002021  -0.004503
    28  H    0.000132   0.000009  -0.000011   0.008924  -0.002517   0.003595
    29  H   -0.018151  -0.000444   0.001551  -0.005553  -0.001690  -0.012787
    30  H    0.512818  -0.002735   0.004449  -0.000409   0.001285   0.000029
    31  H    0.429913  -0.011429  -0.006079   0.000329  -0.002456  -0.000106
              19         20         21         22         23         24
     1  C    0.000038  -0.009489   0.007633  -0.018926  -0.059155   0.001357
     2  C   -0.001958   0.001842   0.000600  -0.000306  -0.000048  -0.022666
     3  C    0.429347   0.001021  -0.000542   0.000036  -0.000019  -0.070615
     4  O    0.006887  -0.000007   0.000005   0.000007  -0.000006  -0.000604
     5  O   -0.000677  -0.027655  -0.071579  -0.001933   0.006588  -0.004983
     6  C   -0.000257   0.479797   0.436634  -0.074214  -0.038786  -0.000814
     7  O   -0.001623   0.004921  -0.002273   0.002993   0.000125   0.008129
     8  C   -0.000206  -0.056540  -0.039773   0.487043   0.463866   0.000988
     9  C   -0.026562  -0.001519   0.000451  -0.000618  -0.000654   0.492363
    10  C   -0.002377  -0.050798   0.009065  -0.018221   0.006580   0.017927
    11  C   -0.031635   0.000107   0.000151   0.000091  -0.000017  -0.007693
    12  C   -0.006467   0.013578  -0.001012   0.005673  -0.000108  -0.041972
    13  C    0.000422   0.013673   0.004208  -0.006659   0.004225  -0.004436
    14  H    0.000001  -0.001639   0.000287  -0.000926  -0.008932  -0.000047
    15  H    0.000015   0.001830  -0.001697   0.002781  -0.005819   0.000024
    16  H   -0.002451   0.000068  -0.000014   0.000100  -0.000027  -0.001008
    17  H    0.002143  -0.000095   0.000024  -0.000063  -0.000024  -0.002014
    18  H   -0.009697  -0.000027  -0.000141   0.000018  -0.000013   0.002168
    19  H    0.485917   0.000036   0.000135  -0.000011  -0.000007  -0.006056
    20  H    0.000036   0.466219  -0.006037   0.003194   0.000152  -0.000197
    21  H    0.000135  -0.006037   0.476522  -0.002191  -0.010380   0.000072
    22  H   -0.000011   0.003194  -0.002191   0.469814  -0.011448  -0.000046
    23  H   -0.000007   0.000152  -0.010380  -0.011448   0.472266   0.000042
    24  H   -0.006056  -0.000197   0.000072  -0.000046   0.000042   0.436984
    25  H   -0.009686   0.000842  -0.001745  -0.000297   0.000058  -0.009240
    26  H   -0.000491  -0.002302  -0.000898  -0.000325   0.000909   0.000341
    27  H   -0.008810   0.000002  -0.000000   0.000003   0.000000  -0.001436
    28  H    0.002337  -0.000026  -0.000009  -0.000004   0.000001  -0.004197
    29  H    0.000282  -0.000587   0.000231   0.000141  -0.000019   0.001504
    30  H    0.000021  -0.000087  -0.000462   0.001279  -0.003004  -0.000206
    31  H    0.000012   0.000184   0.001189  -0.001447   0.001715  -0.000098
              25         26         27         28         29         30
     1  C   -0.002697  -0.030030  -0.000082   0.000054  -0.002278  -0.025568
     2  C    0.001009  -0.008465   0.022061  -0.032644  -0.082013  -0.004616
     3  C    0.000965  -0.007076  -0.045824  -0.038619  -0.004929   0.000431
     4  O   -0.002039   0.001233  -0.068191  -0.042815  -0.013033   0.000007
     5  O   -0.000121  -0.061586  -0.000081   0.000204  -0.007257  -0.007842
     6  C    0.002149   0.009920  -0.000000  -0.000018   0.000867  -0.000673
     7  O   -0.006997  -0.040100   0.000816  -0.000229  -0.026113   0.002334
     8  C   -0.002512   0.015375   0.000042   0.000018  -0.000157  -0.010362
     9  C    0.451153   0.006071   0.007774  -0.015768   0.000972   0.007692
    10  C   -0.010562   0.462965  -0.004693   0.006605  -0.039827  -0.107581
    11  C   -0.007595  -0.003002   0.436609   0.453952   0.025231  -0.000458
    12  C   -0.059087   0.003076  -0.005642   0.024678   0.512482  -0.000098
    13  C    0.008337  -0.031515  -0.000050   0.000132  -0.018151   0.512818
    14  H    0.000068  -0.001155  -0.000003   0.000009  -0.000444  -0.002735
    15  H   -0.000161  -0.008766   0.000005  -0.000011   0.001551   0.004449
    16  H   -0.000933   0.002585  -0.002299   0.008924  -0.005553  -0.000409
    17  H   -0.001200  -0.003633   0.002021  -0.002517  -0.001690   0.001285
    18  H   -0.002524   0.001603  -0.004503   0.003595  -0.012787   0.000029
    19  H   -0.009686  -0.000491  -0.008810   0.002337   0.000282   0.000021
    20  H    0.000842  -0.002302   0.000002  -0.000026  -0.000587  -0.000087
    21  H   -0.001745  -0.000898  -0.000000  -0.000009   0.000231  -0.000462
    22  H   -0.000297  -0.000325   0.000003  -0.000004   0.000141   0.001279
    23  H    0.000058   0.000909   0.000000   0.000001  -0.000019  -0.003004
    24  H   -0.009240   0.000341  -0.001436  -0.004197   0.001504  -0.000206
    25  H    0.469687  -0.000635   0.001249   0.000160   0.001168  -0.000219
    26  H   -0.000635   0.432732  -0.000358   0.000760   0.000306  -0.003891
    27  H    0.001249  -0.000358   0.462707  -0.007288   0.001032  -0.000037
    28  H    0.000160   0.000760  -0.007288   0.485678  -0.003208   0.000103
    29  H    0.001168   0.000306   0.001032  -0.003208   0.437004   0.000947
    30  H   -0.000219  -0.003891  -0.000037   0.000103   0.000947   0.456752
    31  H    0.000230   0.001571   0.000043  -0.000136   0.000880  -0.019447
              31
     1  C   -0.028560
     2  C    0.003501
     3  C    0.000228
     4  O    0.000280
     5  O    0.005199
     6  C    0.001599
     7  O   -0.003049
     8  C    0.002171
     9  C   -0.003537
    10  C   -0.037486
    11  C    0.000557
    12  C    0.007323
    13  C    0.429913
    14  H   -0.011429
    15  H   -0.006079
    16  H    0.000329
    17  H   -0.002456
    18  H   -0.000106
    19  H    0.000012
    20  H    0.000184
    21  H    0.001189
    22  H   -0.001447
    23  H    0.001715
    24  H   -0.000098
    25  H    0.000230
    26  H    0.001571
    27  H    0.000043
    28  H   -0.000136
    29  H    0.000880
    30  H   -0.019447
    31  H    0.477462
 Mulliken charges:
               1
     1  C   -0.423526
     2  C   -0.331125
     3  C   -0.365027
     4  O   -0.373761
     5  O   -0.409473
     6  C   -0.189566
     7  O   -0.355482
     8  C   -0.332638
     9  C   -0.352583
    10  C   -0.019979
    11  C   -0.212998
    12  C    0.129095
    13  C   -0.281262
    14  H    0.199907
    15  H    0.176758
    16  H    0.208929
    17  H    0.211273
    18  H    0.172547
    19  H    0.181380
    20  H    0.169539
    21  H    0.201547
    22  H    0.164462
    23  H    0.181942
    24  H    0.216429
    25  H    0.181176
    26  H    0.264781
    27  H    0.214934
    28  H    0.160279
    29  H    0.233450
    30  H    0.199549
    31  H    0.179443
 Sum of Mulliken charges =  -0.00000
 Mulliken charges with hydrogens summed into heavy atoms:
               1
     1  C   -0.046861
     2  C    0.089078
     3  C   -0.011100
     4  O   -0.373761
     5  O   -0.409473
     6  C    0.181520
     7  O   -0.355482
     8  C    0.013766
     9  C    0.045021
    10  C    0.244802
    11  C    0.162216
    12  C    0.362545
    13  C    0.097730
 Electronic spatial extent (au):  <R**2>=           3390.3053
 Charge=              0.0000 electrons
 Dipole moment (field-independent basis, Debye):
    X=             -2.4178    Y=              1.1025    Z=             -1.1012  Tot=              2.8764
 Quadrupole moment (field-independent basis, Debye-Ang):
   XX=            -71.0428   YY=            -79.4028   ZZ=            -80.5002
   XY=              6.4259   XZ=              7.7812   YZ=             -1.3676
 Traceless Quadrupole moment (field-independent basis, Debye-Ang):
   XX=              5.9391   YY=             -2.4209   ZZ=             -3.5183
   XY=              6.4259   XZ=              7.7812   YZ=             -1.3676
 Octapole moment (field-independent basis, Debye-Ang**2):
  XXX=            -32.2783  YYY=              1.1744  ZZZ=             -1.0266  XYY=             -5.8821
  XXY=             31.2938  XXZ=             16.1355  XZZ=             -2.5792  YZZ=              0.6591
  YYZ=             -1.3659  XYZ=             -2.3462
 Hexadecapole moment (field-independent basis, Debye-Ang**3):
 XXXX=          -3545.9525 YYYY=           -613.1973 ZZZZ=           -200.2502 XXXY=             80.4946
 XXXZ=             69.9773 YYYX=            -17.3387 YYYZ=              5.0818 ZZZX=              4.0274
 ZZZY=             -1.7669 XXYY=           -715.0414 XXZZ=           -651.6964 YYZZ=           -140.4500
 XXYZ=            -30.5109 YYXZ=              6.7757 ZZXY=              0.5529
 N-N= 8.784838921492D+02 E-N=-3.199138092929D+03  KE= 6.153695651878D+02
 D1PCM: PCM CHGder 1st derivatives, ID1Alg=3 FixD1E=F DoIter=F DoCFld=F I1PDM=0.
 Calling FoFJK, ICntrl=      2127 FMM=F ISym2X=0 I1Cent= 0 IOpClX= 0 NMat=1 NMatS=1 NMatT=0.
 ***** Axes restored to original set *****
 -------------------------------------------------------------------
 Center     Atomic                   Forces (Hartrees/Bohr)
 Number     Number              X              Y              Z
 -------------------------------------------------------------------
      1        6           0.002643688    0.002933767    0.001571123
      2        6          -0.002248610    0.005535783    0.000448719
      3        6          -0.000572896   -0.002355802    0.002024379
      4        8           0.005516084   -0.005196177   -0.009554264
      5        8           0.007309236    0.009790385    0.007241171
      6        6          -0.004587585   -0.004874614    0.001269365
      7        8           0.000809591   -0.005598787    0.011296736
      8        6           0.001995691   -0.001573405   -0.002208528
      9        6           0.003407454   -0.002833740   -0.002432671
     10        6          -0.005488350   -0.006036666   -0.000608509
     11        6          -0.005542887    0.004727809    0.000975489
     12        6           0.001778209    0.003012660    0.001402750
     13        6          -0.001325013    0.001334505   -0.003047323
     14        1          -0.001799799   -0.001444182    0.001315930
     15        1           0.000537227   -0.000146945   -0.003299943
     16        1          -0.000526588   -0.000588159    0.006240739
     17        1          -0.002124722   -0.003578127   -0.002609851
     18        1          -0.000332934    0.000231443   -0.003302815
     19        1           0.001063260    0.002141667    0.001603084
     20        1          -0.000372176   -0.001154119   -0.005522525
     21        1          -0.000613113    0.004423832    0.001103127
     22        1           0.000428084    0.000519959    0.003282776
     23        1          -0.002230399    0.000733582   -0.001439385
     24        1           0.000387546   -0.001760934    0.003429451
     25        1          -0.002980605    0.002490137   -0.000967434
     26        1          -0.000245099   -0.000850933   -0.008199590
     27        1           0.003851106    0.000982637   -0.002122822
     28        1           0.000209496   -0.000735446    0.005686538
     29        1          -0.000412717    0.001331533   -0.006185881
     30        1           0.000495639    0.001369337    0.003633751
     31        1           0.000971183   -0.002831001   -0.001023586
 -------------------------------------------------------------------
 Cartesian Forces:  Max     0.011296736 RMS     0.003586658

 GradGradGradGradGradGradGradGradGradGradGradGradGradGradGradGradGradGrad
 Berny optimization.
 FormGI is forming the generalized inverse of G from B-inverse, IUseBI=4.
 Internal  Forces:  Max     0.011172323 RMS     0.002154317
 Search for a local minimum.
 Step number   1 out of a maximum of  186
 All quantities printed in internal units (Hartrees-Bohrs-Radians)
 Mixed Optimization -- RFO/linear search
 Second derivative matrix not updated -- first step.
 ITU=  0
     Eigenvalues ---    0.00611   0.00631   0.00737   0.00757   0.01452
     Eigenvalues ---    0.01491   0.01862   0.02737   0.02747   0.03115
     Eigenvalues ---    0.03150   0.04168   0.04173   0.04565   0.04776
     Eigenvalues ---    0.04864   0.04922   0.05121   0.05152   0.05157
     Eigenvalues ---    0.05339   0.05708   0.05727   0.06159   0.06184
     Eigenvalues ---    0.06313   0.06393   0.06572   0.07684   0.07861
     Eigenvalues ---    0.07944   0.07962   0.07976   0.08025   0.08136
     Eigenvalues ---    0.08741   0.09327   0.09908   0.10881   0.11487
     Eigenvalues ---    0.11624   0.11699   0.11717   0.12331   0.12511
     Eigenvalues ---    0.14508   0.14587   0.16281   0.16721   0.17585
     Eigenvalues ---    0.19202   0.21198   0.21864   0.25000   0.28478
     Eigenvalues ---    0.28617   0.28681   0.28782   0.28983   0.29135
     Eigenvalues ---    0.30243   0.30527   0.35031   0.35055   0.35080
     Eigenvalues ---    0.35082   0.35089   0.35126   0.35131   0.35158
     Eigenvalues ---    0.35177   0.35243   0.35292   0.35369   0.35375
     Eigenvalues ---    0.35382   0.35630   0.35826   0.35841   0.35883
     Eigenvalues ---    0.41140   0.41387   0.42459   0.42650   0.42794
     Eigenvalues ---    0.478241000.000001000.000001000.000001000.00000
     Eigenvalues --- 1000.000001000.000001000.000001000.000001000.00000
     Eigenvalues --- 1000.000001000.000001000.000001000.000001000.00000
     Eigenvalues --- 1000.000001000.000001000.000001000.000001000.00000
     Eigenvalues --- 1000.000001000.000001000.000001000.000001000.00000
     Eigenvalues --- 1000.000001000.000001000.000001000.000001000.00000
     Eigenvalues --- 1000.000001000.000001000.000001000.000001000.00000
     Eigenvalues --- 1000.000001000.000001000.000001000.000001000.00000
     Eigenvalues --- 1000.000001000.000001000.000001000.000001000.00000
     Eigenvalues --- 1000.000001000.000001000.000001000.000001000.00000
     Eigenvalues --- 1000.000001000.000001000.000001000.000001000.00000
     Eigenvalues --- 1000.000001000.000001000.000001000.000001000.00000
     Eigenvalues --- 1000.000001000.000001000.000001000.000001000.00000
     Eigenvalues --- 1000.000001000.000001000.000001000.000001000.00000
     Eigenvalues --- 1000.000001000.000001000.000001000.000001000.00000
     Eigenvalues --- 1000.000001000.000001000.000001000.000001000.00000
     Eigenvalues --- 1000.000001000.000001000.000001000.000001000.00000
     Eigenvalues --- 1000.000001000.000001000.000001000.000001000.00000
     Eigenvalues --- 1000.000001000.000001000.000001000.000001000.00000
     Eigenvalues --- 1000.000001000.000001000.000001000.000001000.00000
 RFO step:  Lambda=-2.95332534D-03 EMin= 6.11453891D-03
 Linear search not attempted -- first point.
 Iteration  1 RMS(Cart)=  0.03947729 RMS(Int)=  0.00041001
 Iteration  2 RMS(Cart)=  0.00099061 RMS(Int)=  0.00002212
 Iteration  3 RMS(Cart)=  0.00000017 RMS(Int)=  0.00002212
 Iteration  1 RMS(Cart)=  0.00000441 RMS(Int)=  0.00000099
 Iteration  2 RMS(Cart)=  0.00000243 RMS(Int)=  0.00000111
 Iteration  3 RMS(Cart)=  0.00000134 RMS(Int)=  0.00000125
 Iteration  4 RMS(Cart)=  0.00000074 RMS(Int)=  0.00000135
 Variable       Old X    -DE/DX   Delta X   Delta X   Delta X     New X
                                 (Linear)    (Quad)   (Total)
    R1        2.88984  -0.00070   0.00000  -0.00371  -0.00374   2.88610
    R2        2.89334  -0.00106   0.00000  -0.00407  -0.00410   2.88924
    R3        2.05080   0.00265   0.00000   0.00743   0.00743   2.05823
    R4        2.05625   0.00324   0.00000   0.00918   0.00918   2.06542
    R5        2.66458   0.00626   0.00000   0.01476   0.01479   2.67937
    R6        2.87930  -0.00057   0.00000  -0.00182  -0.00182   2.87748
    R7        2.05542   0.00606   0.00000   0.01714   0.01714   2.07256
    R8        2.04331   0.00486   0.00000   0.01344   0.01344   2.05676
    R9        2.89402  -0.00091   0.00000  -0.00399  -0.00402   2.89000
   R10        2.87121  -0.00083   0.00000  -0.00267  -0.00267   2.86853
   R11        2.05463   0.00323   0.00000   0.00913   0.00913   2.06376
   R12        2.05204   0.00288   0.00000   0.00808   0.00808   2.06012
   R13        2.67707   0.00616   0.00000   0.01473   0.01476   2.69183
   R14        2.68164   0.00584   0.00000   0.01397   0.01401   2.69565
   R15        2.65967   0.00851   0.00000   0.01996   0.01998   2.67965
   R16        2.87247  -0.00070   0.00000  -0.00256  -0.00257   2.86990
   R17        2.05531   0.00556   0.00000   0.01571   0.01571   2.07102
   R18        2.04264   0.00460   0.00000   0.01271   0.01271   2.05535
   R19        2.62127   0.00504   0.00000   0.01047   0.01047   2.63174
   R20        2.68104   0.00468   0.00000   0.01090   0.01090   2.69194
   R21        2.05471   0.00325   0.00000   0.00919   0.00919   2.06390
   R22        2.05282   0.00275   0.00000   0.00773   0.00773   2.06054
   R23        2.88210  -0.00183   0.00000  -0.00676  -0.00679   2.87530
   R24        2.05585   0.00369   0.00000   0.01045   0.01045   2.06630
   R25        2.04665   0.00392   0.00000   0.01090   0.01090   2.05754
   R26        2.86646  -0.00147   0.00000  -0.00436  -0.00436   2.86210
   R27        2.05419   0.00820   0.00000   0.02313   0.02313   2.07731
   R28        2.04354   0.00450   0.00000   0.01245   0.01245   2.05599
   R29        2.05546   0.00564   0.00000   0.01596   0.01596   2.07141
   R30        2.05071   0.00630   0.00000   0.01766   0.01766   2.06837
   R31        2.05388   0.00372   0.00000   0.01049   0.01049   2.06437
   R32        2.05059   0.00314   0.00000   0.00880   0.00880   2.05939
    A1        1.92601   0.00207   0.00000  -0.00120  -0.00128   1.92473
    A2        1.93190  -0.00053   0.00000   0.00066   0.00069   1.93260
    A3        1.90889  -0.00077   0.00000  -0.00168  -0.00167   1.90722
    A4        1.91966  -0.00062   0.00000  -0.00049  -0.00046   1.91921
    A5        1.90942  -0.00082   0.00000  -0.00208  -0.00206   1.90736
    A6        1.86692   0.00060   0.00000   0.00490   0.00489   1.87181
    A7        1.93671   0.00125   0.00000   0.00590   0.00593   1.94265
    A8        1.91655   0.00101   0.00000   0.00776   0.00778   1.92433
    A9        1.86750  -0.00040   0.00000   0.00298   0.00299   1.87048
   A10        1.91595  -0.00193   0.00000  -0.01372  -0.01376   1.90219
   A11        1.92926  -0.00067   0.00000  -0.00591  -0.00594   1.92332
   A12        1.89696   0.00080   0.00000   0.00354   0.00345   1.90041
   A13        1.93155  -0.00043   0.00000  -0.00664  -0.00670   1.92485
   A14        1.91954   0.00060   0.00000   0.00175   0.00176   1.92131
   A15        1.92569  -0.00041   0.00000  -0.00010  -0.00009   1.92559
   A16        1.90293  -0.00022   0.00000  -0.00103  -0.00103   1.90190
   A17        1.90922   0.00032   0.00000   0.00130   0.00132   1.91054
   A18        1.87386   0.00016   0.00000   0.00507   0.00506   1.87892
   A19        1.97813  -0.00493   0.00000  -0.02613  -0.02607   1.95206
   A20        1.98076  -0.00510   0.00000  -0.02624  -0.02617   1.95458
   A21        1.93508   0.00098   0.00000   0.00348   0.00350   1.93857
   A22        1.90302   0.00077   0.00000   0.00454   0.00455   1.90757
   A23        1.85132  -0.00077   0.00000  -0.00030  -0.00031   1.85101
   A24        1.93112  -0.00136   0.00000  -0.00793  -0.00795   1.92318
   A25        1.95073  -0.00008   0.00000  -0.00194  -0.00194   1.94879
   A26        1.89005   0.00052   0.00000   0.00267   0.00265   1.89270
   A27        2.06250  -0.01117   0.00000  -0.04417  -0.04417   2.01834
   A28        1.92188   0.00014   0.00000  -0.00411  -0.00419   1.91769
   A29        1.91912   0.00054   0.00000   0.00204   0.00206   1.92118
   A30        1.93555  -0.00064   0.00000  -0.00106  -0.00105   1.93450
   A31        1.90381  -0.00039   0.00000  -0.00161  -0.00159   1.90223
   A32        1.90614   0.00007   0.00000  -0.00028  -0.00026   1.90588
   A33        1.87652   0.00028   0.00000   0.00520   0.00519   1.88172
   A34        1.91793   0.00197   0.00000  -0.00203  -0.00212   1.91582
   A35        1.91413  -0.00045   0.00000   0.00162   0.00162   1.91575
   A36        1.92923  -0.00015   0.00000   0.00521   0.00522   1.93445
   A37        1.89336  -0.00112   0.00000  -0.00623  -0.00622   1.88713
   A38        1.93070  -0.00099   0.00000  -0.00532  -0.00527   1.92543
   A39        1.87770   0.00068   0.00000   0.00675   0.00671   1.88441
   A40        1.89406  -0.00202   0.00000  -0.01195  -0.01194   1.88212
   A41        1.93123   0.00159   0.00000   0.00800   0.00800   1.93923
   A42        1.88902   0.00011   0.00000  -0.00088  -0.00088   1.88814
   A43        1.90355   0.00017   0.00000  -0.00021  -0.00020   1.90335
   A44        1.91296   0.00077   0.00000   0.00683   0.00682   1.91978
   A45        1.93258  -0.00065   0.00000  -0.00195  -0.00195   1.93062
   A46        1.93366   0.00146   0.00000   0.00666   0.00667   1.94032
   A47        1.94610  -0.00035   0.00000  -0.00321  -0.00322   1.94288
   A48        1.93192  -0.00131   0.00000  -0.00795  -0.00796   1.92396
   A49        1.85529  -0.00095   0.00000  -0.00243  -0.00243   1.85286
   A50        1.90231   0.00056   0.00000   0.00421   0.00423   1.90654
   A51        1.89228   0.00062   0.00000   0.00310   0.00307   1.89535
   A52        1.85586   0.00053   0.00000   0.00188   0.00187   1.85773
   A53        1.92761  -0.00017   0.00000  -0.00422  -0.00428   1.92333
   A54        1.89804  -0.00023   0.00000   0.00085   0.00086   1.89890
   A55        1.96106  -0.00115   0.00000  -0.00636  -0.00635   1.95471
   A56        1.90274   0.00038   0.00000   0.00653   0.00652   1.90926
   A57        1.91669   0.00065   0.00000   0.00161   0.00163   1.91832
   A58        1.92553  -0.00062   0.00000  -0.00671  -0.00676   1.91877
   A59        1.92439   0.00078   0.00000   0.00373   0.00370   1.92808
   A60        1.93629  -0.00004   0.00000   0.00323   0.00322   1.93951
   A61        1.88964  -0.00048   0.00000  -0.00626  -0.00625   1.88339
   A62        1.90281   0.00014   0.00000  -0.00085  -0.00082   1.90199
   A63        1.88403   0.00022   0.00000   0.00687   0.00685   1.89088
    D1        0.89730  -0.00008   0.00000   0.01340   0.01338   0.91068
    D2       -1.20100  -0.00003   0.00000   0.01670   0.01670  -1.18430
    D3        3.00911  -0.00032   0.00000   0.00962   0.00960   3.01871
    D4        3.02649   0.00018   0.00000   0.01241   0.01240   3.03889
    D5        0.92819   0.00024   0.00000   0.01572   0.01572   0.94391
[...]
 322717,-0.01433324,0.00031353,-0.00005510,-0.00000705,-0.00006248,-0.0
 0000901,0.00000222,-0.00000075,-0.00000115,0.00000038,-0.00000286,0.00
 025994,-0.00027328,0.00015965,0.00063573,-0.00076263,0.00015273,-0.000
 59944,-0.00043444,0.00048041,-0.00057524,0.00025369,0.00019892,-0.0000
 1233,-0.00000149,-0.00000423,-0.00000545,0.00000585,0.00000163,0.00000
 396,0.00000212,-0.00000163,-0.00000738,-0.00000385,0.00000262,-0.02022
 792,0.02278338,-0.00166363,0.01773873,-0.01941398,0.05143631,0.0014528
 3,0.00021674,0.00065560,0.00002320,0.00011778,-0.00027333,0.00001838,-
 0.00015773,-0.00007666,-0.00009656,-0.00003979,0.00008655,0.00264605,0
 .00546196,0.00407799,0.00138651,0.00054296,0.00172760,-0.01568407,0.00
 097096,-0.03760233,-0.00017575,-0.00015556,-0.00012673,-0.00044819,-0.
 00040515,0.00037955,-0.05541795,-0.00128570,0.02881869,0.00003115,-0.0
 0000604,0.00002389,0.00363235,0.00202637,-0.00541148,-0.00074057,0.001
 16353,0.02358052,0.00007074,-0.00006902,-0.00019966,-0.00010124,-0.000
 08986,-0.00032240,-0.00005556,0.00001663,0.00010910,0.00000461,0.00002
 170,0.00004952,-0.00002832,-0.00000511,0.00002307,-0.00006524,-0.00002
 206,0.00001323,0.00001764,-0.00020321,-0.00022634,0.00003092,-0.000002
 18,0.00003310,0.00002336,0.00001602,-0.00006425,-0.00002919,0.00006505
 ,0.00000456,-0.00005099,-0.00002393,0.00017520,0.00000221,-0.00004040,
 0.00000797,0.06639240,0.00089801,0.00007665,-0.00000800,-0.00017085,0.
 00012602,-0.00006972,-0.00002352,0.00008909,0.00003241,0.00014541,-0.0
 0004018,-0.00001656,0.01057409,-0.02861047,-0.03839800,-0.00425458,0.0
 0143040,-0.00400044,0.00574620,0.00401529,0.01269049,0.00040492,-0.000
 21267,0.00044934,0.00005882,0.00003005,-0.00007800,-0.00185444,-0.0497
 4906,-0.02244037,-0.00004481,-0.00001407,-0.00002389,-0.00148987,-0.00
 068882,-0.00033529,-0.00295346,0.00401777,0.01841484,0.00002543,-0.000
 08707,-0.00020137,-0.00003964,0.00004404,-0.00037803,-0.00001253,-0.00
 001204,0.00002238,-0.00000723,-0.00004273,-0.00001578,0.00000904,0.000
 00311,-0.00000403,0.00003452,0.00001346,-0.00000727,0.00004067,0.00045
 121,0.00128270,0.00006223,-0.00004337,0.00045711,-0.00003475,-0.000014
 57,0.00000779,0.00020252,0.00020866,-0.00003577,0.00000631,-0.00001820
 ,-0.00002227,-0.00000713,0.00005200,-0.00001236,-0.00499839,0.06959661
 ,-0.00032043,-0.00019415,0.00027601,0.00008979,-0.00047329,0.00058551,
 -0.00002770,-0.00011957,-0.00011027,-0.00043638,0.00010821,0.00000423,
 0.00231383,-0.01177022,-0.00589643,-0.00063366,0.00105564,0.00078655,-
 0.01259820,0.00311026,-0.01919821,0.00007117,-0.00022773,0.00014093,-0
 .00016892,-0.00012041,0.00044117,0.02221316,-0.02461846,-0.28441641,0.
 00003928,0.00003478,0.00005588,0.00344493,0.00166098,0.00079542,0.0012
 2509,-0.00061734,-0.01180591,0.00012476,0.00007972,0.00027334,0.000378
 31,-0.00018924,0.00036531,0.00009423,-0.00010928,-0.00003408,-0.000058
 02,-0.00001916,-0.00004049,-0.00001288,-0.00001146,0.00000954,-0.00006
 221,-0.00002568,0.00001785,0.00084375,-0.00032266,0.00019017,0.0002765
 0,-0.00012065,0.00047255,-0.00006710,0.00004357,-0.00018042,0.00009056
 ,-0.00003647,-0.00002892,0.00009342,0.00016749,0.00001387,-0.00001572,
 0.00001481,-0.00003173,-0.01745980,0.03171481,0.31637399,-0.00000460,-
 0.00001475,0.00001836,0.00191569,-0.00066732,-0.00284935,-0.01614000,-
 0.00367489,0.00950593,-0.01378967,-0.00917326,0.00308461,-0.00018990,0
 .00005988,-0.00005693,0.00003694,-0.00002759,0.00003304,-0.00052843,-0
 .00005802,0.00002227,-0.00001034,0.00000459,-0.00001311,-0.00086447,0.
 00390859,-0.00082615,0.00024137,-0.00009663,0.00016412,-0.25379302,-0.
 04974146,0.10372055,0.00082987,0.00015652,0.00021033,-0.00004152,0.000
 02479,-0.00003196,-0.00001136,0.00000095,-0.00000322,-0.00000091,-0.00
 000009,-0.00000252,-0.00002597,-0.00001254,0.00022927,-0.00067571,-0.0
 0021076,0.00031591,0.00080360,-0.00066489,-0.00041441,0.00036280,0.000
 23124,0.00009780,-0.00000728,0.00000099,-0.00000745,-0.00000721,0.0000
 0714,-0.00000280,0.00000033,0.00000043,0.00000175,-0.00000737,-0.00000
 095,0.00000190,0.00009529,-0.00006753,0.00011753,-0.00103244,-0.000492
 37,0.00043232,-0.00001281,0.00000771,-0.00002132,0.27648059,-0.0000013
 9,-0.00000464,-0.00000008,0.00008437,-0.00280698,-0.00439958,0.0239248
 9,0.00793116,-0.01230320,-0.03132965,-0.01444378,0.01017103,0.00012240
 ,0.00004018,0.00003040,-0.00000750,0.00003670,-0.00001303,-0.00020295,
 0.00048691,0.00006298,0.00000843,-0.00000563,0.00000669,0.00274685,-0.
 00470479,0.00109585,-0.00000819,-0.00001421,0.00007092,-0.04402118,-0.
 05968999,0.02413421,-0.00015497,-0.00129427,-0.00017916,-0.00000607,0.
 00000448,-0.00000458,-0.00000076,0.00000092,-0.00000063,-0.00000013,0.
 00000063,-0.00000002,0.00016836,0.00003103,0.00002988,-0.00156783,-0.0
 0038649,0.00031829,-0.00096498,0.00105153,0.00025848,-0.00113429,0.000
 74975,-0.00000888,0.00000364,-0.00000049,0.00000339,-0.00000201,-0.000
 00146,-0.00000115,-0.00000023,0.00000004,0.00000003,0.00000372,0.00000
 203,-0.00000149,-0.00020966,-0.00001342,-0.00006485,0.00163299,0.00051
 701,-0.00047152,0.00000579,0.00000150,-0.00000351,0.05887078,0.0733234
 3,-0.00000242,-0.00000604,0.00000423,-0.00101418,-0.00204021,-0.001609
 40,-0.00264882,0.00067650,0.00073247,-0.02138638,-0.00918004,0.0085294
 0,-0.00001135,0.00003823,-0.00000425,0.00000365,0.00000751,0.00000113,
 -0.00023484,0.00020340,0.00006455,0.00000038,-0.00000029,-0.00000078,-
 0.00015716,-0.00050058,0.00104869,0.00004258,-0.00002271,0.00006422,0.
 11304538,0.03064134,-0.11010322,0.00013175,-0.00048626,-0.00011025,-0.
 00001319,0.00000634,-0.00001203,-0.00000254,0.00000073,-0.00000081,-0.
 00000007,0.00000024,-0.00000018,-0.00013957,-0.00013162,0.00045627,-0.
 00064331,-0.00034963,0.00042558,-0.00012374,-0.00068040,0.00065735,0.0
 0019439,-0.00010716,0.00010154,-0.00000093,0.00000006,-0.00000041,-0.0
 0000252,0.00000074,-0.00000095,-0.00000014,0.00000009,0.00000035,-0.00
 000025,0.00000055,0.00000019,-0.00029879,-0.00014314,0.00026094,0.0002
 3980,0.00015921,0.00016353,-0.00000035,0.00000188,-0.00000533,-0.11217
 941,-0.02382661,0.11040249,-0.00000177,-0.00000441,0.00000393,0.001176
 68,0.00119493,-0.00326271,-0.00335129,0.00850728,-0.01948911,-0.003846
 56,-0.00462802,-0.01636483,-0.00001107,0.00001734,-0.00000358,0.000006
 02,0.00000226,0.00000238,-0.00023624,0.00000049,0.00005270,0.00000030,
 0.00000007,-0.00000154,0.00111384,-0.00039603,-0.00115274,0.00004603,-
 0.00003090,0.00005231,-0.06070967,0.01241135,-0.03105752,-0.00016438,-
 0.00003601,0.00015579,-0.00001186,0.00000643,-0.00001057,-0.00000275,0
 .00000027,-0.00000050,-0.00000039,0.00000012,-0.00000009,0.00027129,0.
 00010117,0.00041006,0.00003684,-0.00002595,0.00014170,-0.00178982,0.00
 322301,-0.00030202,0.00068023,-0.00034289,0.00038832,-0.00000029,0.000
 00020,0.00000002,-0.00000147,0.00000092,-0.00000100,-0.00000031,0.0000
 0016,0.00000069,-0.00000069,0.00000022,0.00000009,-0.00000711,-0.00006
 781,0.00027055,0.00017453,-0.00002449,0.00021109,0.00000114,0.00000236
 ,-0.00000511,0.00644498,-0.00797026,0.02523089,0.06014958,-0.00000047,
 -0.00000261,0.00000128,0.00300963,0.00239768,-0.00352464,0.00465413,-0
 .00878058,0.02607868,-0.01268028,-0.00186915,-0.03504546,-0.00001173,0
 .00000733,-0.00000774,0.00000229,0.00000277,0.00000278,-0.00016518,0.0
 0021623,0.00006812,0.00000005,-0.00000004,-0.00000056,-0.00127867,0.00
 085971,0.00009417,0.00001188,0.00000609,0.00005888,0.01227325,-0.07414
 613,0.07956330,-0.00017559,-0.00051600,0.00018319,-0.00000485,0.000001
 87,-0.00000362,-0.00000082,0.00000046,-0.00000058,-0.00000021,0.000000
 40,-0.00000044,0.00072651,0.00008332,0.00108582,0.00013934,-0.00005285
 ,0.00011839,0.00433886,-0.00350326,-0.00017241,-0.00067339,0.00089304,
 -0.00033741,-0.00000001,-0.00000054,-0.00000092,-0.00000166,0.00000099
 ,-0.00000054,0.00000011,0.00000003,-0.00000025,-0.00000032,0.00000004,
 0.00000019,0.00022325,0.00034688,-0.00047576,-0.00016944,-0.00003917,-
 0.00030989,0.00000512,0.00000097,-0.00000523,0.00166836,-0.00090991,0.
 00573244,-0.01188601,0.08507750,-0.00000488,-0.00001393,0.00001405,0.0
 0268185,0.00142064,0.00090271,0.00103811,0.00148932,-0.00033431,-0.009
 85616,-0.00996117,-0.02367517,-0.00007054,0.00005171,-0.00001759,0.000
 02010,-0.00000341,0.00001410,-0.00054773,0.00003093,-0.00001879,-0.000
 00258,-0.00000027,-0.00000630,0.00000883,-0.00054541,0.00061936,0.0001
 4928,-0.00009451,0.00012839,-0.03484042,0.07599908,-0.26658664,0.00026
 360,-0.00037425,0.00012062,-0.00003424,0.00002237,-0.00002781,-0.00000
 913,0.00000129,-0.00000257,-0.00000042,0.00000039,-0.00000104,-0.00116
 095,-0.00032127,0.00057074,-0.00009488,-0.00027989,0.00044697,0.000288
 22,0.00005028,0.00118918,-0.00040595,0.00065437,0.00020146,-0.00000264
 ,0.00000063,-0.00000237,-0.00000532,0.00000424,-0.00000228,-0.00000040
 ,0.00000047,0.00000173,-0.00000327,0.00000049,0.00000069,-0.00052242,-
 0.00016370,0.00002899,-0.00006625,0.00002755,0.00016526,-0.00001237,0.
 00000702,-0.00001307,-0.00150522,0.00505636,-0.01106266,0.04467574,-0.
 07313837,0.29748336,0.00002273,-0.00002151,-0.00006368,-0.00488226,0.0
 0596948,-0.02247194,0.00059939,0.00033724,-0.00040805,0.00173349,-0.00
 047021,0.00033236,-0.00016354,0.00008383,-0.00030912,-0.00006077,0.000
 10485,-0.00001824,-0.00787110,-0.01289081,0.03307071,-0.00001053,0.000
 00383,-0.00000532,-0.00068030,0.00271653,-0.00921397,0.00261997,-0.001
 15412,0.00565133,0.00008626,0.00000909,0.00011312,-0.06429780,0.015133
 80,-0.06046179,-0.00015696,-0.00005563,0.00005729,-0.00000212,-0.00000
 486,0.00000277,-0.00003085,0.00001346,-0.00001945,-0.00309588,0.003151
 00,0.00008107,0.00108591,-0.00062542,0.00068081,-0.00007336,-0.0001543
 0,0.00006733,0.00002185,-0.00001811,0.00001381,0.00000233,0.00000649,-
 0.00001792,-0.00001288,0.00000816,-0.00002014,0.00000121,0.,0.00000333
 ,-0.00000076,0.00000672,0.00000446,-0.00012491,-0.00186045,-0.00096504
 ,0.00026791,-0.00030694,0.00055641,-0.00036624,-0.00019775,-0.00060321
 ,-0.00006619,0.00000782,-0.00002904,0.00003505,-0.00000446,0.00002089,
 0.07556014,-0.00001032,-0.00003660,0.00000906,0.00729243,-0.00772828,0
 .02455325,0.00102143,0.00102195,-0.00005579,-0.00139613,0.00151881,-0.
 00123590,-0.00032407,0.00026798,-0.00026429,0.00001987,0.00003831,0.00
 008314,-0.00445151,-0.00480714,0.01479544,-0.00000868,0.00001266,-0.00
 002060,-0.00673730,0.00517313,-0.02726366,0.00234287,0.00045131,0.0011
 3280,-0.00007102,-0.00035947,-0.00019585,0.01158472,-0.06175964,0.0499
 1496,-0.00007425,-0.00003589,-0.00025895,-0.00001794,0.00000138,-0.000
 00139,-0.00001299,-0.00000032,-0.00000635,0.00342769,-0.00272003,0.000
 40878,-0.00092177,0.00120386,-0.00002897,-0.00002657,-0.00010317,0.000
 44296,0.00019561,-0.00012784,0.00023178,-0.00001795,0.00000967,0.00000
 103,-0.00003048,0.00001671,-0.00001307,0.00000033,0.00000049,0.0000037
 2,-0.00001048,-0.00000064,0.00000145,-0.00229210,-0.00386487,-0.002996
 25,0.00066199,0.00131514,0.00081391,-0.00034503,-0.00009241,-0.0004212
 1,-0.00003527,0.00009758,0.00000603,-0.00005556,-0.00007469,0.00008123
 ,-0.00975547,0.07055308,0.00008113,0.00009323,-0.00006039,0.00017726,-
 0.00004928,0.00039087,0.00011558,0.00018836,0.00007920,-0.00116964,-0.
 00062495,0.00071236,0.00037251,-0.00063616,-0.00006194,-0.00004576,-0.
 00010170,-0.00002048,0.00809046,0.00746323,-0.01794611,-0.00001879,0.0
 0000770,0.00000550,-0.00469226,0.00240069,-0.01554185,-0.00398165,0.00
 099252,0.00080246,0.00006542,-0.00000844,0.00014854,-0.05332097,0.0522
 9242,-0.27794776,0.00007104,0.00005075,0.00080272,0.00004152,-0.000012
 64,0.00000014,0.00001259,0.00000370,-0.00000705,0.00072281,-0.00009360
 ,0.00082081,-0.00019196,0.00034427,0.00067770,-0.00036972,0.00000004,0
 .00033799,-0.00011328,-0.00019610,0.00029076,0.00002626,-0.00000230,0.
 00000400,0.00003176,-0.00001939,0.00001354,0.00000019,-0.00000220,-0.0
 0000069,0.00000477,-0.00000378,0.00000080,-0.00091541,-0.00231123,-0.0
 0062118,0.00034931,0.00030596,0.00080962,0.00068022,-0.00034968,0.0007
 9750,-0.00004348,0.00003967,-0.00000270,0.00005480,0.00003752,-0.00013
 894,0.05417744,-0.05967380,0.30561893,-0.00125689,-0.00387777,-0.03127
 124,0.00001344,0.00002574,-0.00006190,0.00000498,0.00001140,0.00000927
 ,0.00001960,-0.00000821,-0.00000394,0.00129376,0.00137589,-0.00192433,
 -0.00042050,0.00016922,-0.00018157,0.00216159,0.00014326,0.00005377,0.
 00138270,-0.00111446,0.00021413,0.00001411,0.00004663,-0.00008962,-0.0
 0302518,0.00375466,0.02783155,0.00000110,-0.00000170,0.00000332,0.0000
 3672,-0.00009385,0.00019892,-0.04595824,-0.00049942,-0.00083412,0.0014
 6136,-0.00054567,0.00071026,-0.00499063,0.00234664,-0.00243344,-0.0000
 2045,0.00001584,0.00000082,0.00000399,0.00000115,0.00000351,-0.0000008
 9,0.00000074,0.00000023,0.00000216,-0.00000138,0.00000005,-0.00005700,
 0.00005112,0.00004698,0.00009856,0.00003143,-0.00002277,0.00003767,0.0
 0025162,0.00046175,-0.00005981,-0.00020321,0.00030620,-0.00001462,-0.0
 0002123,-0.00001416,0.00000563,-0.00000164,0.00000507,-0.00306638,-0.0
 0297856,0.00116013,-0.00000071,0.00000062,0.00000012,-0.00000053,0.000
 00039,-0.00000051,-0.00014577,0.00004917,-0.00022945,0.05330710,-0.000
 34786,0.00022802,0.00801742,0.00001271,0.00002333,-0.00006704,0.000004
 02,-0.00000029,0.00000312,0.00001196,-0.00001453,0.00000368,0.00041451
 ,0.00204863,-0.00027547,0.00004813,-0.00002365,0.00008270,0.00149529,0
 .00046867,-0.00072161,-0.00025073,0.00051533,0.00073156,-0.00000284,0.
 00002755,-0.00004228,-0.00088287,0.00047696,0.02133357,0.00000134,0.00
 000210,0.00000310,0.00004124,-0.00012338,0.00003841,0.00014183,-0.0546
 3649,-0.03544497,-0.00025911,0.00019951,-0.00043535,0.00126649,0.00045
 463,0.00080800,-0.00001518,0.00001203,0.00000737,0.00000365,0.00000260
 ,0.00000278,-0.00000114,0.00000009,0.00000086,-0.00000096,-0.00000128,
 -0.00000008,0.00001998,-0.00002659,-0.00010601,-0.00000593,-0.00001437
 ,-0.00000823,0.00010019,0.00013044,-0.00005262,-0.00002486,0.00010905,
 -0.00003663,-0.00001038,-0.00001340,-0.00000502,0.00000740,-0.00000068
 ,0.00000714,-0.00264891,-0.00126029,0.00114892,-0.00000091,0.,-0.00000
 015,0.00000029,0.00000003,-0.00000057,-0.00003945,0.00003117,-0.000127
 53,0.00101509,0.05342559,-0.00079686,-0.00154166,-0.01124430,0.0000008
 7,0.00000572,0.00003412,0.00000521,0.00002045,0.00001738,0.00001601,0.
 00000463,-0.00000727,-0.00097831,-0.00009008,0.00180599,-0.00000840,-0
 .00001459,0.00020736,-0.00052506,-0.00040132,0.00125508,0.00057369,-0.
 00020925,0.00037292,0.00006855,-0.00000306,-0.00003542,0.00035878,-0.0
 0236885,-0.01760314,-0.00000756,-0.00000342,-0.00000786,-0.00003437,0.
 00005664,0.00053204,0.00092835,-0.03259954,-0.30532115,-0.00008123,-0.
 00007742,0.00070590,-0.00204796,0.00071869,0.00028998,0.00000978,-0.00
 000589,0.00000129,-0.00000133,-0.00000092,-0.00000374,-0.00000002,-0.0
 0000046,-0.00000077,0.00000865,0.00000448,-0.00000313,0.00004053,-0.00
 012557,-0.00010305,0.00001981,0.00004769,-0.00003399,0.00003819,0.0005
 0265,0.00005952,-0.00010361,0.00007885,0.00023471,0.00000964,0.0000015
 3,0.00000586,0.00000253,0.00000011,-0.00000612,0.00201074,0.00184595,-
 0.00008299,0.00000158,0.00000001,-0.00000002,0.00000075,-0.00000088,0.
 00000267,-0.00021727,-0.00005576,0.00005460,0.00052329,0.03490062,0.33
 353016,-0.00467807,0.02950607,0.00664703,0.00000210,-0.00000198,0.0000
 1979,0.00000078,0.00001465,0.00000696,-0.00001373,0.00000830,0.0000074
 6,-0.00290391,-0.00698024,0.00243885,-0.00153161,0.00034263,-0.0004276
 9,0.00113692,-0.00020521,-0.00002085,-0.00558212,0.00021848,-0.0033324
 1,0.00006124,-0.00000996,-0.00001604,0.00481203,-0.02091221,-0.0077090
 5,0.00000026,-0.00000479,0.00000016,0.00020957,0.00021942,0.00004174,-
 0.05668251,0.04974152,0.01253765,0.00113917,-0.00064556,0.00077021,0.0
 0136947,-0.00067159,0.00008521,0.00000042,-0.00000254,0.00000054,0.000
 00030,0.00000701,0.00000399,-0.00000098,-0.00000113,0.00000061,0.00000
 376,0.00000054,-0.00000102,0.00020661,-0.00004034,0.00001533,0.0003241
 8,0.00000987,0.00005182,0.00002339,-0.00024365,0.00009664,-0.00015246,
 0.00204059,-0.00006345,-0.00000410,0.00000368,0.00000272,-0.00002076,0
 .00001506,-0.00000755,0.00060559,0.00084928,0.00003174,-0.00000152,0.0
 0000140,0.00000004,-0.00000031,-0.00000006,-0.00000035,0.00000599,-0.0
 0000123,0.00001729,-0.00082687,-0.00009297,0.00018500,0.06249719,0.001
 26071,-0.00590611,-0.00102290,-0.00003545,-0.00008016,0.00001295,-0.00
 000311,0.00003366,0.00000920,-0.00004025,0.00002059,0.00000857,-0.0027
 8237,-0.00439298,0.00251781,-0.00105286,0.00083195,-0.00087132,0.00062
 542,0.00116297,-0.00017428,0.00157220,0.00146535,0.00100333,0.00007557
 ,-0.00000670,-0.00004219,0.00675583,-0.01700612,-0.00605718,-0.0000001
 9,-0.00000004,0.00000692,-0.00009222,0.00037988,0.00017721,0.04670221,
 -0.29651469,-0.05297589,0.00026046,0.00039395,0.00000690,-0.00007687,0
 .00039031,0.00021855,-0.00000487,0.00000250,-0.00000262,-0.00000095,0.
 00000589,0.00000786,0.00000014,-0.00000107,0.00000017,0.00000638,0.000
 00017,-0.00000315,0.00011087,-0.00004478,0.00014116,0.00011650,-0.0001
 0336,0.00005427,-0.00002379,0.00003586,-0.00007891,-0.00010477,-0.0005
 1870,-0.00013379,-0.00000455,-0.00000391,-0.00000395,-0.00002689,0.000
 02289,-0.00000721,-0.00013253,0.00072906,0.00026654,-0.00000275,0.0000
 0117,-0.00000045,-0.00000053,-0.00000038,-0.00000163,0.00000719,-0.000
 00224,-0.00000729,0.00005650,-0.00204076,-0.00068937,-0.05316502,0.321
 14580,-0.00239481,0.01334199,0.00135000,0.00000154,-0.00001191,0.00000
 860,-0.00000069,-0.00001172,-0.00000718,0.00000019,0.00000461,-0.00000
 474,0.00206798,0.00317177,0.00051654,0.00036726,-0.00053604,0.00025366
 ,-0.00077101,-0.00036071,0.00026115,-0.00235792,0.00011779,-0.00025290
 ,-0.00003710,0.00001007,0.00001433,-0.00401586,0.01249283,0.00175120,0
 .00000278,-0.00000092,0.00000014,-0.00004270,-0.00008842,-0.00009193,0
 .01279641,-0.05593968,-0.06159665,0.00042913,-0.00048159,0.00018973,0.
 00074723,0.00006620,0.00060735,-0.00000356,-0.00000007,-0.00000401,0.0
 0000116,-0.00000159,0.00000148,-0.00000031,0.00000031,0.00000037,-0.00
 000380,-0.00000129,0.00000186,-0.00000898,-0.00002267,-0.00007408,-0.0
 0003065,0.00000227,-0.00003559,-0.00001783,0.00035772,0.00018330,-0.00
 020698,0.00054521,0.00025390,0.00000372,-0.00000366,-0.00000225,0.0000
 1028,-0.00000798,-0.00000010,-0.00068139,-0.00052993,0.00024445,0.0000
 0006,0.00000008,0.00000010,-0.00000050,-0.00000003,-0.00000071,-0.0000
 0898,0.00001229,-0.00001893,0.00553768,-0.02976566,-0.00465661,-0.0113
 8236,0.05764071,0.06110753\\-0.00000450,0.00000032,-0.00000856,-0.0000
 0432,-0.00000737,0.00000851,0.00000844,-0.00000793,0.00000273,-0.00001
 001,-0.00000878,-0.00001007,-0.00000599,0.00001413,0.00001209,-0.00001
 671,0.00001620,-0.00001289,-0.00016220,-0.00100933,-0.00116458,0.00000
 411,0.00000703,-0.00000218,-0.00057505,0.00054978,-0.00054929,-0.00002
 949,0.00083816,0.00065313,0.00001669,0.00001357,0.00001990,0.00077717,
 -0.00041148,0.00104432,0.00000879,0.00000006,-0.00000256,0.00000383,0.
 00000373,-0.00000320,-0.00000290,0.00000581,0.00000091,-0.00000275,-0.
 00000329,-0.00001516,-0.00000087,0.00000623,-0.00000629,0.00000314,0.0
 0000061,0.00000532,-0.00000233,-0.00000408,0.00000148,0.00000232,0.000
 00791,0.00001401,0.00000216,-0.00000144,0.00000629,0.00000131,0.000001
 01,0.00000053,0.00000097,0.00000467,0.00000782,-0.00000016,-0.00000311
 ,-0.00000383,0.00000688,-0.00000399,0.00000229,-0.00000083,0.00000778,
 0.00001159,-0.00000596,-0.00000601,0.00000034,-0.00000193,-0.00000791,
 -0.00001207,-0.00000283,-0.00000035,0.00000948,-0.00000049,-0.00000225
 ,-0.00000711,-0.00000645,0.00000035,-0.00000294\\\@


 If your ship doesn't come in, swim out to it!
                          -- Jonathan Winters
 Job cpu time:       0 days 17 hours 53 minutes 16.3 seconds.
 Elapsed time:       0 days  1 hours 29 minutes 35.5 seconds.
 File lengths (MBytes):  RWF=    721 Int=      0 D2E=      0 Chk=     34 Scr=      1
 Normal termination of Gaussian 16 at Sun Mar 10 04:17:35 2019.
