 Entering Gaussian System, Link 0=g16
 Initial command:
 /sw/Projects/G16/g16/l1.exe "/nvme/pbs/tmpdir/pbs.74288[9].flm1/Gau-30595.inp" -scrdir="/nvme/pbs/tmpdir/pbs.74288[9].flm1/"
 Entering Link 1 = /sw/Projects/G16/g16/l1.exe PID=     30596.
  
 Copyright (c) 1988-2017, Gaussian, Inc.  All Rights Reserved.
  
 This is part of the Gaussian(R) 16 program.  It is based on
 the Gaussian(R) 09 system (copyright 2009, Gaussian, Inc.),
 the Gaussian(R) 03 system (copyright 2003, Gaussian, Inc.),
 the Gaussian(R) 98 system (copyright 1998, Gaussian, Inc.),
 the Gaussian(R) 94 system (copyright 1995, Gaussian, Inc.),
 the Gaussian 92(TM) system (copyright 1992, Gaussian, Inc.),
 the Gaussian 90(TM) system (copyright 1990, Gaussian, Inc.),
 the Gaussian 88(TM) system (copyright 1988, Gaussian, Inc.),
 the Gaussian 86(TM) system (copyright 1986, Carnegie Mellon
 University), and the Gaussian 82(TM) system (copyright 1983,
 Carnegie Mellon University). Gaussian is a federally registered
 trademark of Gaussian, Inc.
  
 This software contains proprietary and confidential information,
 including trade secrets, belonging to Gaussian, Inc.
  
 This software is provided under written license and may be
 used, copied, transmitted, or stored only in accord with that
 written license.
  
 The following legend is applicable only to US Government
 contracts under FAR:
  
                    RESTRICTED RIGHTS LEGEND
  
 Use, reproduction and disclosure by the US Government is
 subject to restrictions as set forth in subparagraphs (a)
 and (c) of the Commercial Computer Software - Restricted
 Rights clause in FAR 52.227-19.
  
 Gaussian, Inc.
 340 Quinnipiac St., Bldg. 40, Wallingford CT 06492
  
  
 ---------------------------------------------------------------
 Warning -- This program may not be used in any manner that
 competes with the business of Gaussian, Inc. or will provide
 assistance to any competitor of Gaussian, Inc.  The licensee
 of this program is prohibited from giving any competitor of
 Gaussian, Inc. access to this program.  By using this program,
 the user acknowledges that Gaussian, Inc. is engaged in the
 business of creating and licensing software in the field of
 computational chemistry and represents and warrants to the
 licensee that it is not a competitor of Gaussian, Inc. and that
 it will not use this program in any manner prohibited above.
 ---------------------------------------------------------------
  

 Cite this work as:
 Gaussian 16, Revision B.01,
 M. J. Frisch, G. W. Trucks, H. B. Schlegel, G. E. Scuseria, 
 M. A. Robb, J. R. Cheeseman, G. Scalmani, V. Barone, 
 G. A. Petersson, H. Nakatsuji, X. Li, M. Caricato, A. V. Marenich, 
 J. Bloino, B. G. Janesko, R. Gomperts, B. Mennucci, H. P. Hratchian, 
 J. V. Ortiz, A. F. Izmaylov, J. L. Sonnenberg, D. Williams-Young, 
 F. Ding, F. Lipparini, F. Egidi, J. Goings, B. Peng, A. Petrone, 
 T. Henderson, D. Ranasinghe, V. G. Zakrzewski, J. Gao, N. Rega, 
 G. Zheng, W. Liang, M. Hada, M. Ehara, K. Toyota, R. Fukuda, 
 J. Hasegawa, M. Ishida, T. Nakajima, Y. Honda, O. Kitao, H. Nakai, 
 T. Vreven, K. Throssell, J. A. Montgomery, Jr., J. E. Peralta, 
 F. Ogliaro, M. J. Bearpark, J. J. Heyd, E. N. Brothers, K. N. Kudin, 
 V. N. Staroverov, T. A. Keith, R. Kobayashi, J. Normand, 
 K. Raghavachari, A. P. Rendell, J. C. Burant, S. S. Iyengar, 
 J. Tomasi, M. Cossi, J. M. Millam, M. Klene, C. Adamo, R. Cammi, 
 J. W. Ochterski, R. L. Martin, K. Morokuma, O. Farkas, 
 J. B. Foresman, and D. J. Fox, Gaussian, Inc., Wallingford CT, 2016.
 
 ******************************************
 Gaussian 16:  ES64L-G16RevB.01 20-Dec-2017
                10-Mar-2019 
 ******************************************
 %mem=20gb
 %nproc=12
 Will use up to   12 processors via shared memory.
 %chk=4c1_b1_4e_4c1_PSI.inp_extract_9.chk
 ----------------------------------------------------------------------
 #M062X/6-311++G(2d,2p) opt=ModRedundant freq=noraman SCRF=(SMD,solvent
 =water)
 ----------------------------------------------------------------------
 1/18=120,19=15,26=3,38=1/1,3;
 2/9=110,12=2,17=6,18=5,40=1/2;
 3/5=4,6=6,7=1212,11=2,25=1,30=1,70=32201,71=1,72=1,74=-55/1,2,3;
 4//1;
 5/5=2,38=5,53=1/2;
 6/7=2,8=2,9=2,10=2,28=1/1;
 7//1,2,3,16;
 1/18=20,19=15,26=3/3(2);
 2/9=110/2;
 99//99;
 2/9=110/2;
 3/5=4,6=6,7=1212,11=2,25=1,30=1,70=32205,71=1,72=1,74=-55/1,2,3;
 4/5=5,16=3,69=1/1;
 5/5=2,38=5,53=1/2;
 7//1,2,3,16;
 1/18=20,19=15,26=3/3(-5);
 2/9=110/2;
 6/7=2,8=2,9=2,10=2,19=2,28=1/1;
 99/9=1/99;
 -------------------------------
 4c1_b1_4e_4c1_PSI.inp_extract_9
 -------------------------------
 Symbolic Z-matrix:
 Charge =  0 Multiplicity = 1
 C                    -3.45854   0.75771   0.80848 
 C                     1.42053  -0.98271   0.25397 
 C                     3.67991   0.75645  -0.12211 
 O                     2.7435   -1.45761   0.1227 
 O                    -1.60571  -0.75357  -0.74661 
 C                    -2.72544  -1.41708  -0.18246 
 O                    -0.03341   0.86493  -0.60985 
 C                    -3.89221  -0.45776  -0.01202 
 C                     2.2612    1.32961  -0.12092 
 C                    -1.1185    0.3047    0.04694 
 C                     3.71769  -0.56298   0.63053 
 C                     1.26646   0.27886  -0.599 
 C                    -2.18407   1.37059   0.22178 
 H                    -4.24812   1.50171   0.83788 
 H                    -3.27254   0.45174   1.83601 
 H                     1.21929  -0.77939   1.30114 
 H                     0.77267  -1.77842  -0.08069 
 H                     4.01129   0.59274  -1.14433 
 H                     4.37309   1.45508   0.33657 
 H                    -2.43919  -1.84694   0.77485 
 H                    -2.96687  -2.22563  -0.85807 
 H                    -4.23618  -0.13933  -0.99311 
 H                    -4.71532  -0.97725   0.47031 
 H                     1.98319   1.6362    0.88503 
 H                     2.2028    2.2068   -0.75778 
 H                    -0.82857  -0.09498   1.01128 
 H                     4.67239  -1.05798   0.51796 
 H                     3.53403  -0.4066    1.69096 
 H                     1.48889   0.00547  -1.62421 
 H                    -2.39003   1.80882  -0.75117 
 H                    -1.79807   2.15359   0.86637 
 
 The following ModRedundant input section has been read:
 D      10       7      12       9 F                                           
 

 GradGradGradGradGradGradGradGradGradGradGradGradGradGradGradGradGradGrad
 Berny optimization.
 Initialization pass.
                           ----------------------------
                           !    Initial Parameters    !
                           ! (Angstroms and Degrees)  !
 --------------------------                            --------------------------
 ! Name  Definition              Value          Derivative Info.                !
 --------------------------------------------------------------------------------
 ! R1    R(1,8)                  1.5293         estimate D2E/DX2                !
 ! R2    R(1,13)                 1.531          estimate D2E/DX2                !
 ! R3    R(1,14)                 1.0853         estimate D2E/DX2                !
 ! R4    R(1,15)                 1.0881         estimate D2E/DX2                !
 ! R5    R(2,4)                  1.4117         estimate D2E/DX2                !
 ! R6    R(2,12)                 1.5306         estimate D2E/DX2                !
 ! R7    R(2,16)                 1.0855         estimate D2E/DX2                !
 ! R8    R(2,17)                 1.0793         estimate D2E/DX2                !
 ! R9    R(3,9)                  1.5301         estimate D2E/DX2                !
 ! R10   R(3,11)                 1.5195         estimate D2E/DX2                !
 ! R11   R(3,18)                 1.087          estimate D2E/DX2                !
 ! R12   R(3,19)                 1.0858         estimate D2E/DX2                !
 ! R13   R(4,11)                 1.4168         estimate D2E/DX2                !
 ! R14   R(5,6)                  1.4186         estimate D2E/DX2                !
 ! R15   R(5,10)                 1.4096         estimate D2E/DX2                !
 ! R16   R(6,8)                  1.5201         estimate D2E/DX2                !
 ! R17   R(6,20)                 1.0877         estimate D2E/DX2                !
 ! R18   R(6,21)                 1.081          estimate D2E/DX2                !
 ! R19   R(7,10)                 1.3866         estimate D2E/DX2                !
 ! R20   R(7,12)                 1.4259         estimate D2E/DX2                !
 ! R21   R(8,22)                 1.0873         estimate D2E/DX2                !
 ! R22   R(8,23)                 1.0863         estimate D2E/DX2                !
 ! R23   R(9,12)                 1.5239         estimate D2E/DX2                !
 ! R24   R(9,24)                 1.0878         estimate D2E/DX2                !
 ! R25   R(9,25)                 1.0856         estimate D2E/DX2                !
 ! R26   R(10,13)                1.5173         estimate D2E/DX2                !
 ! R27   R(10,26)                1.0834         estimate D2E/DX2                !
 ! R28   R(11,27)                1.0813         estimate D2E/DX2                !
 ! R29   R(11,28)                1.0875         estimate D2E/DX2                !
 ! R30   R(12,29)                1.0841         estimate D2E/DX2                !
 ! R31   R(13,30)                1.0868         estimate D2E/DX2                !
 ! R32   R(13,31)                1.0852         estimate D2E/DX2                !
 ! A1    A(8,1,13)             110.4028         estimate D2E/DX2                !
 ! A2    A(8,1,14)             110.6762         estimate D2E/DX2                !
 ! A3    A(8,1,15)             109.3676         estimate D2E/DX2                !
 ! A4    A(13,1,14)            109.9728         estimate D2E/DX2                !
 ! A5    A(13,1,15)            109.3983         estimate D2E/DX2                !
 ! A6    A(14,1,15)            106.9506         estimate D2E/DX2                !
 ! A7    A(4,2,12)             108.649          estimate D2E/DX2                !
 ! A8    A(4,2,16)             109.0519         estimate D2E/DX2                !
 ! A9    A(4,2,17)             106.5994         estimate D2E/DX2                !
 ! A10   A(12,2,16)            111.3788         estimate D2E/DX2                !
 ! A11   A(12,2,17)            111.99           estimate D2E/DX2                !
 ! A12   A(16,2,17)            109.0212         estimate D2E/DX2                !
 ! A13   A(9,3,11)             110.3618         estimate D2E/DX2                !
 ! A14   A(9,3,18)             109.8649         estimate D2E/DX2                !
 ! A15   A(9,3,19)             110.5222         estimate D2E/DX2                !
 ! A16   A(11,3,18)            109.1144         estimate D2E/DX2                !
 ! A17   A(11,3,19)            109.4878         estimate D2E/DX2                !
 ! A18   A(18,3,19)            107.4301         estimate D2E/DX2                !
 ! A19   A(2,4,11)             113.4919         estimate D2E/DX2                !
 ! A20   A(6,5,10)             113.5837         estimate D2E/DX2                !
 ! A21   A(5,6,8)              110.8105         estimate D2E/DX2                !
 ! A22   A(5,6,20)             109.095          estimate D2E/DX2                !
 ! A23   A(5,6,21)             106.1168         estimate D2E/DX2                !
 ! A24   A(8,6,20)             110.653          estimate D2E/DX2                !
 ! A25   A(8,6,21)             111.7585         estimate D2E/DX2                !
 ! A26   A(20,6,21)            108.2548         estimate D2E/DX2                !
 ! A27   A(10,7,12)            122.9367         estimate D2E/DX2                !
 ! A28   A(1,8,6)              110.1263         estimate D2E/DX2                !
 ! A29   A(1,8,22)             109.9417         estimate D2E/DX2                !
 ! A30   A(1,8,23)             110.901          estimate D2E/DX2                !
 ! A31   A(6,8,22)             109.054          estimate D2E/DX2                !
 ! A32   A(6,8,23)             109.2434         estimate D2E/DX2                !
 ! A33   A(22,8,23)            107.5164         estimate D2E/DX2                !
 ! A34   A(3,9,12)             110.2866         estimate D2E/DX2                !
 ! A35   A(3,9,24)             110.076          estimate D2E/DX2                !
 ! A36   A(3,9,25)             110.6168         estimate D2E/DX2                !
 ! A37   A(12,9,24)            108.5204         estimate D2E/DX2                !
 ! A38   A(12,9,25)            109.7555         estimate D2E/DX2                !
 ! A39   A(24,9,25)            107.5194         estimate D2E/DX2                !
 ! A40   A(5,10,7)             107.8878         estimate D2E/DX2                !
 ! A41   A(5,10,13)            110.4593         estimate D2E/DX2                !
 ! A42   A(5,10,26)            108.4592         estimate D2E/DX2                !
 ! A43   A(7,10,13)            108.6827         estimate D2E/DX2                !
 ! A44   A(7,10,26)            111.1764         estimate D2E/DX2                !
 ! A45   A(13,10,26)           110.1531         estimate D2E/DX2                !
 ! A46   A(3,11,4)             110.712          estimate D2E/DX2                !
 ! A47   A(3,11,27)            111.5866         estimate D2E/DX2                !
 ! A48   A(3,11,28)            110.7275         estimate D2E/DX2                !
 ! A49   A(4,11,27)            106.3031         estimate D2E/DX2                !
 ! A50   A(4,11,28)            108.9164         estimate D2E/DX2                !
 ! A51   A(27,11,28)           108.4496         estimate D2E/DX2                !
 ! A52   A(2,12,7)             115.7697         estimate D2E/DX2                !
 ! A53   A(2,12,9)             109.1343         estimate D2E/DX2                !
 ! A54   A(2,12,29)            107.3668         estimate D2E/DX2                !
 ! A55   A(7,12,9)             108.3037         estimate D2E/DX2                !
 ! A56   A(7,12,29)            106.4693         estimate D2E/DX2                !
 ! A57   A(9,12,29)            109.6721         estimate D2E/DX2                !
 ! A58   A(1,13,10)            110.3372         estimate D2E/DX2                !
 ! A59   A(1,13,30)            110.2873         estimate D2E/DX2                !
 ! A60   A(1,13,31)            110.935          estimate D2E/DX2                !
 ! A61   A(10,13,30)           108.2524         estimate D2E/DX2                !
 ! A62   A(10,13,31)           108.9979         estimate D2E/DX2                !
 ! A63   A(30,13,31)           107.9529         estimate D2E/DX2                !
 ! D1    D(13,1,8,6)            51.3838         estimate D2E/DX2                !
 ! D2    D(13,1,8,22)          -68.8034         estimate D2E/DX2                !
 ! D3    D(13,1,8,23)          172.4273         estimate D2E/DX2                !
 ! D4    D(14,1,8,6)           173.3824         estimate D2E/DX2                !
 ! D5    D(14,1,8,22)           53.1951         estimate D2E/DX2                !
 ! D6    D(14,1,8,23)          -65.5741         estimate D2E/DX2                !
 ! D7    D(15,1,8,6)           -69.0385         estimate D2E/DX2                !
 ! D8    D(15,1,8,22)          170.7742         estimate D2E/DX2                !
 ! D9    D(15,1,8,23)           52.005          estimate D2E/DX2                !
 ! D10   D(8,1,13,10)          -51.9074         estimate D2E/DX2                !
 ! D11   D(8,1,13,30)           67.6392         estimate D2E/DX2                !
 ! D12   D(8,1,13,31)         -172.8053         estimate D2E/DX2                !
 ! D13   D(14,1,13,10)        -174.3197         estimate D2E/DX2                !
 ! D14   D(14,1,13,30)         -54.773          estimate D2E/DX2                !
 ! D15   D(14,1,13,31)          64.7824         estimate D2E/DX2                !
 ! D16   D(15,1,13,10)          68.4965         estimate D2E/DX2                !
 ! D17   D(15,1,13,30)        -171.9569         estimate D2E/DX2                !
 ! D18   D(15,1,13,31)         -52.4014         estimate D2E/DX2                !
 ! D19   D(12,2,4,11)           64.1447         estimate D2E/DX2                !
 ! D20   D(16,2,4,11)          -57.4278         estimate D2E/DX2                !
 ! D21   D(17,2,4,11)         -174.9923         estimate D2E/DX2                !
 ! D22   D(4,2,12,7)           178.1275         estimate D2E/DX2                !
 ! D23   D(4,2,12,9)           -59.4183         estimate D2E/DX2                !
 ! D24   D(4,2,12,29)           59.3879         estimate D2E/DX2                !
 ! D25   D(16,2,12,7)          -61.7343         estimate D2E/DX2                !
 ! D26   D(16,2,12,9)           60.7199         estimate D2E/DX2                !
 ! D27   D(16,2,12,29)         179.5261         estimate D2E/DX2                !
 ! D28   D(17,2,12,7)           60.6467         estimate D2E/DX2                !
 ! D29   D(17,2,12,9)         -176.8992         estimate D2E/DX2                !
 ! D30   D(17,2,12,29)         -58.0929         estimate D2E/DX2                !
 ! D31   D(11,3,9,12)          -51.4712         estimate D2E/DX2                !
 ! D32   D(11,3,9,24)           68.2416         estimate D2E/DX2                !
 ! D33   D(11,3,9,25)         -173.0776         estimate D2E/DX2                !
 ! D34   D(18,3,9,12)           68.8914         estimate D2E/DX2                !
 ! D35   D(18,3,9,24)         -171.3958         estimate D2E/DX2                !
 ! D36   D(18,3,9,25)          -52.7151         estimate D2E/DX2                !
 ! D37   D(19,3,9,12)         -172.7284         estimate D2E/DX2                !
 ! D38   D(19,3,9,24)          -53.0156         estimate D2E/DX2                !
 ! D39   D(19,3,9,25)           65.6652         estimate D2E/DX2                !
 ! D40   D(9,3,11,4)            53.3233         estimate D2E/DX2                !
 ! D41   D(9,3,11,27)          171.5105         estimate D2E/DX2                !
 ! D42   D(9,3,11,28)          -67.5843         estimate D2E/DX2                !
 ! D43   D(18,3,11,4)          -67.4886         estimate D2E/DX2                !
 ! D44   D(18,3,11,27)          50.6986         estimate D2E/DX2                !
 ! D45   D(18,3,11,28)         171.6037         estimate D2E/DX2                !
 ! D46   D(19,3,11,4)          175.1936         estimate D2E/DX2                !
 ! D47   D(19,3,11,27)         -66.6192         estimate D2E/DX2                !
 ! D48   D(19,3,11,28)          54.286          estimate D2E/DX2                !
 ! D49   D(2,4,11,3)           -61.4237         estimate D2E/DX2                !
 ! D50   D(2,4,11,27)          177.2176         estimate D2E/DX2                !
 ! D51   D(2,4,11,28)           60.5518         estimate D2E/DX2                !
 ! D52   D(10,5,6,8)            61.1198         estimate D2E/DX2                !
 ! D53   D(10,5,6,20)          -60.9444         estimate D2E/DX2                !
 ! D54   D(10,5,6,21)         -177.3725         estimate D2E/DX2                !
 ! D55   D(6,5,10,7)           179.9665         estimate D2E/DX2                !
 ! D56   D(6,5,10,13)          -61.3694         estimate D2E/DX2                !
 ! D57   D(6,5,10,26)           59.4414         estimate D2E/DX2                !
 ! D58   D(5,6,8,1)            -54.9158         estimate D2E/DX2                !
 ! D59   D(5,6,8,22)            65.806          estimate D2E/DX2                !
 ! D60   D(5,6,8,23)          -176.9463         estimate D2E/DX2                !
 ! D61   D(20,6,8,1)            66.2331         estimate D2E/DX2                !
 ! D62   D(20,6,8,22)         -173.0451         estimate D2E/DX2                !
 ! D63   D(20,6,8,23)          -55.7974         estimate D2E/DX2                !
 ! D64   D(21,6,8,1)          -173.0443         estimate D2E/DX2                !
 ! D65   D(21,6,8,22)          -52.3225         estimate D2E/DX2                !
 ! D66   D(21,6,8,23)           64.9252         estimate D2E/DX2                !
 ! D67   D(12,7,10,5)          -78.7212         estimate D2E/DX2                !
 ! D68   D(12,7,10,13)         161.4859         estimate D2E/DX2                !
 ! D69   D(12,7,10,26)          40.0846         estimate D2E/DX2                !
 ! D70   D(10,7,12,2)           -3.2603         estimate D2E/DX2                !
 ! D71   D(10,7,12,9)         -126.1533         Frozen                          !
 ! D72   D(10,7,12,29)         115.972          estimate D2E/DX2                !
 ! D73   D(3,9,12,2)            54.4447         estimate D2E/DX2                !
 ! D74   D(3,9,12,7)          -178.7234         estimate D2E/DX2                !
 ! D75   D(3,9,12,29)          -62.9141         estimate D2E/DX2                !
 ! D76   D(24,9,12,2)          -66.2047         estimate D2E/DX2                !
 ! D77   D(24,9,12,7)           60.6272         estimate D2E/DX2                !
 ! D78   D(24,9,12,29)         176.4364         estimate D2E/DX2                !
 ! D79   D(25,9,12,2)          176.5606         estimate D2E/DX2                !
 ! D80   D(25,9,12,7)          -56.6075         estimate D2E/DX2                !
 ! D81   D(25,9,12,29)          59.2018         estimate D2E/DX2                !
 ! D82   D(5,10,13,1)           55.7851         estimate D2E/DX2                !
 ! D83   D(5,10,13,30)         -64.9861         estimate D2E/DX2                !
 ! D84   D(5,10,13,31)         177.8327         estimate D2E/DX2                !
 ! D85   D(7,10,13,1)          173.9637         estimate D2E/DX2                !
 ! D86   D(7,10,13,30)          53.1926         estimate D2E/DX2                !
 ! D87   D(7,10,13,31)         -63.9886         estimate D2E/DX2                !
 ! D88   D(26,10,13,1)         -64.0104         estimate D2E/DX2                !
 ! D89   D(26,10,13,30)        175.2185         estimate D2E/DX2                !
 ! D90   D(26,10,13,31)         58.0372         estimate D2E/DX2                !
 --------------------------------------------------------------------------------
 Trust Radius=3.00D-01 FncErr=1.00D-07 GrdErr=1.00D-06 EigMax=2.50D+02 EigMin=1.00D-04
 Number of steps in this run=    186 maximum allowed number of steps=    186.
 GradGradGradGradGradGradGradGradGradGradGradGradGradGradGradGradGradGrad

                          Input orientation:                          
 ---------------------------------------------------------------------
 Center     Atomic      Atomic             Coordinates (Angstroms)
 Number     Number       Type             X           Y           Z
 ---------------------------------------------------------------------
      1          6           0       -3.458538    0.757711    0.808482
      2          6           0        1.420526   -0.982707    0.253965
      3          6           0        3.679910    0.756447   -0.122106
      4          8           0        2.743502   -1.457611    0.122695
      5          8           0       -1.605709   -0.753571   -0.746614
      6          6           0       -2.725435   -1.417080   -0.182461
      7          8           0       -0.033414    0.864932   -0.609845
      8          6           0       -3.892207   -0.457756   -0.012015
      9          6           0        2.261204    1.329612   -0.120924
     10          6           0       -1.118501    0.304696    0.046936
     11          6           0        3.717692   -0.562980    0.630534
     12          6           0        1.266458    0.278861   -0.599004
     13          6           0       -2.184071    1.370588    0.221782
     14          1           0       -4.248124    1.501714    0.837882
     15          1           0       -3.272540    0.451736    1.836008
     16          1           0        1.219291   -0.779385    1.301135
     17          1           0        0.772667   -1.778419   -0.080687
     18          1           0        4.011286    0.592735   -1.144330
     19          1           0        4.373088    1.455084    0.336565
     20          1           0       -2.439191   -1.846942    0.774849
     21          1           0       -2.966866   -2.225626   -0.858069
     22          1           0       -4.236176   -0.139329   -0.993114
     23          1           0       -4.715323   -0.977254    0.470307
     24          1           0        1.983192    1.636203    0.885032
     25          1           0        2.202802    2.206804   -0.757775
     26          1           0       -0.828565   -0.094978    1.011278
     27          1           0        4.672391   -1.057979    0.517956
     28          1           0        3.534025   -0.406596    1.690955
     29          1           0        1.488894    0.005469   -1.624214
     30          1           0       -2.390029    1.808824   -0.751166
     31          1           0       -1.798073    2.153586    0.866370
 ---------------------------------------------------------------------
                    Distance matrix (angstroms):
                    1          2          3          4          5
     1  C    0.000000
     2  C    5.209780   0.000000
     3  C    7.198850   2.875918   0.000000
     4  O    6.621424   1.411748   2.416369   0.000000
     5  O    2.852240   3.195584   5.532444   4.490769   0.000000
     6  C    2.499825   4.191437   6.764341   5.477594   1.418555
     7  O    3.708722   2.504771   3.746790   3.693519   2.260613
     8  C    1.529263   5.345227   7.669639   6.711966   2.419755
     9  C    5.822913   2.488795   1.530113   2.839115   4.436683
    10  C    2.502189   2.854282   4.822593   4.245766   1.409618
    11  C    7.298915   2.365364   1.519468   1.416796   5.501951
    12  C    4.953373   1.530636   2.506047   2.391201   3.055658
    13  C    1.531046   4.304899   5.906073   5.682385   2.405067
    14  H    1.085288   6.216663   8.020644   7.625741   3.818284
    15  H    1.088129   5.156099   7.229358   6.540169   3.301670
    16  H    4.948480   1.085542   3.230950   2.042530   3.489207
    17  H    5.012552   1.079292   3.857373   2.007106   2.674032
    18  H    7.722627   3.339054   1.086993   2.723334   5.789763
    19  H    7.876763   3.829787   1.085803   3.344411   6.465095
    20  H    2.797216   3.989441   6.710109   5.238052   2.050610
    21  H    3.452453   4.693685   7.322160   5.844660   2.008013
    22  H    2.157580   5.853612   8.014081   7.190188   2.712455
    23  H    2.168865   6.139664   8.592823   7.482356   3.346734
    24  H    5.512716   2.752004   2.160359   3.275807   4.610152
    25  H    6.050108   3.436358   2.165516   3.807298   4.823764
    26  H    2.772177   2.533771   4.726080   3.925049   2.031719
    27  H    8.336255   3.263431   2.164911   2.009117   6.411423
    28  H    7.143550   2.619871   2.158968   2.046704   5.699035
    29  H    5.564257   2.123375   2.760588   2.601218   3.304980
    30  H    2.163112   4.829416   6.192526   6.147062   2.679748
    31  H    2.170014   4.535499   5.739110   5.849761   3.330208
                    6          7          8          9         10
     6  C    0.000000
     7  O    3.554886   0.000000
     8  C    1.520102   4.122765   0.000000
     9  C    5.693388   2.391703   6.408667   0.000000
    10  C    2.366299   1.386593   2.877195   3.535680   0.000000
    11  C    6.550140   4.200984   7.637703   2.503588   4.947950
    12  C    4.357170   1.425926   5.243947   1.523863   2.471019
    13  C    2.868376   2.360639   2.513012   4.458654   1.517279
    14  H    3.446598   4.501687   2.165300   6.581814   3.442817
    15  H    2.804642   4.079812   2.150896   5.934861   2.803976
    16  H    4.262461   2.815119   5.287270   2.748764   2.865924
    17  H    3.518187   2.813730   4.848703   3.446334   2.816411
    18  H    7.095630   4.088932   8.053004   2.157113   5.274163
    19  H    7.675138   4.545463   8.490911   2.164508   5.618258
    20  H    1.087731   3.880644   2.158761   5.743398   2.627475
    21  H    1.080963   4.268291   2.167355   6.365204   3.261597
    22  H    2.138257   4.338046   1.087320   6.718218   3.316438
    23  H    2.139908   5.145935   1.086293   7.371778   3.841844
    24  H    5.712552   2.626065   6.301561   1.087767   3.477904
    25  H    6.144188   2.612119   6.693667   1.085567   3.911090
    26  H    2.602130   2.044928   3.250329   3.585807   1.083401
    27  H    7.439581   5.207122   8.601946   3.452909   5.967677
    28  H    6.611475   4.431375   7.619163   2.813787   4.985452
    29  H    4.675774   2.021149   5.636489   2.147021   3.111396
    30  H    3.292777   2.542546   2.817848   4.718137   2.125124
    31  H    3.835323   2.637017   3.460645   4.258100   2.133468
                   11         12         13         14         15
    11  C    0.000000
    12  C    2.868625   0.000000
    13  C    6.223871   3.711025   0.000000
    14  H    8.231657   5.828433   2.158029   0.000000
    15  H    7.165623   5.153802   2.152854   1.746560   0.000000
    16  H    2.595871   2.175463   4.167764   5.942276   4.688101
    17  H    3.264399   2.178275   4.330131   6.067239   5.001101
    18  H    2.138227   2.816022   6.391695   8.542439   7.871240
    19  H    2.142089   3.451078   6.558708   8.635901   7.855614
    20  H    6.290993   4.487577   3.274671   3.806535   2.665417
    21  H    7.047244   4.925505   3.835571   4.290797   3.810480
    22  H    8.128944   5.532557   2.822580   2.458803   3.046618
    23  H    8.444705   6.205075   3.461411   2.549249   2.447197
    24  H    2.812413   2.135052   4.228065   6.232945   5.470835
    25  H    3.448767   2.149166   4.572028   6.682643   6.307721
    26  H    4.586114   2.668686   2.146761   3.777946   2.636682
    27  H    1.081271   3.825588   7.279885   9.286009   8.193804
    28  H    1.087512   3.294787   6.165507   8.057991   6.862004
    29  H    3.220957   1.084102   4.331504   6.419816   5.902842
    30  H    6.696178   3.966590   1.086783   2.464124   3.051882
    31  H    6.152968   3.879854   1.085161   2.535448   2.451641
                   16         17         18         19         20
    16  H    0.000000
    17  H    1.762661   0.000000
    18  H    3.957050   4.152392   0.000000
    19  H    3.983677   4.857229   1.751456   0.000000
    20  H    3.847226   3.324555   7.158486   7.583048   0.000000
    21  H    4.927239   3.845572   7.531249   8.297572   1.757346
    22  H    5.952762   5.348612   8.281269   8.856050   3.044797
    23  H    5.995754   5.573463   9.012526   9.409217   2.455581
    24  H    2.567441   3.749350   3.052917   2.458704   5.630445
    25  H    3.758155   4.287859   2.454640   2.544171   6.350582
    26  H    2.178565   2.567159   5.342635   5.469472   2.391525
    27  H    3.551744   4.010643   2.434155   2.537316   7.159822
    28  H    2.376747   3.556081   3.043892   2.450357   6.212339
    29  H    3.040781   2.465302   2.633938   3.776852   4.961530
    30  H    4.892643   4.829130   6.527655   6.859158   3.961788
    31  H    4.230346   4.792315   6.342541   6.233123   4.052608
                   21         22         23         24         25
    21  H    0.000000
    22  H    2.445817   0.000000
    23  H    2.525889   1.753083   0.000000
    24  H    6.515765   6.735019   7.202240   0.000000
    25  H    6.810430   6.857125   7.714069   1.752892   0.000000
    26  H    3.550556   3.953652   4.022182   3.304376   4.197253
    27  H    7.849528   9.082390   9.388182   3.824285   4.287793
    28  H    7.215814   8.225064   8.358671   2.688424   3.820771
    29  H    5.041682   5.761569   6.621561   3.033140   2.471084
    30  H    4.076881   2.694828   3.828997   4.672473   4.610046
    31  H    4.849460   3.828771   4.297601   3.816543   4.318296
                   26         27         28         29         30
    26  H    0.000000
    27  H    5.606358   0.000000
    28  H    4.426201   1.759575   0.000000
    29  H    3.510915   3.981767   3.916976   0.000000
    30  H    3.028009   7.727031   6.779857   4.365816   0.000000
    31  H    2.452954   7.232043   5.972080   4.649900   1.756615
                   31
    31  H    0.000000
 Stoichiometry    C10H18O3
 Framework group  C1[X(C10H18O3)]
 Deg. of freedom    87
 Full point group                 C1      NOp   1
 Largest Abelian subgroup         C1      NOp   1
 Largest concise Abelian subgroup C1      NOp   1
                         Standard orientation:                         
 ---------------------------------------------------------------------
 Center     Atomic      Atomic             Coordinates (Angstroms)
 Number     Number       Type             X           Y           Z
 ---------------------------------------------------------------------
      1          6           0        3.458538   -0.757711    0.808482
      2          6           0       -1.420526    0.982707    0.253965
      3          6           0       -3.679910   -0.756447   -0.122106
      4          8           0       -2.743502    1.457611    0.122695
      5          8           0        1.605709    0.753571   -0.746614
      6          6           0        2.725435    1.417080   -0.182461
      7          8           0        0.033414   -0.864932   -0.609845
      8          6           0        3.892207    0.457756   -0.012015
      9          6           0       -2.261204   -1.329612   -0.120924
     10          6           0        1.118501   -0.304696    0.046936
     11          6           0       -3.717692    0.562980    0.630534
     12          6           0       -1.266458   -0.278861   -0.599004
     13          6           0        2.184071   -1.370588    0.221782
     14          1           0        4.248124   -1.501714    0.837882
     15          1           0        3.272540   -0.451736    1.836008
     16          1           0       -1.219291    0.779385    1.301135
     17          1           0       -0.772667    1.778419   -0.080687
     18          1           0       -4.011286   -0.592735   -1.144330
     19          1           0       -4.373088   -1.455084    0.336565
     20          1           0        2.439191    1.846942    0.774849
     21          1           0        2.966866    2.225626   -0.858069
     22          1           0        4.236176    0.139329   -0.993114
     23          1           0        4.715323    0.977254    0.470307
     24          1           0       -1.983192   -1.636203    0.885032
     25          1           0       -2.202802   -2.206804   -0.757775
     26          1           0        0.828565    0.094978    1.011278
     27          1           0       -4.672391    1.057979    0.517956
     28          1           0       -3.534025    0.406596    1.690955
     29          1           0       -1.488894   -0.005469   -1.624214
     30          1           0        2.390029   -1.808824   -0.751166
     31          1           0        1.798073   -2.153586    0.866370
 ---------------------------------------------------------------------
 Rotational constants (GHZ):           2.0629965           0.3851061           0.3484285
 Standard basis: 6-311++G(2d,2p) (5D, 7F)
 There are   557 symmetry adapted cartesian basis functions of A   symmetry.
 There are   531 symmetry adapted basis functions of A   symmetry.
   531 basis functions,   762 primitive gaussians,   557 cartesian basis functions
    51 alpha electrons       51 beta electrons
       nuclear repulsion energy       884.1019694593 Hartrees.
 NAtoms=   31 NActive=   31 NUniq=   31 SFac= 1.00D+00 NAtFMM=   60 NAOKFM=F Big=F
 Integral buffers will be    131072 words long.
 Raffenetti 2 integral format.
 Two-electron integral symmetry is turned on.
 ------------------------------------------------------------------------------
 Polarizable Continuum Model (PCM)
 =================================
 Model                : PCM.
 Atomic radii         : SMD-Coulomb.
 Polarization charges : Total charges.
 Charge compensation  : None.
 Solution method      : On-the-fly selection.
 Cavity type          : VdW (van der Waals Surface) (Alpha=1.000).
 Cavity algorithm     : GePol (No added spheres)
                        Default sphere list used, NSphG=   31.
                        Lebedev-Laikov grids with approx.  5.0 points / Ang**2.
                        Smoothing algorithm: York/Karplus (Gamma=1.0000).
                        Polarization charges: spherical gaussians, with
                                              point-specific exponents (IZeta= 3).
                        Self-potential: point-specific (ISelfS= 7).
                        Self-field    : sphere-specific E.n sum rule (ISelfD= 2).
 1st derivatives      : Analytical E(r).r(x)/FMM algorithm (CHGder, D1EAlg=3).
                        Cavity 1st derivative terms included.
 Solvent              : Water, Eps=  78.355300 Eps(inf)=   1.777849
 ------------------------------------------------------------------------------
 ------------------------------------------------------------------------------
 Atomic radii for non-electrostatic terms: SMD-CDS.
 ------------------------------------------------------------------------------
 Nuclear repulsion after PCM non-electrostatic terms =      884.1082794143 Hartrees.
 One-electron integrals computed using PRISM.
 NBasis=   531 RedAO= T EigKep=  5.43D-06  NBF=   531
 NBsUse=   531 1.00D-06 EigRej= -1.00D+00 NBFU=   531
 ExpMin= 3.60D-02 ExpMax= 8.59D+03 ExpMxC= 1.30D+03 IAcc=3 IRadAn=         5 AccDes= 0.00D+00
 Harris functional with IExCor= 1009 and IRadAn=       5 diagonalized for initial guess.
 HarFok:  IExCor= 1009 AccDes= 0.00D+00 IRadAn=         5 IDoV= 1 UseB2=F ITyADJ=14
 ICtDFT=  3500011 ScaDFX=  1.000000  1.000000  1.000000  1.000000
 FoFCou: FMM=F IPFlag=           0 FMFlag=      100000 FMFlg1=           0
         NFxFlg=           0 DoJE=T BraDBF=F KetDBF=T FulRan=T
         wScrn=  0.000000 ICntrl=       500 IOpCl=  0 I1Cent=   200000004 NGrid=           0
         NMat0=    1 NMatS0=      1 NMatT0=    0 NMatD0=    1 NMtDS0=    0 NMtDT0=    0
 Petite list used in FoFCou.
 Requested convergence on RMS density matrix=1.00D-08 within 128 cycles.
 Requested convergence on MAX density matrix=1.00D-06.
 Requested convergence on             energy=1.00D-06.
 No special actions if energy rises.
 Inv3:  Mode=1 IEnd=    12204867.
 Iteration    1 A*A^-1 deviation from unit magnitude is 6.22D-15 for    231.
 Iteration    1 A*A^-1 deviation from orthogonality  is 4.08D-15 for   1764    251.
 Iteration    1 A^-1*A deviation from unit magnitude is 4.66D-15 for   2015.
 Iteration    1 A^-1*A deviation from orthogonality  is 2.76D-15 for   2015    658.
 Error on total polarization charges =  0.06297
 SCF Done:  E(RM062X) =  -617.499790396     A.U. after   12 cycles
            NFock= 12  Conv=0.51D-08     -V/T= 2.0035
 SMD-CDS (non-electrostatic) energy       (kcal/mol) =       3.96
 (included in total energy above)

 **********************************************************************

            Population analysis using the SCF Density.

 **********************************************************************

 Orbital symmetries:
       Occupied  (A) (A) (A) (A) (A) (A) (A) (A) (A) (A) (A) (A)
                 (A) (A) (A) (A) (A) (A) (A) (A) (A) (A) (A) (A)
                 (A) (A) (A) (A) (A) (A) (A) (A) (A) (A) (A) (A)
                 (A) (A) (A) (A) (A) (A) (A) (A) (A) (A) (A) (A)
                 (A) (A) (A)
       Virtual   (A) (A) (A) (A) (A) (A) (A) (A) (A) (A) (A) (A)
                 (A) (A) (A) (A) (A) (A) (A) (A) (A) (A) (A) (A)
                 (A) (A) (A) (A) (A) (A) (A) (A) (A) (A) (A) (A)
                 (A) (A) (A) (A) (A) (A) (A) (A) (A) (A) (A) (A)
                 (A) (A) (A) (A) (A) (A) (A) (A) (A) (A) (A) (A)
                 (A) (A) (A) (A) (A) (A) (A) (A) (A) (A) (A) (A)
                 (A) (A) (A) (A) (A) (A) (A) (A) (A) (A) (A) (A)
                 (A) (A) (A) (A) (A) (A) (A) (A) (A) (A) (A) (A)
                 (A) (A) (A) (A) (A) (A) (A) (A) (A) (A) (A) (A)
                 (A) (A) (A) (A) (A) (A) (A) (A) (A) (A) (A) (A)
                 (A) (A) (A) (A) (A) (A) (A) (A) (A) (A) (A) (A)
                 (A) (A) (A) (A) (A) (A) (A) (A) (A) (A) (A) (A)
                 (A) (A) (A) (A) (A) (A) (A) (A) (A) (A) (A) (A)
                 (A) (A) (A) (A) (A) (A) (A) (A) (A) (A) (A) (A)
                 (A) (A) (A) (A) (A) (A) (A) (A) (A) (A) (A) (A)
                 (A) (A) (A) (A) (A) (A) (A) (A) (A) (A) (A) (A)
                 (A) (A) (A) (A) (A) (A) (A) (A) (A) (A) (A) (A)
                 (A) (A) (A) (A) (A) (A) (A) (A) (A) (A) (A) (A)
                 (A) (A) (A) (A) (A) (A) (A) (A) (A) (A) (A) (A)
                 (A) (A) (A) (A) (A) (A) (A) (A) (A) (A) (A) (A)
                 (A) (A) (A) (A) (A) (A) (A) (A) (A) (A) (A) (A)
                 (A) (A) (A) (A) (A) (A) (A) (A) (A) (A) (A) (A)
                 (A) (A) (A) (A) (A) (A) (A) (A) (A) (A) (A) (A)
                 (A) (A) (A) (A) (A) (A) (A) (A) (A) (A) (A) (A)
                 (A) (A) (A) (A) (A) (A) (A) (A) (A) (A) (A) (A)
                 (A) (A) (A) (A) (A) (A) (A) (A) (A) (A) (A) (A)
                 (A) (A) (A) (A) (A) (A) (A) (A) (A) (A) (A) (A)
                 (A) (A) (A) (A) (A) (A) (A) (A) (A) (A) (A) (A)
                 (A) (A) (A) (A) (A) (A) (A) (A) (A) (A) (A) (A)
                 (A) (A) (A) (A) (A) (A) (A) (A) (A) (A) (A) (A)
                 (A) (A) (A) (A) (A) (A) (A) (A) (A) (A) (A) (A)
                 (A) (A) (A) (A) (A) (A) (A) (A) (A) (A) (A) (A)
                 (A) (A) (A) (A) (A) (A) (A) (A) (A) (A) (A) (A)
                 (A) (A) (A) (A) (A) (A) (A) (A) (A) (A) (A) (A)
                 (A) (A) (A) (A) (A) (A) (A) (A) (A) (A) (A) (A)
                 (A) (A) (A) (A) (A) (A) (A) (A) (A) (A) (A) (A)
                 (A) (A) (A) (A) (A) (A) (A) (A) (A) (A) (A) (A)
                 (A) (A) (A) (A) (A) (A) (A) (A) (A) (A) (A) (A)
                 (A) (A) (A) (A) (A) (A) (A) (A) (A) (A) (A) (A)
                 (A) (A) (A) (A) (A) (A) (A) (A) (A) (A) (A) (A)
 The electronic state is 1-A.
 Alpha  occ. eigenvalues --  -19.63368 -19.63052 -19.62730 -10.63235 -10.58503
 Alpha  occ. eigenvalues --  -10.57616 -10.57297 -10.57226 -10.52434 -10.52397
 Alpha  occ. eigenvalues --  -10.52358 -10.52281 -10.52106  -1.20272  -1.16833
 Alpha  occ. eigenvalues --   -1.13895  -0.90526  -0.89388  -0.86898  -0.84122
 Alpha  occ. eigenvalues --   -0.75192  -0.73821  -0.72577  -0.69588  -0.65779
 Alpha  occ. eigenvalues --   -0.64788  -0.60141  -0.57781  -0.57318  -0.55416
 Alpha  occ. eigenvalues --   -0.54349  -0.52621  -0.51976  -0.50991  -0.49992
 Alpha  occ. eigenvalues --   -0.48400  -0.47150  -0.45383  -0.45249  -0.44001
 Alpha  occ. eigenvalues --   -0.42532  -0.41799  -0.40322  -0.39706  -0.39495
 Alpha  occ. eigenvalues --   -0.38756  -0.37288  -0.37182  -0.34118  -0.32736
 Alpha  occ. eigenvalues --   -0.31871
 Alpha virt. eigenvalues --    0.00450   0.01265   0.01354   0.01582   0.02581
 Alpha virt. eigenvalues --    0.02890   0.02956   0.04071   0.04131   0.04767
 Alpha virt. eigenvalues --    0.04871   0.05143   0.06009   0.06130   0.07496
 Alpha virt. eigenvalues --    0.07649   0.07847   0.08620   0.09517   0.10084
 Alpha virt. eigenvalues --    0.10778   0.11254   0.11596   0.12010   0.12561
 Alpha virt. eigenvalues --    0.12584   0.13020   0.13320   0.13511   0.13866
 Alpha virt. eigenvalues --    0.13904   0.14286   0.14596   0.15211   0.15267
 Alpha virt. eigenvalues --    0.15503   0.15681   0.16033   0.16586   0.16831
 Alpha virt. eigenvalues --    0.17069   0.17374   0.17746   0.18035   0.18328
 Alpha virt. eigenvalues --    0.18453   0.19123   0.19371   0.19619   0.19997
 Alpha virt. eigenvalues --    0.20140   0.20447   0.20701   0.20996   0.22046
 Alpha virt. eigenvalues --    0.22155   0.22895   0.23474   0.24138   0.24659
 Alpha virt. eigenvalues --    0.25918   0.26577   0.26688   0.26843   0.27215
 Alpha virt. eigenvalues --    0.27758   0.28454   0.29096   0.29267   0.29853
 Alpha virt. eigenvalues --    0.30184   0.31180   0.31837   0.32149   0.32345
 Alpha virt. eigenvalues --    0.32778   0.33175   0.33587   0.33977   0.34751
 Alpha virt. eigenvalues --    0.35114   0.35597   0.35712   0.36207   0.36499
 Alpha virt. eigenvalues --    0.37009   0.37326   0.37531   0.37856   0.38165
 Alpha virt. eigenvalues --    0.39030   0.39367   0.40129   0.41127   0.41686
 Alpha virt. eigenvalues --    0.42134   0.42670   0.42927   0.44332   0.45211
 Alpha virt. eigenvalues --    0.46645   0.48103   0.49914   0.50455   0.50767
 Alpha virt. eigenvalues --    0.52270   0.52518   0.53767   0.54300   0.55496
 Alpha virt. eigenvalues --    0.56880   0.57767   0.58518   0.59259   0.59770
 Alpha virt. eigenvalues --    0.60638   0.60706   0.61293   0.62116   0.62299
 Alpha virt. eigenvalues --    0.62395   0.62651   0.63346   0.63523   0.64059
 Alpha virt. eigenvalues --    0.64758   0.65786   0.65985   0.66796   0.67421
 Alpha virt. eigenvalues --    0.68572   0.68972   0.69569   0.70723   0.70819
 Alpha virt. eigenvalues --    0.71804   0.72591   0.72986   0.73258   0.73471
 Alpha virt. eigenvalues --    0.74097   0.74839   0.75118   0.75458   0.76372
 Alpha virt. eigenvalues --    0.76766   0.77347   0.78369   0.78956   0.79961
 Alpha virt. eigenvalues --    0.80744   0.82223   0.83887   0.85167   0.86054
 Alpha virt. eigenvalues --    0.86483   0.88183   0.89231   0.90036   0.90243
 Alpha virt. eigenvalues --    0.91332   0.91783   0.92647   0.94282   0.95879
 Alpha virt. eigenvalues --    0.96934   0.97917   1.00127   1.00929   1.03042
 Alpha virt. eigenvalues --    1.03575   1.04389   1.05281   1.06269   1.07222
 Alpha virt. eigenvalues --    1.07813   1.08860   1.10217   1.11407   1.12088
 Alpha virt. eigenvalues --    1.13201   1.13752   1.14024   1.14811   1.16279
 Alpha virt. eigenvalues --    1.17566   1.18604   1.18972   1.19743   1.20303
 Alpha virt. eigenvalues --    1.20897   1.21986   1.22895   1.23991   1.24246
 Alpha virt. eigenvalues --    1.24874   1.25658   1.26120   1.26456   1.27878
 Alpha virt. eigenvalues --    1.29109   1.29610   1.30071   1.31127   1.31197
 Alpha virt. eigenvalues --    1.32327   1.33412   1.33844   1.34029   1.34805
 Alpha virt. eigenvalues --    1.35602   1.36352   1.36487   1.36901   1.38049
 Alpha virt. eigenvalues --    1.38650   1.39402   1.41004   1.41177   1.41801
 Alpha virt. eigenvalues --    1.42880   1.43325   1.44016   1.44796   1.46299
 Alpha virt. eigenvalues --    1.46350   1.46863   1.47323   1.47452   1.48983
 Alpha virt. eigenvalues --    1.49648   1.50400   1.51076   1.52344   1.53054
 Alpha virt. eigenvalues --    1.53306   1.53797   1.54565   1.55486   1.55948
 Alpha virt. eigenvalues --    1.56375   1.57476   1.57855   1.58453   1.59202
 Alpha virt. eigenvalues --    1.59894   1.60639   1.61532   1.62320   1.63317
 Alpha virt. eigenvalues --    1.64299   1.64691   1.65411   1.66115   1.66967
 Alpha virt. eigenvalues --    1.67233   1.68081   1.70428   1.70707   1.71996
 Alpha virt. eigenvalues --    1.74292   1.74642   1.77343   1.77854   1.79230
 Alpha virt. eigenvalues --    1.79413   1.80429   1.80984   1.82449   1.83416
 Alpha virt. eigenvalues --    1.86001   1.86186   1.90762   1.96985   1.97906
 Alpha virt. eigenvalues --    1.99917   2.08262   2.12327   2.15593   2.19697
 Alpha virt. eigenvalues --    2.23545   2.26193   2.33059   2.34743   2.38072
 Alpha virt. eigenvalues --    2.42666   2.44971   2.46220   2.49995   2.52897
 Alpha virt. eigenvalues --    2.59277   2.75860   2.77272   2.79477   2.80172
 Alpha virt. eigenvalues --    2.88533   2.89351   2.92117   2.93956   2.96482
 Alpha virt. eigenvalues --    2.97682   2.98405   3.01240   3.03524   3.04292
 Alpha virt. eigenvalues --    3.07483   3.07909   3.08889   3.10140   3.11918
 Alpha virt. eigenvalues --    3.13370   3.15120   3.16031   3.18287   3.20046
 Alpha virt. eigenvalues --    3.25643   3.26839   3.32248   3.34111   3.35594
 Alpha virt. eigenvalues --    3.36470   3.37778   3.39922   3.40746   3.41845
 Alpha virt. eigenvalues --    3.43224   3.44172   3.45041   3.46753   3.47436
 Alpha virt. eigenvalues --    3.48404   3.48531   3.49098   3.51768   3.52414
 Alpha virt. eigenvalues --    3.53562   3.53952   3.55168   3.55483   3.56467
 Alpha virt. eigenvalues --    3.57514   3.58236   3.58957   3.60170   3.60524
 Alpha virt. eigenvalues --    3.61747   3.62064   3.63062   3.64190   3.65478
 Alpha virt. eigenvalues --    3.66598   3.67518   3.68259   3.69034   3.70649
 Alpha virt. eigenvalues --    3.71209   3.71606   3.71864   3.73294   3.74323
 Alpha virt. eigenvalues --    3.74839   3.76056   3.76759   3.77252   3.78702
 Alpha virt. eigenvalues --    3.79367   3.80447   3.81067   3.82731   3.83866
 Alpha virt. eigenvalues --    3.85101   3.87916   3.89132   3.90289   3.90955
 Alpha virt. eigenvalues --    3.93271   3.93925   3.95027   3.96212   3.99832
 Alpha virt. eigenvalues --    4.00580   4.03029   4.03762   4.04638   4.05048
 Alpha virt. eigenvalues --    4.05504   4.06158   4.07283   4.07585   4.07872
 Alpha virt. eigenvalues --    4.08912   4.10717   4.12086   4.12440   4.12561
 Alpha virt. eigenvalues --    4.13148   4.13699   4.14728   4.15633   4.16662
 Alpha virt. eigenvalues --    4.17526   4.17836   4.19006   4.20903   4.21965
 Alpha virt. eigenvalues --    4.22916   4.23514   4.26189   4.27435   4.28505
 Alpha virt. eigenvalues --    4.28894   4.31467   4.31911   4.32118   4.32881
 Alpha virt. eigenvalues --    4.34199   4.35396   4.36507   4.36934   4.39474
 Alpha virt. eigenvalues --    4.40456   4.44450   4.45821   4.46829   4.57839
 Alpha virt. eigenvalues --    4.58946   4.62068   4.77005   4.77545   4.83077
 Alpha virt. eigenvalues --    4.89110   4.92894   4.93893   4.99089   5.00546
 Alpha virt. eigenvalues --    5.06715   5.07608   5.08333   5.09236   5.12673
 Alpha virt. eigenvalues --    5.13149   5.14359   5.15448   5.30897   5.36279
 Alpha virt. eigenvalues --    5.37778   5.56166   5.59361   5.63314   5.86409
 Alpha virt. eigenvalues --    5.90788   6.02710   7.01928   7.05505   7.05970
 Alpha virt. eigenvalues --    7.08696   7.10229   7.12641   7.15167   7.17733
 Alpha virt. eigenvalues --    7.25995   7.35839   7.41843   7.44899   7.53489
 Alpha virt. eigenvalues --    7.55910   7.60942  23.95539  23.97888  24.07511
 Alpha virt. eigenvalues --   24.08649  24.12053  24.12603  24.14786  24.15815
 Alpha virt. eigenvalues --   24.17386  24.18055  50.18572  50.19308  50.24604
          Condensed to atoms (all electrons):
               1          2          3          4          5          6
     1  C    5.669490  -0.010528  -0.003248  -0.000136   0.023868  -0.030828
     2  C   -0.010528   6.076064  -0.048752   0.160544  -0.056561   0.064887
     3  C   -0.003248  -0.048752   5.624355  -0.024968  -0.003131   0.006384
     4  O   -0.000136   0.160544  -0.024968   8.424162  -0.001425  -0.001387
     5  O    0.023868  -0.056561  -0.003131  -0.001425   8.398468   0.018362
     6  C   -0.030828   0.064887   0.006384  -0.001387   0.018362   5.547355
     7  O    0.034148   0.059849  -0.006894   0.005095   0.016379  -0.014881
     8  C   -0.032573  -0.013767  -0.003972   0.000320  -0.047986  -0.095759
     9  C   -0.014958   0.435772  -0.165070  -0.026210   0.019646   0.004602
    10  C   -0.021601   0.197615  -0.060808  -0.006689   0.293953   0.047336
    11  C    0.000132  -0.160811   0.065693   0.057559  -0.000496  -0.002423
    12  C   -0.030563  -0.741963   0.177805   0.019813  -0.039389  -0.058816
    13  C    0.018402  -0.245575   0.019018   0.000772  -0.051182  -0.175339
    14  H    0.428088  -0.002510   0.000022   0.000003  -0.003084   0.003905
    15  H    0.531727  -0.000257   0.000310   0.000043   0.000171  -0.001788
    16  H    0.012891   0.341166   0.039838  -0.046871  -0.003227   0.001490
    17  H   -0.002652   0.431677   0.006646  -0.069012   0.016107   0.019334
    18  H   -0.000050  -0.000475   0.500237  -0.005182   0.000201  -0.000141
    19  H   -0.000135   0.002461   0.424995   0.007729   0.000044   0.000208
    20  H   -0.002348   0.000688   0.000110   0.000240  -0.030755   0.479655
    21  H    0.009372   0.004348   0.000148   0.000188  -0.069586   0.433144
    22  H   -0.005977  -0.001879   0.000092  -0.000019  -0.003515  -0.072369
    23  H   -0.060617   0.002609  -0.000085  -0.000004   0.007724  -0.032714
    24  H   -0.000467  -0.045399  -0.044443  -0.000087   0.000222  -0.001521
    25  H    0.000331   0.012316  -0.020204  -0.002444   0.000135  -0.000481
    26  H   -0.068546   0.002679  -0.009034   0.001868  -0.067157  -0.014375
    27  H   -0.000029   0.013082  -0.047174  -0.069678   0.000060  -0.000109
    28  H   -0.000238  -0.034987  -0.044877  -0.033104  -0.000285  -0.000144
    29  H   -0.001131  -0.078043   0.006636   0.001774  -0.012361  -0.005298
    30  H   -0.016926   0.000597  -0.000680   0.000168  -0.009811  -0.000296
    31  H   -0.025849   0.007735   0.000603   0.000067   0.006067   0.002909
               7          8          9         10         11         12
     1  C    0.034148  -0.032573  -0.014958  -0.021601   0.000132  -0.030563
     2  C    0.059849  -0.013767   0.435772   0.197615  -0.160811  -0.741963
     3  C   -0.006894  -0.003972  -0.165070  -0.060808   0.065693   0.177805
     4  O    0.005095   0.000320  -0.026210  -0.006689   0.057559   0.019813
     5  O    0.016379  -0.047986   0.019646   0.293953  -0.000496  -0.039389
     6  C   -0.014881  -0.095759   0.004602   0.047336  -0.002423  -0.058816
     7  O    8.550638   0.018822  -0.181753   0.121510   0.004899   0.181715
     8  C    0.018822   5.757819   0.007442  -0.004503   0.000174   0.000139
     9  C   -0.181753   0.007442   6.604138   0.157909  -0.153427  -1.058111
    10  C    0.121510  -0.004503   0.157909   7.101051   0.021406  -0.677984
    11  C    0.004899   0.000174  -0.153427   0.021406   5.416237   0.115752
    12  C    0.181715   0.000139  -1.058111  -0.677984   0.115752   7.372007
    13  C   -0.274996   0.063588  -0.051007  -1.551149  -0.009178   0.171821
    14  H   -0.002480  -0.024436  -0.000849   0.017472   0.000083  -0.001361
    15  H    0.000337  -0.079121   0.000835  -0.009870  -0.000414   0.001258
    16  H   -0.009630  -0.008993  -0.147308  -0.034617   0.003646   0.130410
    17  H   -0.006173  -0.013153   0.011613   0.009779   0.004270  -0.049425
    18  H    0.000864   0.000122  -0.013347  -0.007109  -0.083161  -0.017306
    19  H   -0.003762  -0.000062  -0.029339   0.000049  -0.034285  -0.003228
    20  H    0.003854  -0.058531   0.001532  -0.041960  -0.000911   0.001301
    21  H   -0.001937  -0.036991   0.000719   0.012152   0.000115  -0.004043
    22  H    0.002664   0.473392  -0.000915  -0.017575  -0.000035   0.006161
    23  H   -0.000083   0.454263   0.000203   0.019299   0.000054  -0.002877
    24  H    0.000255   0.000658   0.449389  -0.026332  -0.008786   0.049609
    25  H   -0.006610   0.000143   0.437298   0.013417   0.007181  -0.051828
    26  H   -0.020413   0.052813  -0.000158   0.437191   0.000863   0.069063
    27  H    0.000058   0.000001   0.003899  -0.000564   0.433181   0.008916
    28  H    0.001284   0.000036  -0.010172  -0.002210   0.473779   0.027155
    29  H   -0.051971   0.000733  -0.077265  -0.013794   0.010987   0.529229
    30  H    0.000473  -0.017259  -0.000624  -0.104388  -0.000192   0.002893
    31  H   -0.003368  -0.000337   0.007058   0.008811  -0.000396  -0.012110
              13         14         15         16         17         18
     1  C    0.018402   0.428088   0.531727   0.012891  -0.002652  -0.000050
     2  C   -0.245575  -0.002510  -0.000257   0.341166   0.431677  -0.000475
     3  C    0.019018   0.000022   0.000310   0.039838   0.006646   0.500237
     4  O    0.000772   0.000003   0.000043  -0.046871  -0.069012  -0.005182
     5  O   -0.051182  -0.003084   0.000171  -0.003227   0.016107   0.000201
     6  C   -0.175339   0.003905  -0.001788   0.001490   0.019334  -0.000141
     7  O   -0.274996  -0.002480   0.000337  -0.009630  -0.006173   0.000864
     8  C    0.063588  -0.024436  -0.079121  -0.008993  -0.013153   0.000122
     9  C   -0.051007  -0.000849   0.000835  -0.147308   0.011613  -0.013347
    10  C   -1.551149   0.017472  -0.009870  -0.034617   0.009779  -0.007109
    11  C   -0.009178   0.000083  -0.000414   0.003646   0.004270  -0.083161
    12  C    0.171821  -0.001361   0.001258   0.130410  -0.049425  -0.017306
    13  C    7.668381  -0.043001  -0.053538   0.043788  -0.011603   0.001177
    14  H   -0.043001   0.455983  -0.001083   0.000688   0.000028   0.000006
    15  H   -0.053538  -0.001083   0.452681   0.002246  -0.000050  -0.000007
    16  H    0.043788   0.000688   0.002246   0.488308  -0.017753  -0.001622
    17  H   -0.011603   0.000028  -0.000050  -0.017753   0.455912  -0.000860
    18  H    0.001177   0.000006  -0.000007  -0.001622  -0.000860   0.467371
    19  H   -0.000357  -0.000016   0.000027   0.000081   0.001353  -0.009760
    20  H    0.022512  -0.001545   0.001865   0.000779  -0.001986  -0.000001
    21  H   -0.003386   0.000455  -0.002065   0.000229  -0.002568  -0.000011
    22  H   -0.006228  -0.000369   0.002912   0.000394  -0.000407  -0.000007
    23  H   -0.011737  -0.009582  -0.006150  -0.000641   0.000234  -0.000001
    24  H    0.002256   0.000042   0.000016  -0.000941  -0.001464   0.003195
    25  H   -0.008153  -0.000071   0.000051  -0.003828   0.000021  -0.008804
    26  H   -0.086412  -0.003550  -0.018053  -0.028466  -0.008875   0.001278
    27  H    0.000116   0.000002  -0.000009  -0.000690   0.002463  -0.001552
    28  H   -0.000933  -0.000008  -0.000051  -0.004671  -0.001750   0.001760
    29  H    0.000437   0.000016  -0.000088   0.001976  -0.008238  -0.000773
    30  H    0.512958  -0.003447   0.005970   0.002045  -0.000376  -0.000032
    31  H    0.390718  -0.011624  -0.006218  -0.000167  -0.000705  -0.000077
              19         20         21         22         23         24
     1  C   -0.000135  -0.002348   0.009372  -0.005977  -0.060617  -0.000467
     2  C    0.002461   0.000688   0.004348  -0.001879   0.002609  -0.045399
     3  C    0.424995   0.000110   0.000148   0.000092  -0.000085  -0.044443
     4  O    0.007729   0.000240   0.000188  -0.000019  -0.000004  -0.000087
     5  O    0.000044  -0.030755  -0.069586  -0.003515   0.007724   0.000222
     6  C    0.000208   0.479655   0.433144  -0.072369  -0.032714  -0.001521
     7  O   -0.003762   0.003854  -0.001937   0.002664  -0.000083   0.000255
     8  C   -0.000062  -0.058531  -0.036991   0.473392   0.454263   0.000658
     9  C   -0.029339   0.001532   0.000719  -0.000915   0.000203   0.449389
    10  C    0.000049  -0.041960   0.012152  -0.017575   0.019299  -0.026332
    11  C   -0.034285  -0.000911   0.000115  -0.000035   0.000054  -0.008786
    12  C   -0.003228   0.001301  -0.004043   0.006161  -0.002877   0.049609
    13  C   -0.000357   0.022512  -0.003386  -0.006228  -0.011737   0.002256
    14  H   -0.000016  -0.001545   0.000455  -0.000369  -0.009582   0.000042
    15  H    0.000027   0.001865  -0.002065   0.002912  -0.006150   0.000016
    16  H    0.000081   0.000779   0.000229   0.000394  -0.000641  -0.000941
    17  H    0.001353  -0.001986  -0.002568  -0.000407   0.000234  -0.001464
    18  H   -0.009760  -0.000001  -0.000011  -0.000007  -0.000001   0.003195
    19  H    0.490850   0.000013   0.000003   0.000007  -0.000002  -0.005724
    20  H    0.000013   0.475752  -0.005516   0.003062   0.000954   0.000006
    21  H    0.000003  -0.005516   0.475810  -0.003036  -0.009797  -0.000070
    22  H    0.000007   0.003062  -0.003036   0.469646  -0.010746   0.000063
    23  H   -0.000002   0.000954  -0.009797  -0.010746   0.475693  -0.000055
    24  H   -0.005724   0.000006  -0.000070   0.000063  -0.000055   0.447561
    25  H   -0.007475   0.000069  -0.000011   0.000039  -0.000000  -0.017132
    26  H   -0.001329  -0.007422  -0.000612  -0.002257   0.003212   0.002718
    27  H   -0.009316  -0.000050  -0.000004   0.000005  -0.000001  -0.000949
    28  H    0.003401  -0.000006   0.000026  -0.000019   0.000011  -0.002136
    29  H   -0.002691  -0.000410   0.000489  -0.000148   0.000013   0.005670
    30  H    0.000038   0.001051  -0.000717   0.002534  -0.003442   0.000123
    31  H    0.000225  -0.000201   0.001339  -0.001899   0.001943  -0.002066
              25         26         27         28         29         30
     1  C    0.000331  -0.068546  -0.000029  -0.000238  -0.001131  -0.016926
     2  C    0.012316   0.002679   0.013082  -0.034987  -0.078043   0.000597
     3  C   -0.020204  -0.009034  -0.047174  -0.044877   0.006636  -0.000680
     4  O   -0.002444   0.001868  -0.069678  -0.033104   0.001774   0.000168
     5  O    0.000135  -0.067157   0.000060  -0.000285  -0.012361  -0.009811
     6  C   -0.000481  -0.014375  -0.000109  -0.000144  -0.005298  -0.000296
     7  O   -0.006610  -0.020413   0.000058   0.001284  -0.051971   0.000473
     8  C    0.000143   0.052813   0.000001   0.000036   0.000733  -0.017259
     9  C    0.437298  -0.000158   0.003899  -0.010172  -0.077265  -0.000624
    10  C    0.013417   0.437191  -0.000564  -0.002210  -0.013794  -0.104388
    11  C    0.007181   0.000863   0.433181   0.473779   0.010987  -0.000192
    12  C   -0.051828   0.069063   0.008916   0.027155   0.529229   0.002893
    13  C   -0.008153  -0.086412   0.000116  -0.000933   0.000437   0.512958
    14  H   -0.000071  -0.003550   0.000002  -0.000008   0.000016  -0.003447
    15  H    0.000051  -0.018053  -0.000009  -0.000051  -0.000088   0.005970
    16  H   -0.003828  -0.028466  -0.000690  -0.004671   0.001976   0.002045
    17  H    0.000021  -0.008875   0.002463  -0.001750  -0.008238  -0.000376
    18  H   -0.008804   0.001278  -0.001552   0.001760  -0.000773  -0.000032
    19  H   -0.007475  -0.001329  -0.009316   0.003401  -0.002691   0.000038
    20  H    0.000069  -0.007422  -0.000050  -0.000006  -0.000410   0.001051
    21  H   -0.000011  -0.000612  -0.000004   0.000026   0.000489  -0.000717
    22  H    0.000039  -0.002257   0.000005  -0.000019  -0.000148   0.002534
    23  H   -0.000000   0.003212  -0.000001   0.000011   0.000013  -0.003442
    24  H   -0.017132   0.002718  -0.000949  -0.002136   0.005670   0.000123
    25  H    0.472307   0.000075   0.000792  -0.001137  -0.004587   0.000166
    26  H    0.000075   0.491716   0.000318   0.003047   0.004871  -0.013756
    27  H    0.000792   0.000318   0.459771  -0.003352  -0.001437  -0.000007
    28  H   -0.001137   0.003047  -0.003352   0.478138   0.001800  -0.000081
    29  H   -0.004587   0.004871  -0.001437   0.001800   0.422419  -0.000194
    30  H    0.000166  -0.013756  -0.000007  -0.000081  -0.000194   0.456472
    31  H    0.000331   0.002958  -0.000032   0.000091   0.000547  -0.018085
              31
     1  C   -0.025849
     2  C    0.007735
     3  C    0.000603
     4  O    0.000067
     5  O    0.006067
     6  C    0.002909
     7  O   -0.003368
     8  C   -0.000337
     9  C    0.007058
    10  C    0.008811
    11  C   -0.000396
    12  C   -0.012110
    13  C    0.390718
    14  H   -0.011624
    15  H   -0.006218
    16  H   -0.000167
    17  H   -0.000705
    18  H   -0.000077
    19  H    0.000225
    20  H   -0.000201
    21  H    0.001339
    22  H   -0.001899
    23  H    0.001943
    24  H   -0.002066
    25  H    0.000331
    26  H    0.002958
    27  H   -0.000032
    28  H    0.000091
    29  H    0.000547
    30  H   -0.018085
    31  H    0.478722
 Mulliken charges:
               1
     1  C   -0.399050
     2  C   -0.372583
     3  C   -0.389552
     4  O   -0.393130
     5  O   -0.401453
     6  C   -0.120904
     7  O   -0.417891
     8  C   -0.393023
     9  C   -0.211543
    10  C    0.122204
    11  C   -0.161498
    12  C   -0.116041
    13  C   -0.332170
    14  H    0.202222
    15  H    0.178313
    16  H    0.239449
    17  H    0.237612
    18  H    0.174065
    19  H    0.175994
    20  H    0.158197
    21  H    0.201815
    22  H    0.166428
    23  H    0.182321
    24  H    0.195791
    25  H    0.188092
    26  H    0.275745
    27  H    0.212292
    28  H    0.149631
    29  H    0.270833
    30  H    0.204825
    31  H    0.173008
 Sum of Mulliken charges =  -0.00000
 Mulliken charges with hydrogens summed into heavy atoms:
               1
     1  C   -0.018514
     2  C    0.104479
     3  C   -0.039492
     4  O   -0.393130
     5  O   -0.401453
     6  C    0.239108
     7  O   -0.417891
     8  C   -0.044274
     9  C    0.172340
    10  C    0.397949
    11  C    0.200425
    12  C    0.154792
    13  C    0.045663
 Electronic spatial extent (au):  <R**2>=           3264.2629
 Charge=              0.0000 electrons
 Dipole moment (field-independent basis, Debye):
    X=              0.9761    Y=             -1.0504    Z=              3.6153  Tot=              3.8893
 Quadrupole moment (field-independent basis, Debye-Ang):
   XX=            -66.2679   YY=            -83.6279   ZZ=            -80.5008
   XY=              7.8155   XZ=              1.0691   YZ=              0.1253
 Traceless Quadrupole moment (field-independent basis, Debye-Ang):
   XX=             10.5310   YY=             -6.8290   ZZ=             -3.7019
   XY=              7.8155   XZ=              1.0691   YZ=              0.1253
 Octapole moment (field-independent basis, Debye-Ang**2):
  XXX=             -2.2243  YYY=              0.5202  ZZZ=              1.2196  XYY=             17.3139
  XXY=            -12.1684  XXZ=              9.9916  XZZ=             -6.2505  YZZ=              1.2388
  YYZ=              0.4754  XYZ=             -0.9240
 Hexadecapole moment (field-independent basis, Debye-Ang**3):
 XXXX=          -3241.7574 YYYY=           -621.1798 ZZZZ=           -246.9804 XXXY=             51.2276
 XXXZ=            -31.2377 YYYX=             32.2633 YYYZ=             -6.1448 ZZZX=             -2.7043
 ZZZY=              1.8464 XXYY=           -689.9194 XXZZ=           -618.4124 YYZZ=           -142.6946
 XXYZ=              4.8220 YYXZ=             -3.5436 ZZXY=              0.6026
 N-N= 8.841082794143D+02 E-N=-3.210239921811D+03  KE= 6.153556803006D+02
 D1PCM: PCM CHGder 1st derivatives, ID1Alg=3 FixD1E=F DoIter=F DoCFld=F I1PDM=0.
 Calling FoFJK, ICntrl=      2127 FMM=F ISym2X=0 I1Cent= 0 IOpClX= 0 NMat=1 NMatS=1 NMatT=0.
 ***** Axes restored to original set *****
 -------------------------------------------------------------------
 Center     Atomic                   Forces (Hartrees/Bohr)
 Number     Number              X              Y              Z
 -------------------------------------------------------------------
      1        6           0.001952315   -0.001893144   -0.003249667
      2        6           0.000183730    0.006777333   -0.002376107
      3        6          -0.002419468   -0.000697977    0.002035090
      4        8           0.003153676   -0.010979970   -0.004906518
      5        8           0.004356923   -0.005094998   -0.011928017
      6        6          -0.004138803    0.004812876    0.002045574
      7        8          -0.000824945    0.012234338   -0.004083134
      8        6           0.002544259    0.000391539    0.002211642
      9        6           0.002259480   -0.003644833   -0.002287945
     10        6          -0.003666610    0.002616280    0.001983643
     11        6          -0.002059360    0.006574646   -0.002531648
     12        6           0.000801843   -0.002643074    0.007875313
     13        6          -0.000941309   -0.002553099    0.002424827
     14        1          -0.001864251    0.001877620   -0.000085095
     15        1           0.001168649   -0.001401261    0.002819034
     16        1          -0.001828971    0.002769300    0.005852804
     17        1          -0.004531226   -0.003635231   -0.002153795
     18        1           0.000526038   -0.001090101   -0.003121148
     19        1           0.001723396    0.001925479    0.001275854
     20        1           0.000905753   -0.001621135    0.005451591
     21        1          -0.001264506   -0.003398227   -0.002823322
     22        1          -0.000265165    0.001076474   -0.003164715
     23        1          -0.001988743   -0.001319121    0.001398393
     24        1          -0.001469803   -0.000072785    0.003740539
     25        1          -0.000495320    0.002257072   -0.002204424
     26        1           0.001718505   -0.003462667    0.008177068
     27        1           0.004034711   -0.001949345   -0.000727091
     28        1          -0.001199863    0.001770215    0.005323545
     29        1           0.002458557   -0.002159206   -0.005038465
     30        1          -0.000257918    0.000488967   -0.003917195
     31        1           0.001428427    0.002044039    0.001983368
 -------------------------------------------------------------------
 Cartesian Forces:  Max     0.012234338 RMS     0.003662874

 GradGradGradGradGradGradGradGradGradGradGradGradGradGradGradGradGradGrad
 Berny optimization.
 FormGI is forming the generalized inverse of G from B-inverse, IUseBI=4.
 Internal  Forces:  Max     0.017542340 RMS     0.002404447
 Search for a local minimum.
 Step number   1 out of a maximum of  186
 All quantities printed in internal units (Hartrees-Bohrs-Radians)
 Mixed Optimization -- RFO/linear search
 Second derivative matrix not updated -- first step.
 ITU=  0
     Eigenvalues ---    0.00611   0.00647   0.00724   0.00754   0.01449
     Eigenvalues ---    0.01489   0.01869   0.02742   0.02754   0.03106
     Eigenvalues ---    0.03122   0.04027   0.04167   0.04625   0.04774
     Eigenvalues ---    0.04854   0.04928   0.05110   0.05153   0.05197
     Eigenvalues ---    0.05384   0.05671   0.05718   0.06031   0.06197
     Eigenvalues ---    0.06227   0.06317   0.06591   0.07702   0.07938
     Eigenvalues ---    0.07946   0.07969   0.07976   0.07978   0.08072
     Eigenvalues ---    0.08737   0.09299   0.09882   0.10688   0.11470
     Eigenvalues ---    0.11554   0.11692   0.11712   0.12322   0.12491
     Eigenvalues ---    0.14463   0.14618   0.16491   0.16693   0.17415
     Eigenvalues ---    0.19131   0.21361   0.21849   0.25000   0.28145
     Eigenvalues ---    0.28617   0.28737   0.28778   0.28972   0.29174
     Eigenvalues ---    0.30052   0.30501   0.35030   0.35072   0.35076
     Eigenvalues ---    0.35102   0.35124   0.35162   0.35187   0.35245
     Eigenvalues ---    0.35302   0.35330   0.35333   0.35363   0.35378
     Eigenvalues ---    0.35503   0.35587   0.35841   0.35878   0.36080
     Eigenvalues ---    0.41209   0.41370   0.41580   0.42137   0.42470
     Eigenvalues ---    0.479171000.000001000.000001000.000001000.00000
     Eigenvalues --- 1000.000001000.000001000.000001000.000001000.00000
     Eigenvalues --- 1000.000001000.000001000.000001000.000001000.00000
     Eigenvalues --- 1000.000001000.000001000.000001000.000001000.00000
     Eigenvalues --- 1000.000001000.000001000.000001000.000001000.00000
     Eigenvalues --- 1000.000001000.000001000.000001000.000001000.00000
     Eigenvalues --- 1000.000001000.000001000.000001000.000001000.00000
     Eigenvalues --- 1000.000001000.000001000.000001000.000001000.00000
     Eigenvalues --- 1000.000001000.000001000.000001000.000001000.00000
     Eigenvalues --- 1000.000001000.000001000.000001000.000001000.00000
     Eigenvalues --- 1000.000001000.000001000.000001000.000001000.00000
     Eigenvalues --- 1000.000001000.000001000.000001000.000001000.00000
     Eigenvalues --- 1000.000001000.000001000.000001000.000001000.00000
     Eigenvalues --- 1000.000001000.000001000.000001000.000001000.00000
     Eigenvalues --- 1000.000001000.000001000.000001000.000001000.00000
     Eigenvalues --- 1000.000001000.000001000.000001000.000001000.00000
     Eigenvalues --- 1000.000001000.000001000.000001000.000001000.00000
     Eigenvalues --- 1000.000001000.000001000.000001000.000001000.00000
     Eigenvalues --- 1000.000001000.000001000.000001000.000001000.00000
     Eigenvalues --- 1000.000001000.000001000.000001000.000001000.00000
 RFO step:  Lambda=-3.91028097D-03 EMin= 6.10843909D-03
 Linear search not attempted -- first point.
 Iteration  1 RMS(Cart)=  0.07255712 RMS(Int)=  0.00111201
 Iteration  2 RMS(Cart)=  0.00286480 RMS(Int)=  0.00003359
 Iteration  3 RMS(Cart)=  0.00000169 RMS(Int)=  0.00003358
 Iteration  4 RMS(Cart)=  0.00000000 RMS(Int)=  0.00003358
 Iteration  1 RMS(Cart)=  0.00002027 RMS(Int)=  0.00000459
 Iteration  2 RMS(Cart)=  0.00001124 RMS(Int)=  0.00000513
 Iteration  3 RMS(Cart)=  0.00000623 RMS(Int)=  0.00000580
 Iteration  4 RMS(Cart)=  0.00000345 RMS(Int)=  0.00000625
 Iteration  5 RMS(Cart)=  0.00000191 RMS(Int)=  0.00000652
 Iteration  6 RMS(Cart)=  0.00000106 RMS(Int)=  0.00000668
 Iteration  7 RMS(Cart)=  0.00000059 RMS(Int)=  0.00000677
 Variable       Old X    -DE/DX   Delta X   Delta X   Delta X     New X
                                 (Linear)    (Quad)   (Total)
    R1        2.88989  -0.00077   0.00000  -0.00359  -0.00361   2.88628
    R2        2.89326  -0.00099   0.00000  -0.00372  -0.00374   2.88951
    R3        2.05090   0.00264   0.00000   0.00739   0.00739   2.05828
    R4        2.05627   0.00326   0.00000   0.00919   0.00919   2.06546
    R5        2.66782   0.00639   0.00000   0.01466   0.01470   2.68252
    R6        2.89248  -0.00181   0.00000  -0.00550  -0.00551   2.88697
    R7        2.05138   0.00650   0.00000   0.01821   0.01821   2.06958
    R8        2.03957   0.00607   0.00000   0.01664   0.01664   2.05620
    R9        2.89149  -0.00115   0.00000  -0.00421  -0.00426   2.88724
   R10        2.87138  -0.00026   0.00000  -0.00126  -0.00125   2.87013
   R11        2.05412   0.00326   0.00000   0.00917   0.00917   2.06329
   R12        2.05187   0.00288   0.00000   0.00806   0.00806   2.05993
   R13        2.67736   0.00619   0.00000   0.01495   0.01498   2.69234
   R14        2.68068   0.00576   0.00000   0.01366   0.01369   2.69437
   R15        2.66379   0.00838   0.00000   0.01954   0.01956   2.68335
   R16        2.87258  -0.00068   0.00000  -0.00233  -0.00233   2.87025
   R17        2.05551   0.00568   0.00000   0.01601   0.01601   2.07153
   R18        2.04272   0.00459   0.00000   0.01265   0.01265   2.05537
   R19        2.62028   0.00483   0.00000   0.01001   0.01001   2.63029
   R20        2.69461   0.00301   0.00000   0.00717   0.00717   2.70178
   R21        2.05474   0.00325   0.00000   0.00916   0.00916   2.06390
   R22        2.05280   0.00276   0.00000   0.00774   0.00774   2.06054
   R23        2.87968  -0.00183   0.00000  -0.00691  -0.00694   2.87274
   R24        2.05558   0.00381   0.00000   0.01075   0.01075   2.06633
   R25        2.05142   0.00315   0.00000   0.00880   0.00880   2.06023
   R26        2.86724  -0.00139   0.00000  -0.00430  -0.00429   2.86295
   R27        2.04733   0.00902   0.00000   0.02506   0.02506   2.07239
   R28        2.04331   0.00453   0.00000   0.01250   0.01250   2.05581
   R29        2.05510   0.00565   0.00000   0.01591   0.01591   2.07101
   R30        2.04866   0.00581   0.00000   0.01620   0.01620   2.06485
   R31        2.05372   0.00375   0.00000   0.01055   0.01055   2.06427
   R32        2.05066   0.00316   0.00000   0.00884   0.00884   2.05949
    A1        1.92689   0.00211   0.00000  -0.00024  -0.00031   1.92659
    A2        1.93166  -0.00052   0.00000   0.00059   0.00062   1.93228
    A3        1.90883  -0.00080   0.00000  -0.00194  -0.00193   1.90690
    A4        1.91939  -0.00063   0.00000  -0.00056  -0.00053   1.91885
    A5        1.90936  -0.00084   0.00000  -0.00236  -0.00236   1.90701
    A6        1.86664   0.00060   0.00000   0.00459   0.00458   1.87122
    A7        1.89628   0.00051   0.00000   0.00617   0.00622   1.90250
    A8        1.90332   0.00160   0.00000   0.00878   0.00882   1.91213
    A9        1.86051  -0.00015   0.00000   0.00776   0.00776   1.86827
   A10        1.94393  -0.00208   0.00000  -0.01485  -0.01491   1.92901
   A11        1.95459  -0.00045   0.00000  -0.00790  -0.00796   1.94663
   A12        1.90278   0.00072   0.00000   0.00152   0.00137   1.90415
   A13        1.92618  -0.00067   0.00000  -0.00527  -0.00534   1.92083
   A14        1.91750   0.00077   0.00000   0.00183   0.00185   1.91935
   A15        1.92898  -0.00045   0.00000  -0.00090  -0.00089   1.92809
   A16        1.90440  -0.00015   0.00000  -0.00101  -0.00099   1.90341
   A17        1.91092   0.00041   0.00000   0.00092   0.00093   1.91186
   A18        1.87501   0.00012   0.00000   0.00470   0.00469   1.87970
   A19        1.98081  -0.00452   0.00000  -0.02810  -0.02799   1.95282
   A20        1.98241  -0.00497   0.00000  -0.02654  -0.02647   1.95594
   A21        1.93401   0.00092   0.00000   0.00309   0.00310   1.93711
   A22        1.90407   0.00072   0.00000   0.00424   0.00425   1.90832
   A23        1.85209  -0.00071   0.00000  -0.00016  -0.00017   1.85192
   A24        1.93126  -0.00126   0.00000  -0.00718  -0.00720   1.92406
   A25        1.95055  -0.00012   0.00000  -0.00213  -0.00213   1.94842
   A26        1.88940   0.00050   0.00000   0.00262   0.00261   1.89201
   A27        2.14565  -0.01754   0.00000  -0.06909  -0.06909   2.07656
   A28        1.92207   0.00013   0.00000  -0.00332  -0.00339   1.91867
   A29        1.91884   0.00054   0.00000   0.00190   0.00192   1.92077
   A30        1.93559  -0.00064   0.00000  -0.00136  -0.00135   1.93423
   A31        1.90335  -0.00039   0.00000  -0.00181  -0.00179   1.90156
   A32        1.90666   0.00009   0.00000  -0.00024  -0.00022   1.90644
   A33        1.87652   0.00028   0.00000   0.00499   0.00498   1.88149
   A34        1.92486   0.00145   0.00000  -0.00566  -0.00576   1.91911
   A35        1.92119  -0.00051   0.00000   0.00220   0.00217   1.92335
   A36        1.93063   0.00010   0.00000   0.00458   0.00461   1.93523
   A37        1.89404  -0.00109   0.00000  -0.00638  -0.00636   1.88768
   A38        1.91559  -0.00061   0.00000  -0.00210  -0.00205   1.91354
   A39        1.87657   0.00061   0.00000   0.00746   0.00743   1.88400
   A40        1.88300  -0.00160   0.00000  -0.00763  -0.00763   1.87537
   A41        1.92788   0.00151   0.00000   0.00806   0.00805   1.93593
   A42        1.89297  -0.00002   0.00000  -0.00266  -0.00266   1.89031
   A43        1.89687   0.00019   0.00000   0.00120   0.00121   1.89808
   A44        1.94039   0.00047   0.00000   0.00331   0.00330   1.94369
   A45        1.92253  -0.00054   0.00000  -0.00223  -0.00222   1.92031
   A46        1.93229   0.00142   0.00000   0.00868   0.00871   1.94100
   A47        1.94755  -0.00036   0.00000  -0.00331  -0.00333   1.94423
   A48        1.93256  -0.00126   0.00000  -0.00853  -0.00854   1.92402
   A49        1.85534  -0.00102   0.00000  -0.00294  -0.00294   1.85240
   A50        1.90095   0.00064   0.00000   0.00360   0.00361   1.90456
   A51        1.89280   0.00062   0.00000   0.00284   0.00281   1.89562
   A52        2.02056  -0.00282   0.00000  -0.02389  -0.02382   1.99674
   A53        1.90475   0.00108   0.00000  -0.00208  -0.00213   1.90262
   A54        1.87390   0.00018   0.00000   0.00122   0.00128   1.87519
   A55        1.89026   0.00096   0.00000   0.00732   0.00716   1.89742
   A56        1.85824   0.00111   0.00000   0.01628   0.01623   1.87447
   A57        1.91414  -0.00048   0.00000   0.00236   0.00229   1.91643
   A58        1.92575  -0.00062   0.00000  -0.00689  -0.00694   1.91880
   A59        1.92488   0.00091   0.00000   0.00503   0.00500   1.92987
   A60        1.93618  -0.00011   0.00000   0.00266   0.00265   1.93883
   A61        1.88936  -0.00058   0.00000  -0.00657  -0.00656   1.88280
   A62        1.90237   0.00018   0.00000  -0.00095  -0.00092   1.90145
   A63        1.88413   0.00022   0.00000   0.00673   0.00670   1.89083
    D1        0.89682  -0.00010   0.00000   0.01067   0.01065   0.90747
    D2       -1.20085  -0.00004   0.00000   0.01380   0.01380  -1.18705
[...]
 0.00701898,-0.00000506,0.00001714,-0.00000935,0.00000168,0.00000030,-0
 .00000081,0.00000034,-0.00000036,0.00000070,-0.00001205,-0.00022518,0.
 00030708,-0.00006602,-0.00048339,0.00048079,-0.00045466,-0.00010718,0.
 00057253,-0.00012080,0.00009893,-0.00014069,0.00000199,0.00000027,-0.0
 0000126,0.00000243,0.00000107,-0.00000164,0.00000043,0.00000014,0.0000
 0027,-0.00000042,0.00000012,-0.00000043,-0.00082921,0.02381886,-0.0159
 6190,0.00431301,-0.13687683,0.14539275,0.00104505,0.00015555,-0.000998
 50,-0.00283233,0.00169732,-0.00031942,0.00000219,-0.00000235,-0.000028
 15,0.00005033,-0.00031048,0.00031346,-0.00261346,-0.00456748,-0.013097
 66,0.00144726,0.00072688,-0.00228063,-0.00214315,-0.01850776,0.0330523
 7,-0.00018050,-0.00003607,0.00025691,-0.00001939,-0.00004718,0.0000559
 3,-0.07632688,0.03476838,-0.06776512,-0.00007279,-0.00002748,0.0000627
 8,0.00373052,-0.00147861,0.00055794,-0.00614528,0.01119545,-0.01994303
 ,0.00011968,-0.00004322,0.00020686,-0.00005347,-0.00010956,0.00036806,
 -0.00298071,0.00164855,-0.00007972,-0.00000392,0.00021225,-0.00023323,
 0.00000731,-0.00000211,-0.00000459,-0.00000459,0.00000545,-0.00000596,
 -0.00006076,-0.00011735,0.00038009,-0.00000528,-0.00007561,0.00010007,
 0.00004791,-0.00002121,0.00001414,-0.00006963,-0.00002501,-0.00000752,
 0.00007773,-0.00000788,-0.00009562,0.00002113,0.00003083,-0.00002608,0
 .08942230,-0.00088795,0.00023341,0.00022644,0.00169181,-0.00044199,0.0
 0026002,-0.00003850,-0.00016603,-0.00008389,-0.00001807,0.00026114,-0.
 00045116,-0.01603044,-0.00161968,-0.03292148,0.00247566,0.00245309,-0.
 00390674,-0.00547646,-0.00681017,0.01889483,-0.00023061,-0.00020353,0.
 00034136,-0.00024360,0.00027371,0.00009946,0.03243084,-0.08637578,0.08
 702369,0.00005530,0.00000560,0.00002026,0.00204080,-0.00097905,-0.0010
 3384,0.00866194,-0.00773070,0.01969289,-0.00008033,0.00003863,-0.00032
 582,0.00011775,0.00037641,-0.00043377,0.00116728,-0.00027410,-0.000362
 33,0.00013627,-0.00023217,-0.00003111,-0.00000508,0.00000286,0.0000053
 2,-0.00007796,0.00002754,-0.00000086,0.00057160,-0.00001205,0.00089793
 ,0.00012198,-0.00006914,0.00013665,0.00001900,-0.00008242,0.00006187,-
 0.00011033,0.00016971,0.00010427,0.00001707,-0.00002343,-0.00005519,0.
 00002263,-0.00002684,0.00000593,-0.02853971,0.10244471,-0.00032817,-0.
 00037281,0.00046096,-0.00005229,0.00005258,-0.00140368,0.00005717,0.00
 012248,-0.00003544,-0.00085643,-0.00010390,0.00076595,-0.01400797,-0.0
 0778287,-0.02664966,0.00213518,0.00186943,-0.00007502,0.00715658,0.011
 77993,-0.01481127,-0.00017209,-0.00041562,0.00010845,0.00039489,-0.000
 25508,0.00002514,-0.06064872,0.08324804,-0.23592781,0.00015895,0.00025
 917,0.00012747,-0.00260475,0.00142726,0.00012766,0.00141962,-0.0005830
 0,0.00448341,-0.00007168,-0.00003130,0.00011719,-0.00027753,-0.0001758
 1,0.00004468,-0.00139525,0.00072424,0.00129759,0.00012937,-0.00021103,
 -0.00031025,0.00002116,-0.00000657,0.00000760,0.00005021,-0.00003609,0
 .00001076,-0.00069604,-0.00056698,0.00074335,-0.00010050,-0.00039080,0
 .00054327,0.00003133,0.00010852,-0.00013686,-0.00013888,0.00009006,0.0
 0004658,0.00007617,-0.00000614,-0.00009597,-0.00002884,-0.00004327,-0.
 00001655,0.06863711,-0.08796677,0.26958980,-0.00000062,0.00001808,-0.0
 0000731,0.00044707,-0.00438731,-0.00277674,0.00378478,-0.00022662,0.00
 017488,-0.03083766,0.00662493,0.00002263,-0.00019239,0.00000257,-0.000
 04088,0.00005063,0.00004654,-0.00004042,-0.00021464,0.00034673,-0.0000
 6571,-0.00000852,-0.00000964,0.00001421,0.00093312,-0.00055401,0.00033
 823,0.00021041,0.00002878,0.00000567,-0.24806766,0.11428717,0.02268866
 ,-0.00009387,-0.00067502,0.00047617,-0.00002265,-0.00002280,-0.0000170
 4,-0.00000995,-0.00000176,0.00000466,-0.00000003,-0.00000172,0.0000017
 9,0.00013174,0.00001557,0.00008822,-0.00125811,0.00063725,-0.00009811,
 0.00026170,0.00002463,-0.00028587,-0.00002151,0.00074617,-0.00035904,0
 .00000098,-0.00000420,0.00000892,-0.00000901,-0.00000789,0.00000100,0.
 00000016,0.00000028,-0.00000198,-0.00000778,0.00000124,0.00000123,-0.0
 0003730,-0.00001599,0.00001400,0.00011273,-0.00013569,0.00012511,0.000
 00865,-0.00000795,-0.00004735,0.27829017,0.00000623,-0.00000761,-0.000
 00024,-0.00253587,-0.00234935,-0.00195216,0.02537341,-0.01256528,-0.00
 387430,-0.02743467,0.01030912,0.00115087,-0.00004622,0.00008237,-0.000
 03157,0.00001568,0.00002213,-0.00000412,0.00034814,0.00038386,-0.00016
 761,-0.00000423,-0.00000356,0.00000364,-0.00204846,-0.00433978,0.00391
 420,-0.00002239,-0.00011324,0.00013183,0.12467127,-0.11919713,-0.01436
 368,-0.00108251,-0.00079336,-0.00002126,0.00001258,0.00002029,-0.00003
 431,0.00000203,0.00000151,-0.00000123,0.00000033,-0.00000003,0.0000000
 2,0.00003352,-0.00001407,0.00013461,-0.00103859,0.00043668,-0.00005746
 ,-0.00051900,0.00149226,-0.00011568,-0.00048380,0.00066103,-0.00047309
 ,0.00000170,-0.00000115,0.00000257,0.00000145,0.00000088,-0.00000102,0
 .00000062,-0.00000015,0.00000004,-0.00000140,0.00000125,0.00000070,-0.
 00025915,0.00012200,-0.00012919,0.00194525,-0.00065856,0.00026393,0.00
 000708,0.00001305,-0.00004742,-0.12028606,0.12748332,-0.00000109,0.000
 01319,-0.00000440,-0.00073584,-0.00133772,-0.00079894,-0.01523831,0.00
 953611,0.00144049,-0.01675933,0.00490436,0.00101572,-0.00008710,-0.000
 03133,-0.00000675,0.00002461,0.00001895,-0.00002331,-0.00030410,0.0001
 2914,0.00002236,-0.00000361,-0.00000443,0.00000725,0.00054083,0.002606
 41,-0.00096262,0.00013423,0.00007082,-0.00003910,0.02998176,-0.0161111
 7,-0.05611903,0.00039107,-0.00024508,0.00027375,-0.00002103,-0.0000180
 8,-0.00000486,-0.00000669,-0.00000172,0.00000298,-0.00000049,-0.000001
 05,0.00000154,-0.00026193,0.00025550,0.00042930,-0.00047181,0.00019885
 ,0.00030572,-0.00042826,-0.00092452,0.00084638,0.00032033,-0.00033494,
 0.00039478,-0.00000110,-0.00000237,0.00000423,-0.00000588,-0.00000492,
 0.00000161,-0.00000001,0.00000015,-0.00000100,-0.00000392,0.00000033,0
 .00000028,-0.00027917,0.00011240,0.00018825,-0.00074193,0.00042912,0.0
 0009541,-0.00001279,-0.00000367,-0.00001913,-0.02183849,0.01553167,0.0
 5401938,-0.00000397,0.00000298,-0.00000032,0.00391002,-0.00220944,-0.0
 0379410,0.00039401,0.00096720,0.00109099,-0.00528794,-0.01246608,-0.02
 960278,-0.00000672,0.00000151,0.00000031,-0.00000036,0.00000084,-0.000
 00240,-0.00007604,0.00024507,-0.00002003,-0.00000012,-0.00000047,-0.00
 000009,0.00035749,-0.00032214,-0.00071100,0.00006999,0.00001683,-0.000
 04595,-0.06533999,0.01337613,0.05685903,-0.00041006,0.00015157,0.00008
 864,-0.00000535,-0.00000814,0.00001574,-0.00000077,-0.00000018,0.00000
 047,-0.00000002,-0.00000016,0.00000034,0.00035398,0.00016103,0.0009123
 3,0.00012005,-0.00003610,0.00009590,0.00127787,-0.00068580,0.00006212,
 0.00026023,0.00006968,0.00010248,-0.00000044,-0.00000075,0.00000041,0.
 00000008,0.00000019,0.00000013,0.00000016,-0.00000011,0.,-0.00000008,0
 .00000011,-0.00000009,0.00033950,-0.00004503,-0.00004310,0.00002047,-0
 .00008368,-0.00001159,0.00000580,-0.00001060,0.00001833,-0.00344002,0.
 00328502,0.02587499,0.06756829,-0.00000032,0.00000615,-0.00000212,0.00
 349199,-0.00039599,0.00016928,-0.00639887,0.00372761,0.02974489,-0.007
 56872,-0.01038376,-0.02834630,-0.00004975,-0.00001168,-0.00001594,0.00
 001674,0.00001154,-0.00001254,-0.00007550,0.00024952,-0.00006926,-0.00
 000118,-0.00000209,0.00000434,-0.00091136,0.00150140,0.00000901,0.0000
 8976,0.00001747,0.00002344,0.01044487,-0.05401467,-0.03077649,-0.00034
 860,-0.00033828,0.00029236,-0.00000888,-0.00000646,-0.00001410,-0.0000
 0389,-0.00000054,0.00000111,-0.00000015,-0.00000043,0.00000079,-0.0003
 1093,0.00043776,0.00069751,-0.00005441,-0.00002475,0.00027876,0.000548
 50,-0.00475238,0.00341177,-0.00000082,0.00121727,-0.00101262,-0.000000
 40,-0.00000087,0.00000313,-0.00000273,-0.00000280,0.00000068,-0.000000
 23,0.00000017,-0.00000070,-0.00000251,-0.00000005,0.00000027,0.0001571
 2,-0.00005294,-0.00047715,-0.00013435,-0.00002721,-0.00033002,0.000005
 16,0.00000026,-0.00002712,0.00349825,-0.00108679,-0.01477489,-0.002395
 44,0.06395095,-0.00000384,0.00001715,-0.00000603,0.00221450,0.00008861
 ,0.00085958,0.00558527,-0.00142763,-0.01640838,-0.00870740,-0.01205848
 ,-0.01432897,-0.00008040,-0.00004278,-0.00000378,0.00002612,0.00001614
 ,-0.00002579,-0.00043123,0.00018808,-0.00005917,-0.00000166,-0.0000035
 5,0.00000691,0.00004945,-0.00098069,0.00055656,0.00015064,0.00009682,-
 0.00006735,0.05237015,-0.03129354,-0.28262318,-0.00002444,-0.00015658,
 0.00031254,-0.00002587,-0.00002584,-0.00000447,-0.00000793,-0.00000207
 ,0.00000411,-0.00000057,-0.00000204,0.00000346,-0.00105583,0.00056880,
 0.00000814,-0.00025603,0.00009212,0.00043073,-0.00004503,0.00304947,-0
 .00054653,0.00013576,0.00021802,0.00045496,-0.00000069,-0.00000310,0.0
 0000595,-0.00000560,-0.00000509,0.00000165,0.00000023,0.00000033,-0.00
 000065,-0.00000428,-0.00000010,0.00000049,-0.00057679,0.00016900,0.000
 05584,-0.00001356,0.00016106,0.00026704,-0.00000175,-0.00001102,-0.000
 01672,0.00164806,0.00011680,-0.00102330,-0.05104240,0.04127221,0.31223
 136,-0.00034364,0.00056336,-0.00015571,0.00034117,0.00012681,0.0016436
 2,0.00131916,-0.00010031,-0.00023167,0.00120700,0.00015161,-0.00137206
 ,-0.00039465,-0.00113078,-0.00055295,0.00026755,0.00016869,-0.00027690
 ,-0.02701603,0.01271419,0.03000607,0.00000994,-0.00001627,0.00009158,0
 .00440838,-0.00584794,-0.02096178,0.00240678,0.00685369,0.00088992,-0.
 00021468,-0.00022895,-0.00011084,-0.05365392,0.00796895,0.04261318,-0.
 00123936,-0.00122991,0.00061779,-0.00023858,-0.00008965,0.00010353,0.0
 0002090,-0.00000892,0.00001568,0.00024141,0.00016229,0.00003162,0.0001
 2571,0.00027509,0.00009425,-0.00012034,-0.00005554,0.00026052,0.000133
 57,-0.00005345,0.00014530,-0.00002090,-0.00001506,0.00004297,-0.000080
 94,-0.00007591,0.00002746,-0.00000461,-0.00000129,-0.00002011,-0.00004
 654,-0.00002516,-0.00001018,-0.00265141,-0.00315390,-0.00175534,0.0007
 1102,0.00043161,0.00082524,-0.00032166,-0.00020229,0.00022256,0.000001
 31,0.00006681,-0.00005864,-0.00010839,0.00002169,0.00011037,0.07521078
 ,0.00015142,-0.00022795,0.00007266,-0.00501774,0.00445016,0.02968520,0
 .00091766,0.00044984,0.00018668,-0.00151162,0.00167569,-0.00136546,0.0
 0026776,0.00055711,0.00011285,-0.00007903,-0.00005419,0.00009432,0.015
 19490,-0.00278621,-0.01174108,0.00000096,0.00001416,-0.00004140,0.0021
 1821,-0.00625045,-0.02413315,-0.00199604,-0.00325716,-0.00013550,-0.00
 018607,-0.00021678,-0.00002940,0.00786618,-0.06693850,-0.06004458,0.00
 046963,0.00049945,-0.00039239,0.00009556,0.00003603,-0.00003920,-0.000
 01012,-0.00000063,-0.00000412,0.00114251,-0.00419426,0.00331909,-0.000
 22898,0.00135284,-0.00095108,-0.00026783,0.00033093,0.00034552,-0.0000
 9492,-0.00003818,0.00037753,0.00002143,0.00001552,-0.00001757,0.000033
 14,0.00003358,-0.00001358,0.00000316,-0.00000048,0.00000954,0.00002211
 ,0.00000583,0.00000236,-0.00312471,-0.00235323,-0.00177703,0.00097102,
 0.00096321,0.00053677,0.00048344,0.00018196,-0.00028209,0.00004451,0.0
 0009196,-0.00001963,-0.00001194,-0.00002412,-0.00005160,-0.01724533,0.
 07565209,0.00001058,-0.00005496,0.00001215,0.00396608,-0.00342275,-0.0
 2039023,0.00024461,0.00001978,-0.00002050,-0.00047075,-0.00093017,0.00
 210602,0.00036589,0.00011066,-0.00024065,-0.00002815,0.00005302,0.0000
 5586,0.00340272,-0.00024612,0.00722180,0.00000210,-0.00000223,-0.00002
 375,0.00154704,-0.00274419,-0.01030071,-0.00113698,-0.00072855,0.00075
 797,-0.00001582,0.00009666,0.00019966,0.04639375,-0.06055719,-0.284285
 32,0.00002434,0.00011649,0.00001018,0.00001838,0.00001186,-0.00001403,
 0.00000466,0.00000839,-0.00000585,-0.00023409,0.00315196,-0.00112802,-
 0.00001493,0.00001074,0.00092697,-0.00032029,0.00026678,0.00008509,-0.
 00021332,0.00004958,0.00017404,0.00001076,0.00000790,-0.00000995,0.000
 03051,0.00001808,-0.00000624,0.00000275,-0.00000220,0.00000498,0.00000
 888,-0.00000022,-0.00000189,-0.00134364,-0.00138121,0.00034912,-0.0000
 6599,-0.00009189,0.00081514,-0.00016320,0.00004043,0.00006122,-0.00003
 824,0.00001811,-0.00005079,0.00015165,-0.00005189,-0.00008759,-0.05215
 853,0.06625403,0.30379534,0.00576577,-0.01087627,0.02609542,0.00001550
 ,-0.00000042,-0.00018358,0.00000379,0.00000146,-0.00000598,-0.00013412
 ,0.00000058,0.00009401,0.00170331,-0.00213915,0.00094632,-0.00035711,-
 0.00025347,0.00021937,0.00206487,-0.00023647,-0.00036300,0.00133068,0.
 00099277,0.00012265,0.00001744,-0.00001706,0.00000583,-0.00955066,0.01
 037550,-0.02509819,0.00003197,0.00004850,0.00002724,0.00024773,-0.0000
 8454,-0.00003018,-0.05998117,0.02252248,-0.05413646,0.00133021,0.00076
 486,-0.00060873,-0.00407307,-0.00306102,0.00227527,-0.00004200,0.00002
 210,0.00014413,0.00000037,-0.00005132,-0.00002173,-0.00000062,0.000001
 00,0.00000161,0.00000096,-0.00000448,0.00000222,-0.00009738,-0.0000431
 8,-0.00008562,0.00009059,-0.00002653,-0.00002189,-0.00007485,0.0001134
 7,-0.00043072,-0.00006628,0.00032016,-0.00009537,0.00000083,0.00000557
 ,-0.00000121,-0.00000953,-0.00000603,-0.00000104,-0.00283686,0.0032271
 3,0.00143158,-0.00001076,-0.00000799,-0.00000643,0.00000258,-0.0000055
 5,-0.00000475,-0.00000917,-0.00002476,0.00002524,0.06760303,0.00283854
 ,-0.00537709,0.01115101,-0.00011999,0.00002009,0.00018971,-0.00000575,
 -0.00000086,0.00000623,0.00014330,0.00001956,-0.00008764,-0.00074956,0
 .00222929,0.00023612,-0.00007900,-0.00001572,-0.00001776,-0.00187626,0
 .00116328,-0.00048637,0.00067854,0.00027460,0.00045682,-0.00001381,0.0
 0000923,-0.00002001,0.00720569,-0.01202063,0.02316764,-0.00002793,-0.0
 0004549,-0.00003081,-0.00018366,0.00001007,-0.00016477,0.02212355,-0.0
 8493069,0.08474709,0.00005794,0.00054524,-0.00055610,-0.00192378,-0.00
 027353,0.00103736,0.00005570,-0.00005796,-0.00012870,0.00001512,0.0000
 3458,0.00003623,0.00000218,-0.00000075,-0.00000113,0.00000292,0.000004
 67,-0.00000106,0.00000269,0.00005940,-0.00001972,0.00001547,-0.0000344
 0,-0.00001449,-0.00012356,-0.00009855,-0.00009402,-0.00005655,0.000119
 22,-0.00009244,-0.00000314,-0.00000372,-0.00000023,0.00000721,0.000005
 40,0.00000519,0.00308964,-0.00217357,-0.00091954,0.00001036,0.00000642
 ,0.00000624,-0.00000253,0.00000514,0.00000570,0.00005142,0.00000079,-0
 .00001638,-0.02591197,0.09025916,-0.00207528,0.00457530,-0.01255780,0.
 00015485,-0.00007288,-0.00006590,-0.00000929,-0.00000605,-0.00000548,0
 .00000974,-0.00002072,0.00001242,0.00068528,0.00061948,0.00136906,0.00
 013954,-0.00007097,0.00014079,-0.00053767,-0.00052596,0.00079456,-0.00
 052990,-0.00050543,0.00070582,0.00001285,0.00001828,0.00000222,0.00116
 589,-0.00176512,0.00105893,0.00000234,-0.00000848,0.00000133,-0.000022
 20,-0.00010443,0.00030749,-0.05610124,0.08752955,-0.26048653,-0.000041
 60,-0.00035619,0.00046150,0.00243979,0.00123434,0.00011304,-0.00001045
 ,0.00002711,0.00000559,0.00002745,0.00001126,-0.00000968,-0.00000097,0
 .00000018,0.00000060,-0.00000440,0.00000141,-0.00000283,-0.00007366,-0
 .00003579,-0.00015221,-0.00004212,0.00005462,-0.00000206,0.00000928,0.
 00041670,0.00038321,0.00017288,-0.00006124,0.00020836,-0.00000060,-0.0
 0000365,-0.00000033,-0.00000124,-0.00000364,0.00000518,0.00050025,-0.0
 0016029,0.00072534,0.00000115,0.00000356,0.00000293,0.00000076,0.00000
 072,0.00000087,-0.00006981,0.00003599,-0.00000746,0.05797238,-0.097624
 36,0.28188156,-0.00838800,-0.01996700,-0.01671652,0.00003260,0.0000372
 7,-0.00002332,-0.00000881,-0.00000791,-0.00001401,-0.00000618,-0.00001
 645,0.00000378,-0.00238478,0.00705780,0.00245616,-0.00135479,-0.000492
 53,0.00051903,0.00145441,0.00041120,-0.00013705,-0.00418117,-0.0016326
 8,0.00407968,-0.00001426,0.00002296,0.00002331,0.00820230,0.01484227,0
 .01481735,-0.00000031,0.00000347,0.00000184,0.00008057,-0.00022115,-0.
 00023630,-0.07859972,-0.06733111,-0.05600238,0.00084941,0.00085390,-0.
 00057000,0.00125544,0.00058820,0.00011351,-0.00000823,-0.00000193,-0.0
 0000008,-0.00000609,-0.00002116,-0.00000160,0.00000186,-0.00000110,0.0
 0000065,-0.00000396,0.00000122,0.00000199,0.00018518,0.00003664,-0.000
 04702,0.00028698,0.00001392,-0.00013535,0.00005131,0.00031172,0.000084
 34,-0.00028546,-0.00172938,-0.00080235,0.00001579,-0.00001035,-0.00002
 919,0.00000111,-0.00000156,-0.00000246,0.00068481,-0.00079715,-0.00051
 370,-0.00000097,-0.00000078,0.00000013,-0.00000027,0.00000054,-0.00000
 050,0.00006015,-0.00000451,-0.00000601,-0.00296605,-0.00522278,-0.0037
 7396,0.08504711,-0.00394354,-0.00961753,-0.00641414,-0.00003498,-0.000
 01592,0.00003529,0.00001376,0.00002124,0.00001426,0.00003680,0.0000110
 1,0.00000100,0.00311233,-0.00565774,-0.00183793,0.00098545,0.00127369,
 -0.00057530,-0.00083855,0.00120972,0.00071514,-0.00212208,0.00057534,0
 .00209612,0.00006889,-0.00005900,-0.00003970,-0.01119535,-0.01508866,-
 0.01302718,-0.00000737,-0.00001365,-0.00001140,0.00012708,0.00022384,0
 .00029919,-0.06379271,-0.19432676,-0.11505580,0.00003466,0.00055549,0.
 00019896,0.00044413,0.00032611,-0.00004066,0.00002184,-0.00000992,-0.0
 0001055,-0.00001159,0.00003445,0.00000068,-0.00000054,0.00000092,0.000
 00035,0.00000892,-0.00000144,0.00000086,-0.00005945,-0.00010199,0.0001
 5215,-0.00011353,-0.00011374,0.00004342,-0.00004457,-0.00005034,-0.000
 19929,-0.00014962,-0.00052861,-0.00054453,0.00000525,-0.00000816,-0.00
 000003,0.00000016,0.00000049,-0.00000162,-0.00010692,0.00073858,0.0005
 4250,0.00000361,0.00000195,0.00000229,0.00000041,0.00000057,0.00000381
 ,-0.00007556,0.00003099,-0.00000453,0.00435463,0.01026683,0.00679670,0
 .07327844,0.21032225,0.00482730,0.01268758,0.00877090,-0.00001800,-0.0
 0000549,0.00001423,0.00000900,0.00001658,0.00000421,0.00003308,0.00000
 565,-0.00000285,0.00064610,-0.00214957,0.00122606,0.00049765,0.0001768
 6,-0.00039125,0.00015485,0.00015009,0.00019287,0.00253449,0.00103685,-
 0.00072636,0.00003721,-0.00004009,-0.00000958,-0.00201982,-0.00068615,
 -0.00374435,-0.00000757,-0.00000917,-0.00000771,0.00001506,0.00013379,
 0.00008472,-0.05469423,-0.11722904,-0.14088306,-0.00070934,-0.00051550
 ,0.00031384,-0.00076351,-0.00024798,0.00081349,0.00000309,-0.00000528,
 -0.00000873,0.00000619,0.00001612,0.00000969,0.00000025,0.00000018,0.0
 0000050,0.00000619,-0.00000168,0.00000056,-0.00009845,-0.00004990,0.00
 000942,-0.00011246,-0.00004556,0.00001402,0.00008262,0.00016157,0.0002
 2580,0.00036334,0.00057038,0.00038541,0.00000901,-0.00000835,-0.000004
 98,0.00000465,0.00000239,-0.00000712,0.00055699,-0.00006343,0.00021195
 ,0.00000260,0.00000180,0.00000086,-0.00000076,0.00000088,0.00000171,-0
 .00000716,0.00000633,-0.00000255,-0.00826839,-0.02076982,-0.01489052,0
 .05691002,0.12685994,0.14839885\\0.00000239,0.00001684,-0.00000786,-0.
 00003336,-0.00000360,-0.00000686,-0.00000894,-0.00000846,-0.00001109,0
 .00002584,-0.00002122,0.00000064,0.00000716,-0.00002296,-0.00000236,0.
 00000016,0.00002478,-0.00001607,-0.00093859,-0.00201975,-0.00242825,-0
 .00000344,0.00000563,0.00000260,-0.00034860,-0.00061967,0.00195302,0.0
 0050297,0.00123503,0.00209998,-0.00000050,0.00001137,-0.00000054,0.000
 74626,0.00142911,-0.00162212,-0.00001872,-0.00002131,-0.00000604,0.000
 00237,0.00000031,0.00000601,-0.00000146,0.00000173,-0.00000343,-0.0000
 0640,0.00000695,-0.00000899,0.00001836,0.00000797,0.00001126,-0.000006
 74,0.00000475,0.00000422,0.00000953,-0.00000985,0.00000528,-0.00000466
 ,-0.00000102,0.00000763,-0.00000102,-0.00000159,0.00001037,0.00000327,
 -0.00000084,0.00000982,0.00000277,-0.00001096,-0.00000075,0.00000024,-
 0.00000194,-0.00000699,0.00000259,0.00000006,0.00000387,0.00002205,0.0
 0000544,-0.00000384,-0.00000701,0.00000144,-0.00000012,0.00000586,0.00
 000190,0.00000162,0.00000403,-0.00001055,0.00000508,0.00000732,-0.0000
 0186,0.00000797,0.00001627,0.00000227,-0.00000406\\\@


 YOU CAN LEAD A BOY TO COLLEGE....
 BUT YOU CANNOT MAKE HIM THINK....
           ELBERT HUBBARD
 Job cpu time:       0 days 11 hours 20 minutes 49.5 seconds.
 Elapsed time:       0 days  0 hours 56 minutes 45.6 seconds.
 File lengths (MBytes):  RWF=    721 Int=      0 D2E=      0 Chk=     34 Scr=      1
 Normal termination of Gaussian 16 at Sun Mar 10 03:37:41 2019.
