 Entering Gaussian System, Link 0=g16
 Initial command:
 /sw/Projects/G16/g16/l1.exe "/nvme/pbs/tmpdir/pbs.74288[24].flm1/Gau-16593.inp" -scrdir="/nvme/pbs/tmpdir/pbs.74288[24].flm1/"
 Entering Link 1 = /sw/Projects/G16/g16/l1.exe PID=     16594.
  
 Copyright (c) 1988-2017, Gaussian, Inc.  All Rights Reserved.
  
 This is part of the Gaussian(R) 16 program.  It is based on
 the Gaussian(R) 09 system (copyright 2009, Gaussian, Inc.),
 the Gaussian(R) 03 system (copyright 2003, Gaussian, Inc.),
 the Gaussian(R) 98 system (copyright 1998, Gaussian, Inc.),
 the Gaussian(R) 94 system (copyright 1995, Gaussian, Inc.),
 the Gaussian 92(TM) system (copyright 1992, Gaussian, Inc.),
 the Gaussian 90(TM) system (copyright 1990, Gaussian, Inc.),
 the Gaussian 88(TM) system (copyright 1988, Gaussian, Inc.),
 the Gaussian 86(TM) system (copyright 1986, Carnegie Mellon
 University), and the Gaussian 82(TM) system (copyright 1983,
 Carnegie Mellon University). Gaussian is a federally registered
 trademark of Gaussian, Inc.
  
 This software contains proprietary and confidential information,
 including trade secrets, belonging to Gaussian, Inc.
  
 This software is provided under written license and may be
 used, copied, transmitted, or stored only in accord with that
 written license.
  
 The following legend is applicable only to US Government
 contracts under FAR:
  
                    RESTRICTED RIGHTS LEGEND
  
 Use, reproduction and disclosure by the US Government is
 subject to restrictions as set forth in subparagraphs (a)
 and (c) of the Commercial Computer Software - Restricted
 Rights clause in FAR 52.227-19.
  
 Gaussian, Inc.
 340 Quinnipiac St., Bldg. 40, Wallingford CT 06492
  
  
 ---------------------------------------------------------------
 Warning -- This program may not be used in any manner that
 competes with the business of Gaussian, Inc. or will provide
 assistance to any competitor of Gaussian, Inc.  The licensee
 of this program is prohibited from giving any competitor of
 Gaussian, Inc. access to this program.  By using this program,
 the user acknowledges that Gaussian, Inc. is engaged in the
 business of creating and licensing software in the field of
 computational chemistry and represents and warrants to the
 licensee that it is not a competitor of Gaussian, Inc. and that
 it will not use this program in any manner prohibited above.
 ---------------------------------------------------------------
  

 Cite this work as:
 Gaussian 16, Revision B.01,
 M. J. Frisch, G. W. Trucks, H. B. Schlegel, G. E. Scuseria, 
 M. A. Robb, J. R. Cheeseman, G. Scalmani, V. Barone, 
 G. A. Petersson, H. Nakatsuji, X. Li, M. Caricato, A. V. Marenich, 
 J. Bloino, B. G. Janesko, R. Gomperts, B. Mennucci, H. P. Hratchian, 
 J. V. Ortiz, A. F. Izmaylov, J. L. Sonnenberg, D. Williams-Young, 
 F. Ding, F. Lipparini, F. Egidi, J. Goings, B. Peng, A. Petrone, 
 T. Henderson, D. Ranasinghe, V. G. Zakrzewski, J. Gao, N. Rega, 
 G. Zheng, W. Liang, M. Hada, M. Ehara, K. Toyota, R. Fukuda, 
 J. Hasegawa, M. Ishida, T. Nakajima, Y. Honda, O. Kitao, H. Nakai, 
 T. Vreven, K. Throssell, J. A. Montgomery, Jr., J. E. Peralta, 
 F. Ogliaro, M. J. Bearpark, J. J. Heyd, E. N. Brothers, K. N. Kudin, 
 V. N. Staroverov, T. A. Keith, R. Kobayashi, J. Normand, 
 K. Raghavachari, A. P. Rendell, J. C. Burant, S. S. Iyengar, 
 J. Tomasi, M. Cossi, J. M. Millam, M. Klene, C. Adamo, R. Cammi, 
 J. W. Ochterski, R. L. Martin, K. Morokuma, O. Farkas, 
 J. B. Foresman, and D. J. Fox, Gaussian, Inc., Wallingford CT, 2016.
 
 ******************************************
 Gaussian 16:  ES64L-G16RevB.01 20-Dec-2017
                10-Mar-2019 
 ******************************************
 %mem=20gb
 %nproc=12
 Will use up to   12 processors via shared memory.
 %chk=4c1_b1_4e_4c1_PSI.inp_extract_24.chk
 ----------------------------------------------------------------------
 #M062X/6-311++G(2d,2p) opt=ModRedundant freq=noraman SCRF=(SMD,solvent
 =water)
 ----------------------------------------------------------------------
 1/18=120,19=15,26=3,38=1/1,3;
 2/9=110,12=2,17=6,18=5,40=1/2;
 3/5=4,6=6,7=1212,11=2,25=1,30=1,70=32201,71=1,72=1,74=-55/1,2,3;
 4//1;
 5/5=2,38=5,53=1/2;
 6/7=2,8=2,9=2,10=2,28=1/1;
 7//1,2,3,16;
 1/18=20,19=15,26=3/3(2);
 2/9=110/2;
 99//99;
 2/9=110/2;
 3/5=4,6=6,7=1212,11=2,25=1,30=1,70=32205,71=1,72=1,74=-55/1,2,3;
 4/5=5,16=3,69=1/1;
 5/5=2,38=5,53=1/2;
 7//1,2,3,16;
 1/18=20,19=15,26=3/3(-5);
 2/9=110/2;
 6/7=2,8=2,9=2,10=2,19=2,28=1/1;
 99/9=1/99;
 --------------------------------
 4c1_b1_4e_4c1_PSI.inp_extract_24
 --------------------------------
 Symbolic Z-matrix:
 Charge =  0 Multiplicity = 1
 C                    -3.67839   0.90226   0.15427 
 C                     2.19538   1.3235    0.06276 
 C                     3.08547  -1.39905   0.005 
 O                     3.43824   0.91914   0.59204 
 O                    -1.53693  -0.96349  -0.12646 
 C                    -2.75562  -1.40138   0.45418 
 O                    -0.01853   0.69245  -0.43844 
 C                    -3.92812  -0.58943  -0.07156 
 C                     1.68844  -1.05819  -0.52185 
 C                    -1.23165   0.38071   0.15766 
 C                     4.00212  -0.19056  -0.08427 
 C                     1.16909   0.20174   0.16283 
 C                    -2.30487   1.30084  -0.39234 
 H                    -4.45297   1.49672  -0.31942 
 H                    -3.71971   1.11788   1.21998 
 H                     2.31608   1.62007  -0.97674 
 H                     1.8737    2.1838    0.63332 
 H                     3.02313  -1.72106   1.04161 
 H                     3.51361  -2.21892  -0.56387 
 H                    -2.68395  -1.31567   1.53602 
 H                    -2.8479   -2.44842   0.2021 
 H                    -4.05062  -0.7886   -1.13343 
 H                    -4.83774  -0.9101    0.42825 
 H                     1.73603  -0.87403  -1.59296 
 H                     1.0094   -1.8867   -0.36214 
 H                    -1.14687   0.48973   1.23585 
 H                     4.95619  -0.38096   0.38789 
 H                     4.18047   0.08076  -1.12239 
 H                     0.97659  -0.00239   1.21112 
 H                    -2.29524   1.22587  -1.47656 
 H                    -2.06354   2.32464  -0.12575 
 
 The following ModRedundant input section has been read:
 D      10       7      12       9 F                                           
 

 GradGradGradGradGradGradGradGradGradGradGradGradGradGradGradGradGradGrad
 Berny optimization.
 Initialization pass.
                           ----------------------------
                           !    Initial Parameters    !
                           ! (Angstroms and Degrees)  !
 --------------------------                            --------------------------
 ! Name  Definition              Value          Derivative Info.                !
 --------------------------------------------------------------------------------
 ! R1    R(1,8)                  1.5292         estimate D2E/DX2                !
 ! R2    R(1,13)                 1.5311         estimate D2E/DX2                !
 ! R3    R(1,14)                 1.0852         estimate D2E/DX2                !
 ! R4    R(1,15)                 1.0881         estimate D2E/DX2                !
 ! R5    R(2,4)                  1.4101         estimate D2E/DX2                !
 ! R6    R(2,12)                 1.5237         estimate D2E/DX2                !
 ! R7    R(2,16)                 1.0877         estimate D2E/DX2                !
 ! R8    R(2,17)                 1.0813         estimate D2E/DX2                !
 ! R9    R(3,9)                  1.5315         estimate D2E/DX2                !
 ! R10   R(3,11)                 1.5194         estimate D2E/DX2                !
 ! R11   R(3,18)                 1.0873         estimate D2E/DX2                !
 ! R12   R(3,19)                 1.0859         estimate D2E/DX2                !
 ! R13   R(4,11)                 1.4166         estimate D2E/DX2                !
 ! R14   R(5,6)                  1.4192         estimate D2E/DX2                !
 ! R15   R(5,10)                 1.4074         estimate D2E/DX2                !
 ! R16   R(6,8)                  1.52           estimate D2E/DX2                !
 ! R17   R(6,20)                 1.0876         estimate D2E/DX2                !
 ! R18   R(6,21)                 1.0809         estimate D2E/DX2                !
 ! R19   R(7,10)                 1.3871         estimate D2E/DX2                !
 ! R20   R(7,12)                 1.4187         estimate D2E/DX2                !
 ! R21   R(8,22)                 1.0873         estimate D2E/DX2                !
 ! R22   R(8,23)                 1.0863         estimate D2E/DX2                !
 ! R23   R(9,12)                 1.5251         estimate D2E/DX2                !
 ! R24   R(9,24)                 1.0879         estimate D2E/DX2                !
 ! R25   R(9,25)                 1.0831         estimate D2E/DX2                !
 ! R26   R(10,13)                1.5169         estimate D2E/DX2                !
 ! R27   R(10,26)                1.087          estimate D2E/DX2                !
 ! R28   R(11,27)                1.0814         estimate D2E/DX2                !
 ! R29   R(11,28)                1.0877         estimate D2E/DX2                !
 ! R30   R(12,29)                1.0852         estimate D2E/DX2                !
 ! R31   R(13,30)                1.0869         estimate D2E/DX2                !
 ! R32   R(13,31)                1.0851         estimate D2E/DX2                !
 ! A1    A(8,1,13)             110.3481         estimate D2E/DX2                !
 ! A2    A(8,1,14)             110.6899         estimate D2E/DX2                !
 ! A3    A(8,1,15)             109.3745         estimate D2E/DX2                !
 ! A4    A(13,1,14)            109.9907         estimate D2E/DX2                !
 ! A5    A(13,1,15)            109.3989         estimate D2E/DX2                !
 ! A6    A(14,1,15)            106.9686         estimate D2E/DX2                !
 ! A7    A(4,2,12)             110.9716         estimate D2E/DX2                !
 ! A8    A(4,2,16)             109.8214         estimate D2E/DX2                !
 ! A9    A(4,2,17)             106.9966         estimate D2E/DX2                !
 ! A10   A(12,2,16)            109.7702         estimate D2E/DX2                !
 ! A11   A(12,2,17)            110.5319         estimate D2E/DX2                !
 ! A12   A(16,2,17)            108.6855         estimate D2E/DX2                !
 ! A13   A(9,3,11)             110.6766         estimate D2E/DX2                !
 ! A14   A(9,3,18)             109.9747         estimate D2E/DX2                !
 ! A15   A(9,3,19)             110.3339         estimate D2E/DX2                !
 ! A16   A(11,3,18)            109.0359         estimate D2E/DX2                !
 ! A17   A(11,3,19)            109.3832         estimate D2E/DX2                !
 ! A18   A(18,3,19)            107.3651         estimate D2E/DX2                !
 ! A19   A(2,4,11)             113.3462         estimate D2E/DX2                !
 ! A20   A(6,5,10)             113.476          estimate D2E/DX2                !
 ! A21   A(5,6,8)              110.8591         estimate D2E/DX2                !
 ! A22   A(5,6,20)             109.0298         estimate D2E/DX2                !
 ! A23   A(5,6,21)             106.0678         estimate D2E/DX2                !
 ! A24   A(8,6,20)             110.6579         estimate D2E/DX2                !
 ! A25   A(8,6,21)             111.7727         estimate D2E/DX2                !
 ! A26   A(20,6,21)            108.2972         estimate D2E/DX2                !
 ! A27   A(10,7,12)            118.1793         estimate D2E/DX2                !
 ! A28   A(1,8,6)              110.1218         estimate D2E/DX2                !
 ! A29   A(1,8,22)             109.9557         estimate D2E/DX2                !
 ! A30   A(1,8,23)             110.9009         estimate D2E/DX2                !
 ! A31   A(6,8,22)             109.0775         estimate D2E/DX2                !
 ! A32   A(6,8,23)             109.2143         estimate D2E/DX2                !
 ! A33   A(22,8,23)            107.5129         estimate D2E/DX2                !
 ! A34   A(3,9,12)             109.8808         estimate D2E/DX2                !
 ! A35   A(3,9,24)             109.6631         estimate D2E/DX2                !
 ! A36   A(3,9,25)             110.5443         estimate D2E/DX2                !
 ! A37   A(12,9,24)            108.4854         estimate D2E/DX2                !
 ! A38   A(12,9,25)            110.6253         estimate D2E/DX2                !
 ! A39   A(24,9,25)            107.5852         estimate D2E/DX2                !
 ! A40   A(5,10,7)             108.5174         estimate D2E/DX2                !
 ! A41   A(5,10,13)            110.6515         estimate D2E/DX2                !
 ! A42   A(5,10,26)            108.2371         estimate D2E/DX2                !
 ! A43   A(7,10,13)            109.0637         estimate D2E/DX2                !
 ! A44   A(7,10,26)            109.6031         estimate D2E/DX2                !
 ! A45   A(13,10,26)           110.7311         estimate D2E/DX2                !
 ! A46   A(3,11,4)             110.7847         estimate D2E/DX2                !
 ! A47   A(3,11,27)            111.5039         estimate D2E/DX2                !
 ! A48   A(3,11,28)            110.6944         estimate D2E/DX2                !
 ! A49   A(4,11,27)            106.2995         estimate D2E/DX2                !
 ! A50   A(4,11,28)            108.9968         estimate D2E/DX2                !
 ! A51   A(27,11,28)           108.419          estimate D2E/DX2                !
 ! A52   A(2,12,7)             106.3414         estimate D2E/DX2                !
 ! A53   A(2,12,9)             110.4479         estimate D2E/DX2                !
 ! A54   A(2,12,29)            108.748          estimate D2E/DX2                !
 ! A55   A(7,12,9)             112.3674         estimate D2E/DX2                !
 ! A56   A(7,12,29)            109.0243         estimate D2E/DX2                !
 ! A57   A(9,12,29)            109.7965         estimate D2E/DX2                !
 ! A58   A(1,13,10)            110.3254         estimate D2E/DX2                !
 ! A59   A(1,13,30)            110.2512         estimate D2E/DX2                !
 ! A60   A(1,13,31)            110.9417         estimate D2E/DX2                !
 ! A61   A(10,13,30)           108.2761         estimate D2E/DX2                !
 ! A62   A(10,13,31)           109.0193         estimate D2E/DX2                !
 ! A63   A(30,13,31)           107.9503         estimate D2E/DX2                !
 ! D1    D(13,1,8,6)            51.4138         estimate D2E/DX2                !
 ! D2    D(13,1,8,22)          -68.8087         estimate D2E/DX2                !
 ! D3    D(13,1,8,23)          172.4176         estimate D2E/DX2                !
 ! D4    D(14,1,8,6)           173.4072         estimate D2E/DX2                !
 ! D5    D(14,1,8,22)           53.1847         estimate D2E/DX2                !
 ! D6    D(14,1,8,23)          -65.5889         estimate D2E/DX2                !
 ! D7    D(15,1,8,6)           -68.9794         estimate D2E/DX2                !
 ! D8    D(15,1,8,22)          170.7981         estimate D2E/DX2                !
 ! D9    D(15,1,8,23)           52.0245         estimate D2E/DX2                !
 ! D10   D(8,1,13,10)          -51.8262         estimate D2E/DX2                !
 ! D11   D(8,1,13,30)           67.7194         estimate D2E/DX2                !
 ! D12   D(8,1,13,31)         -172.7476         estimate D2E/DX2                !
 ! D13   D(14,1,13,10)        -174.2312         estimate D2E/DX2                !
 ! D14   D(14,1,13,30)         -54.6856         estimate D2E/DX2                !
 ! D15   D(14,1,13,31)          64.8473         estimate D2E/DX2                !
 ! D16   D(15,1,13,10)          68.5522         estimate D2E/DX2                !
 ! D17   D(15,1,13,30)        -171.9022         estimate D2E/DX2                !
 ! D18   D(15,1,13,31)         -52.3692         estimate D2E/DX2                !
 ! D19   D(12,2,4,11)           60.7358         estimate D2E/DX2                !
 ! D20   D(16,2,4,11)          -60.8123         estimate D2E/DX2                !
 ! D21   D(17,2,4,11)         -178.6054         estimate D2E/DX2                !
 ! D22   D(4,2,12,7)          -177.8352         estimate D2E/DX2                !
 ! D23   D(4,2,12,9)           -55.657          estimate D2E/DX2                !
 ! D24   D(4,2,12,29)           64.8909         estimate D2E/DX2                !
 ! D25   D(16,2,12,7)          -56.2571         estimate D2E/DX2                !
 ! D26   D(16,2,12,9)           65.9211         estimate D2E/DX2                !
 ! D27   D(16,2,12,29)        -173.531          estimate D2E/DX2                !
 ! D28   D(17,2,12,7)           63.6204         estimate D2E/DX2                !
 ! D29   D(17,2,12,9)         -174.2014         estimate D2E/DX2                !
 ! D30   D(17,2,12,29)         -53.6534         estimate D2E/DX2                !
 ! D31   D(11,3,9,12)          -51.6977         estimate D2E/DX2                !
 ! D32   D(11,3,9,24)           67.4622         estimate D2E/DX2                !
 ! D33   D(11,3,9,25)         -174.0783         estimate D2E/DX2                !
 ! D34   D(18,3,9,12)           68.8399         estimate D2E/DX2                !
 ! D35   D(18,3,9,24)         -172.0002         estimate D2E/DX2                !
 ! D36   D(18,3,9,25)          -53.5407         estimate D2E/DX2                !
 ! D37   D(19,3,9,12)         -172.9072         estimate D2E/DX2                !
 ! D38   D(19,3,9,24)          -53.7472         estimate D2E/DX2                !
 ! D39   D(19,3,9,25)           64.7122         estimate D2E/DX2                !
 ! D40   D(9,3,11,4)            55.2552         estimate D2E/DX2                !
 ! D41   D(9,3,11,27)          173.4321         estimate D2E/DX2                !
 ! D42   D(9,3,11,28)          -65.7803         estimate D2E/DX2                !
 ! D43   D(18,3,11,4)          -65.8398         estimate D2E/DX2                !
 ! D44   D(18,3,11,27)          52.3371         estimate D2E/DX2                !
 ! D45   D(18,3,11,28)         173.1247         estimate D2E/DX2                !
 ! D46   D(19,3,11,4)          177.0253         estimate D2E/DX2                !
 ! D47   D(19,3,11,27)         -64.7978         estimate D2E/DX2                !
 ! D48   D(19,3,11,28)          55.9898         estimate D2E/DX2                !
 ! D49   D(2,4,11,3)           -60.5344         estimate D2E/DX2                !
 ! D50   D(2,4,11,27)          178.1678         estimate D2E/DX2                !
 ! D51   D(2,4,11,28)           61.4996         estimate D2E/DX2                !
 ! D52   D(10,5,6,8)            61.0497         estimate D2E/DX2                !
 ! D53   D(10,5,6,20)          -61.0087         estimate D2E/DX2                !
 ! D54   D(10,5,6,21)         -177.4281         estimate D2E/DX2                !
 ! D55   D(6,5,10,7)           179.1025         estimate D2E/DX2                !
 ! D56   D(6,5,10,13)          -61.2711         estimate D2E/DX2                !
 ! D57   D(6,5,10,26)           60.228          estimate D2E/DX2                !
 ! D58   D(5,6,8,1)            -54.9982         estimate D2E/DX2                !
 ! D59   D(5,6,8,22)            65.753          estimate D2E/DX2                !
 ! D60   D(5,6,8,23)          -177.0067         estimate D2E/DX2                !
 ! D61   D(20,6,8,1)            66.1043         estimate D2E/DX2                !
 ! D62   D(20,6,8,22)         -173.1445         estimate D2E/DX2                !
 ! D63   D(20,6,8,23)          -55.9043         estimate D2E/DX2                !
 ! D64   D(21,6,8,1)          -173.1063         estimate D2E/DX2                !
 ! D65   D(21,6,8,22)          -52.3551         estimate D2E/DX2                !
 ! D66   D(21,6,8,23)           64.8852         estimate D2E/DX2                !
 ! D67   D(12,7,10,5)          -75.2228         estimate D2E/DX2                !
 ! D68   D(12,7,10,13)         164.1624         estimate D2E/DX2                !
 ! D69   D(12,7,10,26)          42.7873         estimate D2E/DX2                !
 ! D70   D(10,7,12,2)         -140.1998         estimate D2E/DX2                !
 ! D71   D(10,7,12,9)           98.8469         Frozen                          !
 ! D72   D(10,7,12,29)         -23.11           estimate D2E/DX2                !
 ! D73   D(3,9,12,2)            51.6454         estimate D2E/DX2                !
 ! D74   D(3,9,12,7)           170.2095         estimate D2E/DX2                !
 ! D75   D(3,9,12,29)          -68.2735         estimate D2E/DX2                !
 ! D76   D(24,9,12,2)          -68.2337         estimate D2E/DX2                !
 ! D77   D(24,9,12,7)           50.3304         estimate D2E/DX2                !
 ! D78   D(24,9,12,29)         171.8473         estimate D2E/DX2                !
 ! D79   D(25,9,12,2)          173.9781         estimate D2E/DX2                !
 ! D80   D(25,9,12,7)          -67.4578         estimate D2E/DX2                !
 ! D81   D(25,9,12,29)          54.0591         estimate D2E/DX2                !
 ! D82   D(5,10,13,1)           55.765          estimate D2E/DX2                !
 ! D83   D(5,10,13,30)         -64.9695         estimate D2E/DX2                !
 ! D84   D(5,10,13,31)         177.8274         estimate D2E/DX2                !
 ! D85   D(7,10,13,1)          175.0623         estimate D2E/DX2                !
 ! D86   D(7,10,13,30)          54.3278         estimate D2E/DX2                !
 ! D87   D(7,10,13,31)         -62.8753         estimate D2E/DX2                !
 ! D88   D(26,10,13,1)         -64.2513         estimate D2E/DX2                !
 ! D89   D(26,10,13,30)        175.0142         estimate D2E/DX2                !
 ! D90   D(26,10,13,31)         57.8111         estimate D2E/DX2                !
 --------------------------------------------------------------------------------
 Trust Radius=3.00D-01 FncErr=1.00D-07 GrdErr=1.00D-06 EigMax=2.50D+02 EigMin=1.00D-04
 Number of steps in this run=    186 maximum allowed number of steps=    186.
 GradGradGradGradGradGradGradGradGradGradGradGradGradGradGradGradGradGrad

                          Input orientation:                          
 ---------------------------------------------------------------------
 Center     Atomic      Atomic             Coordinates (Angstroms)
 Number     Number       Type             X           Y           Z
 ---------------------------------------------------------------------
      1          6           0       -3.678385    0.902257    0.154267
      2          6           0        2.195375    1.323500    0.062760
      3          6           0        3.085465   -1.399046    0.004999
      4          8           0        3.438241    0.919136    0.592035
      5          8           0       -1.536930   -0.963491   -0.126464
      6          6           0       -2.755624   -1.401381    0.454178
      7          8           0       -0.018527    0.692450   -0.438438
      8          6           0       -3.928121   -0.589432   -0.071556
      9          6           0        1.688441   -1.058192   -0.521852
     10          6           0       -1.231645    0.380707    0.157657
     11          6           0        4.002118   -0.190558   -0.084265
     12          6           0        1.169090    0.201741    0.162826
     13          6           0       -2.304868    1.300837   -0.392340
     14          1           0       -4.452970    1.496719   -0.319421
     15          1           0       -3.719705    1.117884    1.219977
     16          1           0        2.316083    1.620071   -0.976739
     17          1           0        1.873701    2.183802    0.633323
     18          1           0        3.023128   -1.721061    1.041612
     19          1           0        3.513605   -2.218923   -0.563867
     20          1           0       -2.683945   -1.315669    1.536020
     21          1           0       -2.847900   -2.448418    0.202097
     22          1           0       -4.050623   -0.788596   -1.133429
     23          1           0       -4.837743   -0.910096    0.428245
     24          1           0        1.736029   -0.874026   -1.592959
     25          1           0        1.009404   -1.886696   -0.362136
     26          1           0       -1.146873    0.489731    1.235847
     27          1           0        4.956187   -0.380958    0.387891
     28          1           0        4.180470    0.080758   -1.122386
     29          1           0        0.976590   -0.002391    1.211122
     30          1           0       -2.295238    1.225872   -1.476559
     31          1           0       -2.063542    2.324639   -0.125749
 ---------------------------------------------------------------------
                    Distance matrix (angstroms):
                    1          2          3          4          5
     1  C    0.000000
     2  C    5.889556   0.000000
     3  C    7.146184   2.864935   0.000000
     4  O    7.130098   1.410092   2.417236   0.000000
     5  O    2.854059   4.381351   4.644731   5.367760   0.000000
     6  C    2.499636   5.664854   5.858335   6.615721   1.419193
     7  O    3.713473   2.356011   3.769053   3.614209   2.268263
     8  C    1.529216   6.416740   7.060575   7.548471   2.420894
     9  C    5.753548   2.504238   1.531480   2.865723   3.250895
    10  C    2.501712   3.555605   4.672073   4.720850   1.407406
    11  C    7.761525   2.361844   1.519429   1.416601   5.592876
    12  C    4.897837   1.523685   2.501984   2.418248   2.960405
    13  C    1.531076   4.523253   6.041766   5.839348   2.405743
    14  H    1.085241   6.661573   8.081999   7.964645   3.820099
    15  H    1.088090   6.030721   7.356728   7.188185   3.302958
    16  H    6.142319   1.087696   3.266623   2.052218   4.716298
    17  H    5.718174   1.081266   3.834053   2.012180   4.702673
    18  H    7.251169   3.303434   1.087265   2.710181   4.767855
    19  H    7.872878   3.831338   1.085869   3.345027   5.222579
    20  H    2.795952   5.739640   5.969679   6.585334   2.050250
    21  H    3.452393   6.299318   6.028669   7.141991   2.007885
    22  H    2.157709   6.701068   7.252063   7.872526   2.713525
    23  H    2.168824   7.388320   7.949556   8.477313   3.347524
    24  H    5.960190   2.789538   2.156407   3.299569   3.587600
    25  H    5.479078   3.448539   2.163936   3.831760   2.718762
    26  H    2.783621   3.638946   4.795326   4.649963   2.029751
    27  H    8.732529   3.260824   2.163957   2.009000   6.539455
    28  H    8.004143   2.624801   2.158669   2.047687   5.896692
    29  H    4.858407   2.135921   2.802273   2.700409   3.005101
    30  H    2.162733   4.748120   6.167428   6.102946   2.681622
    31  H    2.170092   4.379063   6.355722   5.723659   3.330033
                    6          7          8          9         10
     6  C    0.000000
     7  O    3.559858   0.000000
     8  C    1.520002   4.130708   0.000000
     9  C    4.562908   2.446517   5.654049   0.000000
    10  C    2.363530   1.387144   2.874838   3.325517   0.000000
    11  C    6.886442   4.131674   7.940274   2.509457   5.270403
    12  C    4.249502   1.418713   5.163569   1.525103   2.407402
    13  C    2.867360   2.366351   2.512164   4.639861   1.516886
    14  H    3.446509   4.508359   2.165394   6.654733   3.442386
    15  H    2.804032   4.077996   2.150912   6.084186   2.803996
    16  H    6.074447   2.569174   6.685158   2.788180   3.925462
    17  H    5.858010   2.636917   6.469066   3.446633   3.622235
    18  H    5.817323   4.155388   7.130189   2.159908   4.827204
    19  H    6.403751   4.579059   7.633931   2.163397   5.458578
    20  H    1.087597   3.877561   2.158633   4.839307   2.624262
    21  H    1.080901   4.275592   2.167393   4.799502   3.258558
    22  H    2.138463   4.351357   1.087312   5.777851   3.313730
    23  H    2.139452   5.152100   1.086296   6.596643   3.839705
    24  H    4.964254   2.620159   5.871819   1.087866   3.666892
    25  H    3.882954   2.777491   5.113363   1.083060   3.230109
    26  H    2.602958   2.029160   3.257182   3.677578   1.086999
    27  H    7.779311   5.155851   8.898622   3.458965   6.238782
    28  H    7.265789   4.298084   8.203819   2.805006   5.569512
    29  H    4.057038   2.047953   5.103535   2.150499   2.476460
    30  H    3.292743   2.558446   2.817032   4.690215   2.125134
    31  H    3.833865   2.635128   3.459971   5.067329   2.133364
                   11         12         13         14         15
    11  C    0.000000
    12  C    2.870714   0.000000
    13  C    6.488239   3.685730   0.000000
    14  H    8.625005   5.789395   2.158247   0.000000
    15  H    7.939749   5.084998   2.152859   1.746694   0.000000
    16  H    2.630133   2.150782   4.668685   6.802012   6.442708
    17  H    3.268436   2.155553   4.392272   6.434794   5.724206
    18  H    2.137396   2.811919   6.290916   8.252185   7.318280
    19  H    2.140777   3.447383   6.802408   8.793865   8.163158
    20  H    6.970985   4.362806   3.272365   3.805475   2.663618
    21  H    7.218219   4.812597   3.834730   4.290960   3.809808
    22  H    8.142790   5.468679   2.821809   2.459097   3.046751
    23  H    8.883892   6.114628   3.460786   2.549473   2.447356
    24  H    2.806857   2.135761   4.743455   6.748781   6.453321
    25  H    3.451150   2.159318   4.598443   6.425485   5.821946
    26  H    5.358880   2.568657   2.156348   3.789876   2.648451
    27  H    1.081402   3.838267   7.494005   9.620717   8.843642
    28  H    1.087712   3.276403   6.639365   8.785555   8.305123
    29  H    3.296552   1.085196   3.877816   5.836952   4.828072
    30  H    6.603139   3.967114   1.086850   2.463358   3.051569
    31  H    6.566595   3.878129   1.085117   2.536203   2.451553
                   16         17         18         19         20
    16  H    0.000000
    17  H    1.762326   0.000000
    18  H    3.966966   4.090946   0.000000
    19  H    4.042573   4.848354   1.750999   0.000000
    20  H    6.319241   5.816640   5.742775   6.605681   0.000000
    21  H    6.678995   6.628494   5.975182   6.411561   1.757655
    22  H    6.808904   6.859605   7.459105   7.719312   3.044926
    23  H    7.717056   7.393087   7.926360   8.511306   2.455708
    24  H    2.633763   3.784917   3.052058   2.455108   5.433390
    25  H    3.792435   4.278657   2.460290   2.534185   4.191646
    26  H    4.262073   3.515221   4.723795   5.682942   2.390013
    27  H    3.582804   4.017456   2.441300   2.522895   7.782256
    28  H    2.422114   3.581409   3.044483   2.458696   7.492485
    29  H    3.035352   2.432714   2.677850   3.807892   3.902534
    30  H    4.655050   4.769621   6.581080   6.814857   3.960575
    31  H    4.516826   4.012220   6.603380   7.206974   4.049471
                   21         22         23         24         25
    21  H    0.000000
    22  H    2.446463   0.000000
    23  H    2.525283   1.753039   0.000000
    24  H    5.168495   5.805498   6.877576   0.000000
    25  H    3.938615   5.234939   5.980600   1.751688   0.000000
    26  H    3.548923   3.959716   4.029176   4.262992   3.584757
    27  H    8.075437   9.143479   9.808297   3.812650   4.290324
    28  H    7.586104   8.276883   9.204043   2.666148   3.808479
    29  H    4.650581   5.602491   5.936606   3.033046   2.454959
    30  H    4.077221   2.693918   3.828181   4.546893   4.674471
    31  H    4.848172   3.828334   4.297279   5.178890   5.218641
                   26         27         28         29         30
    26  H    0.000000
    27  H    6.222899   0.000000
    28  H    5.840300   1.759504   0.000000
    29  H    2.179883   4.081448   3.964470   0.000000
    30  H    3.036082   7.657757   6.585706   4.408755   0.000000
    31  H    2.461933   7.540602   6.709394   4.055206   1.756605
                   31
    31  H    0.000000
 Stoichiometry    C10H18O3
 Framework group  C1[X(C10H18O3)]
 Deg. of freedom    87
 Full point group                 C1      NOp   1
 Largest Abelian subgroup         C1      NOp   1
 Largest concise Abelian subgroup C1      NOp   1
                         Standard orientation:                         
 ---------------------------------------------------------------------
 Center     Atomic      Atomic             Coordinates (Angstroms)
 Number     Number       Type             X           Y           Z
 ---------------------------------------------------------------------
      1          6           0       -3.678385   -0.902257   -0.154267
      2          6           0        2.195375   -1.323500   -0.062760
      3          6           0        3.085465    1.399046   -0.004999
      4          8           0        3.438241   -0.919136   -0.592035
      5          8           0       -1.536930    0.963491    0.126464
      6          6           0       -2.755624    1.401381   -0.454178
      7          8           0       -0.018527   -0.692450    0.438438
      8          6           0       -3.928121    0.589432    0.071556
      9          6           0        1.688441    1.058192    0.521852
     10          6           0       -1.231645   -0.380707   -0.157657
     11          6           0        4.002118    0.190558    0.084265
     12          6           0        1.169090   -0.201741   -0.162826
     13          6           0       -2.304868   -1.300837    0.392340
     14          1           0       -4.452970   -1.496719    0.319421
     15          1           0       -3.719705   -1.117884   -1.219977
     16          1           0        2.316083   -1.620071    0.976739
     17          1           0        1.873701   -2.183802   -0.633323
     18          1           0        3.023128    1.721061   -1.041612
     19          1           0        3.513605    2.218923    0.563867
     20          1           0       -2.683945    1.315669   -1.536020
     21          1           0       -2.847900    2.448418   -0.202097
     22          1           0       -4.050623    0.788596    1.133429
     23          1           0       -4.837743    0.910096   -0.428245
     24          1           0        1.736029    0.874026    1.592959
     25          1           0        1.009404    1.886696    0.362136
     26          1           0       -1.146873   -0.489731   -1.235847
     27          1           0        4.956187    0.380958   -0.387891
     28          1           0        4.180470   -0.080758    1.122386
     29          1           0        0.976590    0.002391   -1.211122
     30          1           0       -2.295238   -1.225872    1.476559
     31          1           0       -2.063542   -2.324639    0.125749
 ---------------------------------------------------------------------
 Rotational constants (GHZ):           2.2030235           0.3672820           0.3292320
 Standard basis: 6-311++G(2d,2p) (5D, 7F)
 There are   557 symmetry adapted cartesian basis functions of A   symmetry.
 There are   531 symmetry adapted basis functions of A   symmetry.
   531 basis functions,   762 primitive gaussians,   557 cartesian basis functions
    51 alpha electrons       51 beta electrons
       nuclear repulsion energy       878.4688874338 Hartrees.
 NAtoms=   31 NActive=   31 NUniq=   31 SFac= 1.00D+00 NAtFMM=   60 NAOKFM=F Big=F
 Integral buffers will be    131072 words long.
 Raffenetti 2 integral format.
 Two-electron integral symmetry is turned on.
 ------------------------------------------------------------------------------
 Polarizable Continuum Model (PCM)
 =================================
 Model                : PCM.
 Atomic radii         : SMD-Coulomb.
 Polarization charges : Total charges.
 Charge compensation  : None.
 Solution method      : On-the-fly selection.
 Cavity type          : VdW (van der Waals Surface) (Alpha=1.000).
 Cavity algorithm     : GePol (No added spheres)
                        Default sphere list used, NSphG=   31.
                        Lebedev-Laikov grids with approx.  5.0 points / Ang**2.
                        Smoothing algorithm: York/Karplus (Gamma=1.0000).
                        Polarization charges: spherical gaussians, with
                                              point-specific exponents (IZeta= 3).
                        Self-potential: point-specific (ISelfS= 7).
                        Self-field    : sphere-specific E.n sum rule (ISelfD= 2).
 1st derivatives      : Analytical E(r).r(x)/FMM algorithm (CHGder, D1EAlg=3).
                        Cavity 1st derivative terms included.
 Solvent              : Water, Eps=  78.355300 Eps(inf)=   1.777849
 ------------------------------------------------------------------------------
 ------------------------------------------------------------------------------
 Atomic radii for non-electrostatic terms: SMD-CDS.
 ------------------------------------------------------------------------------
 Nuclear repulsion after PCM non-electrostatic terms =      878.4753650051 Hartrees.
 One-electron integrals computed using PRISM.
 NBasis=   531 RedAO= T EigKep=  6.29D-06  NBF=   531
 NBsUse=   531 1.00D-06 EigRej= -1.00D+00 NBFU=   531
 ExpMin= 3.60D-02 ExpMax= 8.59D+03 ExpMxC= 1.30D+03 IAcc=3 IRadAn=         5 AccDes= 0.00D+00
 Harris functional with IExCor= 1009 and IRadAn=       5 diagonalized for initial guess.
 HarFok:  IExCor= 1009 AccDes= 0.00D+00 IRadAn=         5 IDoV= 1 UseB2=F ITyADJ=14
 ICtDFT=  3500011 ScaDFX=  1.000000  1.000000  1.000000  1.000000
 FoFCou: FMM=F IPFlag=           0 FMFlag=      100000 FMFlg1=           0
         NFxFlg=           0 DoJE=T BraDBF=F KetDBF=T FulRan=T
         wScrn=  0.000000 ICntrl=       500 IOpCl=  0 I1Cent=   200000004 NGrid=           0
         NMat0=    1 NMatS0=      1 NMatT0=    0 NMatD0=    1 NMtDS0=    0 NMtDT0=    0
 Petite list used in FoFCou.
 Requested convergence on RMS density matrix=1.00D-08 within 128 cycles.
 Requested convergence on MAX density matrix=1.00D-06.
 Requested convergence on             energy=1.00D-06.
 No special actions if energy rises.
 Inv3:  Mode=1 IEnd=    12012003.
 Iteration    1 A*A^-1 deviation from unit magnitude is 7.11D-15 for    167.
 Iteration    1 A*A^-1 deviation from orthogonality  is 4.42D-15 for   1994   1047.
 Iteration    1 A^-1*A deviation from unit magnitude is 7.55D-15 for    167.
 Iteration    1 A^-1*A deviation from orthogonality  is 2.47D-15 for   1313    759.
 Error on total polarization charges =  0.06319
 SCF Done:  E(RM062X) =  -617.505787564     A.U. after   12 cycles
            NFock= 12  Conv=0.46D-08     -V/T= 2.0035
 SMD-CDS (non-electrostatic) energy       (kcal/mol) =       4.06
 (included in total energy above)

 **********************************************************************

            Population analysis using the SCF Density.

 **********************************************************************

 Orbital symmetries:
       Occupied  (A) (A) (A) (A) (A) (A) (A) (A) (A) (A) (A) (A)
                 (A) (A) (A) (A) (A) (A) (A) (A) (A) (A) (A) (A)
                 (A) (A) (A) (A) (A) (A) (A) (A) (A) (A) (A) (A)
                 (A) (A) (A) (A) (A) (A) (A) (A) (A) (A) (A) (A)
                 (A) (A) (A)
       Virtual   (A) (A) (A) (A) (A) (A) (A) (A) (A) (A) (A) (A)
                 (A) (A) (A) (A) (A) (A) (A) (A) (A) (A) (A) (A)
                 (A) (A) (A) (A) (A) (A) (A) (A) (A) (A) (A) (A)
                 (A) (A) (A) (A) (A) (A) (A) (A) (A) (A) (A) (A)
                 (A) (A) (A) (A) (A) (A) (A) (A) (A) (A) (A) (A)
                 (A) (A) (A) (A) (A) (A) (A) (A) (A) (A) (A) (A)
                 (A) (A) (A) (A) (A) (A) (A) (A) (A) (A) (A) (A)
                 (A) (A) (A) (A) (A) (A) (A) (A) (A) (A) (A) (A)
                 (A) (A) (A) (A) (A) (A) (A) (A) (A) (A) (A) (A)
                 (A) (A) (A) (A) (A) (A) (A) (A) (A) (A) (A) (A)
                 (A) (A) (A) (A) (A) (A) (A) (A) (A) (A) (A) (A)
                 (A) (A) (A) (A) (A) (A) (A) (A) (A) (A) (A) (A)
                 (A) (A) (A) (A) (A) (A) (A) (A) (A) (A) (A) (A)
                 (A) (A) (A) (A) (A) (A) (A) (A) (A) (A) (A) (A)
                 (A) (A) (A) (A) (A) (A) (A) (A) (A) (A) (A) (A)
                 (A) (A) (A) (A) (A) (A) (A) (A) (A) (A) (A) (A)
                 (A) (A) (A) (A) (A) (A) (A) (A) (A) (A) (A) (A)
                 (A) (A) (A) (A) (A) (A) (A) (A) (A) (A) (A) (A)
                 (A) (A) (A) (A) (A) (A) (A) (A) (A) (A) (A) (A)
                 (A) (A) (A) (A) (A) (A) (A) (A) (A) (A) (A) (A)
                 (A) (A) (A) (A) (A) (A) (A) (A) (A) (A) (A) (A)
                 (A) (A) (A) (A) (A) (A) (A) (A) (A) (A) (A) (A)
                 (A) (A) (A) (A) (A) (A) (A) (A) (A) (A) (A) (A)
                 (A) (A) (A) (A) (A) (A) (A) (A) (A) (A) (A) (A)
                 (A) (A) (A) (A) (A) (A) (A) (A) (A) (A) (A) (A)
                 (A) (A) (A) (A) (A) (A) (A) (A) (A) (A) (A) (A)
                 (A) (A) (A) (A) (A) (A) (A) (A) (A) (A) (A) (A)
                 (A) (A) (A) (A) (A) (A) (A) (A) (A) (A) (A) (A)
                 (A) (A) (A) (A) (A) (A) (A) (A) (A) (A) (A) (A)
                 (A) (A) (A) (A) (A) (A) (A) (A) (A) (A) (A) (A)
                 (A) (A) (A) (A) (A) (A) (A) (A) (A) (A) (A) (A)
                 (A) (A) (A) (A) (A) (A) (A) (A) (A) (A) (A) (A)
                 (A) (A) (A) (A) (A) (A) (A) (A) (A) (A) (A) (A)
                 (A) (A) (A) (A) (A) (A) (A) (A) (A) (A) (A) (A)
                 (A) (A) (A) (A) (A) (A) (A) (A) (A) (A) (A) (A)
                 (A) (A) (A) (A) (A) (A) (A) (A) (A) (A) (A) (A)
                 (A) (A) (A) (A) (A) (A) (A) (A) (A) (A) (A) (A)
                 (A) (A) (A) (A) (A) (A) (A) (A) (A) (A) (A) (A)
                 (A) (A) (A) (A) (A) (A) (A) (A) (A) (A) (A) (A)
                 (A) (A) (A) (A) (A) (A) (A) (A) (A) (A) (A) (A)
 The electronic state is 1-A.
 Alpha  occ. eigenvalues --  -19.63658 -19.62931 -19.62811 -10.63199 -10.58317
 Alpha  occ. eigenvalues --  -10.57351 -10.57331 -10.57188 -10.52448 -10.52359
 Alpha  occ. eigenvalues --  -10.52286 -10.52258 -10.52118  -1.20578  -1.16750
 Alpha  occ. eigenvalues --   -1.14179  -0.90544  -0.89300  -0.87182  -0.83751
 Alpha  occ. eigenvalues --   -0.74452  -0.73884  -0.72565  -0.69957  -0.66227
 Alpha  occ. eigenvalues --   -0.64336  -0.60068  -0.58139  -0.57029  -0.55644
 Alpha  occ. eigenvalues --   -0.54857  -0.52651  -0.51323  -0.50973  -0.50229
 Alpha  occ. eigenvalues --   -0.48012  -0.46777  -0.45798  -0.45271  -0.44247
 Alpha  occ. eigenvalues --   -0.42736  -0.40539  -0.40291  -0.40070  -0.39311
 Alpha  occ. eigenvalues --   -0.39009  -0.37644  -0.36888  -0.35206  -0.32434
 Alpha  occ. eigenvalues --   -0.31809
 Alpha virt. eigenvalues --    0.00513   0.01283   0.01326   0.01515   0.02600
 Alpha virt. eigenvalues --    0.02894   0.03039   0.04036   0.04219   0.04663
 Alpha virt. eigenvalues --    0.04840   0.05307   0.05978   0.06068   0.07164
 Alpha virt. eigenvalues --    0.07545   0.07713   0.08418   0.09110   0.10308
 Alpha virt. eigenvalues --    0.10384   0.10907   0.11279   0.11836   0.12224
 Alpha virt. eigenvalues --    0.12595   0.13025   0.13573   0.13802   0.13902
 Alpha virt. eigenvalues --    0.14090   0.14367   0.14758   0.15230   0.15314
 Alpha virt. eigenvalues --    0.15760   0.15986   0.16134   0.16409   0.16587
 Alpha virt. eigenvalues --    0.17155   0.17458   0.17558   0.17968   0.18035
 Alpha virt. eigenvalues --    0.18365   0.18694   0.19075   0.19512   0.19813
 Alpha virt. eigenvalues --    0.20149   0.20345   0.20666   0.21531   0.22168
 Alpha virt. eigenvalues --    0.22265   0.22978   0.23738   0.24453   0.24812
 Alpha virt. eigenvalues --    0.25393   0.25854   0.26878   0.27287   0.27363
 Alpha virt. eigenvalues --    0.28158   0.28432   0.29053   0.29602   0.29670
 Alpha virt. eigenvalues --    0.30497   0.30773   0.31250   0.31595   0.31844
 Alpha virt. eigenvalues --    0.32570   0.32754   0.33348   0.33831   0.34356
 Alpha virt. eigenvalues --    0.35155   0.35741   0.36062   0.36405   0.36595
 Alpha virt. eigenvalues --    0.36879   0.37202   0.37273   0.37722   0.38379
 Alpha virt. eigenvalues --    0.38817   0.39168   0.39845   0.40144   0.40890
 Alpha virt. eigenvalues --    0.41541   0.41729   0.42570   0.44411   0.44716
 Alpha virt. eigenvalues --    0.46759   0.47233   0.49090   0.49803   0.50701
 Alpha virt. eigenvalues --    0.51740   0.53618   0.53875   0.54456   0.55681
 Alpha virt. eigenvalues --    0.56493   0.57017   0.58341   0.59050   0.59778
 Alpha virt. eigenvalues --    0.61003   0.61168   0.61333   0.61457   0.62147
 Alpha virt. eigenvalues --    0.62566   0.62987   0.63663   0.64142   0.64390
 Alpha virt. eigenvalues --    0.64529   0.65130   0.66220   0.66832   0.67164
 Alpha virt. eigenvalues --    0.67506   0.67792   0.69243   0.70406   0.71223
 Alpha virt. eigenvalues --    0.71406   0.71929   0.72577   0.73038   0.73837
 Alpha virt. eigenvalues --    0.74431   0.74861   0.75248   0.75502   0.76488
 Alpha virt. eigenvalues --    0.76890   0.77142   0.77768   0.78443   0.80186
 Alpha virt. eigenvalues --    0.81627   0.83530   0.83956   0.84518   0.85696
 Alpha virt. eigenvalues --    0.86414   0.86585   0.88958   0.89376   0.90579
 Alpha virt. eigenvalues --    0.91338   0.91912   0.93373   0.93735   0.95166
 Alpha virt. eigenvalues --    0.96254   0.97994   1.00777   1.01416   1.02140
 Alpha virt. eigenvalues --    1.03097   1.03678   1.05324   1.06450   1.07389
 Alpha virt. eigenvalues --    1.07880   1.07990   1.09510   1.11087   1.11754
 Alpha virt. eigenvalues --    1.13387   1.14235   1.14759   1.16217   1.17164
 Alpha virt. eigenvalues --    1.17262   1.18431   1.19043   1.19347   1.19897
 Alpha virt. eigenvalues --    1.20349   1.21515   1.22232   1.22872   1.23869
 Alpha virt. eigenvalues --    1.24304   1.24944   1.25855   1.26902   1.27441
 Alpha virt. eigenvalues --    1.28869   1.29010   1.29353   1.30070   1.31334
 Alpha virt. eigenvalues --    1.31906   1.32200   1.32596   1.32917   1.34383
 Alpha virt. eigenvalues --    1.34828   1.35652   1.35936   1.36357   1.37571
 Alpha virt. eigenvalues --    1.37856   1.39548   1.40031   1.40931   1.42030
 Alpha virt. eigenvalues --    1.42249   1.42793   1.43924   1.44489   1.44809
 Alpha virt. eigenvalues --    1.45460   1.46033   1.46920   1.47467   1.48631
 Alpha virt. eigenvalues --    1.49065   1.50092   1.50506   1.51188   1.51609
 Alpha virt. eigenvalues --    1.52802   1.53289   1.53626   1.55083   1.55206
 Alpha virt. eigenvalues --    1.56518   1.57979   1.58346   1.58537   1.59067
 Alpha virt. eigenvalues --    1.59287   1.60072   1.61253   1.62266   1.62696
 Alpha virt. eigenvalues --    1.63507   1.63932   1.64636   1.66248   1.68125
 Alpha virt. eigenvalues --    1.68458   1.69231   1.70024   1.70106   1.72447
 Alpha virt. eigenvalues --    1.72849   1.75333   1.76076   1.77411   1.78611
 Alpha virt. eigenvalues --    1.79436   1.80061   1.80949   1.82471   1.83720
 Alpha virt. eigenvalues --    1.87740   1.87863   1.91890   1.92877   1.97115
 Alpha virt. eigenvalues --    1.99285   2.09183   2.10661   2.17016   2.18741
 Alpha virt. eigenvalues --    2.24273   2.26267   2.28734   2.33453   2.35474
 Alpha virt. eigenvalues --    2.41304   2.41725   2.44644   2.49343   2.51686
 Alpha virt. eigenvalues --    2.59372   2.76192   2.76606   2.77867   2.82429
 Alpha virt. eigenvalues --    2.87607   2.90568   2.93072   2.93429   2.94907
 Alpha virt. eigenvalues --    2.96634   2.98146   3.00317   3.02613   3.04229
 Alpha virt. eigenvalues --    3.07294   3.07522   3.08520   3.09997   3.11191
 Alpha virt. eigenvalues --    3.13623   3.15589   3.16827   3.17658   3.20906
 Alpha virt. eigenvalues --    3.25173   3.30062   3.31864   3.32918   3.36119
 Alpha virt. eigenvalues --    3.36294   3.37860   3.38973   3.39833   3.41600
 Alpha virt. eigenvalues --    3.42830   3.43633   3.44244   3.46242   3.46565
 Alpha virt. eigenvalues --    3.46902   3.48664   3.49629   3.50897   3.51797
 Alpha virt. eigenvalues --    3.53299   3.54449   3.54913   3.55723   3.56313
 Alpha virt. eigenvalues --    3.57174   3.58264   3.58576   3.59391   3.60422
 Alpha virt. eigenvalues --    3.60647   3.62152   3.63055   3.63736   3.65281
 Alpha virt. eigenvalues --    3.66591   3.67233   3.67884   3.68295   3.70077
 Alpha virt. eigenvalues --    3.70831   3.71471   3.72843   3.73154   3.73539
 Alpha virt. eigenvalues --    3.74624   3.75503   3.76176   3.77014   3.77913
 Alpha virt. eigenvalues --    3.78277   3.78614   3.79919   3.83414   3.84146
 Alpha virt. eigenvalues --    3.85601   3.87397   3.89896   3.90880   3.91444
 Alpha virt. eigenvalues --    3.92706   3.93805   3.95501   3.96833   3.99043
 Alpha virt. eigenvalues --    4.01625   4.02244   4.03512   4.04561   4.05095
 Alpha virt. eigenvalues --    4.05950   4.06090   4.06859   4.07193   4.07696
 Alpha virt. eigenvalues --    4.08908   4.09179   4.09581   4.10600   4.12172
 Alpha virt. eigenvalues --    4.12524   4.12592   4.14412   4.15601   4.16321
 Alpha virt. eigenvalues --    4.16661   4.17277   4.18656   4.19587   4.21938
 Alpha virt. eigenvalues --    4.22299   4.23148   4.24579   4.25650   4.26283
 Alpha virt. eigenvalues --    4.26866   4.29944   4.30926   4.32224   4.32698
 Alpha virt. eigenvalues --    4.33597   4.34352   4.35782   4.36558   4.38411
 Alpha virt. eigenvalues --    4.41449   4.43643   4.45618   4.46528   4.54976
 Alpha virt. eigenvalues --    4.58294   4.61649   4.76790   4.77328   4.83287
 Alpha virt. eigenvalues --    4.89061   4.92407   4.93365   4.99855   4.99920
 Alpha virt. eigenvalues --    5.06661   5.07362   5.08269   5.09248   5.12064
 Alpha virt. eigenvalues --    5.13102   5.14581   5.15541   5.29977   5.35207
 Alpha virt. eigenvalues --    5.36882   5.56535   5.59520   5.61593   5.86983
 Alpha virt. eigenvalues --    5.88844   6.04787   7.01268   7.05166   7.05360
 Alpha virt. eigenvalues --    7.09852   7.11406   7.11692   7.12790   7.16350
 Alpha virt. eigenvalues --    7.23434   7.35298   7.40585   7.43976   7.53820
 Alpha virt. eigenvalues --    7.55435   7.63206  23.95984  23.97800  24.06126
 Alpha virt. eigenvalues --   24.09571  24.11473  24.13263  24.14993  24.16152
 Alpha virt. eigenvalues --   24.17357  24.18363  50.16954  50.18760  50.21722
          Condensed to atoms (all electrons):
               1          2          3          4          5          6
     1  C    5.681539   0.001346  -0.002153  -0.000303   0.027151  -0.012760
     2  C    0.001346   6.060798   0.162792   0.149177   0.009305   0.016125
     3  C   -0.002153   0.162792   5.596305  -0.021347  -0.000967   0.002204
     4  O   -0.000303   0.149177  -0.021347   8.405904  -0.000122  -0.000257
     5  O    0.027151   0.009305  -0.000967  -0.000122   8.453235  -0.002372
     6  C   -0.012760   0.016125   0.002204  -0.000257  -0.002372   5.433323
     7  O    0.031867  -0.148836  -0.012006   0.000564   0.009757  -0.005597
     8  C   -0.011263  -0.007857   0.000204   0.000065  -0.055804   0.041315
     9  C    0.019258  -0.108980  -0.008335  -0.034940   0.026535  -0.031148
    10  C    0.000250  -0.035539  -0.114286   0.001393   0.260173  -0.144197
    11  C   -0.002256  -0.194257   0.058546   0.087334  -0.000890   0.000531
    12  C   -0.105990  -0.271423  -0.081781   0.008816  -0.108699   0.049708
    13  C    0.021573   0.008157   0.021861   0.002453  -0.037556   0.035079
    14  H    0.427609   0.000480   0.000115  -0.000002  -0.002978   0.006318
    15  H    0.516379  -0.001386   0.000025   0.000005   0.002294  -0.012716
    16  H   -0.002055   0.380998  -0.004892  -0.033498   0.000111  -0.001368
    17  H    0.000802   0.422924   0.003271  -0.074183   0.000427  -0.000029
    18  H    0.000270   0.010953   0.501002   0.000966   0.001556  -0.000707
    19  H    0.000038  -0.001949   0.429346   0.006884  -0.000677  -0.000257
    20  H   -0.009477   0.001843   0.001022  -0.000007  -0.027643   0.479745
    21  H    0.007625   0.000600  -0.000542   0.000005  -0.071546   0.436612
    22  H   -0.018944  -0.000305   0.000036   0.000007  -0.001941  -0.074206
    23  H   -0.059151  -0.000049  -0.000019  -0.000006   0.006593  -0.038788
    24  H    0.001359  -0.022652  -0.070592  -0.000601  -0.004973  -0.000815
    25  H   -0.002699   0.001000   0.000991  -0.002042  -0.000124   0.002151
    26  H   -0.030024  -0.008479  -0.007078   0.001235  -0.061558   0.009921
    27  H   -0.000082   0.022076  -0.045817  -0.068195  -0.000082  -0.000000
    28  H    0.000054  -0.032649  -0.038579  -0.042825   0.000204  -0.000017
    29  H   -0.002280  -0.081993  -0.004964  -0.013045  -0.007260   0.000865
    30  H   -0.025574  -0.004618   0.000430   0.000007  -0.007845  -0.000652
    31  H   -0.028569   0.003505   0.000228   0.000280   0.005202   0.001593
               7          8          9         10         11         12
     1  C    0.031867  -0.011263   0.019258   0.000250  -0.002256  -0.105990
     2  C   -0.148836  -0.007857  -0.108980  -0.035539  -0.194257  -0.271423
     3  C   -0.012006   0.000204  -0.008335  -0.114286   0.058546  -0.081781
     4  O    0.000564   0.000065  -0.034940   0.001393   0.087334   0.008816
     5  O    0.009757  -0.055804   0.026535   0.260173  -0.000890  -0.108699
     6  C   -0.005597   0.041315  -0.031148  -0.144197   0.000531   0.049708
     7  O    8.416881   0.008964  -0.191089   0.155308   0.013441   0.370818
     8  C    0.008964   5.550302  -0.013053   0.144966   0.001503   0.008131
     9  C   -0.191089  -0.013053   6.370186   0.201517  -0.096868  -0.758846
    10  C    0.155308   0.144966   0.201517   6.204281  -0.033681  -0.588950
    11  C    0.013441   0.001503  -0.096868  -0.033681   5.445268   0.156257
    12  C    0.370818   0.008131  -0.758846  -0.588950   0.156257   7.032149
    13  C   -0.236834  -0.104771   0.057205  -0.297263  -0.004712  -0.184593
    14  H   -0.003099  -0.029964   0.000865   0.043424  -0.000090  -0.006697
    15  H    0.001353  -0.060621   0.001141  -0.027312   0.000087   0.004593
    16  H    0.003997   0.000820  -0.007745   0.001731  -0.000521  -0.015916
    17  H    0.000031  -0.000446   0.033535   0.007868   0.005632  -0.054871
    18  H    0.001127   0.000090  -0.024507   0.008658  -0.088566  -0.034089
    19  H   -0.001625  -0.000206  -0.026560  -0.002380  -0.031639  -0.006479
    20  H    0.004925  -0.056527  -0.001519  -0.050780   0.000107   0.013584
    21  H   -0.002275  -0.039770   0.000451   0.009051   0.000150  -0.001011
    22  H    0.002994   0.487068  -0.000620  -0.018217   0.000091   0.005674
    23  H    0.000124   0.463849  -0.000653   0.006576  -0.000017  -0.000109
    24  H    0.008117   0.000987   0.492400   0.017941  -0.007748  -0.042043
    25  H   -0.006985  -0.002508   0.451137  -0.010583  -0.007593  -0.059078
    26  H   -0.040116   0.015365   0.006076   0.462955  -0.003007   0.003055
    27  H    0.000816   0.000042   0.007772  -0.004692   0.436627  -0.005659
    28  H   -0.000229   0.000018  -0.015821   0.006608   0.453919   0.024726
    29  H   -0.026138  -0.000161   0.001096  -0.039820   0.025236   0.512355
    30  H    0.002323  -0.010376   0.007685  -0.107549  -0.000458  -0.000104
    31  H   -0.003045   0.002170  -0.003531  -0.037512   0.000557   0.007332
              13         14         15         16         17         18
     1  C    0.021573   0.427609   0.516379  -0.002055   0.000802   0.000270
     2  C    0.008157   0.000480  -0.001386   0.380998   0.422924   0.010953
     3  C    0.021861   0.000115   0.000025  -0.004892   0.003271   0.501002
     4  O    0.002453  -0.000002   0.000005  -0.033498  -0.074183   0.000966
     5  O   -0.037556  -0.002978   0.002294   0.000111   0.000427   0.001556
     6  C    0.035079   0.006318  -0.012716  -0.001368  -0.000029  -0.000707
     7  O   -0.236834  -0.003099   0.001353   0.003997   0.000031   0.001127
     8  C   -0.104771  -0.029964  -0.060621   0.000820  -0.000446   0.000090
     9  C    0.057205   0.000865   0.001141  -0.007745   0.033535  -0.024507
    10  C   -0.297263   0.043424  -0.027312   0.001731   0.007868   0.008658
    11  C   -0.004712  -0.000090   0.000087  -0.000521   0.005632  -0.088566
    12  C   -0.184593  -0.006697   0.004593  -0.015916  -0.054871  -0.034089
    13  C    6.189927  -0.067216  -0.040392   0.006535  -0.002272   0.001281
    14  H   -0.067216   0.458217  -0.000001   0.000000   0.000049   0.000016
    15  H   -0.040392  -0.000001   0.451487  -0.000085   0.000290  -0.000038
    16  H    0.006535   0.000000  -0.000085   0.479204  -0.018289   0.002732
    17  H   -0.002272   0.000049   0.000290  -0.018289   0.473932  -0.001718
    18  H    0.001281   0.000016  -0.000038   0.002732  -0.001718   0.470826
    19  H    0.000421   0.000001   0.000015  -0.002453   0.002144  -0.009690
    20  H    0.013681  -0.001640   0.001830   0.000068  -0.000094  -0.000028
    21  H    0.004219   0.000287  -0.001697  -0.000013   0.000024  -0.000140
    22  H   -0.006658  -0.000925   0.002779   0.000100  -0.000063   0.000017
    23  H    0.004231  -0.008936  -0.005813  -0.000027  -0.000024  -0.000013
    24  H   -0.004425  -0.000046   0.000024  -0.000999  -0.002013   0.002175
    25  H    0.008339   0.000068  -0.000161  -0.000935  -0.001200  -0.002525
    26  H   -0.031472  -0.001155  -0.008770   0.002588  -0.003638   0.001607
    27  H   -0.000050  -0.000003   0.000005  -0.002301   0.002023  -0.004501
    28  H    0.000131   0.000009  -0.000011   0.008921  -0.002517   0.003597
    29  H   -0.018158  -0.000444   0.001552  -0.005556  -0.001694  -0.012809
    30  H    0.512811  -0.002736   0.004450  -0.000408   0.001284   0.000029
    31  H    0.429931  -0.011432  -0.006079   0.000329  -0.002456  -0.000106
              19         20         21         22         23         24
     1  C    0.000038  -0.009477   0.007625  -0.018944  -0.059151   0.001359
     2  C   -0.001949   0.001843   0.000600  -0.000305  -0.000049  -0.022652
     3  C    0.429346   0.001022  -0.000542   0.000036  -0.000019  -0.070592
     4  O    0.006884  -0.000007   0.000005   0.000007  -0.000006  -0.000601
     5  O   -0.000677  -0.027643  -0.071546  -0.001941   0.006593  -0.004973
     6  C   -0.000257   0.479745   0.436612  -0.074206  -0.038788  -0.000815
     7  O   -0.001625   0.004925  -0.002275   0.002994   0.000124   0.008117
     8  C   -0.000206  -0.056527  -0.039770   0.487068   0.463849   0.000987
     9  C   -0.026560  -0.001519   0.000451  -0.000620  -0.000653   0.492400
    10  C   -0.002380  -0.050780   0.009051  -0.018217   0.006576   0.017941
    11  C   -0.031639   0.000107   0.000150   0.000091  -0.000017  -0.007748
    12  C   -0.006479   0.013584  -0.001011   0.005674  -0.000109  -0.042043
    13  C    0.000421   0.013681   0.004219  -0.006658   0.004231  -0.004425
    14  H    0.000001  -0.001640   0.000287  -0.000925  -0.008936  -0.000046
    15  H    0.000015   0.001830  -0.001697   0.002779  -0.005813   0.000024
    16  H   -0.002453   0.000068  -0.000013   0.000100  -0.000027  -0.000999
    17  H    0.002144  -0.000094   0.000024  -0.000063  -0.000024  -0.002013
    18  H   -0.009690  -0.000028  -0.000140   0.000017  -0.000013   0.002175
    19  H    0.485878   0.000037   0.000135  -0.000011  -0.000007  -0.006049
    20  H    0.000037   0.466199  -0.006034   0.003192   0.000160  -0.000197
    21  H    0.000135  -0.006034   0.476485  -0.002187  -0.010387   0.000071
    22  H   -0.000011   0.003192  -0.002187   0.469786  -0.011444  -0.000046
    23  H   -0.000007   0.000160  -0.010387  -0.011444   0.472267   0.000042
    24  H   -0.006049  -0.000197   0.000071  -0.000046   0.000042   0.436983
    25  H   -0.009685   0.000843  -0.001744  -0.000297   0.000059  -0.009229
    26  H   -0.000492  -0.002315  -0.000894  -0.000326   0.000909   0.000343
    27  H   -0.008815   0.000002  -0.000000   0.000003   0.000000  -0.001438
    28  H    0.002335  -0.000026  -0.000009  -0.000004   0.000001  -0.004186
    29  H    0.000285  -0.000586   0.000230   0.000141  -0.000019   0.001495
    30  H    0.000020  -0.000087  -0.000462   0.001277  -0.003004  -0.000205
    31  H    0.000012   0.000185   0.001189  -0.001446   0.001714  -0.000099
              25         26         27         28         29         30
     1  C   -0.002699  -0.030024  -0.000082   0.000054  -0.002280  -0.025574
     2  C    0.001000  -0.008479   0.022076  -0.032649  -0.081993  -0.004618
     3  C    0.000991  -0.007078  -0.045817  -0.038579  -0.004964   0.000430
     4  O   -0.002042   0.001235  -0.068195  -0.042825  -0.013045   0.000007
     5  O   -0.000124  -0.061558  -0.000082   0.000204  -0.007260  -0.007845
     6  C    0.002151   0.009921  -0.000000  -0.000017   0.000865  -0.000652
     7  O   -0.006985  -0.040116   0.000816  -0.000229  -0.026138   0.002323
     8  C   -0.002508   0.015365   0.000042   0.000018  -0.000161  -0.010376
     9  C    0.451137   0.006076   0.007772  -0.015821   0.001096   0.007685
    10  C   -0.010583   0.462955  -0.004692   0.006608  -0.039820  -0.107549
    11  C   -0.007593  -0.003007   0.436627   0.453919   0.025236  -0.000458
    12  C   -0.059078   0.003055  -0.005659   0.024726   0.512355  -0.000104
    13  C    0.008339  -0.031472  -0.000050   0.000131  -0.018158   0.512811
    14  H    0.000068  -0.001155  -0.000003   0.000009  -0.000444  -0.002736
    15  H   -0.000161  -0.008770   0.000005  -0.000011   0.001552   0.004450
    16  H   -0.000935   0.002588  -0.002301   0.008921  -0.005556  -0.000408
    17  H   -0.001200  -0.003638   0.002023  -0.002517  -0.001694   0.001284
    18  H   -0.002525   0.001607  -0.004501   0.003597  -0.012809   0.000029
    19  H   -0.009685  -0.000492  -0.008815   0.002335   0.000285   0.000020
    20  H    0.000843  -0.002315   0.000002  -0.000026  -0.000586  -0.000087
    21  H   -0.001744  -0.000894  -0.000000  -0.000009   0.000230  -0.000462
    22  H   -0.000297  -0.000326   0.000003  -0.000004   0.000141   0.001277
    23  H    0.000059   0.000909   0.000000   0.000001  -0.000019  -0.003004
    24  H   -0.009229   0.000343  -0.001438  -0.004186   0.001495  -0.000205
    25  H    0.469668  -0.000635   0.001250   0.000157   0.001171  -0.000220
    26  H   -0.000635   0.432698  -0.000358   0.000760   0.000310  -0.003894
    27  H    0.001250  -0.000358   0.462728  -0.007302   0.001032  -0.000037
    28  H    0.000157   0.000760  -0.007302   0.485690  -0.003209   0.000103
    29  H    0.001171   0.000310   0.001032  -0.003209   0.437054   0.000947
    30  H   -0.000220  -0.003894  -0.000037   0.000103   0.000947   0.456716
    31  H    0.000230   0.001578   0.000043  -0.000136   0.000881  -0.019439
              31
     1  C   -0.028569
     2  C    0.003505
     3  C    0.000228
     4  O    0.000280
     5  O    0.005202
     6  C    0.001593
     7  O   -0.003045
     8  C    0.002170
     9  C   -0.003531
    10  C   -0.037512
    11  C    0.000557
    12  C    0.007332
    13  C    0.429931
    14  H   -0.011432
    15  H   -0.006079
    16  H    0.000329
    17  H   -0.002456
    18  H   -0.000106
    19  H    0.000012
    20  H    0.000185
    21  H    0.001189
    22  H   -0.001446
    23  H    0.001714
    24  H   -0.000099
    25  H    0.000230
    26  H    0.001578
    27  H    0.000043
    28  H   -0.000136
    29  H    0.000881
    30  H   -0.019439
    31  H    0.477464
 Mulliken charges:
               1
     1  C   -0.423541
     2  C   -0.331105
     3  C   -0.365020
     4  O   -0.373723
     5  O   -0.409507
     6  C   -0.189605
     7  O   -0.355533
     8  C   -0.332532
     9  C   -0.352645
    10  C   -0.019940
    11  C   -0.212987
    12  C    0.129138
    13  C   -0.281466
    14  H    0.199906
    15  H    0.176771
    16  H    0.208927
    17  H    0.211271
    18  H    0.172532
    19  H    0.181423
    20  H    0.169537
    21  H    0.201578
    22  H    0.164472
    23  H    0.181941
    24  H    0.216418
    25  H    0.181179
    26  H    0.264810
    27  H    0.214915
    28  H    0.160287
    29  H    0.233486
    30  H    0.199586
    31  H    0.179425
 Sum of Mulliken charges =  -0.00000
 Mulliken charges with hydrogens summed into heavy atoms:
               1
     1  C   -0.046864
     2  C    0.089093
     3  C   -0.011065
     4  O   -0.373723
     5  O   -0.409507
     6  C    0.181511
     7  O   -0.355533
     8  C    0.013881
     9  C    0.044952
    10  C    0.244870
    11  C    0.162216
    12  C    0.362624
    13  C    0.097546
 Electronic spatial extent (au):  <R**2>=           3390.4205
 Charge=             -0.0000 electrons
 Dipole moment (field-independent basis, Debye):
    X=             -2.4182    Y=              1.1027    Z=             -1.1029  Tot=              2.8775
 Quadrupole moment (field-independent basis, Debye-Ang):
   XX=            -71.0396   YY=            -79.4036   ZZ=            -80.5008
   XY=              6.4256   XZ=              7.7812   YZ=             -1.3698
 Traceless Quadrupole moment (field-independent basis, Debye-Ang):
   XX=              5.9418   YY=             -2.4223   ZZ=             -3.5195
   XY=              6.4256   XZ=              7.7812   YZ=             -1.3698
 Octapole moment (field-independent basis, Debye-Ang**2):
  XXX=            -32.2771  YYY=              1.1774  ZZZ=             -1.0287  XYY=             -5.8909
  XXY=             31.2962  XXZ=             16.1308  XZZ=             -2.5802  YZZ=              0.6589
  YYZ=             -1.3669  XYZ=             -2.3455
 Hexadecapole moment (field-independent basis, Debye-Ang**3):
 XXXX=          -3546.0019 YYYY=           -613.1914 ZZZZ=           -200.2552 XXXY=             80.4927
 XXXZ=             69.9382 YYYX=            -17.3472 YYYZ=              5.0779 ZZZX=              4.0258
 ZZZY=             -1.7717 XXYY=           -715.0805 XXZZ=           -651.7165 YYZZ=           -140.4485
 XXYZ=            -30.5208 YYXZ=              6.7811 ZZXY=              0.5503
 N-N= 8.784753650051D+02 E-N=-3.199121095851D+03  KE= 6.153695046555D+02
 D1PCM: PCM CHGder 1st derivatives, ID1Alg=3 FixD1E=F DoIter=F DoCFld=F I1PDM=0.
 Calling FoFJK, ICntrl=      2127 FMM=F ISym2X=0 I1Cent= 0 IOpClX= 0 NMat=1 NMatS=1 NMatT=0.
 ***** Axes restored to original set *****
 -------------------------------------------------------------------
 Center     Atomic                   Forces (Hartrees/Bohr)
 Number     Number              X              Y              Z
 -------------------------------------------------------------------
      1        6           0.002653842   -0.002936075   -0.001571241
      2        6          -0.002245085   -0.005547882   -0.000453505
      3        6          -0.000568375    0.002346115   -0.002032492
      4        8           0.005457796    0.005249889    0.009545205
      5        8           0.007245170   -0.009821352   -0.007186108
      6        6          -0.004502113    0.004900111   -0.001335164
      7        8           0.000818300    0.005627689   -0.011309116
      8        6           0.001957707    0.001558789    0.002208240
      9        6           0.003442197    0.002844475    0.002418237
     10        6          -0.005454468    0.006045926    0.000558794
     11        6          -0.005582398   -0.004755461   -0.000979720
     12        6           0.001787694   -0.003054643   -0.001341542
     13        6          -0.001324832   -0.001332514    0.003058947
     14        1          -0.001795607    0.001443154   -0.001314158
     15        1           0.000528166    0.000146439    0.003318668
     16        1          -0.000502644    0.000581709   -0.006227725
     17        1          -0.002121228    0.003585164    0.002611895
     18        1          -0.000317436   -0.000225038    0.003305505
     19        1           0.001063713   -0.002161315   -0.001608998
     20        1          -0.000382529    0.001155139    0.005534097
     21        1          -0.000622850   -0.004435301   -0.001100776
     22        1           0.000430477   -0.000521592   -0.003278772
     23        1          -0.002237677   -0.000731106    0.001446294
     24        1           0.000378131    0.001764898   -0.003464232
     25        1          -0.002964807   -0.002479469    0.000974064
     26        1          -0.000246959    0.000850569    0.008216487
     27        1           0.003844557   -0.000986316    0.002120962
     28        1           0.000204779    0.000727066   -0.005680861
     29        1          -0.000427932   -0.001307975    0.006189060
     30        1           0.000514735   -0.001370698   -0.003641942
     31        1           0.000969677    0.002839607    0.001019899
 -------------------------------------------------------------------
 Cartesian Forces:  Max     0.011309116 RMS     0.003587214

 GradGradGradGradGradGradGradGradGradGradGradGradGradGradGradGradGradGrad
 Berny optimization.
 FormGI is forming the generalized inverse of G from B-inverse, IUseBI=4.
 Internal  Forces:  Max     0.011205808 RMS     0.002155430
 Search for a local minimum.
 Step number   1 out of a maximum of  186
 All quantities printed in internal units (Hartrees-Bohrs-Radians)
 Mixed Optimization -- RFO/linear search
 Second derivative matrix not updated -- first step.
 ITU=  0
     Eigenvalues ---    0.00612   0.00631   0.00737   0.00757   0.01452
     Eigenvalues ---    0.01491   0.01862   0.02736   0.02746   0.03115
     Eigenvalues ---    0.03150   0.04168   0.04172   0.04565   0.04776
     Eigenvalues ---    0.04864   0.04922   0.05121   0.05152   0.05157
     Eigenvalues ---    0.05339   0.05708   0.05727   0.06158   0.06184
     Eigenvalues ---    0.06313   0.06392   0.06571   0.07685   0.07860
     Eigenvalues ---    0.07945   0.07961   0.07976   0.08026   0.08136
     Eigenvalues ---    0.08741   0.09327   0.09908   0.10881   0.11486
     Eigenvalues ---    0.11624   0.11699   0.11717   0.12330   0.12511
     Eigenvalues ---    0.14507   0.14588   0.16282   0.16719   0.17587
     Eigenvalues ---    0.19202   0.21199   0.21864   0.25000   0.28476
     Eigenvalues ---    0.28618   0.28678   0.28783   0.28985   0.29138
     Eigenvalues ---    0.30239   0.30527   0.35034   0.35060   0.35078
     Eigenvalues ---    0.35080   0.35092   0.35125   0.35131   0.35162
     Eigenvalues ---    0.35179   0.35244   0.35294   0.35368   0.35374
     Eigenvalues ---    0.35383   0.35627   0.35825   0.35842   0.35886
     Eigenvalues ---    0.41122   0.41394   0.42452   0.42655   0.42798
     Eigenvalues ---    0.478191000.000001000.000001000.000001000.00000
     Eigenvalues --- 1000.000001000.000001000.000001000.000001000.00000
     Eigenvalues --- 1000.000001000.000001000.000001000.000001000.00000
     Eigenvalues --- 1000.000001000.000001000.000001000.000001000.00000
     Eigenvalues --- 1000.000001000.000001000.000001000.000001000.00000
     Eigenvalues --- 1000.000001000.000001000.000001000.000001000.00000
     Eigenvalues --- 1000.000001000.000001000.000001000.000001000.00000
     Eigenvalues --- 1000.000001000.000001000.000001000.000001000.00000
     Eigenvalues --- 1000.000001000.000001000.000001000.000001000.00000
     Eigenvalues --- 1000.000001000.000001000.000001000.000001000.00000
     Eigenvalues --- 1000.000001000.000001000.000001000.000001000.00000
     Eigenvalues --- 1000.000001000.000001000.000001000.000001000.00000
     Eigenvalues --- 1000.000001000.000001000.000001000.000001000.00000
     Eigenvalues --- 1000.000001000.000001000.000001000.000001000.00000
     Eigenvalues --- 1000.000001000.000001000.000001000.000001000.00000
     Eigenvalues --- 1000.000001000.000001000.000001000.000001000.00000
     Eigenvalues --- 1000.000001000.000001000.000001000.000001000.00000
     Eigenvalues --- 1000.000001000.000001000.000001000.000001000.00000
     Eigenvalues --- 1000.000001000.000001000.000001000.000001000.00000
     Eigenvalues --- 1000.000001000.000001000.000001000.000001000.00000
 RFO step:  Lambda=-2.95615587D-03 EMin= 6.11644715D-03
 Linear search not attempted -- first point.
 Iteration  1 RMS(Cart)=  0.03948071 RMS(Int)=  0.00040939
 Iteration  2 RMS(Cart)=  0.00099126 RMS(Int)=  0.00002202
 Iteration  3 RMS(Cart)=  0.00000017 RMS(Int)=  0.00002202
 Iteration  1 RMS(Cart)=  0.00000444 RMS(Int)=  0.00000100
 Iteration  2 RMS(Cart)=  0.00000245 RMS(Int)=  0.00000111
 Iteration  3 RMS(Cart)=  0.00000135 RMS(Int)=  0.00000126
 Iteration  4 RMS(Cart)=  0.00000074 RMS(Int)=  0.00000136
 Variable       Old X    -DE/DX   Delta X   Delta X   Delta X     New X
                                 (Linear)    (Quad)   (Total)
    R1        2.88980  -0.00068   0.00000  -0.00367  -0.00370   2.88610
    R2        2.89331  -0.00104   0.00000  -0.00400  -0.00403   2.88928
    R3        2.05081   0.00264   0.00000   0.00742   0.00742   2.05822
    R4        2.05619   0.00326   0.00000   0.00923   0.00923   2.06542
    R5        2.66469   0.00619   0.00000   0.01461   0.01464   2.67932
    R6        2.87935  -0.00059   0.00000  -0.00187  -0.00187   2.87748
    R7        2.05545   0.00605   0.00000   0.01711   0.01711   2.07256
    R8        2.04330   0.00486   0.00000   0.01346   0.01346   2.05675
    R9        2.89408  -0.00093   0.00000  -0.00405  -0.00408   2.89000
   R10        2.87130  -0.00086   0.00000  -0.00278  -0.00278   2.86852
   R11        2.05463   0.00323   0.00000   0.00913   0.00913   2.06376
   R12        2.05199   0.00289   0.00000   0.00813   0.00813   2.06013
   R13        2.67699   0.00619   0.00000   0.01481   0.01484   2.69183
   R14        2.68189   0.00578   0.00000   0.01386   0.01389   2.69578
   R15        2.65961   0.00853   0.00000   0.02001   0.02003   2.67965
   R16        2.87239  -0.00069   0.00000  -0.00252  -0.00253   2.86986
   R17        2.05526   0.00557   0.00000   0.01573   0.01573   2.07099
   R18        2.04261   0.00461   0.00000   0.01274   0.01274   2.05534
   R19        2.62132   0.00503   0.00000   0.01045   0.01045   2.63178
   R20        2.68098   0.00467   0.00000   0.01088   0.01088   2.69186
   R21        2.05472   0.00325   0.00000   0.00918   0.00918   2.06390
   R22        2.05280   0.00275   0.00000   0.00775   0.00775   2.06055
   R23        2.88203  -0.00181   0.00000  -0.00669  -0.00673   2.87530
   R24        2.05577   0.00373   0.00000   0.01054   0.01054   2.06631
   R25        2.04669   0.00390   0.00000   0.01085   0.01085   2.05754
   R26        2.86650  -0.00147   0.00000  -0.00440  -0.00440   2.86210
   R27        2.05413   0.00822   0.00000   0.02317   0.02317   2.07730
   R28        2.04355   0.00449   0.00000   0.01244   0.01244   2.05599
   R29        2.05548   0.00564   0.00000   0.01593   0.01593   2.07141
   R30        2.05072   0.00630   0.00000   0.01767   0.01767   2.06839
   R31        2.05385   0.00373   0.00000   0.01052   0.01052   2.06436
   R32        2.05057   0.00315   0.00000   0.00882   0.00882   2.05939
    A1        1.92594   0.00207   0.00000  -0.00112  -0.00121   1.92473
    A2        1.93190  -0.00053   0.00000   0.00063   0.00066   1.93256
    A3        1.90894  -0.00077   0.00000  -0.00172  -0.00171   1.90724
    A4        1.91970  -0.00062   0.00000  -0.00053  -0.00050   1.91920
    A5        1.90937  -0.00082   0.00000  -0.00200  -0.00199   1.90738
    A6        1.86696   0.00060   0.00000   0.00487   0.00486   1.87182
    A7        1.93682   0.00125   0.00000   0.00581   0.00584   1.94266
    A8        1.91675   0.00099   0.00000   0.00754   0.00755   1.92430
    A9        1.86744  -0.00040   0.00000   0.00301   0.00302   1.87046
   A10        1.91585  -0.00192   0.00000  -0.01361  -0.01364   1.90221
   A11        1.92915  -0.00066   0.00000  -0.00580  -0.00583   1.92331
   A12        1.89692   0.00079   0.00000   0.00359   0.00351   1.90043
   A13        1.93167  -0.00047   0.00000  -0.00681  -0.00687   1.92480
   A14        1.91942   0.00062   0.00000   0.00189   0.00189   1.92131
   A15        1.92569  -0.00041   0.00000  -0.00008  -0.00007   1.92562
   A16        1.90304  -0.00022   0.00000  -0.00116  -0.00116   1.90188
   A17        1.90910   0.00034   0.00000   0.00144   0.00147   1.91056
   A18        1.87388   0.00016   0.00000   0.00507   0.00506   1.87893
   A19        1.97826  -0.00494   0.00000  -0.02623  -0.02616   1.95210
   A20        1.98053  -0.00509   0.00000  -0.02609  -0.02602   1.95451
   A21        1.93486   0.00099   0.00000   0.00363   0.00365   1.93850
   A22        1.90293   0.00077   0.00000   0.00456   0.00457   1.90750
   A23        1.85123  -0.00076   0.00000  -0.00022  -0.00023   1.85101
   A24        1.93135  -0.00138   0.00000  -0.00809  -0.00811   1.92324
   A25        1.95080  -0.00008   0.00000  -0.00197  -0.00197   1.94883
   A26        1.89014   0.00052   0.00000   0.00262   0.00260   1.89274
   A27        2.06262  -0.01121   0.00000  -0.04430  -0.04430   2.01832
   A28        1.92199   0.00013   0.00000  -0.00420  -0.00427   1.91772
   A29        1.91909   0.00054   0.00000   0.00207   0.00208   1.92117
   A30        1.93559  -0.00064   0.00000  -0.00106  -0.00105   1.93453
   A31        1.90376  -0.00039   0.00000  -0.00161  -0.00160   1.90216
   A32        1.90615   0.00008   0.00000  -0.00024  -0.00022   1.90593
   A33        1.87645   0.00028   0.00000   0.00524   0.00523   1.88168
   A34        1.91778   0.00198   0.00000  -0.00197  -0.00205   1.91573
   A35        1.91398  -0.00044   0.00000   0.00175   0.00175   1.91574
   A36        1.92936  -0.00016   0.00000   0.00507   0.00508   1.93444
   A37        1.89343  -0.00113   0.00000  -0.00621  -0.00620   1.88722
   A38        1.93078  -0.00099   0.00000  -0.00539  -0.00534   1.92543
   A39        1.87772   0.00068   0.00000   0.00675   0.00671   1.88442
   A40        1.89399  -0.00200   0.00000  -0.01184  -0.01183   1.88216
   A41        1.93123   0.00159   0.00000   0.00801   0.00801   1.93924
   A42        1.88909   0.00010   0.00000  -0.00094  -0.00094   1.88815
   A43        1.90352   0.00017   0.00000  -0.00019  -0.00019   1.90333
   A44        1.91293   0.00077   0.00000   0.00682   0.00682   1.91975
   A45        1.93262  -0.00065   0.00000  -0.00202  -0.00202   1.93060
   A46        1.93356   0.00149   0.00000   0.00684   0.00684   1.94040
   A47        1.94611  -0.00036   0.00000  -0.00328  -0.00329   1.94282
   A48        1.93198  -0.00132   0.00000  -0.00804  -0.00805   1.92393
   A49        1.85528  -0.00095   0.00000  -0.00242  -0.00242   1.85286
   A50        1.90235   0.00055   0.00000   0.00419   0.00422   1.90657
   A51        1.89227   0.00063   0.00000   0.00309   0.00307   1.89534
   A52        1.85601   0.00052   0.00000   0.00170   0.00170   1.85770
   A53        1.92768  -0.00017   0.00000  -0.00425  -0.00431   1.92337
   A54        1.89801  -0.00023   0.00000   0.00089   0.00090   1.89891
   A55        1.96118  -0.00115   0.00000  -0.00645  -0.00643   1.95475
   A56        1.90283   0.00038   0.00000   0.00646   0.00645   1.90929
   A57        1.91631   0.00067   0.00000   0.00192   0.00194   1.91825
   A58        1.92554  -0.00063   0.00000  -0.00672  -0.00677   1.91877
   A59        1.92425   0.00080   0.00000   0.00387   0.00383   1.92808
   A60        1.93630  -0.00004   0.00000   0.00322   0.00322   1.93951
   A61        1.88977  -0.00049   0.00000  -0.00639  -0.00638   1.88340
   A62        1.90275   0.00015   0.00000  -0.00080  -0.00077   1.90197
   A63        1.88409   0.00022   0.00000   0.00683   0.00681   1.89089
    D1        0.89734  -0.00008   0.00000   0.01335   0.01334   0.91068
    D2       -1.20094  -0.00002   0.00000   0.01670   0.01670  -1.18424
    D3        3.00926  -0.00032   0.00000   0.00956   0.00955   3.01881
    D4        3.02653   0.00018   0.00000   0.01234   0.01233   3.03886
    D5        0.92825   0.00024   0.00000   0.01569   0.01569   0.94394
[...]
 ,0.00015272,0.00059944,-0.00043444,0.00048041,0.00057524,0.00025369,0.
 00019893,0.00001233,-0.00000149,-0.00000423,0.00000545,0.00000585,0.00
 000163,-0.00000396,0.00000212,-0.00000163,0.00000738,-0.00000385,0.000
 00262,0.02022791,0.02278330,-0.00166313,-0.01773564,-0.01941042,0.0514
 3546,0.00145283,-0.00021673,-0.00065560,0.00002320,-0.00011778,0.00027
 332,0.00001838,0.00015773,0.00007666,-0.00009656,0.00003979,-0.0000865
 5,0.00264611,-0.00546182,-0.00407796,0.00138653,-0.00054296,-0.0017276
 0,-0.01568466,-0.00097122,0.03760239,-0.00017575,0.00015557,0.00012673
 ,-0.00044819,0.00040515,-0.00037955,-0.05541731,0.00128619,-0.02881582
 ,0.00003115,0.00000604,-0.00002389,0.00363232,-0.00202644,0.00541148,-
 0.00074029,-0.00116338,-0.02358040,0.00007074,0.00006902,0.00019965,-0
 .00010124,0.00008986,0.00032239,-0.00005556,-0.00001663,-0.00010910,0.
 00000461,-0.00002170,-0.00004952,-0.00002832,0.00000511,-0.00002307,-0
 .00006524,0.00002206,-0.00001323,0.00001766,0.00020322,0.00022634,0.00
 003093,0.00000219,-0.00003310,0.00002336,-0.00001602,0.00006425,-0.000
 02919,-0.00006505,-0.00000456,-0.00005099,0.00002393,-0.00017520,0.000
 00221,0.00004040,-0.00000797,0.06639197,-0.00089801,0.00007666,-0.0000
 0801,0.00017086,0.00012603,-0.00006972,0.00002352,0.00008909,0.0000324
 2,-0.00014541,-0.00004018,-0.00001656,-0.01057365,-0.02861020,-0.03839
 825,0.00425463,0.00143041,-0.00400039,-0.00574643,0.00401519,0.0126905
 7,-0.00040492,-0.00021267,0.00044933,-0.00005882,0.00003005,-0.0000780
 1,0.00185487,-0.04974868,-0.02243886,0.00004481,-0.00001407,-0.0000238
 9,0.00148990,-0.00068883,-0.00033529,0.00295326,0.00401765,0.01841500,
 -0.00002543,-0.00008707,-0.00020138,0.00003965,0.00004405,-0.00037803,
 0.00001253,-0.00001204,0.00002239,0.00000723,-0.00004273,-0.00001578,-
 0.00000904,0.00000311,-0.00000403,-0.00003452,0.00001346,-0.00000727,-
 0.00004067,0.00045122,0.00128270,-0.00006223,-0.00004337,0.00045711,0.
 00003475,-0.00001457,0.00000780,-0.00020252,0.00020866,-0.00003577,-0.
 00000631,-0.00001820,-0.00002227,0.00000713,0.00005200,-0.00001236,0.0
 0499790,0.06959620,0.00032044,-0.00019416,0.00027600,-0.00008979,-0.00
 047330,0.00058551,0.00002771,-0.00011957,-0.00011027,0.00043638,0.0001
 0821,0.00000424,-0.00231381,-0.01177042,-0.00589681,0.00063369,0.00105
 563,0.00078652,0.01259822,0.00311040,-0.01919747,-0.00007118,-0.000227
 73,0.00014093,0.00016891,-0.00012041,0.00044117,-0.02221033,-0.0246169
 6,-0.28441747,-0.00003928,0.00003478,0.00005588,-0.00344487,0.00166097
 ,0.00079544,-0.00122496,-0.00061726,-0.01180612,-0.00012476,0.00007972
 ,0.00027334,-0.00037831,-0.00018924,0.00036531,-0.00009423,-0.00010928
 ,-0.00003409,0.00005802,-0.00001916,-0.00004049,0.00001288,-0.00001146
 ,0.00000954,0.00006221,-0.00002568,0.00001785,-0.00084376,-0.00032266,
 0.00019016,-0.00027651,-0.00012065,0.00047255,0.00006710,0.00004357,-0
 .00018042,-0.00009056,-0.00003647,-0.00002892,-0.00009343,0.00016749,0
 .00001387,0.00001572,0.00001481,-0.00003173,0.01745676,0.03171328,0.31
 637495,-0.00000460,0.00001475,-0.00001836,0.00191563,0.00066730,0.0028
 4940,-0.01613995,0.00367501,-0.00950612,-0.01378985,0.00917341,-0.0030
 8478,-0.00018990,-0.00005988,0.00005692,0.00003694,0.00002759,-0.00003
 304,-0.00052843,0.00005802,-0.00002227,-0.00001034,-0.00000459,0.00001
 310,-0.00086449,-0.00390860,0.00082608,0.00024137,0.00009663,-0.000164
 12,-0.25379021,0.04974255,-0.10372181,0.00082988,-0.00015651,-0.000210
 32,-0.00004152,-0.00002479,0.00003196,-0.00001136,-0.00000095,0.000003
 22,-0.00000091,0.00000009,0.00000252,-0.00002597,0.00001254,-0.0002292
 7,-0.00067571,0.00021077,-0.00031592,0.00080360,0.00066490,0.00041441,
 0.00036280,-0.00023124,-0.00009780,-0.00000728,-0.00000099,0.00000745,
 -0.00000721,-0.00000714,0.00000280,0.00000033,-0.00000043,-0.00000175,
 -0.00000737,0.00000095,-0.00000190,0.00009528,0.00006753,-0.00011753,-
 0.00103243,0.00049237,-0.00043233,-0.00001281,-0.00000771,0.00002132,0
 .27647765,0.00000139,-0.00000464,-0.00000008,-0.00008432,-0.00280690,-
 0.00439961,-0.02392477,0.00793132,-0.01230340,0.03132922,-0.01444383,0
 .01017115,-0.00012240,0.00004018,0.00003040,0.00000750,0.00003670,-0.0
 0001302,0.00020295,0.00048691,0.00006299,-0.00000843,-0.00000563,0.000
 00669,-0.00274687,-0.00470479,0.00109575,0.00000819,-0.00001421,0.0000
 7092,0.04402248,-0.05969073,0.02413553,0.00015497,-0.00129426,-0.00017
 917,0.00000607,0.00000448,-0.00000458,0.00000076,0.00000092,-0.0000006
 3,0.00000013,0.00000063,-0.00000002,-0.00016836,0.00003103,0.00002987,
 0.00156782,-0.00038649,0.00031830,0.00096498,0.00105153,0.00025849,0.0
 0113430,0.00074975,-0.00000886,-0.00000364,-0.00000049,0.00000339,0.00
 000201,-0.00000146,-0.00000115,0.00000023,0.00000004,0.00000003,-0.000
 00372,0.00000203,-0.00000149,0.00020966,-0.00001342,-0.00006485,-0.001
 63299,0.00051701,-0.00047154,-0.00000579,0.00000150,-0.00000351,-0.058
 87204,0.07332411,0.00000241,-0.00000604,0.00000423,0.00101423,-0.00204
 021,-0.00160944,0.00264830,0.00067664,0.00073224,0.02138647,-0.0091802
 4,0.00852964,0.00001135,0.00003823,-0.00000425,-0.00000365,0.00000751,
 0.00000113,0.00023484,0.00020341,0.00006456,-0.00000038,-0.00000029,-0
 .00000078,0.00015710,-0.00050070,0.00104871,-0.00004258,-0.00002271,0.
 00006422,-0.11304670,0.03064274,-0.11010537,-0.00013174,-0.00048628,-0
 .00011027,0.00001319,0.00000634,-0.00001203,0.00000254,0.00000073,-0.0
 0000081,0.00000007,0.00000024,-0.00000018,0.00013955,-0.00013162,0.000
 45627,0.00064331,-0.00034964,0.00042558,0.00012376,-0.00068039,0.00065
 735,-0.00019437,-0.00010715,0.00010153,0.00000093,0.00000006,-0.000000
 41,0.00000252,0.00000074,-0.00000095,0.00000014,0.00000009,0.00000035,
 0.00000025,0.00000055,0.00000019,0.00029879,-0.00014314,0.00026094,-0.
 00023984,0.00015922,0.00016351,0.00000035,0.00000188,-0.00000533,0.112
 18084,-0.02382796,0.11040482,-0.00000177,0.00000441,-0.00000393,0.0011
 7666,-0.00119499,0.00326271,-0.00335152,-0.00850753,0.01948899,-0.0038
 4688,0.00462793,0.01636508,-0.00001107,-0.00001734,0.00000358,0.000006
 02,-0.00000226,-0.00000238,-0.00023624,-0.00000049,-0.00005270,0.00000
 030,-0.00000007,0.00000154,0.00111383,0.00039603,0.00115274,0.00004604
 ,0.00003091,-0.00005231,-0.06071053,-0.01241276,0.03106014,-0.00016438
 ,0.00003601,-0.00015579,-0.00001186,-0.00000643,0.00001057,-0.00000275
 ,-0.00000027,0.00000050,-0.00000039,-0.00000012,0.00000009,0.00027128,
 -0.00010116,-0.00041007,0.00003684,0.00002595,-0.00014170,-0.00178983,
 -0.00322302,0.00030194,0.00068023,0.00034289,-0.00038831,-0.00000029,-
 0.00000020,-0.00000002,-0.00000147,-0.00000092,0.00000100,-0.00000031,
 -0.00000016,-0.00000069,-0.00000069,-0.00000022,-0.00000009,-0.0000071
 2,0.00006782,-0.00027055,0.00017453,0.00002450,-0.00021109,0.00000114,
 -0.00000236,0.00000511,0.00644530,0.00797050,-0.02523056,0.06015072,0.
 00000047,-0.00000261,0.00000128,-0.00300955,0.00239770,-0.00352467,-0.
 00465443,-0.00878090,0.02607849,0.01268059,-0.00186862,-0.03504499,0.0
 0001173,0.00000733,-0.00000774,-0.00000229,0.00000277,0.00000278,0.000
 16517,0.00021623,0.00006812,-0.00000005,-0.00000004,-0.00000056,0.0012
 7867,0.00085971,0.00009418,-0.00001188,0.00000609,0.00005888,-0.012274
 75,-0.07414808,0.07956563,0.00017559,-0.00051600,0.00018319,0.00000485
 ,0.00000187,-0.00000362,0.00000082,0.00000046,-0.00000058,0.00000021,0
 .00000040,-0.00000044,-0.00072653,0.00008331,0.00108580,-0.00013934,-0
 .00005285,0.00011838,-0.00433885,-0.00350325,-0.00017252,0.00067339,0.
 00089303,-0.00033739,0.00000001,-0.00000054,-0.00000092,0.00000166,0.0
 0000099,-0.00000054,-0.00000011,0.00000003,-0.00000025,0.00000032,0.00
 000004,0.00000019,-0.00022325,0.00034689,-0.00047575,0.00016944,-0.000
 03917,-0.00030989,-0.00000512,0.00000097,-0.00000523,-0.00166846,-0.00
 091005,0.00573257,0.01188754,0.08507933,0.00000488,-0.00001393,0.00001
 405,-0.00268188,0.00142066,0.00090268,-0.00103821,0.00148910,-0.000333
 71,0.00985654,-0.00996080,-0.02367535,0.00007054,0.00005171,-0.0000175
 9,-0.00002010,-0.00000341,0.00001410,0.00054773,0.00003093,-0.00001878
 ,0.00000258,-0.00000027,-0.00000630,-0.00000880,-0.00054540,0.00061937
 ,-0.00014928,-0.00009451,0.00012838,0.03484304,0.07600138,-0.26658413,
 -0.00026360,-0.00037425,0.00012061,0.00003424,0.00002237,-0.00002781,0
 .00000913,0.00000129,-0.00000257,0.00000042,0.00000039,-0.00000104,0.0
 0116093,-0.00032127,0.00057076,0.00009487,-0.00027990,0.00044697,-0.00
 028832,0.00005017,0.00118918,0.00040596,0.00065438,0.00020146,0.000002
 64,0.00000063,-0.00000237,0.00000532,0.00000424,-0.00000228,0.00000040
 ,0.00000047,0.00000173,0.00000327,0.00000049,0.00000069,0.00052241,-0.
 00016369,0.00002898,0.00006625,0.00002754,0.00016525,0.00001237,0.0000
 0702,-0.00001307,0.00150543,0.00505658,-0.01106282,-0.04467873,-0.0731
 4097,0.29748061,0.00002273,0.00002151,0.00006368,-0.00488257,-0.005969
 71,0.02247182,0.00059939,-0.00033725,0.00040804,0.00173349,0.00047021,
 -0.00033233,-0.00016354,-0.00008382,0.00030910,-0.00006077,-0.00010485
 ,0.00001824,-0.00787056,0.01289109,-0.03307044,-0.00001053,-0.00000383
 ,0.00000532,-0.00068047,-0.00271666,0.00921409,0.00261996,0.00115416,-
 0.00565130,0.00008627,-0.00000909,-0.00011312,-0.06429935,-0.01513517,
 0.06046469,-0.00015696,0.00005563,-0.00005730,-0.00000212,0.00000486,-
 0.00000277,-0.00003085,-0.00001346,0.00001945,-0.00309588,-0.00315100,
 -0.00008116,0.00108592,0.00062542,-0.00068080,-0.00007336,0.00015430,-
 0.00006733,0.00002185,0.00001812,-0.00001382,0.00000233,-0.00000649,0.
 00001792,-0.00001288,-0.00000816,0.00002014,0.00000121,0.,-0.00000333,
 -0.00000076,-0.00000672,-0.00000446,-0.00012493,0.00186046,0.00096505,
 0.00026792,0.00030694,-0.00055641,-0.00036624,0.00019775,0.00060320,-0
 .00006619,-0.00000782,0.00002904,0.00003505,0.00000446,-0.00002089,0.0
 7556165,0.00001032,-0.00003660,0.00000906,-0.00729274,-0.00772851,0.02
 455304,-0.00102142,0.00102195,-0.00005578,0.00139615,0.00151883,-0.001
 23587,0.00032407,0.00026799,-0.00026428,-0.00001987,0.00003831,0.00008
 314,0.00445142,-0.00480741,0.01479567,0.00000868,0.00001266,-0.0000206
 0,0.00673759,0.00517343,-0.02726335,-0.00234292,0.00045130,0.00113279,
 0.00007102,-0.00035947,-0.00019586,-0.01158600,-0.06176073,0.04991708,
 0.00007425,-0.00003589,-0.00025896,0.00001794,0.00000138,-0.00000139,0
 .00001299,-0.00000032,-0.00000635,-0.00342769,-0.00272003,0.00040869,0
 .00092177,0.00120385,-0.00002896,0.00002656,-0.00010318,0.00044295,-0.
 00019561,-0.00012784,0.00023178,0.00001795,0.00000967,0.00000103,0.000
 03048,0.00001671,-0.00001307,-0.00000033,0.00000049,0.00000372,0.00001
 048,-0.00000064,0.00000145,0.00229212,-0.00386481,-0.00299626,-0.00066
 199,0.00131513,0.00081391,0.00034505,-0.00009242,-0.00042121,0.0000352
 7,0.00009758,0.00000603,0.00005556,-0.00007469,0.00008123,0.00975686,0
 .07055432,-0.00008113,0.00009323,-0.00006039,-0.00017742,-0.00004944,0
 .00039144,-0.00011557,0.00018836,0.00007920,0.00116966,-0.00062494,0.0
 0071235,-0.00037250,-0.00063616,-0.00006195,0.00004575,-0.00010171,-0.
 00002047,-0.00809027,0.00746355,-0.01794643,0.00001879,0.00000770,0.00
 000550,0.00469251,0.00240088,-0.01554190,0.00398164,0.00099253,0.00080
 245,-0.00006542,-0.00000845,0.00014853,0.05332385,0.05229451,-0.277945
 28,-0.00007105,0.00005075,0.00080272,-0.00004152,-0.00001264,0.0000001
 4,-0.00001259,0.00000370,-0.00000705,-0.00072290,-0.00009368,0.0008208
 0,0.00019198,0.00034429,0.00067769,0.00036971,0.00000003,0.00033799,0.
 00011328,-0.00019611,0.00029076,-0.00002626,-0.00000230,0.00000400,-0.
 00003176,-0.00001939,0.00001354,-0.00000019,-0.00000220,-0.00000069,-0
 .00000477,-0.00000378,0.00000080,0.00091544,-0.00231124,-0.00062121,-0
 .00034932,0.00030597,0.00080962,-0.00068022,-0.00034968,0.00079749,0.0
 0004348,0.00003968,-0.00000270,-0.00005480,0.00003752,-0.00013894,-0.0
 5418056,-0.05967617,0.30561631,-0.00125726,0.00387760,0.03127139,0.000
 01344,-0.00002574,0.00006190,0.00000498,-0.00001140,-0.00000927,0.0000
 1960,0.00000821,0.00000394,0.00129372,-0.00137589,0.00192432,-0.000420
 51,-0.00016922,0.00018156,0.00216158,-0.00014325,-0.00005376,0.0013827
 1,0.00111446,-0.00021411,0.00001411,-0.00004663,0.00008962,-0.00302486
 ,-0.00375447,-0.02783138,0.00000110,0.00000170,-0.00000332,0.00003672,
 0.00009385,-0.00019892,-0.04595823,0.00049978,0.00083707,0.00146137,0.
 00054568,-0.00071025,-0.00499068,-0.00234666,0.00243336,-0.00002045,-0
 .00001584,-0.00000083,0.00000399,-0.00000115,-0.00000351,-0.00000089,-
 0.00000074,-0.00000023,0.00000216,0.00000138,-0.00000005,-0.00005699,-
 0.00005111,-0.00004698,0.00009856,-0.00003143,0.00002277,0.00003767,-0
 .00025163,-0.00046175,-0.00005981,0.00020321,-0.00030620,-0.00001462,0
 .00002123,0.00001416,0.00000563,0.00000164,-0.00000507,-0.00306634,0.0
 0297854,-0.00116015,-0.00000071,-0.00000062,-0.00000012,-0.00000053,-0
 .00000039,0.00000051,-0.00014577,-0.00004917,0.00022945,0.05330711,0.0
 0034776,0.00022798,0.00801745,-0.00001271,0.00002333,-0.00006704,-0.00
 000402,-0.00000029,0.00000312,-0.00001196,-0.00001453,0.00000368,-0.00
 041451,0.00204864,-0.00027548,-0.00004813,-0.00002365,0.00008269,-0.00
 149529,0.00046867,-0.00072163,0.00025072,0.00051533,0.00073157,0.00000
 285,0.00002755,-0.00004228,0.00088264,0.00047685,0.02133372,-0.0000013
 4,0.00000210,0.00000310,-0.00004124,-0.00012339,0.00003840,-0.00014143
 ,-0.05463612,-0.03544354,0.00025911,0.00019951,-0.00043535,-0.00126651
 ,0.00045463,0.00080798,0.00001518,0.00001203,0.00000737,-0.00000365,0.
 00000260,0.00000278,0.00000114,0.00000009,0.00000086,0.00000096,-0.000
 00128,-0.00000008,-0.00001998,-0.00002659,-0.00010601,0.00000593,-0.00
 001437,-0.00000823,-0.00010019,0.00013043,-0.00005262,0.00002486,0.000
 10905,-0.00003663,0.00001038,-0.00001340,-0.00000502,-0.00000740,-0.00
 000068,0.00000714,0.00264891,-0.00126031,0.00114895,0.00000091,0.,-0.0
 0000015,-0.00000029,0.00000003,-0.00000057,0.00003945,0.00003117,-0.00
 012753,-0.00101548,0.05342522,0.00079697,-0.00154155,-0.01124390,-0.00
 000087,0.00000572,0.00003412,-0.00000521,0.00002045,0.00001738,-0.0000
 1601,0.00000463,-0.00000727,0.00097830,-0.00009009,0.00180602,0.000008
 39,-0.00001459,0.00020736,0.00052506,-0.00040132,0.00125508,-0.0005736
 8,-0.00020924,0.00037291,-0.00006855,-0.00000306,-0.00003542,-0.000358
 61,-0.00236878,-0.01760336,0.00000756,-0.00000342,-0.00000786,0.000034
 36,0.00005664,0.00053204,-0.00092540,-0.03259810,-0.30532159,0.0000812
 4,-0.00007742,0.00070589,0.00204789,0.00071866,0.00029004,-0.00000978,
 -0.00000589,0.00000129,0.00000133,-0.00000092,-0.00000374,0.00000002,-
 0.00000046,-0.00000077,-0.00000865,0.00000448,-0.00000313,-0.00004053,
 -0.00012557,-0.00010306,-0.00001981,0.00004769,-0.00003399,-0.00003819
 ,0.00050264,0.00005952,0.00010361,0.00007885,0.00023471,-0.00000964,0.
 00000153,0.00000586,-0.00000253,0.00000011,-0.00000612,-0.00201076,0.0
 0184598,-0.00008301,-0.00000158,0.00000001,-0.00000002,-0.00000075,-0.
 00000088,0.00000267,0.00021727,-0.00005576,0.00005460,-0.00052648,0.03
 489901,0.33353061,-0.00467804,-0.02950617,-0.00664728,0.00000210,0.000
 00198,-0.00001979,0.00000078,-0.00001465,-0.00000696,-0.00001373,-0.00
 000830,-0.00000746,-0.00290385,0.00698021,-0.00243884,-0.00153161,-0.0
 0034263,0.00042767,0.00113690,0.00020522,0.00002086,-0.00558219,-0.000
 21850,0.00333235,0.00006123,0.00000996,0.00001604,0.00481190,0.0209120
 0,0.00770919,0.00000026,0.00000479,-0.00000016,0.00020957,-0.00021941,
 -0.00004174,-0.05668235,-0.04974112,-0.01253793,0.00113919,0.00064557,
 -0.00077019,0.00136948,0.00067159,-0.00008520,0.00000042,0.00000254,-0
 .00000054,0.00000030,-0.00000701,-0.00000399,-0.00000098,0.00000113,-0
 .00000061,0.00000376,-0.00000054,0.00000102,0.00020661,0.00004034,-0.0
 0001532,0.00032418,-0.00000987,-0.00005181,0.00002339,0.00024364,-0.00
 009664,-0.00015247,-0.00204059,0.00006343,-0.00000410,-0.00000368,-0.0
 0000272,-0.00002076,-0.00001506,0.00000755,0.00060558,-0.00084927,-0.0
 0003174,-0.00000152,-0.00000140,-0.00000004,-0.00000031,0.00000006,0.0
 0000035,0.00000599,0.00000123,-0.00001729,-0.00082680,0.00009331,-0.00
 018496,0.06249709,-0.00126071,-0.00590613,-0.00102295,0.00003545,-0.00
 008016,0.00001295,0.00000311,0.00003366,0.00000920,0.00004025,0.000020
 59,0.00000857,0.00278235,-0.00439302,0.00251782,0.00105288,0.00083196,
 -0.00087131,-0.00062543,0.00116297,-0.00017428,-0.00157222,0.00146535,
 0.00100332,-0.00007557,-0.00000670,-0.00004219,-0.00675580,-0.01700619
 ,-0.00605738,0.00000019,-0.00000004,0.00000692,0.00009222,0.00037988,0
 .00017722,-0.04670184,-0.29651392,-0.05297774,-0.00026046,0.00039395,0
 .00000690,0.00007687,0.00039031,0.00021855,0.00000487,0.00000250,-0.00
 000262,0.00000095,0.00000589,0.00000786,-0.00000014,-0.00000107,0.0000
 0017,-0.00000638,0.00000017,-0.00000315,-0.00011087,-0.00004479,0.0001
 4116,-0.00011650,-0.00010336,0.00005427,0.00002379,0.00003586,-0.00007
 891,0.00010477,-0.00051870,-0.00013379,0.00000455,-0.00000391,-0.00000
 395,0.00002689,0.00002289,-0.00000721,0.00013252,0.00072907,0.00026654
 ,0.00000275,0.00000117,-0.00000045,0.00000053,-0.00000038,-0.00000163,
 -0.00000719,-0.00000224,-0.00000729,-0.00005646,-0.00204059,-0.0006893
 5,0.05316461,0.32114499,0.00239474,0.01334161,0.00135002,-0.00000154,-
 0.00001191,0.00000860,0.00000069,-0.00001172,-0.00000718,-0.00000019,0
 .00000461,-0.00000474,-0.00206800,0.00317182,0.00051652,-0.00036728,-0
 .00053604,0.00025365,0.00077102,-0.00036070,0.00026115,0.00235784,0.00
 011779,-0.00025283,0.00003710,0.00001007,0.00001433,0.00401586,0.01249
 296,0.00175137,-0.00000278,-0.00000092,0.00000014,0.00004271,-0.000088
 42,-0.00009193,-0.01279667,-0.05594154,-0.06159756,-0.00042912,-0.0004
 8158,0.00018971,-0.00074722,0.00006620,0.00060734,0.00000356,-0.000000
 07,-0.00000401,-0.00000116,-0.00000159,0.00000148,0.00000031,0.0000003
 1,0.00000037,0.00000380,-0.00000129,0.00000186,0.00000898,-0.00002267,
 -0.00007408,0.00003065,0.00000227,-0.00003559,0.00001783,0.00035773,0.
 00018330,0.00020697,0.00054518,0.00025391,-0.00000372,-0.00000366,-0.0
 0000225,-0.00001028,-0.00000798,-0.00000010,0.00068139,-0.00052994,0.0
 0024446,-0.00000006,0.00000008,0.00000010,0.00000050,-0.00000003,-0.00
 000071,0.00000898,0.00001229,-0.00001893,-0.00553767,-0.02976565,-0.00
 465684,0.01138275,0.05764277,0.06110843\\-0.00000454,-0.00000029,0.000
 00854,-0.00000455,0.00000768,-0.00000860,0.00000846,0.00000790,-0.0000
 0272,-0.00001031,0.00000893,0.00001027,-0.00000662,-0.00001448,-0.0000
 1174,-0.00001605,-0.00001615,0.00001257,-0.00016225,0.00100961,0.00116
 452,0.00000396,-0.00000700,0.00000217,-0.00057510,-0.00054976,0.000549
 24,-0.00002900,-0.00083798,-0.00065324,0.00001674,-0.00001369,-0.00002
 016,0.00077762,0.00041125,-0.00104406,0.00000879,-0.00000010,0.0000025
 7,0.00000382,-0.00000373,0.00000323,-0.00000292,-0.00000581,-0.0000009
 1,-0.00000268,0.00000326,0.00001520,-0.00000077,-0.00000618,0.00000629
 ,0.00000315,-0.00000059,-0.00000535,-0.00000243,0.00000401,-0.00000152
 ,0.00000224,-0.00000792,-0.00001398,0.00000202,0.00000139,-0.00000624,
 0.00000131,-0.00000099,-0.00000053,0.00000099,-0.00000470,-0.00000781,
 -0.00000014,0.00000307,0.00000386,0.00000694,0.00000393,-0.00000230,-0
 .00000091,-0.00000781,-0.00001164,-0.00000600,0.00000600,-0.00000033,-
 0.00000191,0.00000788,0.00001210,-0.00000297,0.00000038,-0.00000952,-0
 .00000048,0.00000225,0.00000713,-0.00000642,-0.00000035,0.00000293\\\@


 WE SHOULD BE CAREFUL TO GET OUT OF AN EXPERIENCE ONLY THE WISDOM
 THAT IS IN IT -- AND STOP THERE;
 LEST WE BE LIKE THE CAT THAT SITS DOWN ON A HOT STOVE-LID.
 SHE WILL NEVER SIT DOWN ON A HOT STOVE LID AGAIN;
 BUT ALSO SHE WILL NEVER SIT DOWN ON A COLD ONE ANY MORE.

                                                     -- MARK TWAIN
 Job cpu time:       0 days 12 hours 14 minutes 15.2 seconds.
 Elapsed time:       0 days  1 hours  1 minutes 26.1 seconds.
 File lengths (MBytes):  RWF=    721 Int=      0 D2E=      0 Chk=     34 Scr=      1
 Normal termination of Gaussian 16 at Sun Mar 10 06:39:42 2019.
