 Entering Gaussian System, Link 0=g16
 Initial command:
 /sw/Projects/G16/g16/l1.exe "/nvme/pbs/tmpdir/pbs.74288[14].flm1/Gau-19383.inp" -scrdir="/nvme/pbs/tmpdir/pbs.74288[14].flm1/"
 Entering Link 1 = /sw/Projects/G16/g16/l1.exe PID=     19384.
  
 Copyright (c) 1988-2017, Gaussian, Inc.  All Rights Reserved.
  
 This is part of the Gaussian(R) 16 program.  It is based on
 the Gaussian(R) 09 system (copyright 2009, Gaussian, Inc.),
 the Gaussian(R) 03 system (copyright 2003, Gaussian, Inc.),
 the Gaussian(R) 98 system (copyright 1998, Gaussian, Inc.),
 the Gaussian(R) 94 system (copyright 1995, Gaussian, Inc.),
 the Gaussian 92(TM) system (copyright 1992, Gaussian, Inc.),
 the Gaussian 90(TM) system (copyright 1990, Gaussian, Inc.),
 the Gaussian 88(TM) system (copyright 1988, Gaussian, Inc.),
 the Gaussian 86(TM) system (copyright 1986, Carnegie Mellon
 University), and the Gaussian 82(TM) system (copyright 1983,
 Carnegie Mellon University). Gaussian is a federally registered
 trademark of Gaussian, Inc.
  
 This software contains proprietary and confidential information,
 including trade secrets, belonging to Gaussian, Inc.
  
 This software is provided under written license and may be
 used, copied, transmitted, or stored only in accord with that
 written license.
  
 The following legend is applicable only to US Government
 contracts under FAR:
  
                    RESTRICTED RIGHTS LEGEND
  
 Use, reproduction and disclosure by the US Government is
 subject to restrictions as set forth in subparagraphs (a)
 and (c) of the Commercial Computer Software - Restricted
 Rights clause in FAR 52.227-19.
  
 Gaussian, Inc.
 340 Quinnipiac St., Bldg. 40, Wallingford CT 06492
  
  
 ---------------------------------------------------------------
 Warning -- This program may not be used in any manner that
 competes with the business of Gaussian, Inc. or will provide
 assistance to any competitor of Gaussian, Inc.  The licensee
 of this program is prohibited from giving any competitor of
 Gaussian, Inc. access to this program.  By using this program,
 the user acknowledges that Gaussian, Inc. is engaged in the
 business of creating and licensing software in the field of
 computational chemistry and represents and warrants to the
 licensee that it is not a competitor of Gaussian, Inc. and that
 it will not use this program in any manner prohibited above.
 ---------------------------------------------------------------
  

 Cite this work as:
 Gaussian 16, Revision B.01,
 M. J. Frisch, G. W. Trucks, H. B. Schlegel, G. E. Scuseria, 
 M. A. Robb, J. R. Cheeseman, G. Scalmani, V. Barone, 
 G. A. Petersson, H. Nakatsuji, X. Li, M. Caricato, A. V. Marenich, 
 J. Bloino, B. G. Janesko, R. Gomperts, B. Mennucci, H. P. Hratchian, 
 J. V. Ortiz, A. F. Izmaylov, J. L. Sonnenberg, D. Williams-Young, 
 F. Ding, F. Lipparini, F. Egidi, J. Goings, B. Peng, A. Petrone, 
 T. Henderson, D. Ranasinghe, V. G. Zakrzewski, J. Gao, N. Rega, 
 G. Zheng, W. Liang, M. Hada, M. Ehara, K. Toyota, R. Fukuda, 
 J. Hasegawa, M. Ishida, T. Nakajima, Y. Honda, O. Kitao, H. Nakai, 
 T. Vreven, K. Throssell, J. A. Montgomery, Jr., J. E. Peralta, 
 F. Ogliaro, M. J. Bearpark, J. J. Heyd, E. N. Brothers, K. N. Kudin, 
 V. N. Staroverov, T. A. Keith, R. Kobayashi, J. Normand, 
 K. Raghavachari, A. P. Rendell, J. C. Burant, S. S. Iyengar, 
 J. Tomasi, M. Cossi, J. M. Millam, M. Klene, C. Adamo, R. Cammi, 
 J. W. Ochterski, R. L. Martin, K. Morokuma, O. Farkas, 
 J. B. Foresman, and D. J. Fox, Gaussian, Inc., Wallingford CT, 2016.
 
 ******************************************
 Gaussian 16:  ES64L-G16RevB.01 20-Dec-2017
                10-Mar-2019 
 ******************************************
 %mem=20gb
 %nproc=12
 Will use up to   12 processors via shared memory.
 %chk=4c1_b1_4e_4c1_PSI.inp_extract_14.chk
 ----------------------------------------------------------------------
 #M062X/6-311++G(2d,2p) opt=ModRedundant freq=noraman SCRF=(SMD,solvent
 =water)
 ----------------------------------------------------------------------
 1/18=120,19=15,26=3,38=1/1,3;
 2/9=110,12=2,17=6,18=5,40=1/2;
 3/5=4,6=6,7=1212,11=2,25=1,30=1,70=32201,71=1,72=1,74=-55/1,2,3;
 4//1;
 5/5=2,38=5,53=1/2;
 6/7=2,8=2,9=2,10=2,28=1/1;
 7//1,2,3,16;
 1/18=20,19=15,26=3/3(2);
 2/9=110/2;
 99//99;
 2/9=110/2;
 3/5=4,6=6,7=1212,11=2,25=1,30=1,70=32205,71=1,72=1,74=-55/1,2,3;
 4/5=5,16=3,69=1/1;
 5/5=2,38=5,53=1/2;
 7//1,2,3,16;
 1/18=20,19=15,26=3/3(-5);
 2/9=110/2;
 6/7=2,8=2,9=2,10=2,19=2,28=1/1;
 99/9=1/99;
 --------------------------------
 4c1_b1_4e_4c1_PSI.inp_extract_14
 --------------------------------
 Symbolic Z-matrix:
 Charge =  0 Multiplicity = 1
 C                    -3.48813   0.8594    0.39157 
 C                     1.70963  -1.00088  -0.66422 
 C                     3.24112   0.96087   0.75878 
 O                     3.11032  -1.09798  -0.50954 
 O                    -1.41933  -1.00121  -0.24082 
 C                    -2.45446  -1.40231   0.64234 
 O                    -0.07275   0.62525  -1.04911 
 C                    -3.74088  -0.64804   0.34753 
 C                     1.73391   1.17024   0.57597 
 C                    -1.0921    0.36637  -0.14104 
 C                     3.5836   -0.5193    0.69357 
 C                     1.29891   0.46905  -0.7074 
 C                    -2.29324   1.22451  -0.49308 
 H                    -4.36911   1.40562   0.06996 
 H                    -3.28426   1.16131   1.41696 
 H                     1.21894  -1.51956   0.15335 
 H                     1.4596   -1.4963   -1.5922 
 H                     3.78818   1.48878  -0.01793 
 H                     3.56398   1.36156   1.71486 
 H                    -2.13479  -1.22848   1.66747 
 H                    -2.57344  -2.46738   0.50062 
 H                    -4.10306  -0.93475  -0.63682 
 H                    -4.49839  -0.93579   1.07103 
 H                     1.21871   0.75426   1.43522 
 H                     1.49393   2.22793   0.52547 
 H                    -0.77088   0.56538   0.87275 
 H                     4.65314  -0.67807   0.70704 
 H                     3.14734  -1.0498    1.53699 
 H                     1.81566   0.92848  -1.54024 
 H                    -2.53487   1.05925  -1.5399 
 H                    -2.02671   2.26965  -0.37295 
 
 The following ModRedundant input section has been read:
 D      10       7      12       9 F                                           
 

 GradGradGradGradGradGradGradGradGradGradGradGradGradGradGradGradGradGrad
 Berny optimization.
 Initialization pass.
                           ----------------------------
                           !    Initial Parameters    !
                           ! (Angstroms and Degrees)  !
 --------------------------                            --------------------------
 ! Name  Definition              Value          Derivative Info.                !
 --------------------------------------------------------------------------------
 ! R1    R(1,8)                  1.5291         estimate D2E/DX2                !
 ! R2    R(1,13)                 1.5309         estimate D2E/DX2                !
 ! R3    R(1,14)                 1.0853         estimate D2E/DX2                !
 ! R4    R(1,15)                 1.0882         estimate D2E/DX2                !
 ! R5    R(2,4)                  1.4125         estimate D2E/DX2                !
 ! R6    R(2,12)                 1.5268         estimate D2E/DX2                !
 ! R7    R(2,16)                 1.0855         estimate D2E/DX2                !
 ! R8    R(2,17)                 1.0813         estimate D2E/DX2                !
 ! R9    R(3,9)                  1.5326         estimate D2E/DX2                !
 ! R10   R(3,11)                 1.5207         estimate D2E/DX2                !
 ! R11   R(3,18)                 1.0868         estimate D2E/DX2                !
 ! R12   R(3,19)                 1.0858         estimate D2E/DX2                !
 ! R13   R(4,11)                 1.4165         estimate D2E/DX2                !
 ! R14   R(5,6)                  1.4186         estimate D2E/DX2                !
 ! R15   R(5,10)                 1.4097         estimate D2E/DX2                !
 ! R16   R(6,8)                  1.5201         estimate D2E/DX2                !
 ! R17   R(6,20)                 1.0878         estimate D2E/DX2                !
 ! R18   R(6,21)                 1.081          estimate D2E/DX2                !
 ! R19   R(7,10)                 1.3895         estimate D2E/DX2                !
 ! R20   R(7,12)                 1.4222         estimate D2E/DX2                !
 ! R21   R(8,22)                 1.0873         estimate D2E/DX2                !
 ! R22   R(8,23)                 1.0863         estimate D2E/DX2                !
 ! R23   R(9,12)                 1.5257         estimate D2E/DX2                !
 ! R24   R(9,24)                 1.0848         estimate D2E/DX2                !
 ! R25   R(9,25)                 1.0857         estimate D2E/DX2                !
 ! R26   R(10,13)                1.5176         estimate D2E/DX2                !
 ! R27   R(10,26)                1.0819         estimate D2E/DX2                !
 ! R28   R(11,27)                1.0813         estimate D2E/DX2                !
 ! R29   R(11,28)                1.0877         estimate D2E/DX2                !
 ! R30   R(12,29)                1.0825         estimate D2E/DX2                !
 ! R31   R(13,30)                1.087          estimate D2E/DX2                !
 ! R32   R(13,31)                1.0853         estimate D2E/DX2                !
 ! A1    A(8,1,13)             110.3336         estimate D2E/DX2                !
 ! A2    A(8,1,14)             110.6977         estimate D2E/DX2                !
 ! A3    A(8,1,15)             109.3668         estimate D2E/DX2                !
 ! A4    A(13,1,14)            110.0165         estimate D2E/DX2                !
 ! A5    A(13,1,15)            109.3976         estimate D2E/DX2                !
 ! A6    A(14,1,15)            106.9585         estimate D2E/DX2                !
 ! A7    A(4,2,12)             109.6345         estimate D2E/DX2                !
 ! A8    A(4,2,16)             109.4472         estimate D2E/DX2                !
 ! A9    A(4,2,17)             106.9641         estimate D2E/DX2                !
 ! A10   A(12,2,16)            111.0836         estimate D2E/DX2                !
 ! A11   A(12,2,17)            110.7715         estimate D2E/DX2                !
 ! A12   A(16,2,17)            108.8419         estimate D2E/DX2                !
 ! A13   A(9,3,11)             110.4462         estimate D2E/DX2                !
 ! A14   A(9,3,18)             110.0841         estimate D2E/DX2                !
 ! A15   A(9,3,19)             110.3068         estimate D2E/DX2                !
 ! A16   A(11,3,18)            109.1948         estimate D2E/DX2                !
 ! A17   A(11,3,19)            109.2692         estimate D2E/DX2                !
 ! A18   A(18,3,19)            107.4796         estimate D2E/DX2                !
 ! A19   A(2,4,11)             113.3437         estimate D2E/DX2                !
 ! A20   A(6,5,10)             113.554          estimate D2E/DX2                !
 ! A21   A(5,6,8)              110.8845         estimate D2E/DX2                !
 ! A22   A(5,6,20)             109.0917         estimate D2E/DX2                !
 ! A23   A(5,6,21)             106.0973         estimate D2E/DX2                !
 ! A24   A(8,6,20)             110.62           estimate D2E/DX2                !
 ! A25   A(8,6,21)             111.7346         estimate D2E/DX2                !
 ! A26   A(20,6,21)            108.2603         estimate D2E/DX2                !
 ! A27   A(10,7,12)            122.01           estimate D2E/DX2                !
 ! A28   A(1,8,6)              110.1021         estimate D2E/DX2                !
 ! A29   A(1,8,22)             109.9418         estimate D2E/DX2                !
 ! A30   A(1,8,23)             110.9293         estimate D2E/DX2                !
 ! A31   A(6,8,22)             109.0633         estimate D2E/DX2                !
 ! A32   A(6,8,23)             109.2395         estimate D2E/DX2                !
 ! A33   A(22,8,23)            107.507          estimate D2E/DX2                !
 ! A34   A(3,9,12)             108.5377         estimate D2E/DX2                !
 ! A35   A(3,9,24)             108.6742         estimate D2E/DX2                !
 ! A36   A(3,9,25)             110.8533         estimate D2E/DX2                !
 ! A37   A(12,9,24)            110.7703         estimate D2E/DX2                !
 ! A38   A(12,9,25)            110.2158         estimate D2E/DX2                !
 ! A39   A(24,9,25)            107.784          estimate D2E/DX2                !
 ! A40   A(5,10,7)             107.745          estimate D2E/DX2                !
 ! A41   A(5,10,13)            110.3909         estimate D2E/DX2                !
 ! A42   A(5,10,26)            108.2811         estimate D2E/DX2                !
 ! A43   A(7,10,13)            108.8861         estimate D2E/DX2                !
 ! A44   A(7,10,26)            111.1177         estimate D2E/DX2                !
 ! A45   A(13,10,26)           110.3859         estimate D2E/DX2                !
 ! A46   A(3,11,4)             111.0289         estimate D2E/DX2                !
 ! A47   A(3,11,27)            111.4161         estimate D2E/DX2                !
 ! A48   A(3,11,28)            110.5575         estimate D2E/DX2                !
 ! A49   A(4,11,27)            106.3244         estimate D2E/DX2                !
 ! A50   A(4,11,28)            108.9872         estimate D2E/DX2                !
 ! A51   A(27,11,28)           108.3867         estimate D2E/DX2                !
 ! A52   A(2,12,7)             111.8375         estimate D2E/DX2                !
 ! A53   A(2,12,9)             109.9964         estimate D2E/DX2                !
 ! A54   A(2,12,29)            107.5746         estimate D2E/DX2                !
 ! A55   A(7,12,9)             115.2521         estimate D2E/DX2                !
 ! A56   A(7,12,29)            103.2348         estimate D2E/DX2                !
 ! A57   A(9,12,29)            108.4218         estimate D2E/DX2                !
 ! A58   A(1,13,10)            110.4168         estimate D2E/DX2                !
 ! A59   A(1,13,30)            110.2886         estimate D2E/DX2                !
 ! A60   A(1,13,31)            110.9406         estimate D2E/DX2                !
 ! A61   A(10,13,30)           108.2624         estimate D2E/DX2                !
 ! A62   A(10,13,31)           108.9354         estimate D2E/DX2                !
 ! A63   A(30,13,31)           107.9156         estimate D2E/DX2                !
 ! D1    D(13,1,8,6)            51.3853         estimate D2E/DX2                !
 ! D2    D(13,1,8,22)          -68.7983         estimate D2E/DX2                !
 ! D3    D(13,1,8,23)          172.4263         estimate D2E/DX2                !
 ! D4    D(14,1,8,6)           173.4067         estimate D2E/DX2                !
 ! D5    D(14,1,8,22)           53.2231         estimate D2E/DX2                !
 ! D6    D(14,1,8,23)          -65.5522         estimate D2E/DX2                !
 ! D7    D(15,1,8,6)           -68.9924         estimate D2E/DX2                !
 ! D8    D(15,1,8,22)          170.824          estimate D2E/DX2                !
 ! D9    D(15,1,8,23)           52.0487         estimate D2E/DX2                !
 ! D10   D(8,1,13,10)          -51.9891         estimate D2E/DX2                !
 ! D11   D(8,1,13,30)           67.6213         estimate D2E/DX2                !
 ! D12   D(8,1,13,31)         -172.8653         estimate D2E/DX2                !
 ! D13   D(14,1,13,10)        -174.4116         estimate D2E/DX2                !
 ! D14   D(14,1,13,30)         -54.8011         estimate D2E/DX2                !
 ! D15   D(14,1,13,31)          64.7123         estimate D2E/DX2                !
 ! D16   D(15,1,13,10)          68.37           estimate D2E/DX2                !
 ! D17   D(15,1,13,30)        -172.0195         estimate D2E/DX2                !
 ! D18   D(15,1,13,31)         -52.5061         estimate D2E/DX2                !
 ! D19   D(12,2,4,11)           61.505          estimate D2E/DX2                !
 ! D20   D(16,2,4,11)          -60.5689         estimate D2E/DX2                !
 ! D21   D(17,2,4,11)         -178.3299         estimate D2E/DX2                !
 ! D22   D(4,2,12,7)           171.7607         estimate D2E/DX2                !
 ! D23   D(4,2,12,9)           -58.8277         estimate D2E/DX2                !
 ! D24   D(4,2,12,29)           59.0772         estimate D2E/DX2                !
 ! D25   D(16,2,12,7)          -67.1483         estimate D2E/DX2                !
 ! D26   D(16,2,12,9)           62.2634         estimate D2E/DX2                !
 ! D27   D(16,2,12,29)        -179.8317         estimate D2E/DX2                !
 ! D28   D(17,2,12,7)           53.9444         estimate D2E/DX2                !
 ! D29   D(17,2,12,9)         -176.644          estimate D2E/DX2                !
 ! D30   D(17,2,12,29)         -58.7391         estimate D2E/DX2                !
 ! D31   D(11,3,9,12)          -53.3535         estimate D2E/DX2                !
 ! D32   D(11,3,9,24)           67.1871         estimate D2E/DX2                !
 ! D33   D(11,3,9,25)         -174.535          estimate D2E/DX2                !
 ! D34   D(18,3,9,12)           67.3049         estimate D2E/DX2                !
 ! D35   D(18,3,9,24)         -172.1545         estimate D2E/DX2                !
 ! D36   D(18,3,9,25)          -53.8766         estimate D2E/DX2                !
 ! D37   D(19,3,9,12)         -174.2504         estimate D2E/DX2                !
 ! D38   D(19,3,9,24)          -53.7098         estimate D2E/DX2                !
 ! D39   D(19,3,9,25)           64.5681         estimate D2E/DX2                !
 ! D40   D(9,3,11,4)            55.1758         estimate D2E/DX2                !
 ! D41   D(9,3,11,27)          173.4863         estimate D2E/DX2                !
 ! D42   D(9,3,11,28)          -65.919          estimate D2E/DX2                !
 ! D43   D(18,3,11,4)          -66.0124         estimate D2E/DX2                !
 ! D44   D(18,3,11,27)          52.2981         estimate D2E/DX2                !
 ! D45   D(18,3,11,28)         172.8928         estimate D2E/DX2                !
 ! D46   D(19,3,11,4)          176.6889         estimate D2E/DX2                !
 ! D47   D(19,3,11,27)         -65.0005         estimate D2E/DX2                !
 ! D48   D(19,3,11,28)          55.5941         estimate D2E/DX2                !
 ! D49   D(2,4,11,3)           -60.0595         estimate D2E/DX2                !
 ! D50   D(2,4,11,27)          178.5934         estimate D2E/DX2                !
 ! D51   D(2,4,11,28)           61.9546         estimate D2E/DX2                !
 ! D52   D(10,5,6,8)            61.1197         estimate D2E/DX2                !
 ! D53   D(10,5,6,20)          -60.9489         estimate D2E/DX2                !
 ! D54   D(10,5,6,21)         -177.3714         estimate D2E/DX2                !
 ! D55   D(6,5,10,7)           179.9027         estimate D2E/DX2                !
 ! D56   D(6,5,10,13)          -61.312          estimate D2E/DX2                !
 ! D57   D(6,5,10,26)           59.6307         estimate D2E/DX2                !
 ! D58   D(5,6,8,1)            -54.9442         estimate D2E/DX2                !
 ! D59   D(5,6,8,22)            65.7687         estimate D2E/DX2                !
 ! D60   D(5,6,8,23)          -176.9918         estimate D2E/DX2                !
 ! D61   D(20,6,8,1)            66.228          estimate D2E/DX2                !
 ! D62   D(20,6,8,22)         -173.0591         estimate D2E/DX2                !
 ! D63   D(20,6,8,23)          -55.8197         estimate D2E/DX2                !
 ! D64   D(21,6,8,1)          -173.0813         estimate D2E/DX2                !
 ! D65   D(21,6,8,22)          -52.3685         estimate D2E/DX2                !
 ! D66   D(21,6,8,23)           64.871          estimate D2E/DX2                !
 ! D67   D(12,7,10,5)          -88.0685         estimate D2E/DX2                !
 ! D68   D(12,7,10,13)         152.1878         estimate D2E/DX2                !
 ! D69   D(12,7,10,26)          30.3986         estimate D2E/DX2                !
 ! D70   D(10,7,12,2)           75.4545         estimate D2E/DX2                !
 ! D71   D(10,7,12,9)          -51.1532         Frozen                          !
 ! D72   D(10,7,12,29)        -169.1787         estimate D2E/DX2                !
 ! D73   D(3,9,12,2)            55.2265         estimate D2E/DX2                !
 ! D74   D(3,9,12,7)          -177.2344         estimate D2E/DX2                !
 ! D75   D(3,9,12,29)          -62.1528         estimate D2E/DX2                !
 ! D76   D(24,9,12,2)          -64.0065         estimate D2E/DX2                !
 ! D77   D(24,9,12,7)           63.5326         estimate D2E/DX2                !
 ! D78   D(24,9,12,29)         178.6141         estimate D2E/DX2                !
 ! D79   D(25,9,12,2)          176.7997         estimate D2E/DX2                !
 ! D80   D(25,9,12,7)          -55.6612         estimate D2E/DX2                !
 ! D81   D(25,9,12,29)          59.4203         estimate D2E/DX2                !
 ! D82   D(5,10,13,1)           55.8455         estimate D2E/DX2                !
 ! D83   D(5,10,13,30)         -64.9816         estimate D2E/DX2                !
 ! D84   D(5,10,13,31)         177.9101         estimate D2E/DX2                !
 ! D85   D(7,10,13,1)          173.9334         estimate D2E/DX2                !
 ! D86   D(7,10,13,30)          53.1062         estimate D2E/DX2                !
 ! D87   D(7,10,13,31)         -64.002          estimate D2E/DX2                !
 ! D88   D(26,10,13,1)         -63.8338         estimate D2E/DX2                !
 ! D89   D(26,10,13,30)        175.339          estimate D2E/DX2                !
 ! D90   D(26,10,13,31)         58.2308         estimate D2E/DX2                !
 --------------------------------------------------------------------------------
 Trust Radius=3.00D-01 FncErr=1.00D-07 GrdErr=1.00D-06 EigMax=2.50D+02 EigMin=1.00D-04
 Number of steps in this run=    186 maximum allowed number of steps=    186.
 GradGradGradGradGradGradGradGradGradGradGradGradGradGradGradGradGradGrad

                          Input orientation:                          
 ---------------------------------------------------------------------
 Center     Atomic      Atomic             Coordinates (Angstroms)
 Number     Number       Type             X           Y           Z
 ---------------------------------------------------------------------
      1          6           0       -3.488126    0.859403    0.391570
      2          6           0        1.709625   -1.000877   -0.664217
      3          6           0        3.241124    0.960873    0.758782
      4          8           0        3.110319   -1.097982   -0.509544
      5          8           0       -1.419334   -1.001214   -0.240821
      6          6           0       -2.454463   -1.402312    0.642337
      7          8           0       -0.072745    0.625251   -1.049106
      8          6           0       -3.740882   -0.648042    0.347532
      9          6           0        1.733905    1.170237    0.575968
     10          6           0       -1.092103    0.366367   -0.141043
     11          6           0        3.583597   -0.519300    0.693566
     12          6           0        1.298908    0.469049   -0.707395
     13          6           0       -2.293240    1.224514   -0.493082
     14          1           0       -4.369105    1.405621    0.069956
     15          1           0       -3.284256    1.161309    1.416956
     16          1           0        1.218939   -1.519555    0.153348
     17          1           0        1.459602   -1.496300   -1.592201
     18          1           0        3.788179    1.488781   -0.017929
     19          1           0        3.563980    1.361562    1.714859
     20          1           0       -2.134788   -1.228478    1.667471
     21          1           0       -2.573441   -2.467376    0.500618
     22          1           0       -4.103060   -0.934748   -0.636822
     23          1           0       -4.498386   -0.935794    1.071034
     24          1           0        1.218709    0.754259    1.435220
     25          1           0        1.493934    2.227926    0.525466
     26          1           0       -0.770880    0.565376    0.872753
     27          1           0        4.653135   -0.678074    0.707035
     28          1           0        3.147341   -1.049797    1.536990
     29          1           0        1.815661    0.928477   -1.540242
     30          1           0       -2.534868    1.059252   -1.539898
     31          1           0       -2.026706    2.269651   -0.372950
 ---------------------------------------------------------------------
                    Distance matrix (angstroms):
                    1          2          3          4          5
     1  C    0.000000
     2  C    5.620671   0.000000
     3  C    6.740026   2.866859   0.000000
     4  O    6.941386   1.412550   2.421703   0.000000
     5  O    2.853369   3.157475   5.154499   4.538649   0.000000
     6  C    2.499340   4.382678   6.167488   5.690891   1.418570
     7  O    3.714189   2.443210   3.789832   3.659584   2.260977
     8  C    1.529122   5.554832   7.176778   6.919247   2.420842
     9  C    5.234523   2.500477   1.532633   2.866648   3.914749
    10  C    2.503535   3.161131   4.465420   4.465474   1.409721
    11  C    7.211192   2.363739   1.520675   1.416453   5.112205
    12  C    4.927047   1.526838   2.482694   2.403319   3.125413
    13  C    1.530904   4.583075   5.680304   5.881557   2.404415
    14  H    1.085317   6.578845   7.654271   7.908580   3.819763
    15  H    1.088176   5.826249   6.561551   7.050276   3.301918
    16  H    5.279456   1.085455   3.257039   2.048040   2.717449
    17  H    5.827924   1.081254   3.839094   2.013869   3.218635
    18  H    7.314945   3.307034   1.086847   2.718919   5.776500
    19  H    7.192736   3.831417   1.085758   3.347108   5.851565
    20  H    2.796193   4.502009   5.875322   5.680455   2.050634
    21  H    3.451956   4.674625   6.754902   5.933026   2.007816
    22  H    2.157478   5.813126   7.712206   7.216348   2.713599
    23  H    2.169108   6.446296   7.974639   7.772832   3.347507
    24  H    4.822298   2.780132   2.142527   3.284980   3.584699
    25  H    5.168337   3.447758   2.170837   3.840001   4.416070
    26  H    2.775142   3.311847   4.033061   4.443108   2.028483
    27  H    8.291169   3.263248   2.163932   2.009146   6.154489
    28  H    6.999032   2.629588   2.158054   2.047436   4.900765
    29  H    5.645071   2.121573   2.705274   2.616298   3.984645
    30  H    2.163148   4.798611   6.217370   6.130532   2.679093
    31  H    2.170032   4.974069   5.544705   6.143992   3.329402
                    6          7          8          9         10
     6  C    0.000000
     7  O    3.555921   0.000000
     8  C    1.520101   4.126391   0.000000
     9  C    4.915775   2.490353   5.773354   0.000000
    10  C    2.365995   1.389493   2.878152   3.024340   0.000000
    11  C    6.102500   4.209007   7.333778   2.507932   4.831475
    12  C    4.405855   1.422181   5.268799   1.525748   2.459315
    13  C    2.866249   2.366195   2.511726   4.166979   1.517589
    14  H    3.446442   4.507770   2.165466   6.128473   3.444316
    15  H    2.803702   4.084437   2.150797   5.088151   2.804430
    16  H    3.707659   2.777505   5.039550   2.771061   2.997379
    17  H    4.507982   2.672830   5.614903   3.447698   3.476577
    18  H    6.911219   4.088489   7.834943   2.161996   5.009204
    19  H    6.709021   4.626816   7.698643   2.163990   5.110176
    20  H    1.087801   3.881768   2.158398   4.681025   2.627060
    21  H    1.081019   4.268427   2.167102   5.638363   3.261317
    22  H    2.138396   4.341315   1.087348   6.322340   3.317312
    23  H    2.139869   5.149578   1.086310   6.597114   3.842853
    24  H    4.332627   2.802922   5.267547   1.084794   2.823990
    25  H    5.364898   2.739038   5.975462   1.085745   3.255338
    26  H    2.599873   2.045610   3.251023   2.593817   1.081929
    27  H    7.144694   5.207363   8.401766   3.457649   5.900665
    28  H    5.683738   4.456751   7.001702   2.801770   4.774327
    29  H    5.331997   1.974649   6.076535   2.131543   3.275487
    30  H    3.290579   2.547800   2.816330   4.765672   2.125666
    31  H    3.833679   2.641818   3.459830   4.031297   2.133015
                   11         12         13         14         15
    11  C    0.000000
    12  C    2.856454   0.000000
    13  C    6.243896   3.676980   0.000000
    14  H    8.206076   5.797225   2.158478   0.000000
    15  H    7.107401   5.098773   2.152755   1.746710   0.000000
    16  H    2.623729   2.168368   4.503686   6.307919   5.390965
    17  H    3.269651   2.161319   4.763897   6.719951   6.214668
    18  H    2.140203   2.776992   6.105675   8.158181   7.223951
    19  H    2.140343   3.434304   6.261055   8.101943   6.857637
    20  H    5.843916   4.506867   3.272654   3.805615   2.663666
    21  H    6.460754   5.007691   3.833537   4.290686   3.809500
    22  H    7.811992   5.581835   2.821085   2.459195   3.046621
    23  H    8.101506   6.224549   3.460644   2.549724   2.447777
    24  H    2.786521   2.163002   4.034015   5.788945   4.521362
    25  H    3.455749   2.156764   4.048081   5.937921   4.976296
    26  H    4.491113   2.605795   2.148848   3.781232   2.639764
    27  H    1.081343   3.816719   7.301524   9.281620   8.178600
    28  H    1.087709   3.280375   6.236474   8.042277   6.802120
    29  H    3.195552   1.082470   4.250559   6.408723   5.899863
    30  H    6.701925   3.967271   1.086977   2.464960   3.052046
    31  H    6.355407   3.796542   1.085257   2.535655   2.452268
                   16         17         18         19         20
    16  H    0.000000
    17  H    1.762215   0.000000
    18  H    3.959850   4.100160   0.000000
    19  H    4.029686   4.851023   1.751857   0.000000
    20  H    3.691176   4.859715   6.730944   6.259913   0.000000
    21  H    3.924424   4.646323   7.509346   7.335059   1.757507
    22  H    5.412027   5.671975   8.278175   8.341879   3.044690
    23  H    5.819856   6.550161   8.702388   8.407978   2.455198
    24  H    2.610254   3.779990   3.041930   2.438711   3.902708
    25  H    3.775938   4.284338   2.470865   2.539751   5.139896
    26  H    2.970498   3.911720   4.736139   4.487100   2.389505
    27  H    3.578877   4.019283   2.443150   2.522317   6.877593
    28  H    2.419478   3.583248   3.045131   2.453544   5.286761
    29  H    3.035982   2.451331   2.553861   3.720197   5.527018
    30  H    4.858847   4.742296   6.517807   6.919594   3.959923
    31  H    5.016900   5.274780   5.877813   6.036501   4.051161
                   21         22         23         24         25
    21  H    0.000000
    22  H    2.445905   0.000000
    23  H    2.525179   1.753013   0.000000
    24  H    5.062886   5.955445   5.972779   0.000000
    25  H    6.212086   6.532975   6.798137   1.753595   0.000000
    26  H    3.547576   3.953810   4.023323   2.076177   2.830912
    27  H    7.447658   8.862437   9.162382   3.791716   4.296319
    28  H    5.984225   7.570139   7.660761   2.642839   3.807940
    29  H    5.912795   6.270489   7.082475   3.039750   2.461549
    30  H    4.074592   2.692733   3.827869   4.799342   4.675764
    31  H    4.847831   3.827407   4.297577   4.012307   3.633703
                   26         27         28         29         30
    26  H    0.000000
    27  H    5.567187   0.000000
    28  H    4.289808   1.759096   0.000000
    29  H    3.555922   3.960116   3.893109   0.000000
    30  H    3.029266   7.728803   6.797266   4.352494   0.000000
    31  H    2.456304   7.380767   6.437186   4.233805   1.756434
                   31
    31  H    0.000000
 Stoichiometry    C10H18O3
 Framework group  C1[X(C10H18O3)]
 Deg. of freedom    87
 Full point group                 C1      NOp   1
 Largest Abelian subgroup         C1      NOp   1
 Largest concise Abelian subgroup C1      NOp   1
                         Standard orientation:                         
 ---------------------------------------------------------------------
 Center     Atomic      Atomic             Coordinates (Angstroms)
 Number     Number       Type             X           Y           Z
 ---------------------------------------------------------------------
      1          6           0        3.488126   -0.859403    0.391570
      2          6           0       -1.709625    1.000877   -0.664217
      3          6           0       -3.241124   -0.960873    0.758782
      4          8           0       -3.110319    1.097982   -0.509544
      5          8           0        1.419334    1.001214   -0.240821
      6          6           0        2.454463    1.402312    0.642337
      7          8           0        0.072745   -0.625251   -1.049106
      8          6           0        3.740882    0.648042    0.347532
      9          6           0       -1.733905   -1.170237    0.575968
     10          6           0        1.092103   -0.366367   -0.141043
     11          6           0       -3.583597    0.519300    0.693566
     12          6           0       -1.298908   -0.469049   -0.707395
     13          6           0        2.293240   -1.224514   -0.493082
     14          1           0        4.369105   -1.405621    0.069956
     15          1           0        3.284256   -1.161309    1.416956
     16          1           0       -1.218939    1.519555    0.153348
     17          1           0       -1.459602    1.496300   -1.592201
     18          1           0       -3.788179   -1.488781   -0.017929
     19          1           0       -3.563980   -1.361562    1.714859
     20          1           0        2.134788    1.228478    1.667471
     21          1           0        2.573441    2.467376    0.500618
     22          1           0        4.103060    0.934748   -0.636822
     23          1           0        4.498386    0.935794    1.071034
     24          1           0       -1.218709   -0.754259    1.435220
     25          1           0       -1.493934   -2.227926    0.525466
     26          1           0        0.770880   -0.565376    0.872753
     27          1           0       -4.653135    0.678074    0.707035
     28          1           0       -3.147341    1.049797    1.536990
     29          1           0       -1.815661   -0.928477   -1.540242
     30          1           0        2.534868   -1.059252   -1.539898
     31          1           0        2.026706   -2.269651   -0.372950
 ---------------------------------------------------------------------
 Rotational constants (GHZ):           1.9064211           0.3989105           0.3710356
 Standard basis: 6-311++G(2d,2p) (5D, 7F)
 There are   557 symmetry adapted cartesian basis functions of A   symmetry.
 There are   531 symmetry adapted basis functions of A   symmetry.
   531 basis functions,   762 primitive gaussians,   557 cartesian basis functions
    51 alpha electrons       51 beta electrons
       nuclear repulsion energy       888.3539844872 Hartrees.
 NAtoms=   31 NActive=   31 NUniq=   31 SFac= 1.00D+00 NAtFMM=   60 NAOKFM=F Big=F
 Integral buffers will be    131072 words long.
 Raffenetti 2 integral format.
 Two-electron integral symmetry is turned on.
 ------------------------------------------------------------------------------
 Polarizable Continuum Model (PCM)
 =================================
 Model                : PCM.
 Atomic radii         : SMD-Coulomb.
 Polarization charges : Total charges.
 Charge compensation  : None.
 Solution method      : On-the-fly selection.
 Cavity type          : VdW (van der Waals Surface) (Alpha=1.000).
 Cavity algorithm     : GePol (No added spheres)
                        Default sphere list used, NSphG=   31.
                        Lebedev-Laikov grids with approx.  5.0 points / Ang**2.
                        Smoothing algorithm: York/Karplus (Gamma=1.0000).
                        Polarization charges: spherical gaussians, with
                                              point-specific exponents (IZeta= 3).
                        Self-potential: point-specific (ISelfS= 7).
                        Self-field    : sphere-specific E.n sum rule (ISelfD= 2).
 1st derivatives      : Analytical E(r).r(x)/FMM algorithm (CHGder, D1EAlg=3).
                        Cavity 1st derivative terms included.
 Solvent              : Water, Eps=  78.355300 Eps(inf)=   1.777849
 ------------------------------------------------------------------------------
 ------------------------------------------------------------------------------
 Atomic radii for non-electrostatic terms: SMD-CDS.
 ------------------------------------------------------------------------------
 Nuclear repulsion after PCM non-electrostatic terms =      888.3602690838 Hartrees.
 One-electron integrals computed using PRISM.
 NBasis=   531 RedAO= T EigKep=  6.24D-06  NBF=   531
 NBsUse=   531 1.00D-06 EigRej= -1.00D+00 NBFU=   531
 ExpMin= 3.60D-02 ExpMax= 8.59D+03 ExpMxC= 1.30D+03 IAcc=3 IRadAn=         5 AccDes= 0.00D+00
 Harris functional with IExCor= 1009 and IRadAn=       5 diagonalized for initial guess.
 HarFok:  IExCor= 1009 AccDes= 0.00D+00 IRadAn=         5 IDoV= 1 UseB2=F ITyADJ=14
 ICtDFT=  3500011 ScaDFX=  1.000000  1.000000  1.000000  1.000000
 FoFCou: FMM=F IPFlag=           0 FMFlag=      100000 FMFlg1=           0
         NFxFlg=           0 DoJE=T BraDBF=F KetDBF=T FulRan=T
         wScrn=  0.000000 ICntrl=       500 IOpCl=  0 I1Cent=   200000004 NGrid=           0
         NMat0=    1 NMatS0=      1 NMatT0=    0 NMatD0=    1 NMtDS0=    0 NMtDT0=    0
 Petite list used in FoFCou.
 Requested convergence on RMS density matrix=1.00D-08 within 128 cycles.
 Requested convergence on MAX density matrix=1.00D-06.
 Requested convergence on             energy=1.00D-06.
 No special actions if energy rises.
 Inv3:  Mode=1 IEnd=    12012003.
 Iteration    1 A*A^-1 deviation from unit magnitude is 8.88D-15 for    386.
 Iteration    1 A*A^-1 deviation from orthogonality  is 5.70D-15 for   1407    393.
 Iteration    1 A^-1*A deviation from unit magnitude is 8.22D-15 for    386.
 Iteration    1 A^-1*A deviation from orthogonality  is 2.25D-15 for   1985    597.
 Error on total polarization charges =  0.06261
 SCF Done:  E(RM062X) =  -617.502222941     A.U. after   13 cycles
            NFock= 13  Conv=0.17D-08     -V/T= 2.0035
 SMD-CDS (non-electrostatic) energy       (kcal/mol) =       3.94
 (included in total energy above)

 **********************************************************************

            Population analysis using the SCF Density.

 **********************************************************************

 Orbital symmetries:
       Occupied  (A) (A) (A) (A) (A) (A) (A) (A) (A) (A) (A) (A)
                 (A) (A) (A) (A) (A) (A) (A) (A) (A) (A) (A) (A)
                 (A) (A) (A) (A) (A) (A) (A) (A) (A) (A) (A) (A)
                 (A) (A) (A) (A) (A) (A) (A) (A) (A) (A) (A) (A)
                 (A) (A) (A)
       Virtual   (A) (A) (A) (A) (A) (A) (A) (A) (A) (A) (A) (A)
                 (A) (A) (A) (A) (A) (A) (A) (A) (A) (A) (A) (A)
                 (A) (A) (A) (A) (A) (A) (A) (A) (A) (A) (A) (A)
                 (A) (A) (A) (A) (A) (A) (A) (A) (A) (A) (A) (A)
                 (A) (A) (A) (A) (A) (A) (A) (A) (A) (A) (A) (A)
                 (A) (A) (A) (A) (A) (A) (A) (A) (A) (A) (A) (A)
                 (A) (A) (A) (A) (A) (A) (A) (A) (A) (A) (A) (A)
                 (A) (A) (A) (A) (A) (A) (A) (A) (A) (A) (A) (A)
                 (A) (A) (A) (A) (A) (A) (A) (A) (A) (A) (A) (A)
                 (A) (A) (A) (A) (A) (A) (A) (A) (A) (A) (A) (A)
                 (A) (A) (A) (A) (A) (A) (A) (A) (A) (A) (A) (A)
                 (A) (A) (A) (A) (A) (A) (A) (A) (A) (A) (A) (A)
                 (A) (A) (A) (A) (A) (A) (A) (A) (A) (A) (A) (A)
                 (A) (A) (A) (A) (A) (A) (A) (A) (A) (A) (A) (A)
                 (A) (A) (A) (A) (A) (A) (A) (A) (A) (A) (A) (A)
                 (A) (A) (A) (A) (A) (A) (A) (A) (A) (A) (A) (A)
                 (A) (A) (A) (A) (A) (A) (A) (A) (A) (A) (A) (A)
                 (A) (A) (A) (A) (A) (A) (A) (A) (A) (A) (A) (A)
                 (A) (A) (A) (A) (A) (A) (A) (A) (A) (A) (A) (A)
                 (A) (A) (A) (A) (A) (A) (A) (A) (A) (A) (A) (A)
                 (A) (A) (A) (A) (A) (A) (A) (A) (A) (A) (A) (A)
                 (A) (A) (A) (A) (A) (A) (A) (A) (A) (A) (A) (A)
                 (A) (A) (A) (A) (A) (A) (A) (A) (A) (A) (A) (A)
                 (A) (A) (A) (A) (A) (A) (A) (A) (A) (A) (A) (A)
                 (A) (A) (A) (A) (A) (A) (A) (A) (A) (A) (A) (A)
                 (A) (A) (A) (A) (A) (A) (A) (A) (A) (A) (A) (A)
                 (A) (A) (A) (A) (A) (A) (A) (A) (A) (A) (A) (A)
                 (A) (A) (A) (A) (A) (A) (A) (A) (A) (A) (A) (A)
                 (A) (A) (A) (A) (A) (A) (A) (A) (A) (A) (A) (A)
                 (A) (A) (A) (A) (A) (A) (A) (A) (A) (A) (A) (A)
                 (A) (A) (A) (A) (A) (A) (A) (A) (A) (A) (A) (A)
                 (A) (A) (A) (A) (A) (A) (A) (A) (A) (A) (A) (A)
                 (A) (A) (A) (A) (A) (A) (A) (A) (A) (A) (A) (A)
                 (A) (A) (A) (A) (A) (A) (A) (A) (A) (A) (A) (A)
                 (A) (A) (A) (A) (A) (A) (A) (A) (A) (A) (A) (A)
                 (A) (A) (A) (A) (A) (A) (A) (A) (A) (A) (A) (A)
                 (A) (A) (A) (A) (A) (A) (A) (A) (A) (A) (A) (A)
                 (A) (A) (A) (A) (A) (A) (A) (A) (A) (A) (A) (A)
                 (A) (A) (A) (A) (A) (A) (A) (A) (A) (A) (A) (A)
                 (A) (A) (A) (A) (A) (A) (A) (A) (A) (A) (A) (A)
 The electronic state is 1-A.
 Alpha  occ. eigenvalues --  -19.63554 -19.62882 -19.62701 -10.63075 -10.58460
 Alpha  occ. eigenvalues --  -10.57286 -10.57230 -10.57203 -10.52560 -10.52496
 Alpha  occ. eigenvalues --  -10.52411 -10.52235 -10.52096  -1.20268  -1.16662
 Alpha  occ. eigenvalues --   -1.13973  -0.90393  -0.89391  -0.87095  -0.83974
 Alpha  occ. eigenvalues --   -0.74977  -0.73637  -0.72843  -0.69837  -0.65943
 Alpha  occ. eigenvalues --   -0.64684  -0.59785  -0.57213  -0.56811  -0.56134
 Alpha  occ. eigenvalues --   -0.54519  -0.52909  -0.51580  -0.50881  -0.50085
 Alpha  occ. eigenvalues --   -0.48189  -0.46909  -0.45668  -0.45210  -0.44338
 Alpha  occ. eigenvalues --   -0.43369  -0.41479  -0.40176  -0.39479  -0.39024
 Alpha  occ. eigenvalues --   -0.38219  -0.37548  -0.37030  -0.35536  -0.32406
 Alpha  occ. eigenvalues --   -0.31508
 Alpha virt. eigenvalues --    0.00443   0.01253   0.01331   0.01528   0.02584
 Alpha virt. eigenvalues --    0.02901   0.03094   0.03879   0.04067   0.04794
 Alpha virt. eigenvalues --    0.05016   0.05305   0.05997   0.06544   0.07420
 Alpha virt. eigenvalues --    0.07686   0.07941   0.08344   0.09643   0.09882
 Alpha virt. eigenvalues --    0.10775   0.11240   0.11440   0.11757   0.12169
 Alpha virt. eigenvalues --    0.12930   0.13135   0.13738   0.13945   0.13987
 Alpha virt. eigenvalues --    0.14200   0.14528   0.14631   0.14946   0.15362
 Alpha virt. eigenvalues --    0.15517   0.15671   0.16141   0.16289   0.16932
 Alpha virt. eigenvalues --    0.17163   0.17264   0.17798   0.18024   0.18200
 Alpha virt. eigenvalues --    0.18414   0.18779   0.19308   0.19526   0.19791
 Alpha virt. eigenvalues --    0.20215   0.20663   0.20671   0.21659   0.21865
 Alpha virt. eigenvalues --    0.22329   0.22746   0.23646   0.24370   0.24493
 Alpha virt. eigenvalues --    0.25535   0.26345   0.27025   0.27399   0.27506
 Alpha virt. eigenvalues --    0.27925   0.28710   0.29195   0.29339   0.30082
 Alpha virt. eigenvalues --    0.31002   0.31116   0.31555   0.32032   0.32352
 Alpha virt. eigenvalues --    0.32819   0.33293   0.34126   0.34371   0.34752
 Alpha virt. eigenvalues --    0.35053   0.35344   0.35694   0.36282   0.36355
 Alpha virt. eigenvalues --    0.37237   0.37318   0.37778   0.38162   0.38596
 Alpha virt. eigenvalues --    0.38937   0.39503   0.40160   0.40263   0.41186
 Alpha virt. eigenvalues --    0.42009   0.43192   0.43396   0.44171   0.45420
 Alpha virt. eigenvalues --    0.46054   0.47172   0.49668   0.50165   0.50912
 Alpha virt. eigenvalues --    0.52127   0.52441   0.53783   0.54314   0.56064
 Alpha virt. eigenvalues --    0.56465   0.57699   0.58479   0.59351   0.59626
 Alpha virt. eigenvalues --    0.60295   0.60925   0.61251   0.61373   0.62478
 Alpha virt. eigenvalues --    0.63050   0.63666   0.63855   0.64289   0.64382
 Alpha virt. eigenvalues --    0.65164   0.65560   0.66199   0.66901   0.67529
 Alpha virt. eigenvalues --    0.67881   0.68923   0.69553   0.70992   0.71130
 Alpha virt. eigenvalues --    0.71723   0.72408   0.73019   0.73678   0.74371
 Alpha virt. eigenvalues --    0.74628   0.74788   0.75170   0.75839   0.76416
 Alpha virt. eigenvalues --    0.76700   0.77397   0.77484   0.79054   0.79814
 Alpha virt. eigenvalues --    0.80826   0.82024   0.84474   0.84571   0.85122
 Alpha virt. eigenvalues --    0.86600   0.87203   0.89399   0.90163   0.91057
 Alpha virt. eigenvalues --    0.91818   0.92173   0.92995   0.94133   0.95759
 Alpha virt. eigenvalues --    0.96746   0.99032   1.00004   1.01562   1.02225
 Alpha virt. eigenvalues --    1.03337   1.04147   1.05296   1.06364   1.08039
 Alpha virt. eigenvalues --    1.08101   1.09124   1.10502   1.11208   1.12005
 Alpha virt. eigenvalues --    1.13376   1.13520   1.14690   1.15798   1.16682
 Alpha virt. eigenvalues --    1.17606   1.17942   1.19061   1.20180   1.20850
 Alpha virt. eigenvalues --    1.20951   1.22337   1.23078   1.23479   1.24305
 Alpha virt. eigenvalues --    1.24983   1.25476   1.26260   1.27218   1.27824
 Alpha virt. eigenvalues --    1.28374   1.28910   1.29415   1.29874   1.31496
 Alpha virt. eigenvalues --    1.32655   1.33443   1.33696   1.34818   1.35067
 Alpha virt. eigenvalues --    1.35261   1.36183   1.36992   1.37189   1.38995
 Alpha virt. eigenvalues --    1.39417   1.39720   1.40361   1.41819   1.42322
 Alpha virt. eigenvalues --    1.42813   1.43815   1.44026   1.44647   1.44798
 Alpha virt. eigenvalues --    1.45307   1.46574   1.48124   1.48482   1.49061
 Alpha virt. eigenvalues --    1.49709   1.50359   1.50991   1.52243   1.52609
 Alpha virt. eigenvalues --    1.53070   1.53487   1.54457   1.55233   1.56079
 Alpha virt. eigenvalues --    1.56729   1.57549   1.58117   1.58754   1.59516
 Alpha virt. eigenvalues --    1.59697   1.60579   1.61292   1.62571   1.63992
 Alpha virt. eigenvalues --    1.64754   1.65074   1.65301   1.66525   1.67210
 Alpha virt. eigenvalues --    1.68621   1.69140   1.69935   1.70511   1.73082
 Alpha virt. eigenvalues --    1.73226   1.74936   1.76823   1.77785   1.78654
 Alpha virt. eigenvalues --    1.79144   1.80338   1.81428   1.82011   1.82406
 Alpha virt. eigenvalues --    1.87079   1.88582   1.90557   1.93699   1.98541
 Alpha virt. eigenvalues --    2.01384   2.10056   2.11800   2.14161   2.18185
 Alpha virt. eigenvalues --    2.24722   2.25537   2.27740   2.34196   2.37855
 Alpha virt. eigenvalues --    2.40637   2.44225   2.46908   2.50384   2.51634
 Alpha virt. eigenvalues --    2.56487   2.76756   2.77019   2.80345   2.81787
 Alpha virt. eigenvalues --    2.87796   2.90222   2.93352   2.93933   2.94038
 Alpha virt. eigenvalues --    2.96770   2.98637   3.01057   3.03196   3.04492
 Alpha virt. eigenvalues --    3.07737   3.08510   3.09259   3.10507   3.12124
 Alpha virt. eigenvalues --    3.12869   3.14005   3.18098   3.19338   3.21835
 Alpha virt. eigenvalues --    3.24623   3.29070   3.32661   3.33704   3.35569
 Alpha virt. eigenvalues --    3.36436   3.37527   3.38995   3.39909   3.42162
 Alpha virt. eigenvalues --    3.43646   3.44328   3.44387   3.45958   3.47551
 Alpha virt. eigenvalues --    3.48460   3.49338   3.49559   3.51847   3.52163
 Alpha virt. eigenvalues --    3.53368   3.54682   3.55243   3.56384   3.56711
 Alpha virt. eigenvalues --    3.57290   3.57548   3.58871   3.59637   3.60816
 Alpha virt. eigenvalues --    3.61555   3.62150   3.62234   3.64169   3.64662
 Alpha virt. eigenvalues --    3.65893   3.67350   3.67702   3.69148   3.70839
 Alpha virt. eigenvalues --    3.70985   3.72079   3.72764   3.73363   3.73515
 Alpha virt. eigenvalues --    3.74409   3.76370   3.76936   3.77901   3.78884
 Alpha virt. eigenvalues --    3.79508   3.79690   3.81425   3.82991   3.83873
 Alpha virt. eigenvalues --    3.85646   3.87802   3.89421   3.90111   3.91589
 Alpha virt. eigenvalues --    3.92061   3.94182   3.95619   3.96479   3.99280
 Alpha virt. eigenvalues --    4.00230   4.02628   4.04053   4.04463   4.05013
 Alpha virt. eigenvalues --    4.05643   4.06336   4.07140   4.07306   4.07786
 Alpha virt. eigenvalues --    4.09142   4.10528   4.11193   4.11762   4.12750
 Alpha virt. eigenvalues --    4.12987   4.13948   4.14360   4.15706   4.16700
 Alpha virt. eigenvalues --    4.18212   4.19147   4.19805   4.21354   4.21926
 Alpha virt. eigenvalues --    4.22844   4.23659   4.24779   4.27073   4.27865
 Alpha virt. eigenvalues --    4.28517   4.30098   4.31625   4.32423   4.33451
 Alpha virt. eigenvalues --    4.34754   4.35450   4.35743   4.36877   4.39428
 Alpha virt. eigenvalues --    4.41920   4.44028   4.44708   4.46360   4.57724
 Alpha virt. eigenvalues --    4.59759   4.62257   4.76206   4.77264   4.84748
 Alpha virt. eigenvalues --    4.89026   4.92756   4.94681   4.99993   5.00935
 Alpha virt. eigenvalues --    5.06643   5.07573   5.08330   5.09316   5.12610
 Alpha virt. eigenvalues --    5.13152   5.14384   5.16468   5.30550   5.35940
 Alpha virt. eigenvalues --    5.38105   5.56227   5.58512   5.63124   5.86286
 Alpha virt. eigenvalues --    5.89995   6.00561   7.01240   7.05331   7.05825
 Alpha virt. eigenvalues --    7.07810   7.10961   7.12586   7.13531   7.16795
 Alpha virt. eigenvalues --    7.22596   7.36518   7.43910   7.44787   7.53744
 Alpha virt. eigenvalues --    7.56335   7.62429  23.96757  23.97750  24.07296
 Alpha virt. eigenvalues --   24.08005  24.11901  24.12195  24.13727  24.16652
 Alpha virt. eigenvalues --   24.17084  24.19503  50.17569  50.19549  50.20855
          Condensed to atoms (all electrons):
               1          2          3          4          5          6
     1  C    5.648221  -0.010382   0.005328   0.000083   0.017393  -0.059355
     2  C   -0.010382   5.834899  -0.027926   0.131785   0.009678   0.030074
     3  C    0.005328  -0.027926   5.848204  -0.006849   0.002925  -0.009788
     4  O    0.000083   0.131785  -0.006849   8.424579  -0.000174   0.000231
     5  O    0.017393   0.009678   0.002925  -0.000174   8.428076   0.021114
     6  C   -0.059355   0.030074  -0.009788   0.000231   0.021114   5.469050
     7  O    0.026429   0.000837  -0.027212   0.000649  -0.002689  -0.003696
     8  C   -0.035585  -0.006636   0.000634  -0.000127  -0.059632  -0.015027
     9  C    0.002836   0.317871  -0.235417  -0.039064  -0.039222   0.004936
    10  C   -0.034178   0.133915  -0.087595  -0.007069   0.195776  -0.050478
    11  C    0.002183  -0.159547   0.040430   0.094505  -0.006398  -0.000471
    12  C   -0.031527  -0.591849   0.056783  -0.003097   0.034946  -0.058879
    13  C    0.020943  -0.025332   0.042378   0.001278  -0.053124   0.009084
    14  H    0.426385  -0.000656   0.000320   0.000006  -0.002945   0.004922
    15  H    0.538277   0.000568  -0.000165   0.000010  -0.000673  -0.004226
    16  H   -0.002693   0.361883   0.018624  -0.043612   0.003464   0.012244
    17  H   -0.000603   0.475137   0.000002  -0.057579  -0.011526  -0.000224
    18  H   -0.000267   0.001842   0.493757  -0.008282   0.000226  -0.000116
    19  H   -0.000272   0.003260   0.449175   0.008310  -0.000362   0.000226
    20  H    0.006719   0.001801   0.001405   0.000178  -0.029908   0.481375
    21  H    0.008053   0.001867  -0.000811   0.000151  -0.070791   0.434560
    22  H   -0.013068  -0.000855   0.000015  -0.000007  -0.003355  -0.069324
    23  H   -0.059139   0.000503  -0.000018  -0.000006   0.007679  -0.043600
    24  H    0.013697  -0.046490  -0.019584  -0.004431  -0.006408   0.003740
    25  H   -0.002579   0.006562  -0.000555  -0.001869   0.000661   0.000203
    26  H   -0.078374   0.003202  -0.021105   0.001431  -0.036341  -0.003342
    27  H    0.000114   0.017355  -0.040040  -0.069352  -0.000153  -0.000305
    28  H   -0.000318  -0.025550  -0.031493  -0.039367   0.001726  -0.000167
    29  H   -0.000966  -0.114299   0.006144   0.004970   0.002426  -0.001009
    30  H   -0.013265   0.002683   0.000414   0.000154  -0.010439   0.006089
    31  H   -0.026039  -0.001241  -0.002207  -0.000066   0.006938   0.003819
               7          8          9         10         11         12
     1  C    0.026429  -0.035585   0.002836  -0.034178   0.002183  -0.031527
     2  C    0.000837  -0.006636   0.317871   0.133915  -0.159547  -0.591849
     3  C   -0.027212   0.000634  -0.235417  -0.087595   0.040430   0.056783
     4  O    0.000649  -0.000127  -0.039064  -0.007069   0.094505  -0.003097
     5  O   -0.002689  -0.059632  -0.039222   0.195776  -0.006398   0.034946
     6  C   -0.003696  -0.015027   0.004936  -0.050478  -0.000471  -0.058879
     7  O    8.417414   0.018243  -0.020926   0.335408   0.004983   0.005036
     8  C    0.018243   5.711752   0.017370   0.086614  -0.002182  -0.002527
     9  C   -0.020926   0.017370   6.475160   0.105319  -0.053350  -0.873013
    10  C    0.335408   0.086614   0.105319   6.212464   0.027561  -0.541848
    11  C    0.004983  -0.002182  -0.053350   0.027561   5.461383   0.012561
    12  C    0.005036  -0.002527  -0.873013  -0.541848   0.012561   7.394178
    13  C   -0.270086  -0.073602  -0.123391  -0.640415   0.009758   0.079973
    14  H   -0.001935  -0.026291  -0.001545   0.026612   0.000237  -0.001908
    15  H   -0.000654  -0.086088   0.002986  -0.010113   0.000020  -0.000560
    16  H   -0.014539  -0.014101  -0.119427  -0.051577   0.006321   0.132490
    17  H    0.014573   0.003185   0.027991   0.013543  -0.004444  -0.092901
    18  H    0.000750   0.000233  -0.030619  -0.006280  -0.080458  -0.001071
    19  H   -0.001185   0.000093  -0.055405  -0.006722  -0.032643   0.005464
    20  H    0.003982  -0.069681  -0.001771  -0.032821   0.000724  -0.010029
    21  H   -0.001745  -0.039805   0.001356   0.009422  -0.000050  -0.003057
    22  H    0.001757   0.480017  -0.001627  -0.020225  -0.000081   0.005507
    23  H    0.000359   0.464270   0.001681   0.008981  -0.000044  -0.003459
    24  H   -0.015885  -0.009985   0.415827  -0.022459   0.010282   0.053679
    25  H    0.006377   0.001637   0.411104   0.016662   0.000779  -0.037865
    26  H   -0.019552   0.067022   0.060939   0.392086  -0.019565   0.028900
    27  H    0.000004  -0.000061   0.005950   0.002705   0.432394  -0.004954
    28  H   -0.000617   0.000860  -0.017252  -0.014362   0.458448   0.038473
    29  H   -0.084921  -0.001726  -0.072453  -0.039398   0.004017   0.584228
    30  H    0.001757  -0.027287   0.003654  -0.108418  -0.000490  -0.002358
    31  H    0.003271  -0.002237  -0.003796  -0.014832   0.000460   0.006819
              13         14         15         16         17         18
     1  C    0.020943   0.426385   0.538277  -0.002693  -0.000603  -0.000267
     2  C   -0.025332  -0.000656   0.000568   0.361883   0.475137   0.001842
     3  C    0.042378   0.000320  -0.000165   0.018624   0.000002   0.493757
     4  O    0.001278   0.000006   0.000010  -0.043612  -0.057579  -0.008282
     5  O   -0.053124  -0.002945  -0.000673   0.003464  -0.011526   0.000226
     6  C    0.009084   0.004922  -0.004226   0.012244  -0.000224  -0.000116
     7  O   -0.270086  -0.001935  -0.000654  -0.014539   0.014573   0.000750
     8  C   -0.073602  -0.026291  -0.086088  -0.014101   0.003185   0.000233
     9  C   -0.123391  -0.001545   0.002986  -0.119427   0.027991  -0.030619
    10  C   -0.640415   0.026612  -0.010113  -0.051577   0.013543  -0.006280
    11  C    0.009758   0.000237   0.000020   0.006321  -0.004444  -0.080458
    12  C    0.079973  -0.001908  -0.000560   0.132490  -0.092901  -0.001071
    13  C    6.550450  -0.050654  -0.044308  -0.002094  -0.008917  -0.000794
    14  H   -0.050654   0.462048  -0.000945   0.000174  -0.000170  -0.000025
    15  H   -0.044308  -0.000945   0.455545  -0.000852   0.000062   0.000016
    16  H   -0.002094   0.000174  -0.000852   0.500424  -0.023335  -0.001479
    17  H   -0.008917  -0.000170   0.000062  -0.023335   0.453458  -0.000806
    18  H   -0.000794  -0.000025   0.000016  -0.001479  -0.000806   0.471087
    19  H   -0.000625  -0.000023  -0.000033  -0.000881   0.001475  -0.012807
    20  H    0.026921  -0.000719   0.002176  -0.000626   0.000270  -0.000029
    21  H    0.001821   0.000396  -0.001751  -0.001731  -0.000017  -0.000017
    22  H   -0.001820   0.000422   0.002112  -0.000417  -0.000088   0.000011
    23  H   -0.001195  -0.008905  -0.006599   0.000153   0.000168  -0.000003
    24  H    0.022354   0.000501   0.003662  -0.004222  -0.000191  -0.002665
    25  H   -0.013987  -0.000063  -0.000619  -0.001041  -0.000328  -0.005330
    26  H   -0.091255  -0.005525  -0.024552   0.003276  -0.001451   0.002046
    27  H    0.001245   0.000013   0.000003  -0.002156   0.002080  -0.003336
    28  H   -0.002272  -0.000030  -0.000056   0.000051  -0.001791   0.002699
    29  H    0.011162   0.000022   0.000140   0.010125  -0.005073  -0.000115
    30  H    0.519691  -0.002510   0.006272  -0.001440   0.000025   0.000014
    31  H    0.414227  -0.012103  -0.006062   0.000548   0.000151  -0.000028
              19         20         21         22         23         24
     1  C   -0.000272   0.006719   0.008053  -0.013068  -0.059139   0.013697
     2  C    0.003260   0.001801   0.001867  -0.000855   0.000503  -0.046490
     3  C    0.449175   0.001405  -0.000811   0.000015  -0.000018  -0.019584
     4  O    0.008310   0.000178   0.000151  -0.000007  -0.000006  -0.004431
     5  O   -0.000362  -0.029908  -0.070791  -0.003355   0.007679  -0.006408
     6  C    0.000226   0.481375   0.434560  -0.069324  -0.043600   0.003740
     7  O   -0.001185   0.003982  -0.001745   0.001757   0.000359  -0.015885
     8  C    0.000093  -0.069681  -0.039805   0.480017   0.464270  -0.009985
     9  C   -0.055405  -0.001771   0.001356  -0.001627   0.001681   0.415827
    10  C   -0.006722  -0.032821   0.009422  -0.020225   0.008981  -0.022459
    11  C   -0.032643   0.000724  -0.000050  -0.000081  -0.000044   0.010282
    12  C    0.005464  -0.010029  -0.003057   0.005507  -0.003459   0.053679
    13  C   -0.000625   0.026921   0.001821  -0.001820  -0.001195   0.022354
    14  H   -0.000023  -0.000719   0.000396   0.000422  -0.008905   0.000501
    15  H   -0.000033   0.002176  -0.001751   0.002112  -0.006599   0.003662
    16  H   -0.000881  -0.000626  -0.001731  -0.000417   0.000153  -0.004222
    17  H    0.001475   0.000270  -0.000017  -0.000088   0.000168  -0.000191
    18  H   -0.012807  -0.000029  -0.000017   0.000011  -0.000003  -0.002665
    19  H    0.489425  -0.000060   0.000005  -0.000003   0.000015  -0.005366
    20  H   -0.000060   0.468719  -0.002644   0.002029   0.001545   0.002476
    21  H    0.000005  -0.002644   0.473108  -0.002004  -0.010301   0.000408
    22  H   -0.000003   0.002029  -0.002004   0.464963  -0.010230   0.000385
    23  H    0.000015   0.001545  -0.010301  -0.010230   0.474808  -0.000570
    24  H   -0.005366   0.002476   0.000408   0.000385  -0.000570   0.476290
    25  H   -0.010549  -0.000252   0.000022  -0.000061   0.000061  -0.022845
    26  H    0.002567  -0.015843  -0.001908  -0.002131   0.004153  -0.038688
    27  H   -0.009533   0.000121  -0.000021   0.000002  -0.000007   0.000261
    28  H    0.005192  -0.000495  -0.000159   0.000003   0.000033  -0.014085
    29  H   -0.000633  -0.000059  -0.000055   0.000154  -0.000114   0.006434
    30  H    0.000003   0.001044  -0.000264   0.001629  -0.003155   0.002380
    31  H    0.000002  -0.000265   0.001410  -0.001624   0.001590   0.001171
              25         26         27         28         29         30
     1  C   -0.002579  -0.078374   0.000114  -0.000318  -0.000966  -0.013265
     2  C    0.006562   0.003202   0.017355  -0.025550  -0.114299   0.002683
     3  C   -0.000555  -0.021105  -0.040040  -0.031493   0.006144   0.000414
     4  O   -0.001869   0.001431  -0.069352  -0.039367   0.004970   0.000154
     5  O    0.000661  -0.036341  -0.000153   0.001726   0.002426  -0.010439
     6  C    0.000203  -0.003342  -0.000305  -0.000167  -0.001009   0.006089
     7  O    0.006377  -0.019552   0.000004  -0.000617  -0.084921   0.001757
     8  C    0.001637   0.067022  -0.000061   0.000860  -0.001726  -0.027287
     9  C    0.411104   0.060939   0.005950  -0.017252  -0.072453   0.003654
    10  C    0.016662   0.392086   0.002705  -0.014362  -0.039398  -0.108418
    11  C    0.000779  -0.019565   0.432394   0.458448   0.004017  -0.000490
    12  C   -0.037865   0.028900  -0.004954   0.038473   0.584228  -0.002358
    13  C   -0.013987  -0.091255   0.001245  -0.002272   0.011162   0.519691
    14  H   -0.000063  -0.005525   0.000013  -0.000030   0.000022  -0.002510
    15  H   -0.000619  -0.024552   0.000003  -0.000056   0.000140   0.006272
    16  H   -0.001041   0.003276  -0.002156   0.000051   0.010125  -0.001440
    17  H   -0.000328  -0.001451   0.002080  -0.001791  -0.005073   0.000025
    18  H   -0.005330   0.002046  -0.003336   0.002699  -0.000115   0.000014
    19  H   -0.010549   0.002567  -0.009533   0.005192  -0.000633   0.000003
    20  H   -0.000252  -0.015843   0.000121  -0.000495  -0.000059   0.001044
    21  H    0.000022  -0.001908  -0.000021  -0.000159  -0.000055  -0.000264
    22  H   -0.000061  -0.002131   0.000002   0.000003   0.000154   0.001629
    23  H    0.000061   0.004153  -0.000007   0.000033  -0.000114  -0.003155
    24  H   -0.022845  -0.038688   0.000261  -0.014085   0.006434   0.002380
    25  H    0.463492   0.002871   0.001104  -0.000123  -0.005166  -0.000602
    26  H    0.002871   0.542752  -0.001872   0.008222  -0.001787  -0.015291
    27  H    0.001104  -0.001872   0.454160  -0.006857  -0.002182  -0.000022
    28  H   -0.000123   0.008222  -0.006857   0.484063   0.002149   0.000024
    29  H   -0.005166  -0.001787  -0.002182   0.002149   0.423164  -0.000549
    30  H   -0.000602  -0.015291  -0.000022   0.000024  -0.000549   0.458298
    31  H   -0.001735   0.000984  -0.000001  -0.000172   0.000559  -0.018878
              31
     1  C   -0.026039
     2  C   -0.001241
     3  C   -0.002207
     4  O   -0.000066
     5  O    0.006938
     6  C    0.003819
     7  O    0.003271
     8  C   -0.002237
     9  C   -0.003796
    10  C   -0.014832
    11  C    0.000460
    12  C    0.006819
    13  C    0.414227
    14  H   -0.012103
    15  H   -0.006062
    16  H    0.000548
    17  H    0.000151
    18  H   -0.000028
    19  H    0.000002
    20  H   -0.000265
    21  H    0.001410
    22  H   -0.001624
    23  H    0.001590
    24  H    0.001171
    25  H   -0.001735
    26  H    0.000984
    27  H   -0.000001
    28  H   -0.000172
    29  H    0.000559
    30  H   -0.018878
    31  H    0.480278
 Mulliken charges:
               1
     1  C   -0.348051
     2  C   -0.324960
     3  C   -0.455773
     4  O   -0.387371
     5  O   -0.398886
     6  C   -0.161661
     7  O   -0.376188
     8  C   -0.379352
     9  C   -0.166702
    10  C    0.121721
    11  C   -0.207323
    12  C   -0.178135
    13  C   -0.307414
    14  H    0.194892
    15  H    0.176406
    16  H    0.236446
    17  H    0.217322
    18  H    0.181850
    19  H    0.171888
    20  H    0.163716
    21  H    0.204552
    22  H    0.167914
    23  H    0.181346
    24  H    0.200326
    25  H    0.194034
    26  H    0.258132
    27  H    0.223342
    28  H    0.153223
    29  H    0.274810
    30  H    0.200837
    31  H    0.169060
 Sum of Mulliken charges =  -0.00000
 Mulliken charges with hydrogens summed into heavy atoms:
               1
     1  C    0.023247
     2  C    0.128807
     3  C   -0.102035
     4  O   -0.387371
     5  O   -0.398886
     6  C    0.206607
     7  O   -0.376188
     8  C   -0.030091
     9  C    0.227658
    10  C    0.379852
    11  C    0.169242
    12  C    0.096675
    13  C    0.062483
 Electronic spatial extent (au):  <R**2>=           3143.7508
 Charge=              0.0000 electrons
 Dipole moment (field-independent basis, Debye):
    X=              1.7163    Y=             -2.0419    Z=              4.6310  Tot=              5.3443
 Quadrupole moment (field-independent basis, Debye-Ang):
   XX=            -73.2240   YY=            -80.8100   ZZ=            -80.5578
   XY=              5.7744   XZ=             -2.6131   YZ=              1.6772
 Traceless Quadrupole moment (field-independent basis, Debye-Ang):
   XX=              4.9733   YY=             -2.6127   ZZ=             -2.3605
   XY=              5.7744   XZ=             -2.6131   YZ=              1.6772
 Octapole moment (field-independent basis, Debye-Ang**2):
  XXX=             24.3589  YYY=              1.8291  ZZZ=              1.2787  XYY=              8.3025
  XXY=            -15.5213  XXZ=             25.7097  XZZ=             -3.0732  YZZ=              2.9806
  YYZ=              3.3134  XYZ=             -1.6469
 Hexadecapole moment (field-independent basis, Debye-Ang**3):
 XXXX=          -3160.8769 YYYY=           -577.4766 ZZZZ=           -328.8632 XXXY=             65.5377
 XXXZ=            -71.9494 YYYX=             20.4523 YYYZ=              3.0752 ZZZX=              3.0840
 ZZZY=             -3.4826 XXYY=           -651.3317 XXZZ=           -591.1445 YYZZ=           -153.7089
 XXYZ=             32.0241 YYXZ=             -0.1478 ZZXY=              4.6307
 N-N= 8.883602690838D+02 E-N=-3.218720326715D+03  KE= 6.153591774640D+02
 D1PCM: PCM CHGder 1st derivatives, ID1Alg=3 FixD1E=F DoIter=F DoCFld=F I1PDM=0.
 Calling FoFJK, ICntrl=      2127 FMM=F ISym2X=0 I1Cent= 0 IOpClX= 0 NMat=1 NMatS=1 NMatT=0.
 ***** Axes restored to original set *****
 -------------------------------------------------------------------
 Center     Atomic                   Forces (Hartrees/Bohr)
 Number     Number              X              Y              Z
 -------------------------------------------------------------------
      1        6           0.002215010   -0.003014436   -0.001962881
      2        6          -0.000360725    0.006232982    0.001676339
      3        6          -0.002260011   -0.002346849    0.000673994
      4        8           0.007670414   -0.005330415   -0.008177528
      5        8           0.005581076   -0.010159833   -0.007927664
      6        6          -0.004870185    0.004619600   -0.000462225
      7        8          -0.002527346    0.006707085   -0.010589764
      8        6           0.002352576    0.001871349    0.001533140
      9        6           0.002780597   -0.001251464   -0.003936726
     10        6          -0.004186889    0.003535069    0.000657629
     11        6          -0.003649484    0.006362553    0.000574760
     12        6          -0.000659749   -0.005380905    0.009428628
     13        6          -0.000745192   -0.001130451    0.003475633
     14        1          -0.002111177    0.001305318   -0.000933541
     15        1           0.001294899    0.000429026    0.003069783
     16        1          -0.004300566   -0.001673934    0.005509024
     17        1          -0.001785344   -0.001756231   -0.004470149
     18        1           0.001345982    0.001082698   -0.002927056
     19        1           0.000792328    0.001022692    0.002641186
     20        1           0.000914115    0.001592829    0.005337346
     21        1          -0.000739470   -0.004496927   -0.000588216
     22        1          -0.000328324   -0.000790998   -0.003235213
     23        1          -0.001811033   -0.000639067    0.001986307
     24        1          -0.002309797   -0.002879739    0.002989459
     25        1          -0.000922723    0.003080647   -0.000647074
     26        1           0.002201336    0.002015493    0.008757767
     27        1           0.004501523   -0.000404771   -0.000047211
     28        1          -0.002800864   -0.001896570    0.004650964
     29        1           0.003809753    0.002025990   -0.004052040
     30        1          -0.000234590   -0.001662917   -0.003565128
     31        1           0.001143861    0.002932177    0.000560456
 -------------------------------------------------------------------
 Cartesian Forces:  Max     0.010589764 RMS     0.003746337

 GradGradGradGradGradGradGradGradGradGradGradGradGradGradGradGradGradGrad
 Berny optimization.
 FormGI is forming the generalized inverse of G from B-inverse, IUseBI=4.
 Internal  Forces:  Max     0.015594416 RMS     0.002326912
 Search for a local minimum.
 Step number   1 out of a maximum of  186
 All quantities printed in internal units (Hartrees-Bohrs-Radians)
 Mixed Optimization -- RFO/linear search
 Second derivative matrix not updated -- first step.
 ITU=  0
     Eigenvalues ---    0.00613   0.00641   0.00731   0.00753   0.01431
     Eigenvalues ---    0.01487   0.01831   0.02613   0.02740   0.03108
     Eigenvalues ---    0.03141   0.03850   0.04166   0.04584   0.04773
     Eigenvalues ---    0.04856   0.04928   0.05149   0.05160   0.05228
     Eigenvalues ---    0.05381   0.05716   0.05766   0.06145   0.06180
     Eigenvalues ---    0.06303   0.06384   0.06512   0.07643   0.07697
     Eigenvalues ---    0.07942   0.07962   0.07973   0.07989   0.07992
     Eigenvalues ---    0.08745   0.09422   0.09902   0.10763   0.11474
     Eigenvalues ---    0.11563   0.11709   0.11716   0.12323   0.12475
     Eigenvalues ---    0.14459   0.14841   0.16470   0.16700   0.17906
     Eigenvalues ---    0.19124   0.21535   0.21847   0.25000   0.28351
     Eigenvalues ---    0.28511   0.28626   0.28786   0.28965   0.29036
     Eigenvalues ---    0.30061   0.30484   0.35024   0.35068   0.35079
     Eigenvalues ---    0.35121   0.35164   0.35180   0.35243   0.35307
     Eigenvalues ---    0.35309   0.35343   0.35359   0.35367   0.35421
     Eigenvalues ---    0.35698   0.35762   0.35833   0.35843   0.35872
     Eigenvalues ---    0.41207   0.41440   0.42094   0.42134   0.42457
     Eigenvalues ---    0.474071000.000001000.000001000.000001000.00000
     Eigenvalues --- 1000.000001000.000001000.000001000.000001000.00000
     Eigenvalues --- 1000.000001000.000001000.000001000.000001000.00000
     Eigenvalues --- 1000.000001000.000001000.000001000.000001000.00000
     Eigenvalues --- 1000.000001000.000001000.000001000.000001000.00000
     Eigenvalues --- 1000.000001000.000001000.000001000.000001000.00000
     Eigenvalues --- 1000.000001000.000001000.000001000.000001000.00000
     Eigenvalues --- 1000.000001000.000001000.000001000.000001000.00000
     Eigenvalues --- 1000.000001000.000001000.000001000.000001000.00000
     Eigenvalues --- 1000.000001000.000001000.000001000.000001000.00000
     Eigenvalues --- 1000.000001000.000001000.000001000.000001000.00000
     Eigenvalues --- 1000.000001000.000001000.000001000.000001000.00000
     Eigenvalues --- 1000.000001000.000001000.000001000.000001000.00000
     Eigenvalues --- 1000.000001000.000001000.000001000.000001000.00000
     Eigenvalues --- 1000.000001000.000001000.000001000.000001000.00000
     Eigenvalues --- 1000.000001000.000001000.000001000.000001000.00000
     Eigenvalues --- 1000.000001000.000001000.000001000.000001000.00000
     Eigenvalues --- 1000.000001000.000001000.000001000.000001000.00000
     Eigenvalues --- 1000.000001000.000001000.000001000.000001000.00000
     Eigenvalues --- 1000.000001000.000001000.000001000.000001000.00000
 RFO step:  Lambda=-3.65548596D-03 EMin= 6.12698414D-03
 Linear search not attempted -- first point.
 Iteration  1 RMS(Cart)=  0.06921873 RMS(Int)=  0.00092489
 Iteration  2 RMS(Cart)=  0.00279181 RMS(Int)=  0.00003944
 Iteration  3 RMS(Cart)=  0.00000190 RMS(Int)=  0.00003943
 Iteration  4 RMS(Cart)=  0.00000000 RMS(Int)=  0.00003943
 Iteration  1 RMS(Cart)=  0.00001785 RMS(Int)=  0.00000414
 Iteration  2 RMS(Cart)=  0.00000987 RMS(Int)=  0.00000463
 Iteration  3 RMS(Cart)=  0.00000546 RMS(Int)=  0.00000524
 Iteration  4 RMS(Cart)=  0.00000302 RMS(Int)=  0.00000564
 Iteration  5 RMS(Cart)=  0.00000167 RMS(Int)=  0.00000588
 Iteration  6 RMS(Cart)=  0.00000092 RMS(Int)=  0.00000602
 Variable       Old X    -DE/DX   Delta X   Delta X   Delta X     New X
                                 (Linear)    (Quad)   (Total)
    R1        2.88962  -0.00076   0.00000  -0.00377  -0.00379   2.88583
    R2        2.89299  -0.00103   0.00000  -0.00394  -0.00397   2.88902
    R3        2.05095   0.00265   0.00000   0.00741   0.00741   2.05836
    R4        2.05635   0.00325   0.00000   0.00919   0.00919   2.06555
    R5        2.66933   0.00625   0.00000   0.01469   0.01473   2.68406
    R6        2.88531  -0.00103   0.00000  -0.00283  -0.00281   2.88249
    R7        2.05121   0.00689   0.00000   0.01930   0.01930   2.07052
    R8        2.04327   0.00505   0.00000   0.01396   0.01396   2.05723
    R9        2.89626  -0.00089   0.00000  -0.00375  -0.00379   2.89246
   R10        2.87366  -0.00056   0.00000  -0.00238  -0.00239   2.87127
   R11        2.05384   0.00329   0.00000   0.00927   0.00927   2.06311
   R12        2.05179   0.00294   0.00000   0.00824   0.00824   2.06003
   R13        2.67671   0.00619   0.00000   0.01450   0.01450   2.69121
   R14        2.68071   0.00591   0.00000   0.01406   0.01409   2.69480
   R15        2.66399   0.00847   0.00000   0.01990   0.01993   2.68392
   R16        2.87257  -0.00062   0.00000  -0.00221  -0.00221   2.87036
   R17        2.05565   0.00555   0.00000   0.01567   0.01567   2.07131
   R18        2.04283   0.00459   0.00000   0.01267   0.01267   2.05550
   R19        2.62576   0.00454   0.00000   0.00951   0.00951   2.63527
   R20        2.68753   0.00307   0.00000   0.00721   0.00721   2.69474
   R21        2.05479   0.00325   0.00000   0.00915   0.00915   2.06394
   R22        2.05283   0.00275   0.00000   0.00773   0.00773   2.06056
   R23        2.88325  -0.00248   0.00000  -0.00847  -0.00848   2.87477
   R24        2.04996   0.00457   0.00000   0.01277   0.01277   2.06273
   R25        2.05176   0.00324   0.00000   0.00907   0.00907   2.06083
   R26        2.86783  -0.00136   0.00000  -0.00412  -0.00411   2.86372
   R27        2.04455   0.00923   0.00000   0.02555   0.02555   2.07010
   R28        2.04344   0.00451   0.00000   0.01246   0.01246   2.05590
   R29        2.05547   0.00566   0.00000   0.01596   0.01596   2.07143
   R30        2.04557   0.00580   0.00000   0.01607   0.01607   2.06164
   R31        2.05409   0.00374   0.00000   0.01052   0.01052   2.06461
   R32        2.05084   0.00317   0.00000   0.00886   0.00886   2.05970
    A1        1.92568   0.00203   0.00000  -0.00088  -0.00096   1.92473
    A2        1.93204  -0.00053   0.00000   0.00059   0.00062   1.93266
    A3        1.90881  -0.00075   0.00000  -0.00180  -0.00179   1.90702
    A4        1.92015  -0.00058   0.00000  -0.00027  -0.00024   1.91991
    A5        1.90935  -0.00083   0.00000  -0.00223  -0.00222   1.90713
    A6        1.86678   0.00059   0.00000   0.00469   0.00468   1.87146
    A7        1.91348   0.00110   0.00000   0.00793   0.00800   1.92148
    A8        1.91021   0.00137   0.00000   0.00938   0.00942   1.91963
    A9        1.86688  -0.00035   0.00000   0.00461   0.00460   1.87148
   A10        1.93878  -0.00236   0.00000  -0.01720  -0.01725   1.92153
   A11        1.93333  -0.00049   0.00000  -0.00633  -0.00642   1.92691
   A12        1.89965   0.00083   0.00000   0.00262   0.00248   1.90212
   A13        1.92765  -0.00045   0.00000  -0.00574  -0.00582   1.92183
   A14        1.92133   0.00058   0.00000   0.00088   0.00088   1.92221
   A15        1.92522  -0.00040   0.00000   0.00016   0.00019   1.92541
   A16        1.90581  -0.00017   0.00000  -0.00069  -0.00065   1.90516
   A17        1.90711   0.00027   0.00000   0.00044   0.00044   1.90755
   A18        1.87587   0.00018   0.00000   0.00523   0.00522   1.88109
   A19        1.97822  -0.00506   0.00000  -0.02807  -0.02801   1.95021
   A20        1.98189  -0.00504   0.00000  -0.02604  -0.02598   1.95591
   A21        1.93530   0.00096   0.00000   0.00363   0.00364   1.93894
   A22        1.90401   0.00075   0.00000   0.00443   0.00444   1.90844
   A23        1.85175  -0.00075   0.00000  -0.00041  -0.00042   1.85133
   A24        1.93068  -0.00132   0.00000  -0.00773  -0.00774   1.92294
   A25        1.95014  -0.00010   0.00000  -0.00211  -0.00211   1.94802
   A26        1.88950   0.00052   0.00000   0.00269   0.00267   1.89217
   A27        2.12948  -0.01559   0.00000  -0.06148  -0.06148   2.06800
   A28        1.92164   0.00016   0.00000  -0.00364  -0.00371   1.91794
   A29        1.91885   0.00054   0.00000   0.00212   0.00213   1.92098
   A30        1.93608  -0.00065   0.00000  -0.00123  -0.00122   1.93486
   A31        1.90351  -0.00042   0.00000  -0.00175  -0.00174   1.90178
   A32        1.90659   0.00008   0.00000  -0.00042  -0.00040   1.90619
   A33        1.87635   0.00029   0.00000   0.00510   0.00509   1.88144
   A34        1.89434   0.00163   0.00000  -0.00283  -0.00289   1.89145
   A35        1.89672  -0.00045   0.00000   0.00146   0.00142   1.89815
   A36        1.93476  -0.00006   0.00000   0.00471   0.00474   1.93949
   A37        1.93331  -0.00116   0.00000  -0.00754  -0.00752   1.92579
   A38        1.92363  -0.00062   0.00000  -0.00246  -0.00245   1.92118
   A39        1.88119   0.00064   0.00000   0.00672   0.00669   1.88787
   A40        1.88051  -0.00177   0.00000  -0.00970  -0.00970   1.87081
   A41        1.92669   0.00146   0.00000   0.00808   0.00808   1.93477
   A42        1.88986   0.00023   0.00000   0.00073   0.00073   1.89059
   A43        1.90042   0.00022   0.00000   0.00013   0.00013   1.90055
   A44        1.93937   0.00046   0.00000   0.00283   0.00283   1.94220
   A45        1.92660  -0.00060   0.00000  -0.00210  -0.00210   1.92450
   A46        1.93782   0.00156   0.00000   0.00724   0.00729   1.94511
   A47        1.94458  -0.00034   0.00000  -0.00286  -0.00287   1.94170
   A48        1.92959  -0.00140   0.00000  -0.00873  -0.00876   1.92084
   A49        1.85571  -0.00102   0.00000  -0.00215  -0.00214   1.85357
   A50        1.90218   0.00059   0.00000   0.00383   0.00382   1.90601
   A51        1.89171   0.00064   0.00000   0.00305   0.00303   1.89473
   A52        1.95193  -0.00030   0.00000  -0.01048  -0.01069   1.94124
   A53        1.91980   0.00047   0.00000  -0.00819  -0.00837   1.91143
   A54        1.87753   0.00006   0.00000   0.00642   0.00646   1.88399
   A55        2.01153  -0.00120   0.00000  -0.01069  -0.01092   2.00061
   A56        1.80179   0.00095   0.00000   0.01892   0.01901   1.82080
   A57        1.89232   0.00014   0.00000   0.00781   0.00789   1.90021
   A58        1.92714  -0.00050   0.00000  -0.00597  -0.00602   1.92112
   A59        1.92490   0.00082   0.00000   0.00439   0.00436   1.92926
   A60        1.93628  -0.00007   0.00000   0.00310   0.00310   1.93938
   A61        1.88954  -0.00057   0.00000  -0.00685  -0.00684   1.88270
   A62        1.90128   0.00008   0.00000  -0.00137  -0.00135   1.89994
   A63        1.88348   0.00024   0.00000   0.00668   0.00665   1.89014
    D1        0.89684  -0.00012   0.00000   0.01182   0.01180   0.90864
    D2       -1.20076  -0.00004   0.00000   0.01494   0.01494  -1.18582
[...]
 4879,0.00018661,-0.00175736,0.00007025,0.00021557,0.00718567,-0.031871
 17,-0.00103658,-0.00005698,-0.00002815,0.00007756,-0.00001330,-0.00000
 330,0.00000734,0.00000249,0.00000085,0.00000003,-0.00000434,-0.0001352
 7,0.00009273,0.00052169,-0.00184695,-0.00009828,-0.00004312,-0.0003578
 4,0.00024697,0.00048277,0.00024044,0.00005416,-0.00001072,0.,0.0000009
 9,-0.00000331,-0.00000510,0.00000195,0.00000126,-0.00000081,-0.0000011
 4,-0.00000570,-0.00000061,0.00000021,-0.00567225,0.02250391,0.00141396
 ,-0.00127723,0.01116248,0.05053642,0.00129025,-0.00026783,-0.00081397,
 -0.00034638,-0.00012983,-0.00005377,0.00002971,0.00008368,0.00027950,-
 0.00012406,0.00014330,-0.00009851,0.00276392,-0.00507458,-0.00175130,0
 .00077572,-0.00072580,-0.00138523,-0.00104475,0.00372579,0.03479121,-0
 .00014040,0.00011371,0.00010406,-0.00207262,-0.00003906,-0.00103427,-0
 .07483937,-0.01695545,-0.06977105,0.00001563,0.00007172,0.00007792,0.0
 0335983,0.00041607,0.00144170,-0.00713462,-0.00552647,-0.02564022,0.00
 012824,0.00014050,0.00022501,-0.00010919,0.00011657,0.00044299,0.00006
 950,0.00002178,-0.00008749,0.00002214,-0.00007280,-0.00002901,0.000010
 39,0.00000422,0.00002433,0.00006868,-0.00001153,0.00002388,-0.00008138
 ,0.00003676,0.00020982,-0.00000750,-0.00000319,0.00001813,0.00003738,0
 .00000356,0.00002307,-0.00001270,-0.00007836,0.00001327,-0.00461665,-0
 .00029626,-0.00111427,0.00010449,-0.00013569,-0.00023878,0.08495338,-0
 .00073167,0.00001957,0.00023252,0.00005514,-0.00015336,0.00000306,-0.0
 0001783,-0.00014908,0.00023572,-0.00003521,0.00009034,-0.00002664,-0.0
 1617360,-0.03545353,-0.03116973,0.00330698,0.00102566,-0.00504933,-0.0
 0124153,0.00577334,0.01050948,-0.00030032,-0.00017297,0.00058389,-0.00
 062749,0.00059423,-0.00039587,-0.01429760,-0.06379657,-0.05838084,0.00
 000703,-0.00001861,0.00001014,0.00075781,-0.00038485,-0.00056917,0.005
 65660,0.00636020,0.01416092,-0.00006678,-0.00009777,-0.00012520,-0.000
 07986,-0.00005516,-0.00031114,-0.00000036,0.00003270,-0.00004313,-0.00
 002514,-0.00001715,0.00002396,-0.00008960,0.00001658,0.00000555,-0.000
 01339,-0.00000250,-0.00001071,0.00000740,0.00040429,0.00136390,0.00003
 231,0.00002118,0.00051325,0.00004163,-0.00001466,-0.00002258,-0.000230
 23,0.00017983,-0.00001825,-0.00000872,-0.00001510,0.00009959,0.0000007
 2,-0.00017515,-0.00020060,0.02195124,0.08593172,0.00021220,-0.00012348
 ,0.00051763,0.00012236,0.00024148,0.00013826,-0.00013155,-0.00014364,0
 .00082836,0.00035353,-0.00020700,0.00010460,-0.00028509,-0.00498290,0.
 00229779,-0.00026837,0.00106171,0.00196423,0.00884586,-0.00162981,-0.0
 2899842,0.00005831,-0.00024197,0.00002100,-0.00086108,0.00054778,-0.00
 040277,-0.06238130,-0.06045744,-0.26134226,-0.00008425,-0.00007625,-0.
 00014328,-0.00395093,0.00069909,-0.00073322,-0.00357395,-0.00216210,-0
 .00812897,-0.00003787,0.00012106,0.00025038,-0.00027387,-0.00017086,0.
 00043117,0.00007145,-0.00007628,-0.00005199,-0.00000733,0.00005118,-0.
 00001293,-0.00025512,0.00004893,-0.00001430,0.00011341,-0.00001315,-0.
 00000594,-0.00074708,-0.00026519,0.00019085,-0.00013872,-0.00003068,0.
 00043759,0.00000504,0.00002615,-0.00020176,-0.00003237,-0.00004679,-0.
 00000266,-0.00226063,-0.00064054,0.00064219,0.00022960,0.00001451,-0.0
 0017418,0.06569932,0.06766731,0.29182923,-0.00000745,0.00000825,-0.000
 01404,0.00285453,-0.00088493,-0.00209700,-0.00365805,0.00054811,0.0011
 6912,-0.01283492,-0.00092576,-0.00566689,-0.00010329,-0.00004506,0.000
 03492,0.00002531,0.00001386,-0.00003215,-0.00033520,0.00014213,0.00002
 688,-0.00000436,-0.00000014,0.00000991,0.00129187,0.00125209,0.0001828
 7,0.00015296,0.00007502,-0.00011003,-0.31385101,0.04626144,-0.00153268
 ,0.00030929,-0.00041636,0.00026559,-0.00001958,-0.00002179,0.00002440,
 -0.00000804,-0.00000079,0.00000415,0.00000040,-0.00000003,0.00000161,0
 .00018288,0.00002334,0.00001468,-0.00073052,0.00026755,-0.00019390,0.0
 0064392,0.00009170,-0.00026129,-0.00001257,0.00053052,0.00015632,-0.00
 000185,0.00000077,0.00000541,-0.00000454,-0.00000522,0.00000435,-0.000
 00029,-0.00000067,-0.00000146,-0.00000530,-0.00000027,0.00000041,0.000
 15073,-0.00004449,-0.00000195,-0.00042277,-0.00004368,-0.00016507,0.00
 000527,-0.00000922,0.00000752,0.33836705,0.00000173,-0.00000748,0.0000
 0878,-0.00026518,-0.00047620,-0.00237604,0.03308555,-0.00484540,0.0004
 2952,-0.01528961,0.00191449,-0.00273943,0.00000230,0.00007420,-0.00000
 044,-0.00001737,0.00000146,0.00000960,0.00029076,0.00032747,0.00022126
 ,-0.00000076,-0.00000260,-0.00000210,-0.00027103,-0.00637490,-0.000697
 33,-0.00009649,-0.00012938,0.00001458,0.04918524,-0.05928250,0.0022564
 1,-0.00075276,-0.00054053,-0.00092661,0.00000652,0.00002521,0.00000552
 ,0.00000574,0.00000074,-0.00000323,0.00000030,0.00000055,-0.00000091,0
 .00029941,-0.00000756,-0.00009650,-0.00067848,0.00031382,-0.00031711,-
 0.00057281,0.00169996,0.00044730,-0.00068102,0.00108255,-0.00022459,0.
 00000136,-0.00000150,-0.00000161,0.00000383,0.00000279,-0.00000275,0.0
 0000022,0.00000057,0.00000098,0.00000129,0.00000156,-0.00000030,-0.000
 04915,0.00014699,-0.00015300,0.00204544,-0.00037166,0.00039232,-0.0000
 2532,0.00000983,0.00003863,-0.04933975,0.06236440,-0.00000703,0.000007
 31,-0.00001386,0.00082465,-0.00163560,-0.00483601,0.00390187,0.0012773
 6,0.00082777,-0.04069091,0.00196308,-0.00873865,-0.00014043,-0.0000422
 7,0.00005481,0.00001831,0.00002546,-0.00004280,-0.00030636,0.00047168,
 0.00023735,-0.00000741,-0.00000345,0.00001417,-0.00027710,-0.00155410,
 0.00062691,0.00012185,0.00002642,-0.00012784,0.01060284,0.00113411,-0.
 04974859,0.00003958,-0.00089412,-0.00038345,-0.00002245,-0.00000988,0.
 00004190,-0.00000692,-0.00000079,0.00000397,-0.00000054,0.00000054,0.0
 0000133,-0.00028847,-0.00014211,0.00031713,-0.00161292,0.00018043,-0.0
 0018053,-0.00057600,-0.00026051,0.00019352,-0.00011038,0.00036066,0.00
 015845,-0.00000485,0.00000021,0.00000855,-0.00000376,-0.00000468,0.000
 00347,0.00000074,-0.00000069,-0.00000043,-0.00000623,0.00000099,-0.000
 00043,-0.00043247,-0.00003113,0.00003013,0.00048723,-0.00016327,0.0003
 5921,-0.00002667,-0.00000269,0.00002105,0.00729641,0.00378389,0.058824
 99,-0.00000113,0.00000041,0.00000289,0.00297776,0.00121925,-0.00285273
 ,0.00278239,0.00427087,-0.00415876,0.00480564,0.00490018,-0.01211296,0
 .00008610,-0.00000353,-0.00001618,-0.00000942,-0.00001727,0.00001731,0
 .00001671,0.00003351,0.00005022,0.00000390,0.00000298,-0.00000686,0.00
 097632,0.00023097,-0.00065274,-0.00002383,0.00001710,0.00000534,-0.108
 32374,-0.06196935,0.08246207,-0.00030201,0.00020508,0.00003303,0.00000
 039,0.00000347,0.00000309,0.00000179,-0.00000070,-0.00000082,-0.000000
 21,0.,-0.00000097,0.00071465,-0.00038250,0.00070254,0.00018738,0.00005
 008,0.00000429,0.00090193,0.00121854,-0.00014231,0.00025035,-0.0005158
 9,0.00011266,0.00000174,-0.00000057,-0.00000067,0.00000175,0.00000319,
 -0.00000041,0.00000007,-0.00000019,0.00000080,0.00000336,-0.00000058,-
 0.00000002,0.00028918,-0.00002432,0.00018205,0.00009083,-0.00009752,0.
 00000455,-0.00000318,0.00000594,0.00001095,-0.01197119,-0.01693029,0.0
 2123784,0.10669189,0.00000146,-0.00000287,0.00000381,0.00209307,0.0003
 5889,-0.00027181,-0.01598676,-0.01984449,0.02312798,0.00363794,0.00918
 501,-0.01362268,0.00001043,0.00002906,-0.00001748,-0.00000114,-0.00000
 118,0.00001242,0.00014469,0.00011139,0.00011667,0.00000087,-0.00000103
 ,-0.00000328,-0.00114690,0.00155347,0.00036953,-0.00004643,-0.00004154
 ,0.00004670,-0.06183462,-0.12615220,0.09787376,-0.00024811,-0.00018335
 ,-0.00018632,0.00000582,0.00000556,-0.00000308,0.00000163,0.00000078,-
 0.00000133,0.00000030,-0.00000044,-0.00000125,0.00031989,-0.00031887,0
 .00070881,0.00015159,-0.00001297,-0.00002154,0.00198817,-0.00602006,-0
 .00074594,-0.00010049,0.00121650,-0.00034424,0.00000218,-0.00000152,-0
 .00000358,0.00000196,0.00000221,-0.00000134,-0.00000104,0.00000080,-0.
 00000019,0.00000121,0.00000050,-0.00000002,0.00063996,0.00028421,-0.00
 017435,0.00003449,0.00017017,-0.00042204,-0.00000724,-0.00000005,0.000
 00455,0.00250186,0.00404106,-0.00454594,0.06792206,0.13566085,-0.00001
 007,0.00000948,-0.00001697,0.00509302,0.00044523,0.00097501,-0.0007444
 4,-0.00177472,0.00445282,0.00424728,0.00769972,-0.04369764,-0.00011448
 ,-0.00005348,0.00004139,0.00001736,0.00001728,-0.00004331,-0.00049835,
 0.00033693,0.00006399,-0.00000638,-0.00000123,0.00001245,-0.00031357,-
 0.00017622,-0.00000307,0.00015544,0.00009650,-0.00016348,0.07762192,0.
 09663600,-0.16658598,-0.00026835,-0.00056711,0.00001596,-0.00002857,-0
 .00002443,0.00003676,-0.00000846,-0.00000134,0.00000517,0.00000048,0.0
 0000012,0.00000242,-0.00101954,-0.00002113,0.00063566,-0.00031518,-0.0
 0031393,0.00028315,0.00064233,-0.00130345,0.00102321,-0.00010273,0.000
 82448,0.00039838,-0.00000419,0.00000125,0.00000859,-0.00000570,-0.0000
 0657,0.00000440,0.00000104,-0.00000119,-0.00000046,-0.00000561,-0.0000
 0033,0.00000025,-0.00023914,0.00022270,-0.00019442,-0.00009836,0.00003
 121,0.00003208,-0.00000341,-0.00000276,0.00001450,0.00088857,-0.000180
 91,0.00235145,-0.08497262,-0.10188264,0.20039706,-0.00031020,0.0003567
 1,-0.00039072,0.00256749,0.00238756,-0.00325686,0.00087007,0.00011470,
 -0.00092152,0.00192480,0.00093328,-0.00027057,-0.00087640,-0.00107224,
 0.00079828,0.00033727,-0.00012823,-0.00038800,-0.03977455,-0.01198421,
 0.02468974,0.00001277,0.00004285,0.00008949,0.00420586,0.00329513,-0.0
 0545997,-0.00094797,0.00164354,-0.00566313,-0.00002836,-0.00005812,-0.
 00020512,-0.10880483,-0.05938086,0.09237870,-0.00076870,-0.00050748,0.
 00124837,-0.00019973,-0.00005420,0.00013183,0.00000450,0.00000180,0.00
 002815,-0.00010409,0.00133886,-0.00018849,0.00024917,-0.00034303,0.000
 09620,0.00020789,-0.00027781,-0.00010321,0.00014567,0.00014503,-0.0000
 5250,-0.00003373,0.00000584,0.00005903,-0.00010980,-0.00007305,0.00009
 582,-0.00000771,-0.00001396,-0.00001677,-0.00004771,-0.00001624,0.0000
 0447,-0.00001280,-0.00066343,-0.00193418,0.00008027,-0.00006852,0.0003
 5798,0.00001646,-0.00001286,0.00031317,-0.00000892,0.00003031,-0.00001
 192,-0.00015460,-0.00008886,0.00009307,0.14160479,0.00004254,-0.000053
 06,0.00006216,-0.01648762,-0.02137303,0.02594414,0.00056175,0.00040057
 ,0.00065407,-0.00083981,0.00333454,-0.00112087,0.00022483,0.00028367,-
 0.00024362,-0.00003781,0.00007839,0.00003193,0.00666413,0.00555419,-0.
 00587537,-0.00001399,-0.00001080,0.00000275,0.00647220,0.00654021,-0.0
 1176996,0.00160102,0.00024737,0.00011700,0.00003228,-0.00010438,-0.000
 23737,-0.06437484,-0.10769632,0.08873671,0.00015606,0.00009103,-0.0001
 3779,0.00003351,0.00000715,-0.00001896,-0.00000084,-0.00000013,-0.0000
 0207,0.00234643,-0.00572018,-0.00036218,-0.00024853,0.00155405,-0.0004
 2965,-0.00002269,-0.00010541,0.00019165,0.00016546,-0.00013344,0.00010
 650,-0.00000219,-0.00000383,0.00000027,0.00001879,0.00001340,-0.000016
 70,0.00000164,0.00000142,0.00000091,-0.00000066,0.00000428,-0.00000060
 ,-0.00093925,-0.00013172,-0.00273972,0.00048651,0.00065013,0.00071457,
 -0.00009468,-0.00002772,0.00000564,0.00001880,0.00003962,0.00005935,-0
 .00013747,-0.00003869,-0.00001025,0.06438501,0.11660942,-0.00004081,0.
 00005045,-0.00005025,-0.00040406,-0.00146908,0.00182978,0.00126136,0.0
 0049401,0.00083708,-0.00084979,0.00010809,0.00000456,-0.00006122,-0.00
 009222,0.00013998,0.00000559,-0.00007782,-0.00003197,-0.00777181,-0.00
 368477,0.00853404,0.00000731,0.00000465,0.00000405,0.01337844,0.013053
 55,-0.02489831,-0.00182970,-0.00026929,0.00052506,-0.00019022,-0.00011
 342,-0.00009152,0.10070972,0.08869690,-0.18963451,-0.00009811,0.000021
 21,0.00020374,-0.00002481,-0.00000968,0.00001095,0.00000431,0.00000270
 ,-0.00000112,0.00031674,-0.00057523,0.00103793,-0.00040124,0.00045300,
 0.00066933,-0.00065283,-0.00006217,0.00030796,-0.00009145,-0.00030676,
 0.00028005,0.00000304,0.00000133,0.00000272,-0.00002332,-0.00000987,0.
 00001411,0.00000007,-0.00000157,-0.00000085,-0.00000166,-0.00000155,-0
 .00000053,-0.00176290,-0.00248031,-0.00434548,0.00015718,-0.00019909,0
 .00131561,-0.00028160,0.00004092,0.00010312,-0.00001393,0.00011015,-0.
 00000400,0.00008688,-0.00001523,-0.00004846,-0.10144879,-0.09367728,0.
 20330062,0.00447848,0.00758785,0.02623475,0.00007388,-0.00000518,-0.00
 000308,0.00000026,-0.00007921,0.00009170,0.00000763,-0.00000742,0.0000
 0786,0.00213074,-0.00109417,0.00215059,-0.00033474,-0.00014597,0.00032
 537,0.00239300,-0.00003710,-0.00014847,0.00105824,0.00100596,-0.000603
 61,-0.00020920,0.00013172,-0.00015358,-0.00979831,-0.00909395,-0.03004
 452,-0.00001010,-0.00002486,-0.00001583,0.00031398,-0.00009380,-0.0000
 6412,-0.05658373,-0.01357588,-0.04858067,0.00122002,0.00046350,-0.0008
 7212,-0.00354004,-0.00194489,0.00354419,0.00001470,-0.00001108,-0.0000
 0174,-0.00000258,0.00000710,0.00000562,-0.00005467,0.00000813,-0.00000
 315,-0.00000704,-0.00000192,-0.00000570,-0.00006961,-0.00008746,-0.000
 02806,0.00009537,-0.00001405,-0.00000351,-0.00003419,-0.00019964,-0.00
 040776,-0.00010436,0.00016106,-0.00025806,-0.00007051,-0.00008556,0.00
 019047,0.00001042,-0.00000443,-0.00000097,-0.00397119,0.00308408,-0.00
 078662,-0.00000342,0.00001127,0.00000284,0.00000430,0.00000213,-0.0000
 0070,-0.00001101,0.00000495,0.00001890,0.06471052,0.00198336,0.0012554
 6,0.00713479,-0.00002643,0.00000243,0.00000498,-0.00000354,0.00003560,
 -0.00004672,-0.00000608,0.00000186,-0.00000435,-0.00035239,0.00196840,
 -0.00015382,-0.00004522,-0.00002048,0.00013505,-0.00151429,0.00021176,
 -0.00025022,0.00034254,0.00063051,0.00060774,0.00013366,-0.00006774,0.
 00008534,0.00459867,0.00252606,0.01645382,0.00000627,0.00001075,0.0000
 0550,-0.00011523,-0.00002804,0.00009503,-0.01505789,-0.07074387,-0.070
 13149,0.00023152,0.00016856,-0.00044571,-0.00094022,0.00056517,0.00109
 455,-0.00000792,0.00000648,0.00000260,-0.00000034,0.00000085,-0.000003
 34,0.00002573,-0.00000434,0.00000073,0.00000372,0.00000082,0.00000284,
 -0.00004887,-0.00006744,-0.00010799,0.00000368,-0.00000910,-0.00001439
 ,-0.00011964,0.00018773,-0.00005459,0.00002326,0.00012155,-0.00004164,
 0.00004086,0.00005105,-0.00008082,-0.00000554,-0.00000263,0.00000262,0
 .00236097,-0.00058684,0.00062413,0.00000107,-0.00000592,-0.00000121,-0
 .00000167,-0.00000136,0.00000052,-0.00000905,-0.00000120,-0.00000607,0
 .01475638,0.07057223,-0.00284538,-0.00519727,-0.01808433,-0.00000661,-
 0.00004652,-0.00001726,0.00001804,0.00000570,0.00007037,-0.00003914,0.
 00003444,-0.00000676,0.00103487,0.00017064,0.00116884,0.00013375,0.000
 05301,0.00013057,0.00081897,-0.00023087,0.00138998,-0.00075468,-0.0004
 5607,0.00056397,0.00013773,0.00007073,-0.00011130,-0.00279839,-0.00356
 730,-0.01322508,-0.00000329,-0.00000611,0.00000435,0.00002199,0.000147
 52,0.00034758,-0.05039954,-0.06768132,-0.27822706,-0.00005645,-0.00008
 738,0.00095103,0.00298734,0.00120786,-0.00123439,0.00000416,0.00000039
 ,-0.00000093,-0.00000567,0.00000426,0.00000587,-0.00002104,0.00000471,
 0.00000034,0.00000588,-0.00000132,-0.00000312,-0.00002880,-0.00012029,
 -0.00004816,-0.00005412,0.00004721,-0.00003146,-0.00004180,0.00054139,
 0.00007946,0.00016774,0.00006881,0.00025888,-0.00005701,-0.00006818,0.
 00005852,0.00000124,0.00000015,-0.00000605,-0.00163216,0.00124930,0.00
 026193,-0.00000312,0.00000446,-0.00000023,0.00000111,-0.00000020,-0.00
 000137,-0.00006242,0.00001155,-0.00000910,0.05325606,0.07406809,0.3048
 3292,-0.00327430,-0.02625950,-0.00141233,0.00008720,0.00001785,-0.0000
 3736,-0.00000423,-0.00000989,-0.00000303,-0.00002531,-0.00004099,0.000
 00888,-0.00442181,0.00730265,-0.00269245,-0.00146954,-0.00049711,0.000
 97904,0.00147073,0.00031322,-0.00035777,-0.00398732,0.00000695,0.00411
 409,-0.00001707,0.00002032,-0.00001550,0.00547851,0.02528564,0.0033396
 4,0.00000402,0.00000368,0.00000942,0.00015053,-0.00026709,-0.00008079,
 -0.05454484,-0.04364656,-0.00322115,0.00081248,0.00043070,-0.00097654,
 0.00109021,0.00067880,-0.00030864,-0.00002070,-0.00001417,0.00003519,0
 .00000115,0.00000347,-0.00000184,-0.00000158,0.00000076,0.00000091,-0.
 00000217,-0.00000067,-0.00000195,0.00019580,0.00004154,-0.00009457,0.0
 0031106,0.00000489,-0.00013718,-0.00000744,0.00029694,-0.00009977,0.00
 005752,-0.00179637,0.00040186,-0.00000438,-0.00000752,0.00000281,0.000
 01446,-0.00002029,-0.00000271,0.00085300,-0.00094545,0.00003340,-0.000
 00095,-0.00000125,-0.00000136,0.00000089,-0.00000014,-0.00000066,-0.00
 002590,-0.00001554,-0.00000127,-0.00170685,-0.00625737,0.00022074,0.05
 898682,-0.00090096,-0.00514359,-0.00012178,-0.00009803,-0.00003294,0.0
 0003473,-0.00000808,0.00001427,0.00000281,0.00002634,0.00003852,-0.000
 01400,0.00307368,-0.00319433,0.00239785,0.00070018,0.00063107,-0.00110
 823,-0.00065916,0.00117936,-0.00009613,-0.00127417,0.00156843,0.001171
 40,0.00007463,-0.00005969,0.00001605,-0.00579039,-0.01473660,-0.001959
 50,-0.00000259,-0.00000413,-0.00000936,0.00008185,0.00036393,0.0000318
 8,-0.03999418,-0.31085266,-0.00627262,-0.00030892,0.00032655,0.0000253
 8,0.00005177,0.00046967,0.00023429,0.00002018,0.00002084,-0.00003313,0
 .00000120,-0.00000647,0.00000150,0.00000706,-0.00000082,-0.00000130,0.
 00000671,-0.00000015,0.00000369,-0.00007054,-0.00002749,0.00015350,-0.
 00008240,-0.00010064,0.00008280,0.00000674,0.00008889,-0.00007407,0.00
 014271,-0.00051966,-0.00004477,0.00000570,0.00001394,-0.00001343,0.000
 01015,-0.00000737,0.00000223,0.00025421,0.00066164,0.00011593,0.000001
 63,-0.00000162,0.00000095,-0.00000177,0.00000018,0.00000026,0.00007152
 ,-0.00000952,0.00001446,-0.00071759,-0.00677830,-0.00022738,0.04537252
 ,0.33609868,0.00259074,0.02054695,-0.00078720,0.00002124,0.00001326,-0
 .00001142,0.00000237,-0.00000147,0.00000314,0.00000284,-0.00001509,0.0
 0000805,-0.00169599,0.00216114,0.00073830,-0.00007006,-0.00050675,0.00
 038337,0.00075720,-0.00051544,0.00009458,0.00339857,-0.00005300,-0.001
 89033,0.00001216,0.00001230,-0.00000978,0.00304540,0.00995058,-0.00134
 540,0.00000113,0.00000183,-0.00000141,-0.00005698,-0.00009928,-0.00002
 454,-0.00384248,-0.00848503,-0.04848404,-0.00047614,-0.00062289,0.0005
 6377,-0.00087324,-0.00008366,0.00079835,-0.00000081,-0.00001074,0.0000
 0791,-0.00000128,0.00000209,0.00000048,0.00000103,-0.00000029,-0.00000
 102,0.00000058,0.00000013,0.00000010,-0.00003664,-0.00003921,-0.000075
 92,-0.00003121,0.00001340,-0.00002680,0.00003257,0.00031780,0.00015336
 ,0.00018433,0.00108034,0.00004283,-0.00000101,-0.00000353,-0.00000668,
 0.00000268,-0.00000551,-0.00000323,0.00058750,-0.00037088,0.00015876,0
 .00000040,-0.00000053,0.00000068,0.00000042,0.00000025,0.00000047,-0.0
 0001013,0.00000318,-0.00000459,-0.00384606,-0.02897593,0.00088198,0.00
 030087,0.00568596,0.04883621\\-0.00000111,0.00000005,-0.00000161,-0.00
 000140,0.00000588,0.00000335,0.00000285,0.00000063,0.00000265,0.000005
 54,-0.00000082,0.00000375,-0.00000930,-0.00001273,0.00000397,0.0000041
 6,0.00000406,-0.00000206,0.00000723,0.00012941,0.00004337,0.00000222,-
 0.00000235,-0.00000178,0.00001976,0.00005607,-0.00003291,0.00001376,-0
 .00005675,-0.00005255,-0.00000289,0.00000134,0.00000093,-0.00002817,-0
 .00012354,0.00003071,-0.00000295,-0.00000360,0.00000119,-0.00000249,-0
 .00000168,-0.00000440,-0.00000116,0.00000041,-0.00000235,0.00000203,-0
 .00000078,0.00000372,0.00000058,-0.00000254,-0.00000091,0.00000029,0.0
 0000084,0.00000045,-0.00000206,0.00000455,0.00000321,-0.00000111,0.000
 00073,0.00000209,-0.00000051,-0.00000257,0.00000052,-0.00000018,-0.000
 00241,-0.00000185,-0.00000206,0.00000180,-0.00000025,-0.00000120,0.000
 00022,-0.00000170,-0.00000040,0.00000429,-0.00000223,-0.00000254,0.000
 00057,0.00000510,0.00000215,0.00000116,0.00000257,-0.00000081,0.000001
 07,0.00000446,0.00000077,-0.00000203,-0.00000174,0.00000098,-0.0000021
 0,-0.00000341,-0.00000198,0.00000080,-0.00000229\\\@


 ON A CLEAR DISK YOU CAN SEEK FOREVER.
 Job cpu time:       0 days 12 hours 15 minutes 13.1 seconds.
 Elapsed time:       0 days  1 hours  1 minutes 27.0 seconds.
 File lengths (MBytes):  RWF=    721 Int=      0 D2E=      0 Chk=     34 Scr=      1
 Normal termination of Gaussian 16 at Sun Mar 10 05:28:42 2019.
