 Entering Gaussian System, Link 0=g16
 Initial command:
 /sw/Projects/G16/g16/l1.exe "/nvme/pbs/tmpdir/pbs.74288[10].flm1/Gau-32383.inp" -scrdir="/nvme/pbs/tmpdir/pbs.74288[10].flm1/"
 Entering Link 1 = /sw/Projects/G16/g16/l1.exe PID=     32384.
  
 Copyright (c) 1988-2017, Gaussian, Inc.  All Rights Reserved.
  
 This is part of the Gaussian(R) 16 program.  It is based on
 the Gaussian(R) 09 system (copyright 2009, Gaussian, Inc.),
 the Gaussian(R) 03 system (copyright 2003, Gaussian, Inc.),
 the Gaussian(R) 98 system (copyright 1998, Gaussian, Inc.),
 the Gaussian(R) 94 system (copyright 1995, Gaussian, Inc.),
 the Gaussian 92(TM) system (copyright 1992, Gaussian, Inc.),
 the Gaussian 90(TM) system (copyright 1990, Gaussian, Inc.),
 the Gaussian 88(TM) system (copyright 1988, Gaussian, Inc.),
 the Gaussian 86(TM) system (copyright 1986, Carnegie Mellon
 University), and the Gaussian 82(TM) system (copyright 1983,
 Carnegie Mellon University). Gaussian is a federally registered
 trademark of Gaussian, Inc.
  
 This software contains proprietary and confidential information,
 including trade secrets, belonging to Gaussian, Inc.
  
 This software is provided under written license and may be
 used, copied, transmitted, or stored only in accord with that
 written license.
  
 The following legend is applicable only to US Government
 contracts under FAR:
  
                    RESTRICTED RIGHTS LEGEND
  
 Use, reproduction and disclosure by the US Government is
 subject to restrictions as set forth in subparagraphs (a)
 and (c) of the Commercial Computer Software - Restricted
 Rights clause in FAR 52.227-19.
  
 Gaussian, Inc.
 340 Quinnipiac St., Bldg. 40, Wallingford CT 06492
  
  
 ---------------------------------------------------------------
 Warning -- This program may not be used in any manner that
 competes with the business of Gaussian, Inc. or will provide
 assistance to any competitor of Gaussian, Inc.  The licensee
 of this program is prohibited from giving any competitor of
 Gaussian, Inc. access to this program.  By using this program,
 the user acknowledges that Gaussian, Inc. is engaged in the
 business of creating and licensing software in the field of
 computational chemistry and represents and warrants to the
 licensee that it is not a competitor of Gaussian, Inc. and that
 it will not use this program in any manner prohibited above.
 ---------------------------------------------------------------
  

 Cite this work as:
 Gaussian 16, Revision B.01,
 M. J. Frisch, G. W. Trucks, H. B. Schlegel, G. E. Scuseria, 
 M. A. Robb, J. R. Cheeseman, G. Scalmani, V. Barone, 
 G. A. Petersson, H. Nakatsuji, X. Li, M. Caricato, A. V. Marenich, 
 J. Bloino, B. G. Janesko, R. Gomperts, B. Mennucci, H. P. Hratchian, 
 J. V. Ortiz, A. F. Izmaylov, J. L. Sonnenberg, D. Williams-Young, 
 F. Ding, F. Lipparini, F. Egidi, J. Goings, B. Peng, A. Petrone, 
 T. Henderson, D. Ranasinghe, V. G. Zakrzewski, J. Gao, N. Rega, 
 G. Zheng, W. Liang, M. Hada, M. Ehara, K. Toyota, R. Fukuda, 
 J. Hasegawa, M. Ishida, T. Nakajima, Y. Honda, O. Kitao, H. Nakai, 
 T. Vreven, K. Throssell, J. A. Montgomery, Jr., J. E. Peralta, 
 F. Ogliaro, M. J. Bearpark, J. J. Heyd, E. N. Brothers, K. N. Kudin, 
 V. N. Staroverov, T. A. Keith, R. Kobayashi, J. Normand, 
 K. Raghavachari, A. P. Rendell, J. C. Burant, S. S. Iyengar, 
 J. Tomasi, M. Cossi, J. M. Millam, M. Klene, C. Adamo, R. Cammi, 
 J. W. Ochterski, R. L. Martin, K. Morokuma, O. Farkas, 
 J. B. Foresman, and D. J. Fox, Gaussian, Inc., Wallingford CT, 2016.
 
 ******************************************
 Gaussian 16:  ES64L-G16RevB.01 20-Dec-2017
                10-Mar-2019 
 ******************************************
 %mem=20gb
 %nproc=12
 Will use up to   12 processors via shared memory.
 %chk=4c1_b1_4e_4c1_PSI.inp_extract_10.chk
 ----------------------------------------------------------------------
 #M062X/6-311++G(2d,2p) opt=ModRedundant freq=noraman SCRF=(SMD,solvent
 =water)
 ----------------------------------------------------------------------
 1/18=120,19=15,26=3,38=1/1,3;
 2/9=110,12=2,17=6,18=5,40=1/2;
 3/5=4,6=6,7=1212,11=2,25=1,30=1,70=32201,71=1,72=1,74=-55/1,2,3;
 4//1;
 5/5=2,38=5,53=1/2;
 6/7=2,8=2,9=2,10=2,28=1/1;
 7//1,2,3,16;
 1/18=20,19=15,26=3/3(2);
 2/9=110/2;
 99//99;
 2/9=110/2;
 3/5=4,6=6,7=1212,11=2,25=1,30=1,70=32205,71=1,72=1,74=-55/1,2,3;
 4/5=5,16=3,69=1/1;
 5/5=2,38=5,53=1/2;
 7//1,2,3,16;
 1/18=20,19=15,26=3/3(-5);
 2/9=110/2;
 6/7=2,8=2,9=2,10=2,19=2,28=1/1;
 99/9=1/99;
 --------------------------------
 4c1_b1_4e_4c1_PSI.inp_extract_10
 --------------------------------
 Symbolic Z-matrix:
 Charge =  0 Multiplicity = 1
 C                    -3.44624   0.81415   0.74037 
 C                     1.42608  -1.04637   0.02573 
 C                     3.62263   0.82379   0.08732 
 O                     2.78206  -1.43726  -0.03028 
 O                    -1.56745  -0.82535  -0.64469 
 C                    -2.65802  -1.44524   0.01783 
 O                    -0.04235   0.84427  -0.7329 
 C                    -3.8523   -0.50731   0.08662 
 C                     2.18449   1.34197   0.02378 
 C                    -1.10285   0.33594   0.00274 
 C                     3.65309  -0.57494   0.67971 
 C                     1.2811    0.31771  -0.65295 
 C                    -2.19865   1.38438   0.06039 
 H                    -4.25802   1.53266   0.68889 
 H                    -3.23787   0.64578   1.79501 
 H                     1.10912  -1.01739   1.06304 
 H                     0.86552  -1.80876  -0.49175 
 H                     4.04989   0.7951   -0.91186 
 H                     4.2406    1.48572   0.68652 
 H                    -2.34519  -1.7419    1.01652 
 H                    -2.88264  -2.3394   -0.54653 
 H                    -4.21925  -0.32555  -0.92064 
 H                    -4.652    -0.98626   0.6444 
 H                     1.81165   1.52616   1.02945 
 H                     2.13764   2.28083  -0.51873 
 H                    -0.78882   0.0702    1.00606 
 H                     4.63849  -1.01471   0.61015 
 H                     3.35782  -0.55691   1.72627 
 H                     1.59795   0.19303  -1.68171 
 H                    -2.43031   1.69051  -0.95641 
 H                    -1.8286    2.2531    0.59512 
 
 The following ModRedundant input section has been read:
 D      10       7      12       9 F                                           
 

 GradGradGradGradGradGradGradGradGradGradGradGradGradGradGradGradGradGrad
 Berny optimization.
 Initialization pass.
                           ----------------------------
                           !    Initial Parameters    !
                           ! (Angstroms and Degrees)  !
 --------------------------                            --------------------------
 ! Name  Definition              Value          Derivative Info.                !
 --------------------------------------------------------------------------------
 ! R1    R(1,8)                  1.5292         estimate D2E/DX2                !
 ! R2    R(1,13)                 1.531          estimate D2E/DX2                !
 ! R3    R(1,14)                 1.0853         estimate D2E/DX2                !
 ! R4    R(1,15)                 1.0881         estimate D2E/DX2                !
 ! R5    R(2,4)                  1.4123         estimate D2E/DX2                !
 ! R6    R(2,12)                 1.5305         estimate D2E/DX2                !
 ! R7    R(2,16)                 1.085          estimate D2E/DX2                !
 ! R8    R(2,17)                 1.0785         estimate D2E/DX2                !
 ! R9    R(3,9)                  1.53           estimate D2E/DX2                !
 ! R10   R(3,11)                 1.5193         estimate D2E/DX2                !
 ! R11   R(3,18)                 1.0871         estimate D2E/DX2                !
 ! R12   R(3,19)                 1.0859         estimate D2E/DX2                !
 ! R13   R(4,11)                 1.4165         estimate D2E/DX2                !
 ! R14   R(5,6)                  1.4186         estimate D2E/DX2                !
 ! R15   R(5,10)                 1.4084         estimate D2E/DX2                !
 ! R16   R(6,8)                  1.5201         estimate D2E/DX2                !
 ! R17   R(6,20)                 1.0878         estimate D2E/DX2                !
 ! R18   R(6,21)                 1.081          estimate D2E/DX2                !
 ! R19   R(7,10)                 1.3872         estimate D2E/DX2                !
 ! R20   R(7,12)                 1.4266         estimate D2E/DX2                !
 ! R21   R(8,22)                 1.0873         estimate D2E/DX2                !
 ! R22   R(8,23)                 1.0863         estimate D2E/DX2                !
 ! R23   R(9,12)                 1.5242         estimate D2E/DX2                !
 ! R24   R(9,24)                 1.0883         estimate D2E/DX2                !
 ! R25   R(9,25)                 1.0853         estimate D2E/DX2                !
 ! R26   R(10,13)                1.5177         estimate D2E/DX2                !
 ! R27   R(10,26)                1.0844         estimate D2E/DX2                !
 ! R28   R(11,27)                1.0813         estimate D2E/DX2                !
 ! R29   R(11,28)                1.0876         estimate D2E/DX2                !
 ! R30   R(12,29)                1.0837         estimate D2E/DX2                !
 ! R31   R(13,30)                1.0869         estimate D2E/DX2                !
 ! R32   R(13,31)                1.0851         estimate D2E/DX2                !
 ! A1    A(8,1,13)             110.3869         estimate D2E/DX2                !
 ! A2    A(8,1,14)             110.6826         estimate D2E/DX2                !
 ! A3    A(8,1,15)             109.3585         estimate D2E/DX2                !
 ! A4    A(13,1,14)            109.9908         estimate D2E/DX2                !
 ! A5    A(13,1,15)            109.3936         estimate D2E/DX2                !
 ! A6    A(14,1,15)            106.9564         estimate D2E/DX2                !
 ! A7    A(4,2,12)             108.6658         estimate D2E/DX2                !
 ! A8    A(4,2,16)             109.0128         estimate D2E/DX2                !
 ! A9    A(4,2,17)             106.5195         estimate D2E/DX2                !
 ! A10   A(12,2,16)            111.8671         estimate D2E/DX2                !
 ! A11   A(12,2,17)            111.5938         estimate D2E/DX2                !
 ! A12   A(16,2,17)            109.0106         estimate D2E/DX2                !
 ! A13   A(9,3,11)             110.2941         estimate D2E/DX2                !
 ! A14   A(9,3,18)             109.8902         estimate D2E/DX2                !
 ! A15   A(9,3,19)             110.5739         estimate D2E/DX2                !
 ! A16   A(11,3,18)            109.0383         estimate D2E/DX2                !
 ! A17   A(11,3,19)            109.5503         estimate D2E/DX2                !
 ! A18   A(18,3,19)            107.4349         estimate D2E/DX2                !
 ! A19   A(2,4,11)             113.7053         estimate D2E/DX2                !
 ! A20   A(6,5,10)             113.528          estimate D2E/DX2                !
 ! A21   A(5,6,8)              110.8237         estimate D2E/DX2                !
 ! A22   A(5,6,20)             109.0775         estimate D2E/DX2                !
 ! A23   A(5,6,21)             106.1031         estimate D2E/DX2                !
 ! A24   A(8,6,20)             110.6511         estimate D2E/DX2                !
 ! A25   A(8,6,21)             111.7622         estimate D2E/DX2                !
 ! A26   A(20,6,21)            108.27           estimate D2E/DX2                !
 ! A27   A(10,7,12)            122.9734         estimate D2E/DX2                !
 ! A28   A(1,8,6)              110.115          estimate D2E/DX2                !
 ! A29   A(1,8,22)             109.9492         estimate D2E/DX2                !
 ! A30   A(1,8,23)             110.9143         estimate D2E/DX2                !
 ! A31   A(6,8,22)             109.0483         estimate D2E/DX2                !
 ! A32   A(6,8,23)             109.2427         estimate D2E/DX2                !
 ! A33   A(22,8,23)            107.5131         estimate D2E/DX2                !
 ! A34   A(3,9,12)             110.3635         estimate D2E/DX2                !
 ! A35   A(3,9,24)             109.9369         estimate D2E/DX2                !
 ! A36   A(3,9,25)             110.7512         estimate D2E/DX2                !
 ! A37   A(12,9,24)            108.7215         estimate D2E/DX2                !
 ! A38   A(12,9,25)            109.499          estimate D2E/DX2                !
 ! A39   A(24,9,25)            107.5004         estimate D2E/DX2                !
 ! A40   A(5,10,7)             108.0933         estimate D2E/DX2                !
 ! A41   A(5,10,13)            110.4195         estimate D2E/DX2                !
 ! A42   A(5,10,26)            108.5902         estimate D2E/DX2                !
 ! A43   A(7,10,13)            108.6015         estimate D2E/DX2                !
 ! A44   A(7,10,26)            111.0441         estimate D2E/DX2                !
 ! A45   A(13,10,26)           110.0743         estimate D2E/DX2                !
 ! A46   A(3,11,4)             110.6527         estimate D2E/DX2                !
 ! A47   A(3,11,27)            111.5681         estimate D2E/DX2                !
 ! A48   A(3,11,28)            110.7631         estimate D2E/DX2                !
 ! A49   A(4,11,27)            106.2928         estimate D2E/DX2                !
 ! A50   A(4,11,28)            108.9948         estimate D2E/DX2                !
 ! A51   A(27,11,28)           108.4247         estimate D2E/DX2                !
 ! A52   A(2,12,7)             116.213          estimate D2E/DX2                !
 ! A53   A(2,12,9)             110.2373         estimate D2E/DX2                !
 ! A54   A(2,12,29)            106.9023         estimate D2E/DX2                !
 ! A55   A(7,12,9)             109.0683         estimate D2E/DX2                !
 ! A56   A(7,12,29)            105.1005         estimate D2E/DX2                !
 ! A57   A(9,12,29)            108.9965         estimate D2E/DX2                !
 ! A58   A(1,13,10)            110.3613         estimate D2E/DX2                !
 ! A59   A(1,13,30)            110.2869         estimate D2E/DX2                !
 ! A60   A(1,13,31)            110.9282         estimate D2E/DX2                !
 ! A61   A(10,13,30)           108.2367         estimate D2E/DX2                !
 ! A62   A(10,13,31)           108.9981         estimate D2E/DX2                !
 ! A63   A(30,13,31)           107.9506         estimate D2E/DX2                !
 ! D1    D(13,1,8,6)            51.3019         estimate D2E/DX2                !
 ! D2    D(13,1,8,22)          -68.8761         estimate D2E/DX2                !
 ! D3    D(13,1,8,23)          172.3457         estimate D2E/DX2                !
 ! D4    D(14,1,8,6)           173.3169         estimate D2E/DX2                !
 ! D5    D(14,1,8,22)           53.1389         estimate D2E/DX2                !
 ! D6    D(14,1,8,23)          -65.6393         estimate D2E/DX2                !
 ! D7    D(15,1,8,6)           -69.0988         estimate D2E/DX2                !
 ! D8    D(15,1,8,22)          170.7232         estimate D2E/DX2                !
 ! D9    D(15,1,8,23)           51.945          estimate D2E/DX2                !
 ! D10   D(8,1,13,10)          -51.8637         estimate D2E/DX2                !
 ! D11   D(8,1,13,30)           67.6785         estimate D2E/DX2                !
 ! D12   D(8,1,13,31)         -172.7735         estimate D2E/DX2                !
 ! D13   D(14,1,13,10)        -174.2855         estimate D2E/DX2                !
 ! D14   D(14,1,13,30)         -54.7433         estimate D2E/DX2                !
 ! D15   D(14,1,13,31)          64.8047         estimate D2E/DX2                !
 ! D16   D(15,1,13,10)          68.516          estimate D2E/DX2                !
 ! D17   D(15,1,13,30)        -171.9418         estimate D2E/DX2                !
 ! D18   D(15,1,13,31)         -52.3938         estimate D2E/DX2                !
 ! D19   D(12,2,4,11)           63.2279         estimate D2E/DX2                !
 ! D20   D(16,2,4,11)          -58.9278         estimate D2E/DX2                !
 ! D21   D(17,2,4,11)         -176.4161         estimate D2E/DX2                !
 ! D22   D(4,2,12,7)           177.6666         estimate D2E/DX2                !
 ! D23   D(4,2,12,9)           -57.61           estimate D2E/DX2                !
 ! D24   D(4,2,12,29)           60.7244         estimate D2E/DX2                !
 ! D25   D(16,2,12,7)          -61.9289         estimate D2E/DX2                !
 ! D26   D(16,2,12,9)           62.7944         estimate D2E/DX2                !
 ! D27   D(16,2,12,29)        -178.8712         estimate D2E/DX2                !
 ! D28   D(17,2,12,7)           60.5058         estimate D2E/DX2                !
 ! D29   D(17,2,12,9)         -174.7708         estimate D2E/DX2                !
 ! D30   D(17,2,12,29)         -56.4365         estimate D2E/DX2                !
 ! D31   D(11,3,9,12)          -50.9166         estimate D2E/DX2                !
 ! D32   D(11,3,9,24)           69.0057         estimate D2E/DX2                !
 ! D33   D(11,3,9,25)         -172.3411         estimate D2E/DX2                !
 ! D34   D(18,3,9,12)           69.3248         estimate D2E/DX2                !
 ! D35   D(18,3,9,24)         -170.7529         estimate D2E/DX2                !
 ! D36   D(18,3,9,25)          -52.0997         estimate D2E/DX2                !
 ! D37   D(19,3,9,12)         -172.2416         estimate D2E/DX2                !
 ! D38   D(19,3,9,24)          -52.3193         estimate D2E/DX2                !
 ! D39   D(19,3,9,25)           66.3339         estimate D2E/DX2                !
 ! D40   D(9,3,11,4)            54.0711         estimate D2E/DX2                !
 ! D41   D(9,3,11,27)          172.1951         estimate D2E/DX2                !
 ! D42   D(9,3,11,28)          -66.9195         estimate D2E/DX2                !
 ! D43   D(18,3,11,4)          -66.6814         estimate D2E/DX2                !
 ! D44   D(18,3,11,27)          51.4425         estimate D2E/DX2                !
 ! D45   D(18,3,11,28)         172.3279         estimate D2E/DX2                !
 ! D46   D(19,3,11,4)          176.0031         estimate D2E/DX2                !
 ! D47   D(19,3,11,27)         -65.873          estimate D2E/DX2                !
 ! D48   D(19,3,11,28)          55.0125         estimate D2E/DX2                !
 ! D49   D(2,4,11,3)           -62.14           estimate D2E/DX2                !
 ! D50   D(2,4,11,27)          176.5639         estimate D2E/DX2                !
 ! D51   D(2,4,11,28)           59.8935         estimate D2E/DX2                !
 ! D52   D(10,5,6,8)            61.2423         estimate D2E/DX2                !
 ! D53   D(10,5,6,20)          -60.8164         estimate D2E/DX2                !
 ! D54   D(10,5,6,21)         -177.2463         estimate D2E/DX2                !
 ! D55   D(6,5,10,7)           179.8496         estimate D2E/DX2                !
 ! D56   D(6,5,10,13)          -61.4838         estimate D2E/DX2                !
 ! D57   D(6,5,10,26)           59.2887         estimate D2E/DX2                !
 ! D58   D(5,6,8,1)            -54.9267         estimate D2E/DX2                !
 ! D59   D(5,6,8,22)            65.7939         estimate D2E/DX2                !
 ! D60   D(5,6,8,23)          -176.966          estimate D2E/DX2                !
 ! D61   D(20,6,8,1)            66.2078         estimate D2E/DX2                !
 ! D62   D(20,6,8,22)         -173.0716         estimate D2E/DX2                !
 ! D63   D(20,6,8,23)          -55.8315         estimate D2E/DX2                !
 ! D64   D(21,6,8,1)          -173.0492         estimate D2E/DX2                !
 ! D65   D(21,6,8,22)          -52.3285         estimate D2E/DX2                !
 ! D66   D(21,6,8,23)           64.9116         estimate D2E/DX2                !
 ! D67   D(12,7,10,5)          -79.7736         estimate D2E/DX2                !
 ! D68   D(12,7,10,13)         160.4092         estimate D2E/DX2                !
 ! D69   D(12,7,10,26)          39.2424         estimate D2E/DX2                !
 ! D70   D(10,7,12,2)           14.166          estimate D2E/DX2                !
 ! D71   D(10,7,12,9)         -111.1531         Frozen                          !
 ! D72   D(10,7,12,29)         132.1034         estimate D2E/DX2                !
 ! D73   D(3,9,12,2)            52.974          estimate D2E/DX2                !
 ! D74   D(3,9,12,7)          -178.3043         estimate D2E/DX2                !
 ! D75   D(3,9,12,29)          -64.0674         estimate D2E/DX2                !
 ! D76   D(24,9,12,2)          -67.6782         estimate D2E/DX2                !
 ! D77   D(24,9,12,7)           61.0434         estimate D2E/DX2                !
 ! D78   D(24,9,12,29)         175.2804         estimate D2E/DX2                !
 ! D79   D(25,9,12,2)          175.1388         estimate D2E/DX2                !
 ! D80   D(25,9,12,7)          -56.1396         estimate D2E/DX2                !
 ! D81   D(25,9,12,29)          58.0974         estimate D2E/DX2                !
 ! D82   D(5,10,13,1)           55.8563         estimate D2E/DX2                !
 ! D83   D(5,10,13,30)         -64.9189         estimate D2E/DX2                !
 ! D84   D(5,10,13,31)         177.9111         estimate D2E/DX2                !
 ! D85   D(7,10,13,1)          174.2126         estimate D2E/DX2                !
 ! D86   D(7,10,13,30)          53.4374         estimate D2E/DX2                !
 ! D87   D(7,10,13,31)         -63.7326         estimate D2E/DX2                !
 ! D88   D(26,10,13,1)         -64.0262         estimate D2E/DX2                !
 ! D89   D(26,10,13,30)        175.1986         estimate D2E/DX2                !
 ! D90   D(26,10,13,31)         58.0286         estimate D2E/DX2                !
 --------------------------------------------------------------------------------
 Trust Radius=3.00D-01 FncErr=1.00D-07 GrdErr=1.00D-06 EigMax=2.50D+02 EigMin=1.00D-04
 Number of steps in this run=    186 maximum allowed number of steps=    186.
 GradGradGradGradGradGradGradGradGradGradGradGradGradGradGradGradGradGrad

                          Input orientation:                          
 ---------------------------------------------------------------------
 Center     Atomic      Atomic             Coordinates (Angstroms)
 Number     Number       Type             X           Y           Z
 ---------------------------------------------------------------------
      1          6           0       -3.446236    0.814152    0.740369
      2          6           0        1.426079   -1.046373    0.025730
      3          6           0        3.622630    0.823794    0.087315
      4          8           0        2.782058   -1.437257   -0.030283
      5          8           0       -1.567448   -0.825350   -0.644693
      6          6           0       -2.658022   -1.445235    0.017826
      7          8           0       -0.042351    0.844270   -0.732897
      8          6           0       -3.852304   -0.507309    0.086616
      9          6           0        2.184492    1.341966    0.023777
     10          6           0       -1.102847    0.335937    0.002743
     11          6           0        3.653086   -0.574936    0.679707
     12          6           0        1.281095    0.317710   -0.652945
     13          6           0       -2.198647    1.384377    0.060394
     14          1           0       -4.258020    1.532659    0.688891
     15          1           0       -3.237870    0.645775    1.795009
     16          1           0        1.109116   -1.017392    1.063037
     17          1           0        0.865521   -1.808758   -0.491748
     18          1           0        4.049892    0.795097   -0.911863
     19          1           0        4.240602    1.485716    0.686524
     20          1           0       -2.345186   -1.741901    1.016516
     21          1           0       -2.882641   -2.339395   -0.546533
     22          1           0       -4.219252   -0.325547   -0.920637
     23          1           0       -4.652002   -0.986259    0.644396
     24          1           0        1.811651    1.526159    1.029453
     25          1           0        2.137638    2.280827   -0.518728
     26          1           0       -0.788820    0.070198    1.006065
     27          1           0        4.638486   -1.014708    0.610147
     28          1           0        3.357816   -0.556908    1.726266
     29          1           0        1.597948    0.193034   -1.681712
     30          1           0       -2.430312    1.690514   -0.956413
     31          1           0       -1.828596    2.253096    0.595117
 ---------------------------------------------------------------------
                    Distance matrix (angstroms):
                    1          2          3          4          5
     1  C    0.000000
     2  C    5.264192   0.000000
     3  C    7.098975   2.885508   0.000000
     4  O    6.667413   1.412305   2.415107   0.000000
     5  O    2.852404   3.075634   5.494763   4.435102   0.000000
     6  C    2.499636   4.103539   6.678316   5.440299   1.418640
     7  O    3.709158   2.511241   3.755696   3.698151   2.263036
     8  C    1.529230   5.306187   7.592528   6.700241   2.420027
     9  C    5.700631   2.505865   1.529961   2.843253   4.384195
    10  C    2.502849   2.882148   4.751346   4.270573   1.408409
    11  C    7.234198   2.368438   1.519310   1.416465   5.391727
    12  C    4.953326   1.530471   2.507368   2.391758   3.069341
    13  C    1.531013   4.364446   5.848268   5.725143   2.403841
    14  H    1.085309   6.276955   7.935303   7.674654   3.818093
    15  H    1.088133   5.267460   7.072084   6.626481   3.302524
    16  H    4.920356   1.085040   3.264928   2.042148   3.180757
    17  H    5.195096   1.078536   3.855813   2.006010   2.628654
    18  H    7.676078   3.339833   1.087075   2.714404   5.852498
    19  H    7.716306   3.843132   1.085855   3.344388   6.391135
    20  H    2.796779   3.960790   6.562091   5.241872   2.050502
    21  H    3.452335   4.534805   7.261273   5.759269   2.007909
    22  H    2.157640   5.769312   7.989497   7.144716   2.712566
    23  H    2.169000   6.109781   8.488590   7.478224   3.346956
    24  H    5.313746   2.788198   2.158839   3.293412   4.444173
    25  H    5.908986   3.445724   2.166895   3.804997   4.836514
    26  H    2.772349   2.667127   4.568687   4.012182   2.033044
    27  H    8.290019   3.265288   2.164580   2.008737   6.334358
    28  H    7.010487   2.619734   2.159311   2.047432   5.472818
    29  H    5.629925   2.116844   2.761639   2.605222   3.483137
    30  H    2.163141   4.829794   6.203118   6.148940   2.677924
    31  H    2.169889   4.669433   5.658324   5.938683   3.328987
                    6          7          8          9         10
     6  C    0.000000
     7  O    3.556284   0.000000
     8  C    1.520114   4.124816   0.000000
     9  C    5.587349   2.403973   6.314006   0.000000
    10  C    2.364608   1.387163   2.877084   3.437897   0.000000
    11  C    6.405122   4.203076   7.529091   2.502304   4.889465
    12  C    4.367442   1.426593   5.251609   1.524198   2.472537
    13  C    2.866974   2.360220   2.512717   4.383497   1.517672
    14  H    3.446473   4.501914   2.165366   6.479560   3.443553
    15  H    2.804804   4.079344   2.150753   5.746647   2.804735
    16  H    3.932791   2.831438   5.082251   2.793397   2.801518
    17  H    3.578711   2.814417   4.928098   3.454347   2.952746
    18  H    7.132988   4.096450   8.070807   2.157361   5.253385
    19  H    7.525201   4.557400   8.356265   2.165060   5.508357
    20  H    1.087777   3.879662   2.158781   5.568999   2.624605
    21  H    1.080961   4.270562   2.167409   6.289158   3.259873
    22  H    2.138189   4.341684   1.087312   6.684344   3.316952
    23  H    2.139908   5.147490   1.086291   7.248686   3.841409
    24  H    5.461735   2.647296   6.091332   1.088265   3.311353
    25  H    6.096703   2.619526   6.634723   1.085342   3.815137
    26  H    2.601359   2.044601   3.250205   3.379773   1.084382
    27  H    7.333159   5.212466   8.522033   3.452510   5.929257
    28  H    6.316502   4.424016   7.394372   2.807291   4.864691
    29  H    4.866789   2.003731   5.772583   2.138404   3.186237
    30  H    3.291491   2.543314   2.817871   4.730610   2.125329
    31  H    3.833910   2.634214   3.460318   4.154692   2.133803
                   11         12         13         14         15
    11  C    0.000000
    12  C    2.863410   0.000000
    13  C    6.202035   3.708805   0.000000
    14  H    8.187041   5.827385   2.158243   0.000000
    15  H    7.086558   5.149869   2.152767   1.746644   0.000000
    16  H    2.610458   2.180979   4.208929   5.953897   4.711496
    17  H    3.265753   2.172683   4.459832   6.229739   5.300171
    18  H    2.137180   2.821555   6.351124   8.492809   7.775663
    19  H    2.142780   3.452115   6.470412   8.498752   7.606693
    20  H    6.120009   4.492105   3.272500   3.806444   2.665320
    21  H    6.879877   4.940468   3.834408   4.290774   3.810544
    22  H    8.037226   5.544299   2.822961   2.458661   3.046524
    23  H    8.315342   6.211688   3.461203   2.549931   2.446879
    24  H    2.815636   2.138294   4.128155   6.079221   5.182549
    25  H    3.447929   2.146045   4.465688   6.551530   6.076418
    26  H    4.500360   2.664231   2.146852   3.778193   2.636583
    27  H    1.081319   3.826593   7.266652   9.254356   8.136221
    28  H    1.087564   3.276945   6.117025   7.965136   6.704793
    29  H    3.223301   1.083652   4.343773   6.458074   5.973081
    30  H    6.694541   3.968781   1.086869   2.464236   3.051877
    31  H    6.168773   3.869568   1.085145   2.535729   2.451382
                   16         17         18         19         20
    16  H    0.000000
    17  H    1.761521   0.000000
    18  H    3.979134   4.134825   0.000000
    19  H    4.026601   4.861384   1.751618   0.000000
    20  H    3.529771   3.547953   7.145070   7.341594   0.000000
    21  H    4.502503   3.785934   7.616989   8.178783   1.757549
    22  H    5.727575   5.314017   8.344739   8.799589   3.044790
    23  H    5.776392   5.693012   9.017657   9.229888   2.455783
    24  H    2.639003   3.785616   3.051702   2.453373   5.287691
    25  H    3.799748   4.282956   2.453297   2.550939   6.215708
    26  H    2.188209   2.917321   5.255194   5.234585   2.388742
    27  H    3.558310   4.009982   2.436873   2.533035   7.033180
    28  H    2.389261   3.563460   3.044111   2.456153   5.867894
    29  H    3.039364   2.441236   2.639541   3.776664   5.154873
    30  H    4.892697   4.829424   6.541926   6.873302   3.959945
    31  H    4.420995   4.993816   6.241264   6.118202   4.050240
                   21         22         23         24         25
    21  H    0.000000
    22  H    2.445826   0.000000
    23  H    2.525852   1.753038   0.000000
    24  H    6.281928   6.603291   6.945453   0.000000
    25  H    6.822787   6.882207   7.624036   1.752899   0.000000
    26  H    3.549758   3.954321   4.021328   2.980406   3.971905
    27  H    7.723992   9.015418   9.290595   3.823979   4.288257
    28  H    6.876495   8.029420   8.093946   2.686139   3.818583
    29  H    5.270437   5.889650   6.772251   3.028747   2.450036
    30  H    4.075877   2.695568   3.829309   4.686675   4.626684
    31  H    4.848232   3.829118   4.297380   3.737443   4.119761
                   26         27         28         29         30
    26  H    0.000000
    27  H    5.548822   0.000000
    28  H    4.255178   1.759380   0.000000
    29  H    3.596651   3.994512   3.908179   0.000000
    30  H    3.028405   7.729181   6.763882   4.358369   0.000000
    31  H    2.452561   7.245821   6.006204   4.600979   1.756646
                   31
    31  H    0.000000
 Stoichiometry    C10H18O3
 Framework group  C1[X(C10H18O3)]
 Deg. of freedom    87
 Full point group                 C1      NOp   1
 Largest Abelian subgroup         C1      NOp   1
 Largest concise Abelian subgroup C1      NOp   1
                         Standard orientation:                         
 ---------------------------------------------------------------------
 Center     Atomic      Atomic             Coordinates (Angstroms)
 Number     Number       Type             X           Y           Z
 ---------------------------------------------------------------------
      1          6           0        3.446236   -0.814152    0.740369
      2          6           0       -1.426079    1.046373    0.025730
      3          6           0       -3.622630   -0.823794    0.087315
      4          8           0       -2.782058    1.437257   -0.030283
      5          8           0        1.567448    0.825350   -0.644693
      6          6           0        2.658022    1.445235    0.017826
      7          8           0        0.042351   -0.844270   -0.732897
      8          6           0        3.852304    0.507309    0.086616
      9          6           0       -2.184492   -1.341966    0.023777
     10          6           0        1.102847   -0.335937    0.002743
     11          6           0       -3.653086    0.574936    0.679707
     12          6           0       -1.281095   -0.317710   -0.652945
     13          6           0        2.198647   -1.384377    0.060394
     14          1           0        4.258020   -1.532659    0.688891
     15          1           0        3.237870   -0.645775    1.795009
     16          1           0       -1.109116    1.017392    1.063037
     17          1           0       -0.865521    1.808758   -0.491748
     18          1           0       -4.049892   -0.795097   -0.911863
     19          1           0       -4.240602   -1.485716    0.686524
     20          1           0        2.345186    1.741901    1.016516
     21          1           0        2.882641    2.339395   -0.546533
     22          1           0        4.219252    0.325547   -0.920637
     23          1           0        4.652002    0.986259    0.644396
     24          1           0       -1.811651   -1.526159    1.029453
     25          1           0       -2.137638   -2.280827   -0.518728
     26          1           0        0.788820   -0.070198    1.006065
     27          1           0       -4.638486    1.014708    0.610147
     28          1           0       -3.357816    0.556908    1.726266
     29          1           0       -1.597948   -0.193034   -1.681712
     30          1           0        2.430312   -1.690514   -0.956413
     31          1           0        1.828596   -2.253096    0.595117
 ---------------------------------------------------------------------
 Rotational constants (GHZ):           2.0061746           0.3935147           0.3526340
 Standard basis: 6-311++G(2d,2p) (5D, 7F)
 There are   557 symmetry adapted cartesian basis functions of A   symmetry.
 There are   531 symmetry adapted basis functions of A   symmetry.
   531 basis functions,   762 primitive gaussians,   557 cartesian basis functions
    51 alpha electrons       51 beta electrons
       nuclear repulsion energy       885.6466299721 Hartrees.
 NAtoms=   31 NActive=   31 NUniq=   31 SFac= 1.00D+00 NAtFMM=   60 NAOKFM=F Big=F
 Integral buffers will be    131072 words long.
 Raffenetti 2 integral format.
 Two-electron integral symmetry is turned on.
 ------------------------------------------------------------------------------
 Polarizable Continuum Model (PCM)
 =================================
 Model                : PCM.
 Atomic radii         : SMD-Coulomb.
 Polarization charges : Total charges.
 Charge compensation  : None.
 Solution method      : On-the-fly selection.
 Cavity type          : VdW (van der Waals Surface) (Alpha=1.000).
 Cavity algorithm     : GePol (No added spheres)
                        Default sphere list used, NSphG=   31.
                        Lebedev-Laikov grids with approx.  5.0 points / Ang**2.
                        Smoothing algorithm: York/Karplus (Gamma=1.0000).
                        Polarization charges: spherical gaussians, with
                                              point-specific exponents (IZeta= 3).
                        Self-potential: point-specific (ISelfS= 7).
                        Self-field    : sphere-specific E.n sum rule (ISelfD= 2).
 1st derivatives      : Analytical E(r).r(x)/FMM algorithm (CHGder, D1EAlg=3).
                        Cavity 1st derivative terms included.
 Solvent              : Water, Eps=  78.355300 Eps(inf)=   1.777849
 ------------------------------------------------------------------------------
 ------------------------------------------------------------------------------
 Atomic radii for non-electrostatic terms: SMD-CDS.
 ------------------------------------------------------------------------------
 Nuclear repulsion after PCM non-electrostatic terms =      885.6529353542 Hartrees.
 One-electron integrals computed using PRISM.
 NBasis=   531 RedAO= T EigKep=  5.81D-06  NBF=   531
 NBsUse=   531 1.00D-06 EigRej= -1.00D+00 NBFU=   531
 ExpMin= 3.60D-02 ExpMax= 8.59D+03 ExpMxC= 1.30D+03 IAcc=3 IRadAn=         5 AccDes= 0.00D+00
 Harris functional with IExCor= 1009 and IRadAn=       5 diagonalized for initial guess.
 HarFok:  IExCor= 1009 AccDes= 0.00D+00 IRadAn=         5 IDoV= 1 UseB2=F ITyADJ=14
 ICtDFT=  3500011 ScaDFX=  1.000000  1.000000  1.000000  1.000000
 FoFCou: FMM=F IPFlag=           0 FMFlag=      100000 FMFlg1=           0
         NFxFlg=           0 DoJE=T BraDBF=F KetDBF=T FulRan=T
         wScrn=  0.000000 ICntrl=       500 IOpCl=  0 I1Cent=   200000004 NGrid=           0
         NMat0=    1 NMatS0=      1 NMatT0=    0 NMatD0=    1 NMtDS0=    0 NMtDT0=    0
 Petite list used in FoFCou.
 Requested convergence on RMS density matrix=1.00D-08 within 128 cycles.
 Requested convergence on MAX density matrix=1.00D-06.
 Requested convergence on             energy=1.00D-06.
 No special actions if energy rises.
 Inv3:  Mode=1 IEnd=    12168588.
 Iteration    1 A*A^-1 deviation from unit magnitude is 7.55D-15 for    194.
 Iteration    1 A*A^-1 deviation from orthogonality  is 3.75D-15 for   1746    251.
 Iteration    1 A^-1*A deviation from unit magnitude is 7.99D-15 for    194.
 Iteration    1 A^-1*A deviation from orthogonality  is 1.35D-13 for   1825   1688.
 Error on total polarization charges =  0.06291
 SCF Done:  E(RM062X) =  -617.499471433     A.U. after   12 cycles
            NFock= 12  Conv=0.54D-08     -V/T= 2.0035
 SMD-CDS (non-electrostatic) energy       (kcal/mol) =       3.96
 (included in total energy above)

 **********************************************************************

            Population analysis using the SCF Density.

 **********************************************************************

 Orbital symmetries:
       Occupied  (A) (A) (A) (A) (A) (A) (A) (A) (A) (A) (A) (A)
                 (A) (A) (A) (A) (A) (A) (A) (A) (A) (A) (A) (A)
                 (A) (A) (A) (A) (A) (A) (A) (A) (A) (A) (A) (A)
                 (A) (A) (A) (A) (A) (A) (A) (A) (A) (A) (A) (A)
                 (A) (A) (A)
       Virtual   (A) (A) (A) (A) (A) (A) (A) (A) (A) (A) (A) (A)
                 (A) (A) (A) (A) (A) (A) (A) (A) (A) (A) (A) (A)
                 (A) (A) (A) (A) (A) (A) (A) (A) (A) (A) (A) (A)
                 (A) (A) (A) (A) (A) (A) (A) (A) (A) (A) (A) (A)
                 (A) (A) (A) (A) (A) (A) (A) (A) (A) (A) (A) (A)
                 (A) (A) (A) (A) (A) (A) (A) (A) (A) (A) (A) (A)
                 (A) (A) (A) (A) (A) (A) (A) (A) (A) (A) (A) (A)
                 (A) (A) (A) (A) (A) (A) (A) (A) (A) (A) (A) (A)
                 (A) (A) (A) (A) (A) (A) (A) (A) (A) (A) (A) (A)
                 (A) (A) (A) (A) (A) (A) (A) (A) (A) (A) (A) (A)
                 (A) (A) (A) (A) (A) (A) (A) (A) (A) (A) (A) (A)
                 (A) (A) (A) (A) (A) (A) (A) (A) (A) (A) (A) (A)
                 (A) (A) (A) (A) (A) (A) (A) (A) (A) (A) (A) (A)
                 (A) (A) (A) (A) (A) (A) (A) (A) (A) (A) (A) (A)
                 (A) (A) (A) (A) (A) (A) (A) (A) (A) (A) (A) (A)
                 (A) (A) (A) (A) (A) (A) (A) (A) (A) (A) (A) (A)
                 (A) (A) (A) (A) (A) (A) (A) (A) (A) (A) (A) (A)
                 (A) (A) (A) (A) (A) (A) (A) (A) (A) (A) (A) (A)
                 (A) (A) (A) (A) (A) (A) (A) (A) (A) (A) (A) (A)
                 (A) (A) (A) (A) (A) (A) (A) (A) (A) (A) (A) (A)
                 (A) (A) (A) (A) (A) (A) (A) (A) (A) (A) (A) (A)
                 (A) (A) (A) (A) (A) (A) (A) (A) (A) (A) (A) (A)
                 (A) (A) (A) (A) (A) (A) (A) (A) (A) (A) (A) (A)
                 (A) (A) (A) (A) (A) (A) (A) (A) (A) (A) (A) (A)
                 (A) (A) (A) (A) (A) (A) (A) (A) (A) (A) (A) (A)
                 (A) (A) (A) (A) (A) (A) (A) (A) (A) (A) (A) (A)
                 (A) (A) (A) (A) (A) (A) (A) (A) (A) (A) (A) (A)
                 (A) (A) (A) (A) (A) (A) (A) (A) (A) (A) (A) (A)
                 (A) (A) (A) (A) (A) (A) (A) (A) (A) (A) (A) (A)
                 (A) (A) (A) (A) (A) (A) (A) (A) (A) (A) (A) (A)
                 (A) (A) (A) (A) (A) (A) (A) (A) (A) (A) (A) (A)
                 (A) (A) (A) (A) (A) (A) (A) (A) (A) (A) (A) (A)
                 (A) (A) (A) (A) (A) (A) (A) (A) (A) (A) (A) (A)
                 (A) (A) (A) (A) (A) (A) (A) (A) (A) (A) (A) (A)
                 (A) (A) (A) (A) (A) (A) (A) (A) (A) (A) (A) (A)
                 (A) (A) (A) (A) (A) (A) (A) (A) (A) (A) (A) (A)
                 (A) (A) (A) (A) (A) (A) (A) (A) (A) (A) (A) (A)
                 (A) (A) (A) (A) (A) (A) (A) (A) (A) (A) (A) (A)
                 (A) (A) (A) (A) (A) (A) (A) (A) (A) (A) (A) (A)
                 (A) (A) (A) (A) (A) (A) (A) (A) (A) (A) (A) (A)
 The electronic state is 1-A.
 Alpha  occ. eigenvalues --  -19.63349 -19.63008 -19.62744 -10.63222 -10.58482
 Alpha  occ. eigenvalues --  -10.57567 -10.57308 -10.57210 -10.52424 -10.52363
 Alpha  occ. eigenvalues --  -10.52317 -10.52261 -10.52105  -1.20252  -1.16781
 Alpha  occ. eigenvalues --   -1.13902  -0.90453  -0.89368  -0.86925  -0.84096
 Alpha  occ. eigenvalues --   -0.75068  -0.73895  -0.72575  -0.69664  -0.65846
 Alpha  occ. eigenvalues --   -0.64673  -0.60011  -0.57672  -0.57231  -0.55569
 Alpha  occ. eigenvalues --   -0.54334  -0.52684  -0.51640  -0.51022  -0.50010
 Alpha  occ. eigenvalues --   -0.48430  -0.47215  -0.45513  -0.45199  -0.43917
 Alpha  occ. eigenvalues --   -0.42159  -0.42100  -0.40253  -0.39709  -0.39551
 Alpha  occ. eigenvalues --   -0.38788  -0.37335  -0.37172  -0.34053  -0.32564
 Alpha  occ. eigenvalues --   -0.31873
 Alpha virt. eigenvalues --    0.00449   0.01268   0.01339   0.01588   0.02582
 Alpha virt. eigenvalues --    0.02917   0.02981   0.04005   0.04148   0.04767
 Alpha virt. eigenvalues --    0.04920   0.05169   0.05960   0.06270   0.07529
 Alpha virt. eigenvalues --    0.07707   0.07817   0.08708   0.09323   0.09947
 Alpha virt. eigenvalues --    0.10824   0.11269   0.11656   0.12194   0.12323
 Alpha virt. eigenvalues --    0.12661   0.12962   0.13420   0.13633   0.13881
 Alpha virt. eigenvalues --    0.14083   0.14421   0.14507   0.15073   0.15249
 Alpha virt. eigenvalues --    0.15511   0.15577   0.16118   0.16556   0.16876
 Alpha virt. eigenvalues --    0.17123   0.17367   0.17763   0.18015   0.18198
 Alpha virt. eigenvalues --    0.18445   0.18853   0.19072   0.19418   0.19784
 Alpha virt. eigenvalues --    0.20159   0.20346   0.20776   0.21093   0.21787
 Alpha virt. eigenvalues --    0.22119   0.22734   0.23847   0.24046   0.24555
 Alpha virt. eigenvalues --    0.25687   0.26605   0.26803   0.26940   0.27426
 Alpha virt. eigenvalues --    0.27799   0.28621   0.28696   0.29557   0.29974
 Alpha virt. eigenvalues --    0.30209   0.31142   0.31735   0.32026   0.32236
 Alpha virt. eigenvalues --    0.32847   0.33356   0.33925   0.34378   0.34835
 Alpha virt. eigenvalues --    0.35077   0.35573   0.35742   0.36010   0.36477
 Alpha virt. eigenvalues --    0.36587   0.37071   0.37489   0.37803   0.38016
 Alpha virt. eigenvalues --    0.38930   0.39364   0.39683   0.41097   0.41341
 Alpha virt. eigenvalues --    0.41998   0.42449   0.43404   0.44695   0.45384
 Alpha virt. eigenvalues --    0.46277   0.47652   0.49741   0.50694   0.50883
 Alpha virt. eigenvalues --    0.52305   0.52747   0.53824   0.54528   0.55494
 Alpha virt. eigenvalues --    0.56568   0.57974   0.58311   0.58996   0.59665
 Alpha virt. eigenvalues --    0.60543   0.61016   0.61308   0.61869   0.62132
 Alpha virt. eigenvalues --    0.62909   0.63017   0.63651   0.63868   0.64328
 Alpha virt. eigenvalues --    0.65020   0.65919   0.66187   0.66875   0.67370
 Alpha virt. eigenvalues --    0.68138   0.68426   0.69570   0.70624   0.71086
 Alpha virt. eigenvalues --    0.72005   0.72551   0.73343   0.73527   0.73729
 Alpha virt. eigenvalues --    0.74558   0.74882   0.75270   0.75759   0.75994
 Alpha virt. eigenvalues --    0.76353   0.77448   0.78222   0.79010   0.79873
 Alpha virt. eigenvalues --    0.80674   0.81944   0.84407   0.85182   0.86548
 Alpha virt. eigenvalues --    0.87351   0.88298   0.89014   0.89519   0.90723
 Alpha virt. eigenvalues --    0.90874   0.91693   0.93258   0.94091   0.94964
 Alpha virt. eigenvalues --    0.96498   0.98086   0.99993   1.00980   1.03373
 Alpha virt. eigenvalues --    1.03748   1.04460   1.05096   1.06624   1.07370
 Alpha virt. eigenvalues --    1.08313   1.09239   1.10164   1.11202   1.12169
 Alpha virt. eigenvalues --    1.12562   1.13342   1.13916   1.15344   1.16523
 Alpha virt. eigenvalues --    1.17784   1.18051   1.19172   1.19946   1.20351
 Alpha virt. eigenvalues --    1.21231   1.21852   1.23144   1.23601   1.24228
 Alpha virt. eigenvalues --    1.25046   1.25663   1.25931   1.27187   1.28172
 Alpha virt. eigenvalues --    1.28900   1.29708   1.30029   1.30259   1.31052
 Alpha virt. eigenvalues --    1.31633   1.33080   1.33618   1.34216   1.34491
 Alpha virt. eigenvalues --    1.35025   1.36569   1.37050   1.37956   1.38151
 Alpha virt. eigenvalues --    1.38641   1.39834   1.40895   1.41303   1.41432
 Alpha virt. eigenvalues --    1.42768   1.43478   1.44477   1.45401   1.46112
 Alpha virt. eigenvalues --    1.46602   1.46819   1.46957   1.48043   1.49556
 Alpha virt. eigenvalues --    1.49792   1.50119   1.51255   1.51885   1.52805
 Alpha virt. eigenvalues --    1.53382   1.53721   1.54763   1.55678   1.56132
 Alpha virt. eigenvalues --    1.56421   1.57295   1.58025   1.58994   1.59421
 Alpha virt. eigenvalues --    1.59711   1.60376   1.61337   1.62192   1.63549
 Alpha virt. eigenvalues --    1.63975   1.64456   1.65311   1.65756   1.67202
 Alpha virt. eigenvalues --    1.67853   1.69022   1.69787   1.70637   1.72610
 Alpha virt. eigenvalues --    1.73351   1.74955   1.76683   1.77721   1.78226
 Alpha virt. eigenvalues --    1.79861   1.80702   1.81516   1.82451   1.83514
 Alpha virt. eigenvalues --    1.86379   1.88843   1.89985   1.96407   1.98323
 Alpha virt. eigenvalues --    1.98732   2.06470   2.13238   2.16859   2.20128
 Alpha virt. eigenvalues --    2.23347   2.25568   2.32346   2.35727   2.37933
 Alpha virt. eigenvalues --    2.43529   2.45282   2.47078   2.50745   2.53127
 Alpha virt. eigenvalues --    2.59981   2.76253   2.76965   2.78718   2.81594
 Alpha virt. eigenvalues --    2.88484   2.89443   2.92097   2.93837   2.95602
 Alpha virt. eigenvalues --    2.96706   2.98672   3.01285   3.03148   3.04268
 Alpha virt. eigenvalues --    3.07720   3.07947   3.09305   3.10944   3.12085
 Alpha virt. eigenvalues --    3.13328   3.14326   3.18816   3.19392   3.21569
 Alpha virt. eigenvalues --    3.25946   3.26783   3.32313   3.34809   3.35254
 Alpha virt. eigenvalues --    3.36730   3.38092   3.39211   3.40676   3.41796
 Alpha virt. eigenvalues --    3.43293   3.44804   3.45074   3.45957   3.47328
 Alpha virt. eigenvalues --    3.48123   3.48731   3.49388   3.51202   3.53308
 Alpha virt. eigenvalues --    3.53966   3.54115   3.55035   3.55400   3.56537
 Alpha virt. eigenvalues --    3.57702   3.58393   3.58831   3.60212   3.60315
 Alpha virt. eigenvalues --    3.61883   3.62515   3.63067   3.64581   3.65288
 Alpha virt. eigenvalues --    3.66478   3.67824   3.68258   3.69417   3.70525
 Alpha virt. eigenvalues --    3.71099   3.71479   3.72242   3.74219   3.74484
 Alpha virt. eigenvalues --    3.75439   3.75821   3.76846   3.77711   3.78892
 Alpha virt. eigenvalues --    3.79660   3.80284   3.81369   3.83570   3.84002
 Alpha virt. eigenvalues --    3.85547   3.88771   3.88909   3.90511   3.90844
 Alpha virt. eigenvalues --    3.93078   3.94579   3.94857   3.95963   3.99669
 Alpha virt. eigenvalues --    4.00684   4.02470   4.03589   4.04384   4.04776
 Alpha virt. eigenvalues --    4.05840   4.06118   4.07008   4.07320   4.08094
 Alpha virt. eigenvalues --    4.08765   4.09620   4.11331   4.12043   4.12492
 Alpha virt. eigenvalues --    4.13179   4.13890   4.14258   4.15182   4.15567
 Alpha virt. eigenvalues --    4.16892   4.18172   4.19050   4.20786   4.21440
 Alpha virt. eigenvalues --    4.22760   4.24041   4.24915   4.27397   4.28178
 Alpha virt. eigenvalues --    4.29088   4.30664   4.31965   4.32291   4.33539
 Alpha virt. eigenvalues --    4.34020   4.34917   4.35848   4.38055   4.38372
 Alpha virt. eigenvalues --    4.42937   4.44200   4.45318   4.45847   4.55501
 Alpha virt. eigenvalues --    4.59465   4.62277   4.77105   4.78342   4.83231
 Alpha virt. eigenvalues --    4.89150   4.92809   4.93374   4.98873   5.00546
 Alpha virt. eigenvalues --    5.06864   5.07481   5.08322   5.09396   5.12567
 Alpha virt. eigenvalues --    5.13075   5.14266   5.15297   5.31215   5.36732
 Alpha virt. eigenvalues --    5.37852   5.55844   5.59261   5.62973   5.86346
 Alpha virt. eigenvalues --    5.90725   6.02427   7.01821   7.04885   7.05683
 Alpha virt. eigenvalues --    7.09238   7.10339   7.12603   7.14522   7.17833
 Alpha virt. eigenvalues --    7.25647   7.36732   7.41332   7.46271   7.52956
 Alpha virt. eigenvalues --    7.56283   7.60626  23.95661  23.97925  24.07122
 Alpha virt. eigenvalues --   24.09067  24.11708  24.12541  24.14751  24.15668
 Alpha virt. eigenvalues --   24.17271  24.18442  50.18752  50.19207  50.25752
          Condensed to atoms (all electrons):
               1          2          3          4          5          6
     1  C    5.656413  -0.010436  -0.005993  -0.000005   0.026820  -0.033647
     2  C   -0.010436   6.015828   0.012384   0.169996  -0.041500   0.033376
     3  C   -0.005993   0.012384   5.619637  -0.031573  -0.005201   0.006955
     4  O   -0.000005   0.169996  -0.031573   8.437385  -0.000668  -0.001786
     5  O    0.026820  -0.041500  -0.005201  -0.000668   8.413204   0.014708
     6  C   -0.033647   0.033376   0.006955  -0.001786   0.014708   5.489743
     7  O    0.036469   0.101827  -0.003013   0.005700   0.012948  -0.012003
     8  C   -0.006449   0.008937  -0.003087   0.000446  -0.046074  -0.034034
     9  C   -0.009066   0.487990  -0.177918  -0.028713   0.020452  -0.009117
    10  C    0.013628   0.146660  -0.055855   0.003091   0.281633  -0.002354
    11  C    0.001263  -0.210884   0.060557   0.060751   0.004332  -0.005665
    12  C   -0.042080  -0.799536   0.171261  -0.010164  -0.055352  -0.001935
    13  C   -0.021074  -0.231959  -0.008737   0.003299  -0.048840  -0.142409
    14  H    0.428038  -0.001602  -0.000204   0.000013  -0.002625   0.003555
    15  H    0.524372  -0.002263   0.000169   0.000019  -0.000213  -0.007802
    16  H    0.011272   0.311979   0.027135  -0.045332  -0.004016   0.005722
    17  H   -0.002020   0.469945   0.010160  -0.069444   0.005076   0.016211
    18  H   -0.000116   0.001749   0.503567  -0.004868   0.000002  -0.000031
    19  H   -0.000190   0.002888   0.421104   0.007213   0.000062   0.000211
    20  H   -0.003054   0.001629  -0.000366   0.000423  -0.031334   0.477533
    21  H    0.005084   0.002240   0.000296   0.000228  -0.069755   0.426725
    22  H   -0.006857  -0.002406   0.000008  -0.000018  -0.003571  -0.069659
    23  H   -0.058197   0.002453   0.000006  -0.000014   0.007477  -0.037527
    24  H    0.001089  -0.048748  -0.048355   0.001023   0.000145  -0.001964
    25  H   -0.000004   0.011210  -0.015469  -0.002532   0.000425  -0.000188
    26  H   -0.062768   0.018286   0.000986   0.001008  -0.065581   0.011525
    27  H   -0.000020   0.008195  -0.049598  -0.069272   0.000271  -0.000214
    28  H   -0.000460  -0.027739  -0.042161  -0.033056  -0.000389   0.000170
    29  H   -0.001570  -0.083814   0.012323   0.003094  -0.011718  -0.003047
    30  H   -0.014802  -0.000700  -0.001181   0.000304  -0.007969  -0.003684
    31  H   -0.032796   0.005039   0.000862  -0.000088   0.005173   0.001298
               7          8          9         10         11         12
     1  C    0.036469  -0.006449  -0.009066   0.013628   0.001263  -0.042080
     2  C    0.101827   0.008937   0.487990   0.146660  -0.210884  -0.799536
     3  C   -0.003013  -0.003087  -0.177918  -0.055855   0.060557   0.171261
     4  O    0.005700   0.000446  -0.028713   0.003091   0.060751  -0.010164
     5  O    0.012948  -0.046074   0.020452   0.281633   0.004332  -0.055352
     6  C   -0.012003  -0.034034  -0.009117  -0.002354  -0.005665  -0.001935
     7  O    8.575487   0.016833  -0.160257   0.167089   0.000024   0.061130
     8  C    0.016833   5.673491   0.014959   0.039738   0.000621  -0.039873
     9  C   -0.160257   0.014959   6.623014   0.110788  -0.136279  -1.162816
    10  C    0.167089   0.039738   0.110788   6.758151   0.035789  -0.520040
    11  C    0.000024   0.000621  -0.136279   0.035789   5.410150   0.134321
    12  C    0.061130  -0.039873  -1.162816  -0.520040   0.134321   7.532461
    13  C   -0.285088   0.010010  -0.017501  -1.342089   0.018678   0.185966
    14  H   -0.002697  -0.022712  -0.000248   0.030383   0.000271  -0.003107
    15  H    0.000463  -0.071151  -0.000469  -0.031260  -0.000291   0.006068
    16  H   -0.013904  -0.011722  -0.163088  -0.022189   0.009035   0.165596
    17  H    0.001096  -0.008133   0.011007  -0.011864   0.000941  -0.040228
    18  H    0.001283   0.000052  -0.024158  -0.005696  -0.082813  -0.015836
    19  H   -0.003697   0.000003  -0.020845  -0.001409  -0.035873  -0.003413
    20  H    0.004046  -0.054609   0.004035  -0.039849  -0.000633  -0.004990
    21  H   -0.001766  -0.031138   0.000075   0.009490  -0.000051  -0.000278
    22  H    0.002545   0.471653  -0.000745  -0.021655   0.000002   0.006024
    23  H   -0.000045   0.458907   0.000162   0.018554  -0.000061  -0.002933
    24  H    0.000066  -0.000039   0.437333  -0.023678  -0.007515   0.062191
    25  H   -0.006085   0.000033   0.440295   0.011767   0.007177  -0.055944
    26  H   -0.019120   0.030458   0.009354   0.474726  -0.008761   0.026085
    27  H   -0.000027   0.000024   0.008046   0.001027   0.434446   0.007507
    28  H    0.000849  -0.000085  -0.013585  -0.002234   0.471002   0.021663
    29  H   -0.059696  -0.000215  -0.094237  -0.016763   0.006958   0.545298
    30  H    0.000492  -0.014006   0.000740  -0.105759   0.000196   0.001717
    31  H   -0.001111   0.004152   0.007817  -0.004361  -0.001093  -0.007872
              13         14         15         16         17         18
     1  C   -0.021074   0.428038   0.524372   0.011272  -0.002020  -0.000116
     2  C   -0.231959  -0.001602  -0.002263   0.311979   0.469945   0.001749
     3  C   -0.008737  -0.000204   0.000169   0.027135   0.010160   0.503567
     4  O    0.003299   0.000013   0.000019  -0.045332  -0.069444  -0.004868
     5  O   -0.048840  -0.002625  -0.000213  -0.004016   0.005076   0.000002
     6  C   -0.142409   0.003555  -0.007802   0.005722   0.016211  -0.000031
     7  O   -0.285088  -0.002697   0.000463  -0.013904   0.001096   0.001283
     8  C    0.010010  -0.022712  -0.071151  -0.011722  -0.008133   0.000052
     9  C   -0.017501  -0.000248  -0.000469  -0.163088   0.011007  -0.024158
    10  C   -1.342089   0.030383  -0.031260  -0.022189  -0.011864  -0.005696
    11  C    0.018678   0.000271  -0.000291   0.009035   0.000941  -0.082813
    12  C    0.185966  -0.003107   0.006068   0.165596  -0.040228  -0.015836
    13  C    7.457268  -0.058052  -0.029076   0.038729  -0.032674   0.000736
    14  H   -0.058052   0.457077  -0.001082   0.000560  -0.000209  -0.000002
    15  H   -0.029076  -0.001082   0.454672   0.002785  -0.000417   0.000002
    16  H    0.038729   0.000560   0.002785   0.516500  -0.026338  -0.001119
    17  H   -0.032674  -0.000209  -0.000417  -0.026338   0.458418  -0.001033
    18  H    0.000736  -0.000002   0.000002  -0.001119  -0.001033   0.469005
    19  H   -0.001209  -0.000020   0.000011  -0.001450   0.001523  -0.010965
    20  H    0.020100  -0.001414   0.000497  -0.004283   0.000861   0.000022
    21  H    0.001401   0.000239  -0.001773   0.001419  -0.003753  -0.000004
    22  H   -0.000111  -0.000663   0.003336   0.000441  -0.000455  -0.000006
    23  H   -0.012648  -0.008971  -0.006704  -0.000575   0.000508   0.000000
    24  H    0.009752   0.000118   0.000423   0.005855  -0.002996   0.003289
    25  H   -0.008269  -0.000055  -0.000003  -0.004417   0.000230  -0.009025
    26  H   -0.100837  -0.003693  -0.014416  -0.035531   0.005359   0.000732
    27  H    0.000911   0.000007  -0.000006  -0.000662   0.001710  -0.001969
    28  H   -0.000335  -0.000020  -0.000020  -0.002377  -0.001968   0.001810
    29  H    0.009206  -0.000008   0.000099   0.006773  -0.008398   0.000140
    30  H    0.505371  -0.003684   0.005964   0.001290  -0.000616  -0.000026
    31  H    0.403397  -0.011503  -0.006865  -0.000618  -0.000114  -0.000035
              19         20         21         22         23         24
     1  C   -0.000190  -0.003054   0.005084  -0.006857  -0.058197   0.001089
     2  C    0.002888   0.001629   0.002240  -0.002406   0.002453  -0.048748
     3  C    0.421104  -0.000366   0.000296   0.000008   0.000006  -0.048355
     4  O    0.007213   0.000423   0.000228  -0.000018  -0.000014   0.001023
     5  O    0.000062  -0.031334  -0.069755  -0.003571   0.007477   0.000145
     6  C    0.000211   0.477533   0.426725  -0.069659  -0.037527  -0.001964
     7  O   -0.003697   0.004046  -0.001766   0.002545  -0.000045   0.000066
     8  C    0.000003  -0.054609  -0.031138   0.471653   0.458907  -0.000039
     9  C   -0.020845   0.004035   0.000075  -0.000745   0.000162   0.437333
    10  C   -0.001409  -0.039849   0.009490  -0.021655   0.018554  -0.023678
    11  C   -0.035873  -0.000633  -0.000051   0.000002  -0.000061  -0.007515
    12  C   -0.003413  -0.004990  -0.000278   0.006024  -0.002933   0.062191
    13  C   -0.001209   0.020100   0.001401  -0.000111  -0.012648   0.009752
    14  H   -0.000020  -0.001414   0.000239  -0.000663  -0.008971   0.000118
    15  H    0.000011   0.000497  -0.001773   0.003336  -0.006704   0.000423
    16  H   -0.001450  -0.004283   0.001419   0.000441  -0.000575   0.005855
    17  H    0.001523   0.000861  -0.003753  -0.000455   0.000508  -0.002996
    18  H   -0.010965   0.000022  -0.000004  -0.000006   0.000000   0.003289
    19  H    0.493125  -0.000014   0.000004   0.000006   0.000001  -0.006002
    20  H   -0.000014   0.473801  -0.006097   0.002427   0.001444   0.000332
    21  H    0.000004  -0.006097   0.477659  -0.002619  -0.010404  -0.000073
    22  H    0.000006   0.002427  -0.002619   0.470088  -0.010959   0.000122
    23  H    0.000001   0.001444  -0.010404  -0.010959   0.474601  -0.000139
    24  H   -0.006002   0.000332  -0.000073   0.000122  -0.000139   0.457534
    25  H   -0.007708   0.000069  -0.000013   0.000025   0.000003  -0.019537
    26  H   -0.000309  -0.002607  -0.000493  -0.002703   0.002916  -0.006332
    27  H   -0.009812  -0.000040  -0.000009   0.000005  -0.000005  -0.001073
    28  H    0.003785   0.000101   0.000039  -0.000021   0.000011  -0.002946
    29  H   -0.002175  -0.000401   0.000670  -0.000089  -0.000033   0.007160
    30  H    0.000007   0.000677  -0.000643   0.002643  -0.003241   0.000459
    31  H    0.000261  -0.000691   0.001432  -0.001943   0.001908  -0.001625
              25         26         27         28         29         30
     1  C   -0.000004  -0.062768  -0.000020  -0.000460  -0.001570  -0.014802
     2  C    0.011210   0.018286   0.008195  -0.027739  -0.083814  -0.000700
     3  C   -0.015469   0.000986  -0.049598  -0.042161   0.012323  -0.001181
     4  O   -0.002532   0.001008  -0.069272  -0.033056   0.003094   0.000304
     5  O    0.000425  -0.065581   0.000271  -0.000389  -0.011718  -0.007969
     6  C   -0.000188   0.011525  -0.000214   0.000170  -0.003047  -0.003684
     7  O   -0.006085  -0.019120  -0.000027   0.000849  -0.059696   0.000492
     8  C    0.000033   0.030458   0.000024  -0.000085  -0.000215  -0.014006
     9  C    0.440295   0.009354   0.008046  -0.013585  -0.094237   0.000740
    10  C    0.011767   0.474726   0.001027  -0.002234  -0.016763  -0.105759
    11  C    0.007177  -0.008761   0.434446   0.471002   0.006958   0.000196
    12  C   -0.055944   0.026085   0.007507   0.021663   0.545298   0.001717
    13  C   -0.008269  -0.100837   0.000911  -0.000335   0.009206   0.505371
    14  H   -0.000055  -0.003693   0.000007  -0.000020  -0.000008  -0.003684
    15  H   -0.000003  -0.014416  -0.000006  -0.000020   0.000099   0.005964
    16  H   -0.004417  -0.035531  -0.000662  -0.002377   0.006773   0.001290
    17  H    0.000230   0.005359   0.001710  -0.001968  -0.008398  -0.000616
    18  H   -0.009025   0.000732  -0.001969   0.001810   0.000140  -0.000026
    19  H   -0.007708  -0.000309  -0.009812   0.003785  -0.002175   0.000007
    20  H    0.000069  -0.002607  -0.000040   0.000101  -0.000401   0.000677
    21  H   -0.000013  -0.000493  -0.000009   0.000039   0.000670  -0.000643
    22  H    0.000025  -0.002703   0.000005  -0.000021  -0.000089   0.002643
    23  H    0.000003   0.002916  -0.000005   0.000011  -0.000033  -0.003241
    24  H   -0.019537  -0.006332  -0.001073  -0.002946   0.007160   0.000459
    25  H    0.472921   0.001311   0.000946  -0.001024  -0.005506   0.000239
    26  H    0.001311   0.454299   0.000025   0.001981   0.000904  -0.007774
    27  H    0.000946   0.000025   0.458202  -0.003777  -0.001947   0.000008
    28  H   -0.001024   0.001981  -0.003777   0.478776   0.001955  -0.000017
    29  H   -0.005506   0.000904  -0.001947   0.001955   0.428171   0.000016
    30  H    0.000239  -0.007774   0.000008  -0.000017   0.000016   0.459921
    31  H   -0.000007   0.005913  -0.000066   0.000127   0.000698  -0.019730
              31
     1  C   -0.032796
     2  C    0.005039
     3  C    0.000862
     4  O   -0.000088
     5  O    0.005173
     6  C    0.001298
     7  O   -0.001111
     8  C    0.004152
     9  C    0.007817
    10  C   -0.004361
    11  C   -0.001093
    12  C   -0.007872
    13  C    0.403397
    14  H   -0.011503
    15  H   -0.006865
    16  H   -0.000618
    17  H   -0.000114
    18  H   -0.000035
    19  H    0.000261
    20  H   -0.000691
    21  H    0.001432
    22  H   -0.001943
    23  H    0.001908
    24  H   -0.001625
    25  H   -0.000007
    26  H    0.005913
    27  H   -0.000066
    28  H    0.000127
    29  H    0.000698
    30  H   -0.019730
    31  H    0.480010
 Mulliken charges:
               1
     1  C   -0.392844
     2  C   -0.351024
     3  C   -0.398700
     4  O   -0.396458
     5  O   -0.397920
     6  C   -0.120666
     7  O   -0.419836
     8  C   -0.386988
     9  C   -0.157025
    10  C    0.104541
    11  C   -0.166593
    12  C   -0.160893
    13  C   -0.323914
    14  H    0.202311
    15  H    0.174931
    16  H    0.232534
    17  H    0.227618
    18  H    0.175313
    19  H    0.174887
    20  H    0.162385
    21  H    0.201869
    22  H    0.165156
    23  H    0.183504
    24  H    0.184134
    25  H    0.189134
    26  H    0.285056
    27  H    0.217166
    28  H    0.149950
    29  H    0.266153
    30  H    0.203788
    31  H    0.172432
 Sum of Mulliken charges =  -0.00000
 Mulliken charges with hydrogens summed into heavy atoms:
               1
     1  C   -0.015602
     2  C    0.109127
     3  C   -0.048500
     4  O   -0.396458
     5  O   -0.397920
     6  C    0.243589
     7  O   -0.419836
     8  C   -0.038328
     9  C    0.216243
    10  C    0.389597
    11  C    0.200522
    12  C    0.105260
    13  C    0.052305
 Electronic spatial extent (au):  <R**2>=           3224.7252
 Charge=             -0.0000 electrons
 Dipole moment (field-independent basis, Debye):
    X=              1.1115    Y=             -1.2286    Z=              3.9192  Tot=              4.2550
 Quadrupole moment (field-independent basis, Debye-Ang):
   XX=            -67.8702   YY=            -83.2041   ZZ=            -80.5725
   XY=              7.5329   XZ=              0.3153   YZ=              0.5892
 Traceless Quadrupole moment (field-independent basis, Debye-Ang):
   XX=              9.3454   YY=             -5.9885   ZZ=             -3.3569
   XY=              7.5329   XZ=              0.3153   YZ=              0.5892
 Octapole moment (field-independent basis, Debye-Ang**2):
  XXX=              2.7492  YYY=              1.1041  ZZZ=              0.8812  XYY=             16.4903
  XXY=            -13.3034  XXZ=             13.7674  XZZ=             -6.1853  YZZ=              1.8282
  YYZ=              1.5130  XYZ=             -1.4653
 Hexadecapole moment (field-independent basis, Debye-Ang**3):
 XXXX=          -3201.0513 YYYY=           -641.5272 ZZZZ=           -241.5515 XXXY=             53.2852
 XXXZ=            -37.9054 YYYX=             32.4414 YYYZ=             -5.7685 ZZZX=             -0.7816
 ZZZY=              2.4511 XXYY=           -684.2373 XXZZ=           -603.7206 YYZZ=           -146.7554
 XXYZ=             13.2319 YYXZ=             -4.4673 ZZXY=              0.5781
 N-N= 8.856529353542D+02 E-N=-3.213316336267D+03  KE= 6.153543876801D+02
 D1PCM: PCM CHGder 1st derivatives, ID1Alg=3 FixD1E=F DoIter=F DoCFld=F I1PDM=0.
 Calling FoFJK, ICntrl=      2127 FMM=F ISym2X=0 I1Cent= 0 IOpClX= 0 NMat=1 NMatS=1 NMatT=0.
 ***** Axes restored to original set *****
 -------------------------------------------------------------------
 Center     Atomic                   Forces (Hartrees/Bohr)
 Number     Number              X              Y              Z
 -------------------------------------------------------------------
      1        6           0.002091399   -0.002157975   -0.003028265
      2        6           0.000046874    0.007087767   -0.001574750
      3        6          -0.002479196   -0.000963054    0.001832655
      4        8           0.004245200   -0.010036890   -0.005868660
      5        8           0.004520765   -0.006695646   -0.011199468
      6        6          -0.004293119    0.004932584    0.001549969
      7        8          -0.002587016    0.007948448   -0.008906661
      8        6           0.002480683    0.000785146    0.002128552
      9        6           0.002138397   -0.004408553   -0.000094116
     10        6          -0.002887966    0.004905983    0.004223494
     11        6          -0.002158536    0.006726928   -0.001881023
     12        6           0.001300496   -0.000888371    0.006739646
     13        6          -0.000851495   -0.002289179    0.002733154
     14        1          -0.001912350    0.001798290   -0.000297306
     15        1           0.001246400   -0.000999361    0.002948812
     16        1          -0.002765014    0.001755420    0.006155230
     17        1          -0.003807011   -0.003412446   -0.003075746
     18        1           0.000822438   -0.000698830   -0.003176466
     19        1           0.001543785    0.001780485    0.001658421
     20        1           0.001014376   -0.000890003    0.005571825
     21        1          -0.001194204   -0.003761533   -0.002361021
     22        1          -0.000355116    0.000640258   -0.003272234
     23        1          -0.001924849   -0.001204029    0.001588303
     24        1          -0.001874817   -0.000539695    0.003638863
     25        1          -0.000468589    0.002465765   -0.001981836
     26        1           0.001858746   -0.002249923    0.008381741
     27        1           0.004173348   -0.001673030   -0.000515401
     28        1          -0.001800373    0.001055976    0.005344717
     29        1           0.002807051   -0.001309837   -0.005036678
     30        1          -0.000338399   -0.000026234   -0.003936304
     31        1           0.001408090    0.002321538    0.001710555
 -------------------------------------------------------------------
 Cartesian Forces:  Max     0.011199468 RMS     0.003644442

 GradGradGradGradGradGradGradGradGradGradGradGradGradGradGradGradGradGrad
 Berny optimization.
 FormGI is forming the generalized inverse of G from B-inverse, IUseBI=4.
 Internal  Forces:  Max     0.017869421 RMS     0.002426195
 Search for a local minimum.
 Step number   1 out of a maximum of  186
 All quantities printed in internal units (Hartrees-Bohrs-Radians)
 Mixed Optimization -- RFO/linear search
 Second derivative matrix not updated -- first step.
 ITU=  0
     Eigenvalues ---    0.00611   0.00641   0.00715   0.00753   0.01449
     Eigenvalues ---    0.01491   0.01862   0.02717   0.02742   0.03102
     Eigenvalues ---    0.03111   0.03901   0.04165   0.04624   0.04774
     Eigenvalues ---    0.04853   0.04928   0.05116   0.05153   0.05196
     Eigenvalues ---    0.05384   0.05656   0.05719   0.06037   0.06203
     Eigenvalues ---    0.06261   0.06327   0.06590   0.07699   0.07944
     Eigenvalues ---    0.07948   0.07968   0.07968   0.07980   0.08077
     Eigenvalues ---    0.08732   0.09439   0.09868   0.10680   0.11470
     Eigenvalues ---    0.11564   0.11689   0.11714   0.12322   0.12519
     Eigenvalues ---    0.14457   0.14785   0.16575   0.16689   0.17670
     Eigenvalues ---    0.19133   0.21388   0.21851   0.25000   0.28178
     Eigenvalues ---    0.28618   0.28765   0.28778   0.28962   0.29168
     Eigenvalues ---    0.30061   0.30479   0.35014   0.35029   0.35071
     Eigenvalues ---    0.35096   0.35125   0.35153   0.35177   0.35245
     Eigenvalues ---    0.35296   0.35357   0.35360   0.35380   0.35392
     Eigenvalues ---    0.35470   0.35557   0.35835   0.35878   0.36172
     Eigenvalues ---    0.41196   0.41401   0.41483   0.42080   0.42645
     Eigenvalues ---    0.478161000.000001000.000001000.000001000.00000
     Eigenvalues --- 1000.000001000.000001000.000001000.000001000.00000
     Eigenvalues --- 1000.000001000.000001000.000001000.000001000.00000
     Eigenvalues --- 1000.000001000.000001000.000001000.000001000.00000
     Eigenvalues --- 1000.000001000.000001000.000001000.000001000.00000
     Eigenvalues --- 1000.000001000.000001000.000001000.000001000.00000
     Eigenvalues --- 1000.000001000.000001000.000001000.000001000.00000
     Eigenvalues --- 1000.000001000.000001000.000001000.000001000.00000
     Eigenvalues --- 1000.000001000.000001000.000001000.000001000.00000
     Eigenvalues --- 1000.000001000.000001000.000001000.000001000.00000
     Eigenvalues --- 1000.000001000.000001000.000001000.000001000.00000
     Eigenvalues --- 1000.000001000.000001000.000001000.000001000.00000
     Eigenvalues --- 1000.000001000.000001000.000001000.000001000.00000
     Eigenvalues --- 1000.000001000.000001000.000001000.000001000.00000
     Eigenvalues --- 1000.000001000.000001000.000001000.000001000.00000
     Eigenvalues --- 1000.000001000.000001000.000001000.000001000.00000
     Eigenvalues --- 1000.000001000.000001000.000001000.000001000.00000
     Eigenvalues --- 1000.000001000.000001000.000001000.000001000.00000
     Eigenvalues --- 1000.000001000.000001000.000001000.000001000.00000
     Eigenvalues --- 1000.000001000.000001000.000001000.000001000.00000
 RFO step:  Lambda=-3.94536880D-03 EMin= 6.10541226D-03
 Linear search not attempted -- first point.
 Iteration  1 RMS(Cart)=  0.07629838 RMS(Int)=  0.00117170
 Iteration  2 RMS(Cart)=  0.00312862 RMS(Int)=  0.00003418
 Iteration  3 RMS(Cart)=  0.00000199 RMS(Int)=  0.00003416
 Iteration  4 RMS(Cart)=  0.00000000 RMS(Int)=  0.00003416
 Iteration  1 RMS(Cart)=  0.00000793 RMS(Int)=  0.00000178
 Iteration  2 RMS(Cart)=  0.00000440 RMS(Int)=  0.00000199
 Iteration  3 RMS(Cart)=  0.00000244 RMS(Int)=  0.00000225
 Iteration  4 RMS(Cart)=  0.00000136 RMS(Int)=  0.00000243
 Iteration  5 RMS(Cart)=  0.00000075 RMS(Int)=  0.00000254
 Variable       Old X    -DE/DX   Delta X   Delta X   Delta X     New X
                                 (Linear)    (Quad)   (Total)
    R1        2.88983  -0.00074   0.00000  -0.00350  -0.00352   2.88630
    R2        2.89320  -0.00108   0.00000  -0.00413  -0.00416   2.88904
    R3        2.05094   0.00263   0.00000   0.00736   0.00736   2.05830
    R4        2.05627   0.00325   0.00000   0.00918   0.00918   2.06545
    R5        2.66887   0.00640   0.00000   0.01480   0.01484   2.68371
    R6        2.89217  -0.00160   0.00000  -0.00525  -0.00524   2.88693
    R7        2.05043   0.00674   0.00000   0.01883   0.01883   2.06926
    R8        2.03814   0.00587   0.00000   0.01604   0.01604   2.05418
    R9        2.89121  -0.00110   0.00000  -0.00414  -0.00418   2.88702
   R10        2.87108  -0.00049   0.00000  -0.00158  -0.00158   2.86950
   R11        2.05427   0.00326   0.00000   0.00917   0.00917   2.06344
   R12        2.05197   0.00288   0.00000   0.00808   0.00808   2.06004
   R13        2.67673   0.00605   0.00000   0.01480   0.01482   2.69155
   R14        2.68084   0.00582   0.00000   0.01386   0.01389   2.69473
   R15        2.66151   0.00850   0.00000   0.01973   0.01976   2.68127
   R16        2.87260  -0.00062   0.00000  -0.00211  -0.00211   2.87049
   R17        2.05560   0.00565   0.00000   0.01593   0.01593   2.07153
   R18        2.04272   0.00460   0.00000   0.01267   0.01267   2.05539
   R19        2.62136   0.00472   0.00000   0.00978   0.00978   2.63114
   R20        2.69587   0.00284   0.00000   0.00677   0.00677   2.70264
   R21        2.05472   0.00326   0.00000   0.00918   0.00918   2.06390
   R22        2.05279   0.00276   0.00000   0.00775   0.00775   2.06055
   R23        2.88032  -0.00157   0.00000  -0.00635  -0.00637   2.87395
   R24        2.05652   0.00392   0.00000   0.01106   0.01106   2.06758
   R25        2.05100   0.00314   0.00000   0.00880   0.00880   2.05980
   R26        2.86798  -0.00145   0.00000  -0.00451  -0.00451   2.86347
   R27        2.04919   0.00884   0.00000   0.02466   0.02466   2.07385
   R28        2.04340   0.00452   0.00000   0.01246   0.01246   2.05586
   R29        2.05520   0.00565   0.00000   0.01592   0.01592   2.07112
   R30        2.04781   0.00575   0.00000   0.01600   0.01600   2.06381
   R31        2.05389   0.00375   0.00000   0.01053   0.01053   2.06442
   R32        2.05063   0.00318   0.00000   0.00889   0.00889   2.05952
    A1        1.92662   0.00217   0.00000  -0.00024  -0.00031   1.92630
    A2        1.93178  -0.00052   0.00000   0.00057   0.00060   1.93238
    A3        1.90867  -0.00083   0.00000  -0.00195  -0.00195   1.90672
    A4        1.91970  -0.00066   0.00000  -0.00064  -0.00061   1.91909
    A5        1.90928  -0.00085   0.00000  -0.00229  -0.00227   1.90700
    A6        1.86674   0.00061   0.00000   0.00463   0.00462   1.87136
    A7        1.89658   0.00094   0.00000   0.00700   0.00707   1.90364
    A8        1.90263   0.00141   0.00000   0.00922   0.00926   1.91189
    A9        1.85912  -0.00028   0.00000   0.00655   0.00654   1.86565
   A10        1.95245  -0.00202   0.00000  -0.01522  -0.01528   1.93717
   A11        1.94768  -0.00065   0.00000  -0.00739  -0.00747   1.94021
   A12        1.90259   0.00074   0.00000   0.00136   0.00121   1.90380
   A13        1.92500  -0.00079   0.00000  -0.00573  -0.00580   1.91920
   A14        1.91795   0.00070   0.00000   0.00178   0.00179   1.91974
   A15        1.92988  -0.00030   0.00000  -0.00050  -0.00048   1.92940
   A16        1.90308   0.00001   0.00000  -0.00088  -0.00086   1.90221
   A17        1.91201   0.00030   0.00000   0.00071   0.00072   1.91273
   A18        1.87509   0.00011   0.00000   0.00489   0.00488   1.87997
   A19        1.98453  -0.00483   0.00000  -0.02755  -0.02745   1.95709
   A20        1.98144  -0.00505   0.00000  -0.02674  -0.02666   1.95477
   A21        1.93424   0.00094   0.00000   0.00359   0.00362   1.93786
   A22        1.90376   0.00073   0.00000   0.00419   0.00419   1.90796
   A23        1.85185  -0.00073   0.00000  -0.00034  -0.00035   1.85150
   A24        1.93123  -0.00128   0.00000  -0.00737  -0.00739   1.92383
   A25        1.95062  -0.00010   0.00000  -0.00216  -0.00216   1.94846
   A26        1.88967   0.00050   0.00000   0.00256   0.00254   1.89221
   A27        2.14629  -0.01787   0.00000  -0.07037  -0.07037   2.07592
   A28        1.92187   0.00009   0.00000  -0.00337  -0.00344   1.91843
   A29        1.91898   0.00057   0.00000   0.00211   0.00213   1.92111
   A30        1.93582  -0.00063   0.00000  -0.00127  -0.00127   1.93455
   A31        1.90325  -0.00038   0.00000  -0.00178  -0.00177   1.90149
   A32        1.90664   0.00009   0.00000  -0.00043  -0.00041   1.90623
   A33        1.87646   0.00027   0.00000   0.00491   0.00490   1.88135
   A34        1.92621   0.00181   0.00000  -0.00379  -0.00386   1.92235
   A35        1.91876  -0.00058   0.00000   0.00165   0.00161   1.92037
   A36        1.93297   0.00004   0.00000   0.00520   0.00522   1.93820
   A37        1.89755  -0.00114   0.00000  -0.00776  -0.00775   1.88980
   A38        1.91112  -0.00085   0.00000  -0.00234  -0.00232   1.90880
   A39        1.87624   0.00066   0.00000   0.00706   0.00702   1.88326
   A40        1.88658  -0.00151   0.00000  -0.00660  -0.00661   1.87998
   A41        1.92718   0.00159   0.00000   0.00895   0.00895   1.93614
   A42        1.89526  -0.00009   0.00000  -0.00339  -0.00339   1.89187
   A43        1.89545   0.00009   0.00000   0.00084   0.00084   1.89629
   A44        1.93809   0.00047   0.00000   0.00289   0.00288   1.94097
   A45        1.92116  -0.00055   0.00000  -0.00260  -0.00259   1.91857
   A46        1.93125   0.00156   0.00000   0.00817   0.00820   1.93945
   A47        1.94723  -0.00032   0.00000  -0.00341  -0.00343   1.94380
   A48        1.93318  -0.00138   0.00000  -0.00825  -0.00826   1.92492
   A49        1.85516  -0.00099   0.00000  -0.00286  -0.00285   1.85231
   A50        1.90232   0.00053   0.00000   0.00387   0.00388   1.90620
   A51        1.89237   0.00063   0.00000   0.00283   0.00281   1.89518
   A52        2.02830  -0.00281   0.00000  -0.02316  -0.02314   2.00516
   A53        1.92400   0.00015   0.00000  -0.00224  -0.00233   1.92168
   A54        1.86580  -0.00002   0.00000   0.00281   0.00288   1.86867
   A55        1.90360   0.00095   0.00000   0.00399   0.00378   1.90738
   A56        1.83435   0.00127   0.00000   0.01716   0.01715   1.85150
   A57        1.90235   0.00066   0.00000   0.00369   0.00364   1.90599
   A58        1.92617  -0.00063   0.00000  -0.00693  -0.00697   1.91920
   A59        1.92487   0.00092   0.00000   0.00500   0.00497   1.92984
   A60        1.93606  -0.00013   0.00000   0.00256   0.00255   1.93861
   A61        1.88909  -0.00057   0.00000  -0.00640  -0.00639   1.88270
   A62        1.90238   0.00018   0.00000  -0.00111  -0.00109   1.90129
   A63        1.88409   0.00023   0.00000   0.00690   0.00687   1.89096
    D1        0.89539  -0.00010   0.00000   0.01097   0.01096   0.90635
    D2       -1.20211  -0.00004   0.00000   0.01398   0.01397  -1.18814
    D3        3.00800  -0.00034   0.00000   0.00735   0.00734   3.01534
[...]
 ,0.00006554,-0.00101803,-0.00022980,0.00089452,-0.00051134,-0.01649021
 ,0.00785644,-0.00001257,0.00001324,0.00000063,0.00000036,-0.00000016,-
 0.00000006,0.00000072,0.00000020,0.00000096,-0.00001882,-0.00027866,0.
 00018651,0.00002466,-0.00079412,0.00043047,-0.00037839,-0.00022113,0.0
 0053825,0.00002904,0.00008067,-0.00015457,0.00000149,-0.00000094,-0.00
 000072,0.00000368,0.00000074,-0.00000239,0.00000050,-0.00000025,-0.000
 00003,-0.00000099,-0.00000045,-0.00000045,-0.00070884,0.02506147,-0.01
 359428,0.00305941,-0.12468403,0.11972617,0.00110213,0.00001208,-0.0010
 7739,-0.00149987,0.00129580,-0.00070024,0.00004160,0.00003859,-0.00006
 014,-0.00003009,-0.00009960,0.00027711,-0.00249554,-0.00636110,-0.0119
 2961,0.00151744,0.00057843,-0.00229774,-0.00025470,-0.01417561,0.03448
 052,-0.00017734,-0.00000212,0.00025507,0.00011287,-0.00013314,-0.00007
 796,-0.08103652,0.02610350,-0.07587215,0.00000116,-0.00000592,0.000053
 92,0.00320196,-0.00093523,0.00043117,-0.00705471,0.00852696,-0.0217602
 6,0.00012409,-0.00001176,0.00022333,-0.00003068,-0.00008291,0.00038386
 ,-0.00210194,0.00142556,0.00046730,0.00022082,-0.00001133,-0.00009489,
 0.00002063,0.00000163,0.00001035,-0.00000284,0.00000438,-0.00000005,0.
 00011563,0.00002302,0.00048084,-0.00001812,-0.00007182,0.00010549,0.00
 004153,-0.00001512,0.00000969,-0.00007138,-0.00003234,-0.00000480,-0.0
 0002874,-0.00009141,-0.00011104,0.00005032,0.00000880,-0.00000995,0.09
 086888,-0.00096253,0.00022589,0.00022130,0.00108039,-0.00044811,0.0002
 6887,-0.00002475,-0.00013130,-0.00014016,-0.00011088,0.00020176,-0.000
 29774,-0.01837930,-0.00775686,-0.03547637,0.00280889,0.00245230,-0.004
 26872,-0.00398365,-0.00363931,0.01861548,-0.00025204,-0.00023322,0.000
 40808,-0.00021390,0.00022082,0.00003811,0.02476897,-0.06636352,0.06236
 272,0.00003819,0.00001972,0.00006300,0.00167011,-0.00075042,-0.0008392
 4,0.00910313,-0.00467800,0.02021638,-0.00009402,-0.00001047,-0.0003021
 8,0.00007018,0.00029595,-0.00045327,0.00126794,0.00016114,-0.00023713,
 -0.00018778,-0.00001452,0.00010544,0.00000637,0.00000098,0.00001001,-0
 .00007340,0.00001896,-0.00000609,0.00067798,0.00007454,0.00111750,0.00
 011786,-0.00008887,0.00021605,0.00002758,-0.00006088,0.00005151,-0.000
 13481,0.00018857,0.00008684,-0.00006420,-0.00007139,-0.00006580,0.0000
 2620,-0.00001405,0.00002496,-0.01946839,0.08159233,-0.00024712,-0.0003
 1031,0.00048024,-0.00011283,0.00043445,-0.00137679,0.00008227,0.000182
 66,0.00001381,-0.00067106,-0.00005003,0.00072668,-0.01220046,-0.010650
 85,-0.02089200,0.00178241,0.00152004,0.00013759,0.00722444,0.01117434,
 -0.01992734,-0.00013046,-0.00039845,0.00011999,0.00066337,-0.00030280,
 -0.00006403,-0.06919434,0.05870340,-0.25072638,0.00015149,0.00018921,0
 .00008742,-0.00281421,0.00146736,0.00022909,0.00044192,0.00048852,0.00
 214556,-0.00007551,-0.00001659,0.00016504,-0.00029953,-0.00020993,0.00
 012653,-0.00112124,0.00049164,0.00179474,0.00009685,0.00001861,0.00007
 114,0.00002112,-0.00000148,0.00001129,0.00006929,-0.00003178,0.0000113
 9,-0.00066569,-0.00031757,0.00067042,-0.00011441,-0.00031426,0.0005523
 5,0.00001652,0.00010579,-0.00016098,-0.00013602,0.00006961,0.00002773,
 0.00003556,-0.00001261,-0.00007391,-0.00002945,-0.00001557,-0.00000261
 ,0.07632229,-0.06177152,0.28486978,-0.00000306,0.00001576,-0.00000918,
 0.00136204,-0.00358851,-0.00299682,0.00392761,-0.00039518,0.00065596,-
 0.02705873,0.00388208,-0.00291886,-0.00022347,0.00000711,0.00000321,0.
 00004283,0.00005016,-0.00004684,-0.00018665,0.00032495,-0.00001656,-0.
 00001012,-0.00001080,0.00001620,0.00099072,-0.00054182,0.00024183,0.00
 018300,0.00001637,-0.00004815,-0.26563666,0.10601130,0.01086782,-0.000
 05645,-0.00065581,0.00035708,-0.00001983,-0.00002427,0.00000206,-0.000
 00896,-0.00000123,0.00000479,0.00000041,-0.00000128,0.00000190,0.00014
 305,-0.00000732,0.00006132,-0.00112478,0.00053044,-0.00019219,0.000352
 59,0.00011245,-0.00031439,-0.00000145,0.00078084,-0.00028447,-0.000001
 18,-0.00000381,0.00000918,-0.00000797,-0.00000778,0.00000187,0.0000000
 5,-0.00000003,-0.00000206,-0.00000856,0.00000216,0.00000138,0.00001235
 ,-0.00003315,-0.00000155,0.00007930,-0.00015368,0.00008740,0.00000571,
 -0.00001263,-0.00002463,0.29443914,0.00000489,-0.00000737,0.00000019,-
 0.00192495,-0.00219948,-0.00258362,0.02820903,-0.01176054,-0.00215141,
 -0.02729766,0.00844893,-0.00124277,-0.00009166,0.00009589,-0.00001995,
 0.00001332,0.00003163,-0.00001030,0.00041276,0.00041050,-0.00007750,-0
 .00000640,-0.00000625,0.00000560,-0.00218321,-0.00523382,0.00335048,-0
 .00004625,-0.00013914,0.00011615,0.11517117,-0.10386565,-0.00487338,-0
 .00110674,-0.00082803,-0.00026089,0.00001280,0.00001512,-0.00002236,0.
 00000230,0.00000142,-0.00000124,0.00000023,0.00000009,0.00000015,0.000
 06865,-0.00004596,0.00008605,-0.00102655,0.00038989,-0.00017327,-0.000
 52443,0.00159495,-0.00010251,-0.00048816,0.00081714,-0.00052537,0.0000
 0082,-0.00000166,0.00000316,0.00000156,0.00000054,-0.00000134,0.000000
 72,-0.00000023,0.00000008,-0.00000231,0.00000226,0.00000078,-0.0002149
 5,0.00010797,-0.00016715,0.00204494,-0.00065324,0.00037985,0.00000546,
 0.00000715,-0.00003125,-0.11106561,0.11193401,-0.00000211,0.00001308,-
 0.00000775,-0.00058127,-0.00188569,-0.00173909,-0.01226937,0.00725089,
 0.00039949,-0.02386474,0.00539727,-0.00102811,-0.00016774,-0.00001191,
 0.00000225,0.00003038,0.00003583,-0.00003907,-0.00028033,0.00022672,0.
 00000825,-0.00000827,-0.00000843,0.00001272,0.00039366,0.00206422,-0.0
 0019795,0.00016533,0.00003583,-0.00008066,0.01935262,-0.00733769,-0.05
 319670,0.00021082,-0.00044850,0.00025926,-0.00002138,-0.00002177,0.000
 00895,-0.00000724,-0.00000136,0.00000390,-0.00000038,-0.00000078,0.000
 00212,-0.00030967,0.00015973,0.00041807,-0.00076080,0.00023243,0.00022
 370,-0.00046802,-0.00086189,0.00063190,0.00024363,-0.00023175,0.000329
 12,-0.00000153,-0.00000369,0.00000730,-0.00000663,-0.00000587,0.000002
 42,0.00000031,-0.00000017,-0.00000113,-0.00000633,0.00000174,0.0000008
 4,-0.00033840,0.00008942,0.00016832,-0.00053357,0.00028865,0.00012901,
 -0.00000684,-0.00001332,-0.00001216,-0.00689718,0.00786596,0.05289920,
 -0.00000330,0.00000075,0.00000031,0.00393996,-0.00129529,-0.00363083,-
 0.00013439,0.00090483,0.00136661,0.00030717,-0.00739815,-0.02704044,0.
 00000397,-0.00000044,-0.00000348,-0.00000458,-0.00000221,0.00000262,-0
 .00000363,0.00020460,0.00001056,0.,-0.00000057,-0.00000056,0.00055271,
 -0.00007317,-0.00080794,0.00003058,0.00000091,-0.00003441,-0.08319593,
 0.00576230,0.08380360,-0.00042209,0.00011338,0.00004681,-0.00000109,-0
 .00000332,0.00001895,0.00000033,-0.00000033,0.00000012,0.00000064,0.00
 000038,-0.00000051,0.00057527,-0.00002250,0.00100689,0.00013808,-0.000
 03246,0.00007061,0.00125972,-0.00069697,-0.00002753,0.00022562,-0.0000
 1803,0.00011447,-0.00000163,-0.00000012,-0.00000065,0.00000099,0.00000
 096,-0.00000027,0.00000028,0.00000006,0.00000024,0.00000055,0.00000020
 ,-0.00000012,0.00040712,-0.00002993,0.00000581,0.00003442,-0.00010163,
 -0.00003649,0.00001250,-0.00000222,0.00002480,-0.00718963,-0.00002543,
 0.02618501,0.08357892,0.,0.00000445,-0.00000240,0.00334106,-0.00019567
 ,0.00026883,-0.01074841,-0.00019091,0.03062614,-0.00250202,-0.00637290
 ,-0.02924198,-0.00005278,-0.00000646,-0.00000631,0.00001589,0.00001315
 ,-0.00001327,-0.00002056,0.00024122,-0.00002778,-0.00000227,-0.0000025
 1,0.00000489,-0.00099299,0.00163922,-0.00007074,0.00006445,0.00001106,
 0.00002449,0.00340128,-0.04946614,-0.00012384,-0.00034828,-0.00035894,
 0.00016598,-0.00000827,-0.00000680,-0.00001203,-0.00000330,-0.00000026
 ,0.00000106,-0.00000039,-0.00000007,0.00000047,-0.00023948,0.00023086,
 0.00076497,-0.00004106,-0.00006393,0.00021705,0.00048434,-0.00545865,0
 .00292799,0.00003389,0.00126302,-0.00092429,0.00000027,-0.00000068,0.0
 0000279,-0.00000272,-0.00000247,0.00000073,-0.00000022,0.00000009,-0.0
 0000065,-0.00000229,0.00000016,0.00000046,0.00024171,0.00003024,-0.000
 45502,-0.00009998,0.00000242,-0.00036326,0.00000002,-0.00000385,-0.000
 02547,0.00472215,0.00079055,-0.01283681,0.00276184,0.05791928,-0.00000
 554,0.00001701,-0.00000935,0.00286144,-0.00009690,0.00080287,0.0063401
 3,0.00094092,-0.01214059,-0.00640698,-0.01242133,-0.02373884,-0.000113
 17,-0.00003869,0.00001238,0.00002891,0.00002258,-0.00003641,-0.0004462
 0,0.00025201,-0.00006221,-0.00000357,-0.00000469,0.00001008,0.00003614
 ,-0.00094514,0.00044921,0.00016959,0.00009159,-0.00010129,0.07910582,-
 0.00053882,-0.26884580,-0.00013305,-0.00024632,0.00027150,-0.00002730,
 -0.00002769,0.00000305,-0.00000828,-0.00000177,0.00000479,-0.00000016,
 -0.00000173,0.00000404,-0.00105256,0.00050835,0.00013212,-0.00028976,0
 .00000847,0.00042297,0.00007331,0.00240851,0.00010286,0.00010076,0.000
 35893,0.00035176,-0.00000057,-0.00000350,0.00000794,-0.00000598,-0.000
 00602,0.00000284,0.00000044,0.00000005,-0.00000077,-0.00000549,0.00000
 023,0.00000081,-0.00050576,0.00013004,-0.00002218,-0.00005478,0.000113
 83,0.00024108,-0.00000712,-0.00001570,-0.00001510,0.00146423,0.0003886
 9,0.00084987,-0.08122008,0.00913381,0.30137851,-0.00039562,0.00058948,
 -0.00022846,0.00009280,-0.00023628,0.00161645,0.00131454,0.00002379,-0
 .00000066,0.00148817,0.00039454,-0.00121219,-0.00034147,-0.00101934,-0
 .00030240,0.00028524,0.00016049,-0.00031047,-0.03170398,0.00631963,0.0
 3013332,0.00001358,0.00000769,0.00010416,0.00599185,-0.00302818,-0.018
 92076,0.00132357,0.00740669,0.00010278,-0.00017372,-0.00021960,-0.0001
 5793,-0.06466647,0.00556115,0.06620453,-0.00121826,-0.00127185,0.00091
 486,-0.00025423,-0.00009228,0.00012685,0.00002294,-0.00000689,0.000017
 92,0.00022019,0.00016844,-0.00004117,0.00010883,0.00014646,0.00015745,
 -0.00010358,-0.00009129,0.00022007,0.00015458,-0.00007089,0.00014263,-
 0.00002924,-0.00001234,0.00004359,-0.00007776,-0.00007620,0.00003558,-
 0.00000621,-0.00000400,-0.00002143,-0.00004816,-0.00002566,-0.00000517
 ,-0.00201872,-0.00278136,-0.00217114,0.00057812,0.00036543,0.00078499,
 -0.00031964,-0.00020354,0.00028174,0.00000643,0.00006113,-0.00004519,-
 0.00011664,0.00000240,0.00011040,0.08983803,0.00014378,-0.00020056,0.0
 0008068,-0.00898738,-0.00046822,0.03230900,0.00083901,0.00044431,0.000
 36139,-0.00131742,0.00201497,-0.00173095,0.00000931,0.00042373,0.00013
 061,-0.00006772,-0.00004288,0.00006026,0.01405751,0.00042519,-0.010457
 11,-0.00001127,-0.00000058,-0.00002781,0.00421925,-0.00353609,-0.02440
 049,-0.00116518,-0.00294027,-0.00007823,-0.00014955,-0.00021948,-0.000
 09537,0.00485756,-0.05409795,-0.02636467,0.00042021,0.00040799,-0.0004
 1226,0.00008439,0.00003055,-0.00003899,-0.00001009,-0.00000264,-0.0000
 0266,0.00123294,-0.00506443,0.00288401,-0.00018060,0.00162012,-0.00077
 710,-0.00023928,0.00025402,0.00033577,-0.00009953,-0.00009019,0.000335
 16,0.00001835,0.00001176,-0.00000909,0.00001711,0.00001709,-0.00000752
 ,0.00000203,0.00000226,0.00000682,0.00001335,0.00000914,0.00000176,-0.
 00282098,-0.00218048,-0.00241121,0.00087101,0.00101291,0.00055862,0.00
 037306,0.00011386,-0.00032093,0.00003713,0.00008785,-0.00000074,-0.000
 04328,-0.00002033,-0.00003592,-0.01207683,0.06196094,-0.00000932,-0.00
 002078,0.00000659,0.00497494,-0.00004024,-0.01597022,0.00042363,0.0000
 9564,0.00011574,-0.00068878,-0.00093227,0.00153746,0.00026825,0.000024
 19,-0.00024940,-0.00002218,0.00001772,0.00003999,0.00101840,0.00004718
 ,0.00805661,0.00000739,0.00000377,-0.00001749,0.00355331,-0.00255093,-
 0.01571207,-0.00149456,-0.00045025,0.00118616,-0.00008247,0.00001308,0
 .00017182,0.07242160,-0.02729649,-0.28649280,-0.00001963,0.00006567,0.
 00003357,0.00000135,0.00000599,-0.00000876,0.00000521,0.00000724,-0.00
 000690,-0.00015419,0.00267304,-0.00020920,-0.00011260,0.00004136,0.000
 96948,-0.00041802,0.00026112,0.00007745,-0.00023573,0.00000322,0.00019
 596,0.00000465,0.00000710,-0.00000960,0.00002067,0.00001323,-0.0000063
 1,0.00000186,-0.00000123,0.00000383,0.00000824,-0.00000167,-0.00000212
 ,-0.00190411,-0.00205543,-0.00034919,0.00002160,-0.00000905,0.00102843
 ,-0.00022322,0.00001228,0.00006747,-0.00002372,0.00004440,-0.00005690,
 0.00014713,-0.00003622,-0.00007724,-0.07750597,0.03007237,0.30568956,0
 .00632133,-0.00719729,0.02668438,0.00001398,-0.00000046,-0.00027998,0.
 00000488,0.00000429,-0.00000029,-0.00012259,0.00001773,0.00012271,0.00
 186274,-0.00208773,0.00121783,-0.00034333,-0.00023564,0.00025305,0.002
 11463,-0.00028936,-0.00033049,0.00128307,0.00101942,-0.00000873,0.0000
 2896,-0.00000783,-0.00000075,-0.01042927,0.00711498,-0.02666652,0.0000
 3669,0.00003500,0.00002577,0.00027622,-0.00008016,-0.00001151,-0.06311
 892,0.01641598,-0.06178219,0.00130068,0.00070200,-0.00070002,-0.003888
 30,-0.00283028,0.00271423,-0.00007170,-0.00002641,0.00019539,0.0000292
 4,-0.00000820,0.00000177,-0.00000272,0.00000145,0.00000123,0.00000185,
 -0.00000447,0.00000175,-0.00009235,-0.00005618,-0.00007285,0.00008796,
 -0.00002578,-0.00001708,-0.00007986,0.00007240,-0.00043432,-0.00007330
 ,0.00029460,-0.00013085,0.00000455,0.00000801,0.00000139,-0.00000774,-
 0.00000666,-0.00000202,-0.00306542,0.00341128,0.00106557,-0.00000633,-
 0.00000385,-0.00000463,0.00000445,-0.00000480,-0.00000429,-0.00001977,
 -0.00002099,0.00002254,0.07100241,0.00296927,-0.00361830,0.01061160,-0
 .00007168,0.00001702,0.00026729,-0.00001040,-0.00000640,-0.00000277,0.
 00013006,-0.00000779,-0.00009647,-0.00074752,0.00227813,0.00011012,-0.
 00006979,-0.00003041,0.00002164,-0.00194312,0.00101213,-0.00049681,0.0
 0060500,0.00030971,0.00053824,-0.00002188,0.00001686,-0.00000560,0.007
 75572,-0.00877614,0.02368154,-0.00002959,-0.00003385,-0.00002737,-0.00
 019403,-0.00005070,-0.00013284,0.01574108,-0.06535651,0.05795950,0.000
 06234,0.00044650,-0.00057928,-0.00168247,-0.00008507,0.00115494,0.0000
 8395,-0.00001146,-0.00016685,-0.00002209,0.00000608,0.00000300,0.00000
 329,-0.00000070,-0.00000088,0.00000071,0.00000501,-0.00000038,-0.00001
 605,0.00004532,-0.00005290,0.00001272,-0.00002867,-0.00001339,-0.00008
 504,-0.00001215,-0.00005215,-0.00003889,0.00010595,-0.00008176,0.00000
 063,-0.00000672,-0.00000803,0.00000480,0.00000374,0.00000495,0.0031689
 7,-0.00213955,-0.00054182,0.00000607,0.00000314,0.00000516,-0.00000380
 ,0.00000445,0.00000550,0.00004899,0.00000610,-0.00000941,-0.01923674,0
 .06782596,-0.00289209,0.00350056,-0.01489093,0.00016034,-0.00003820,-0
 .00006249,-0.00000300,0.00000052,-0.00000547,-0.00002027,-0.00002235,-
 0.00000750,0.00077650,0.00053897,0.00123548,0.00015261,-0.00003773,0.0
 0013372,-0.00030104,-0.00056783,0.00090783,-0.00059030,-0.00047817,0.0
 0069364,0.00003377,-0.00000132,0.00000566,0.00035193,-0.00055428,-0.00
 136504,0.00000262,0.00000099,0.00000177,-0.00000614,-0.00004656,0.0003
 4922,-0.06362852,0.06063960,-0.27693547,-0.00005341,-0.00037296,0.0005
 9807,0.00271174,0.00136911,-0.00029721,-0.00000824,0.00002595,0.000023
 41,0.00000159,0.00000279,0.00000155,-0.00000086,0.00000012,0.00000086,
 -0.00000252,0.00000021,-0.00000271,-0.00006992,-0.00005902,-0.00013522
 ,-0.00004741,0.00005605,-0.00000682,-0.00000254,0.00044846,0.00034993,
 0.00018410,-0.00004506,0.00022638,0.00000166,-0.00000472,-0.00000176,-
 0.00000267,-0.00000449,0.00000298,0.00017110,0.00017317,0.00078096,-0.
 00000150,0.00000158,0.00000197,-0.00000042,-0.00000051,0.00000020,-0.0
 0008170,0.00003484,-0.00001061,0.06649457,-0.06826921,0.30088960,-0.00
 795361,-0.02162994,-0.01359129,0.00004785,0.00004446,0.00001497,-0.000
 01221,-0.00000959,-0.00002227,-0.00000883,-0.00002538,-0.00000112,-0.0
 0263445,0.00742420,0.00161272,-0.00136001,-0.00050020,0.00061421,0.001
 47277,0.00049170,-0.00016566,-0.00398398,-0.00121304,0.00423642,-0.000
 00805,0.00001686,0.00003491,0.00820097,0.01720610,0.01291554,-0.000000
 58,0.00000330,0.00000480,0.00006255,-0.00025283,-0.00024087,-0.0766401
 5,-0.07239874,-0.04506385,0.00080925,0.00076797,-0.00068600,0.00121698
 ,0.00062584,0.00001297,0.00000364,0.00000260,-0.00000420,-0.00001444,-
 0.00002569,-0.00001644,0.00000371,-0.00000146,0.00000102,-0.00000552,0
 .00000116,0.00000134,0.00018598,0.00003786,-0.00005859,0.00028607,0.00
 000495,-0.00014025,0.00004233,0.00031659,0.00004839,-0.00023781,-0.001
 78709,-0.00054827,0.00003660,-0.00001522,-0.00003789,0.00000193,-0.000
 00584,-0.00000230,0.00075026,-0.00090704,-0.00044268,-0.00000139,-0.00
 000159,-0.00000013,-0.00000037,0.00000054,-0.00000054,0.00005462,-0.00
 000590,-0.00000628,-0.00305204,-0.00642050,-0.00332997,0.08273792,-0.0
 0336301,-0.00916297,-0.00449762,-0.00005113,-0.00004666,0.00000715,0.0
 0001029,0.00002208,0.00001510,0.00004164,0.00002283,0.00000973,0.00326
 861,-0.00588117,-0.00091956,0.00097273,0.00123423,-0.00079108,-0.00081
 717,0.00133549,0.00064069,-0.00189661,0.00086586,0.00202725,0.00008371
 ,-0.00005748,-0.00003608,-0.01096504,-0.01644604,-0.01085472,-0.000005
 68,-0.00001476,-0.00001583,0.00012223,0.00025739,0.00023804,-0.0686200
 5,-0.22642096,-0.10453377,-0.00004824,0.00052545,0.00016352,0.00036985
 ,0.00033122,0.00001165,0.00000247,-0.00000196,-0.00000880,0.00001554,0
 .00003992,0.00001687,-0.00000028,0.00000092,0.00000047,0.00000889,-0.0
 0000145,0.00000220,-0.00006737,-0.00009403,0.00016214,-0.00011466,-0.0
 0011572,0.00005817,-0.00003354,-0.00004623,-0.00016475,-0.00010393,-0.
 00055702,-0.00044157,0.00001030,-0.00001347,-0.00000841,0.00000358,-0.
 00000083,-0.00000428,-0.00006847,0.00083035,0.00047759,0.00000392,0.00
 000237,0.00000346,-0.00000036,0.00000038,0.00000370,-0.00003979,0.0000
 2132,-0.00000463,0.00302569,0.00807832,0.00370950,0.07825592,0.2452926
 3,0.00523182,0.01537217,0.00778603,-0.00002363,-0.00000849,0.00001283,
 0.00000662,0.00001600,0.00000316,0.00002755,0.00000846,-0.00000326,0.0
 0036523,-0.00136243,0.00161041,0.00039211,0.00000264,-0.00034012,0.000
 22200,0.00000718,0.00009918,0.00281214,0.00092141,-0.00122193,0.000036
 28,-0.00004226,0.00000012,-0.00079255,0.00064722,-0.00238834,-0.000005
 52,-0.00000624,-0.00000695,-0.00000326,0.00012568,0.00003531,-0.044128
 03,-0.10654361,-0.11089242,-0.00070351,-0.00057053,0.00038115,-0.00081
 590,-0.00021036,0.00087136,0.00000193,-0.00000327,-0.00001346,0.000009
 98,0.00000964,0.00000997,0.00000147,-0.00000053,0.00000048,0.00000578,
 -0.00000128,0.00000092,-0.00009204,-0.00003989,-0.00000069,-0.00010110
 ,-0.00003271,0.00001604,0.00008400,0.00019590,0.00022776,0.00036993,0.
 00071768,0.00036579,0.00001830,-0.00001224,-0.00001296,0.00000497,0.00
 000420,-0.00000643,0.00056135,-0.00010446,0.00016209,0.00000184,0.0000
 0119,0.00000089,-0.00000081,0.00000090,0.00000090,0.00000734,-0.000000
 26,-0.00000131,-0.00835564,-0.02382558,-0.01248201,0.04486133,0.114733
 87,0.11578547\\-0.00000746,0.00001491,-0.00001006,0.00000279,0.0000000
 7,-0.00001023,-0.00000441,0.00000576,0.00000807,-0.00000462,-0.0000090
 4,-0.00000048,0.00003357,-0.00001225,-0.00000225,0.00001399,0.00002319
 ,-0.00001615,0.00073010,0.00199092,0.00160597,-0.00000694,0.00000373,-
 0.00000199,0.00041334,0.00064241,-0.00141162,-0.00045402,-0.00119372,-
 0.00139877,-0.00000019,0.00000682,-0.00001405,-0.00071903,-0.00144084,
 0.00121036,-0.00001646,-0.00000836,0.00000655,-0.00000292,0.00000045,0
 .00000937,-0.00000121,-0.00000434,-0.00000871,-0.00000571,0.00000196,-
 0.00000218,0.00000666,0.00000631,0.00000037,-0.00000637,0.00000190,0.0
 0001405,0.00001260,-0.00000073,0.00001065,-0.00000709,-0.00000479,-0.0
 0000205,0.00000457,0.00000117,-0.00000285,0.00000474,0.00000307,0.0000
 0795,-0.00000026,-0.00001392,-0.00000505,-0.00000393,-0.00000583,0.000
 00045,-0.00000474,-0.00000143,0.00000915,0.00000789,-0.00000386,-0.000
 01262,-0.00000363,-0.00000243,-0.00000020,0.00000290,0.00000018,-0.000
 00374,0.00000248,-0.00000414,0.00000505,0.00000416,-0.00000224,0.00001
 358,0.00000921,0.00000506,0.00000144\\\@


 YOU ARE IN A MAZE OF TWISTY LITTLE PASSAGES.
 Job cpu time:       0 days 11 hours 40 minutes 57.6 seconds.
 Elapsed time:       0 days  0 hours 58 minutes 25.6 seconds.
 File lengths (MBytes):  RWF=    721 Int=      0 D2E=      0 Chk=     34 Scr=      1
 Normal termination of Gaussian 16 at Sun Mar 10 04:55:26 2019.
