 Entering Gaussian System, Link 0=g16
 Initial command:
 /sw/Projects/G16/g16/l1.exe "/nvme/pbs/tmpdir/pbs.74288[1].flm1/Gau-18914.inp" -scrdir="/nvme/pbs/tmpdir/pbs.74288[1].flm1/"
 Entering Link 1 = /sw/Projects/G16/g16/l1.exe PID=     18915.
  
 Copyright (c) 1988-2017, Gaussian, Inc.  All Rights Reserved.
  
 This is part of the Gaussian(R) 16 program.  It is based on
 the Gaussian(R) 09 system (copyright 2009, Gaussian, Inc.),
 the Gaussian(R) 03 system (copyright 2003, Gaussian, Inc.),
 the Gaussian(R) 98 system (copyright 1998, Gaussian, Inc.),
 the Gaussian(R) 94 system (copyright 1995, Gaussian, Inc.),
 the Gaussian 92(TM) system (copyright 1992, Gaussian, Inc.),
 the Gaussian 90(TM) system (copyright 1990, Gaussian, Inc.),
 the Gaussian 88(TM) system (copyright 1988, Gaussian, Inc.),
 the Gaussian 86(TM) system (copyright 1986, Carnegie Mellon
 University), and the Gaussian 82(TM) system (copyright 1983,
 Carnegie Mellon University). Gaussian is a federally registered
 trademark of Gaussian, Inc.
  
 This software contains proprietary and confidential information,
 including trade secrets, belonging to Gaussian, Inc.
  
 This software is provided under written license and may be
 used, copied, transmitted, or stored only in accord with that
 written license.
  
 The following legend is applicable only to US Government
 contracts under FAR:
  
                    RESTRICTED RIGHTS LEGEND
  
 Use, reproduction and disclosure by the US Government is
 subject to restrictions as set forth in subparagraphs (a)
 and (c) of the Commercial Computer Software - Restricted
 Rights clause in FAR 52.227-19.
  
 Gaussian, Inc.
 340 Quinnipiac St., Bldg. 40, Wallingford CT 06492
  
  
 ---------------------------------------------------------------
 Warning -- This program may not be used in any manner that
 competes with the business of Gaussian, Inc. or will provide
 assistance to any competitor of Gaussian, Inc.  The licensee
 of this program is prohibited from giving any competitor of
 Gaussian, Inc. access to this program.  By using this program,
 the user acknowledges that Gaussian, Inc. is engaged in the
 business of creating and licensing software in the field of
 computational chemistry and represents and warrants to the
 licensee that it is not a competitor of Gaussian, Inc. and that
 it will not use this program in any manner prohibited above.
 ---------------------------------------------------------------
  

 Cite this work as:
 Gaussian 16, Revision B.01,
 M. J. Frisch, G. W. Trucks, H. B. Schlegel, G. E. Scuseria, 
 M. A. Robb, J. R. Cheeseman, G. Scalmani, V. Barone, 
 G. A. Petersson, H. Nakatsuji, X. Li, M. Caricato, A. V. Marenich, 
 J. Bloino, B. G. Janesko, R. Gomperts, B. Mennucci, H. P. Hratchian, 
 J. V. Ortiz, A. F. Izmaylov, J. L. Sonnenberg, D. Williams-Young, 
 F. Ding, F. Lipparini, F. Egidi, J. Goings, B. Peng, A. Petrone, 
 T. Henderson, D. Ranasinghe, V. G. Zakrzewski, J. Gao, N. Rega, 
 G. Zheng, W. Liang, M. Hada, M. Ehara, K. Toyota, R. Fukuda, 
 J. Hasegawa, M. Ishida, T. Nakajima, Y. Honda, O. Kitao, H. Nakai, 
 T. Vreven, K. Throssell, J. A. Montgomery, Jr., J. E. Peralta, 
 F. Ogliaro, M. J. Bearpark, J. J. Heyd, E. N. Brothers, K. N. Kudin, 
 V. N. Staroverov, T. A. Keith, R. Kobayashi, J. Normand, 
 K. Raghavachari, A. P. Rendell, J. C. Burant, S. S. Iyengar, 
 J. Tomasi, M. Cossi, J. M. Millam, M. Klene, C. Adamo, R. Cammi, 
 J. W. Ochterski, R. L. Martin, K. Morokuma, O. Farkas, 
 J. B. Foresman, and D. J. Fox, Gaussian, Inc., Wallingford CT, 2016.
 
 ******************************************
 Gaussian 16:  ES64L-G16RevB.01 20-Dec-2017
                10-Mar-2019 
 ******************************************
 %mem=20gb
 %nproc=12
 Will use up to   12 processors via shared memory.
 %chk=4c1_b1_4e_4c1_PSI.inp_extract_1.chk
 ----------------------------------------------------------------------
 #M062X/6-311++G(2d,2p) opt=ModRedundant freq=noraman SCRF=(SMD,solvent
 =water)
 ----------------------------------------------------------------------
 1/18=120,19=15,26=3,38=1/1,3;
 2/9=110,12=2,17=6,18=5,40=1/2;
 3/5=4,6=6,7=1212,11=2,25=1,30=1,70=32201,71=1,72=1,74=-55/1,2,3;
 4//1;
 5/5=2,38=5,53=1/2;
 6/7=2,8=2,9=2,10=2,28=1/1;
 7//1,2,3,16;
 1/18=20,19=15,26=3/3(2);
 2/9=110/2;
 99//99;
 2/9=110/2;
 3/5=4,6=6,7=1212,11=2,25=1,30=1,70=32205,71=1,72=1,74=-55/1,2,3;
 4/5=5,16=3,69=1/1;
 5/5=2,38=5,53=1/2;
 7//1,2,3,16;
 1/18=20,19=15,26=3/3(-5);
 2/9=110/2;
 6/7=2,8=2,9=2,10=2,19=2,28=1/1;
 99/9=1/99;
 -------------------------------
 4c1_b1_4e_4c1_PSI.inp_extract_1
 -------------------------------
 Symbolic Z-matrix:
 Charge =  0 Multiplicity = 1
 C                    -3.67458  -0.9095   -0.05481 
 C                     2.11109  -1.2955   -0.22779 
 C                     3.16353   1.34454   0.15164 
 O                     3.33376  -0.87701  -0.79313 
 O                    -1.53879   0.98234   0.00481 
 C                    -2.74965   1.33767  -0.64443 
 O                    -0.0225   -0.6069    0.54776 
 C                    -3.92797   0.59857  -0.03109 
 C                     1.79226   0.99287   0.73497 
 C                    -1.23025  -0.38724  -0.09762 
 C                     4.01031   0.09291  -0.01298 
 C                     1.15214  -0.12084  -0.08338 
 C                    -2.30759  -1.23054   0.55592 
 H                    -4.45474  -1.43763   0.48384 
 H                    -3.70298  -1.26392  -1.08313 
 H                     2.2896   -1.74743   0.74536 
 H                     1.69787  -2.04625  -0.88755 
 H                     3.04367   1.82221  -0.81765 
 H                     3.68168   2.04683   0.79772 
 H                    -2.66374   1.11091  -1.70464 
 H                    -2.84629   2.40847  -0.53305 
 H                    -4.06407   0.93584   0.99358 
 H                    -4.83153   0.84813  -0.58001 
 H                     1.90769   0.64658   1.75973 
 H                     1.14622   1.86364   0.75489 
 H                    -1.13333  -0.63574  -1.15155 
 H                     4.93565   0.30645  -0.53021 
 H                     4.25026  -0.33796   0.95648 
 H                     0.90169   0.24891  -1.07131 
 H                    -2.31077  -1.01424   1.62099 
 H                    -2.06242  -2.27991   0.42833 
 
 The following ModRedundant input section has been read:
 D      10       7      12       9 F                                           
 

 GradGradGradGradGradGradGradGradGradGradGradGradGradGradGradGradGradGrad
 Berny optimization.
 Initialization pass.
                           ----------------------------
                           !    Initial Parameters    !
                           ! (Angstroms and Degrees)  !
 --------------------------                            --------------------------
 ! Name  Definition              Value          Derivative Info.                !
 --------------------------------------------------------------------------------
 ! R1    R(1,8)                  1.5294         estimate D2E/DX2                !
 ! R2    R(1,13)                 1.5312         estimate D2E/DX2                !
 ! R3    R(1,14)                 1.0852         estimate D2E/DX2                !
 ! R4    R(1,15)                 1.0881         estimate D2E/DX2                !
 ! R5    R(2,4)                  1.4106         estimate D2E/DX2                !
 ! R6    R(2,12)                 1.5232         estimate D2E/DX2                !
 ! R7    R(2,16)                 1.0877         estimate D2E/DX2                !
 ! R8    R(2,17)                 1.0815         estimate D2E/DX2                !
 ! R9    R(3,9)                  1.5311         estimate D2E/DX2                !
 ! R10   R(3,11)                 1.5201         estimate D2E/DX2                !
 ! R11   R(3,18)                 1.0872         estimate D2E/DX2                !
 ! R12   R(3,19)                 1.0859         estimate D2E/DX2                !
 ! R13   R(4,11)                 1.4167         estimate D2E/DX2                !
 ! R14   R(5,6)                  1.4191         estimate D2E/DX2                !
 ! R15   R(5,10)                 1.4076         estimate D2E/DX2                !
 ! R16   R(6,8)                  1.5202         estimate D2E/DX2                !
 ! R17   R(6,20)                 1.0876         estimate D2E/DX2                !
 ! R18   R(6,21)                 1.0809         estimate D2E/DX2                !
 ! R19   R(7,10)                 1.3869         estimate D2E/DX2                !
 ! R20   R(7,12)                 1.4193         estimate D2E/DX2                !
 ! R21   R(8,22)                 1.0873         estimate D2E/DX2                !
 ! R22   R(8,23)                 1.0863         estimate D2E/DX2                !
 ! R23   R(9,12)                 1.5231         estimate D2E/DX2                !
 ! R24   R(9,24)                 1.0878         estimate D2E/DX2                !
 ! R25   R(9,25)                 1.0844         estimate D2E/DX2                !
 ! R26   R(10,13)                1.5162         estimate D2E/DX2                !
 ! R27   R(10,26)                1.0872         estimate D2E/DX2                !
 ! R28   R(11,27)                1.0814         estimate D2E/DX2                !
 ! R29   R(11,28)                1.0877         estimate D2E/DX2                !
 ! R30   R(12,29)                1.0842         estimate D2E/DX2                !
 ! R31   R(13,30)                1.0868         estimate D2E/DX2                !
 ! R32   R(13,31)                1.0852         estimate D2E/DX2                !
 ! A1    A(8,1,13)             110.3932         estimate D2E/DX2                !
 ! A2    A(8,1,14)             110.6749         estimate D2E/DX2                !
 ! A3    A(8,1,15)             109.3615         estimate D2E/DX2                !
 ! A4    A(13,1,14)            109.9856         estimate D2E/DX2                !
 ! A5    A(13,1,15)            109.3874         estimate D2E/DX2                !
 ! A6    A(14,1,15)            106.9662         estimate D2E/DX2                !
 ! A7    A(4,2,12)             110.7869         estimate D2E/DX2                !
 ! A8    A(4,2,16)             109.8525         estimate D2E/DX2                !
 ! A9    A(4,2,17)             107.0157         estimate D2E/DX2                !
 ! A10   A(12,2,16)            109.8105         estimate D2E/DX2                !
 ! A11   A(12,2,17)            110.6472         estimate D2E/DX2                !
 ! A12   A(16,2,17)            108.6667         estimate D2E/DX2                !
 ! A13   A(9,3,11)             110.5509         estimate D2E/DX2                !
 ! A14   A(9,3,18)             109.9887         estimate D2E/DX2                !
 ! A15   A(9,3,19)             110.4395         estimate D2E/DX2                !
 ! A16   A(11,3,18)            109.0639         estimate D2E/DX2                !
 ! A17   A(11,3,19)            109.3383         estimate D2E/DX2                !
 ! A18   A(18,3,19)            107.3919         estimate D2E/DX2                !
 ! A19   A(2,4,11)             113.3501         estimate D2E/DX2                !
 ! A20   A(6,5,10)             113.4123         estimate D2E/DX2                !
 ! A21   A(5,6,8)              110.7968         estimate D2E/DX2                !
 ! A22   A(5,6,20)             109.0482         estimate D2E/DX2                !
 ! A23   A(5,6,21)             106.0923         estimate D2E/DX2                !
 ! A24   A(8,6,20)             110.6816         estimate D2E/DX2                !
 ! A25   A(8,6,21)             111.7636         estimate D2E/DX2                !
 ! A26   A(20,6,21)            108.3037         estimate D2E/DX2                !
 ! A27   A(10,7,12)            117.3585         estimate D2E/DX2                !
 ! A28   A(1,8,6)              110.1657         estimate D2E/DX2                !
 ! A29   A(1,8,22)             109.9509         estimate D2E/DX2                !
 ! A30   A(1,8,23)             110.8861         estimate D2E/DX2                !
 ! A31   A(6,8,22)             109.0527         estimate D2E/DX2                !
 ! A32   A(6,8,23)             109.2185         estimate D2E/DX2                !
 ! A33   A(22,8,23)            107.5075         estimate D2E/DX2                !
 ! A34   A(3,9,12)             109.8554         estimate D2E/DX2                !
 ! A35   A(3,9,24)             109.6932         estimate D2E/DX2                !
 ! A36   A(3,9,25)             110.8615         estimate D2E/DX2                !
 ! A37   A(12,9,24)            108.5402         estimate D2E/DX2                !
 ! A38   A(12,9,25)            110.2815         estimate D2E/DX2                !
 ! A39   A(24,9,25)            107.5493         estimate D2E/DX2                !
 ! A40   A(5,10,7)             108.1264         estimate D2E/DX2                !
 ! A41   A(5,10,13)            110.7347         estimate D2E/DX2                !
 ! A42   A(5,10,26)            108.2085         estimate D2E/DX2                !
 ! A43   A(7,10,13)            109.2751         estimate D2E/DX2                !
 ! A44   A(7,10,26)            109.7118         estimate D2E/DX2                !
 ! A45   A(13,10,26)           110.7366         estimate D2E/DX2                !
 ! A46   A(3,11,4)             110.9354         estimate D2E/DX2                !
 ! A47   A(3,11,27)            111.4621         estimate D2E/DX2                !
 ! A48   A(3,11,28)            110.6426         estimate D2E/DX2                !
 ! A49   A(4,11,27)            106.2861         estimate D2E/DX2                !
 ! A50   A(4,11,28)            108.9631         estimate D2E/DX2                !
 ! A51   A(27,11,28)           108.4075         estimate D2E/DX2                !
 ! A52   A(2,12,7)             107.4027         estimate D2E/DX2                !
 ! A53   A(2,12,9)             110.5015         estimate D2E/DX2                !
 ! A54   A(2,12,29)            108.7864         estimate D2E/DX2                !
 ! A55   A(7,12,9)             111.0586         estimate D2E/DX2                !
 ! A56   A(7,12,29)            109.3187         estimate D2E/DX2                !
 ! A57   A(9,12,29)            109.7132         estimate D2E/DX2                !
 ! A58   A(1,13,10)            110.2307         estimate D2E/DX2                !
 ! A59   A(1,13,30)            110.2744         estimate D2E/DX2                !
 ! A60   A(1,13,31)            110.9493         estimate D2E/DX2                !
 ! A61   A(10,13,30)           108.2881         estimate D2E/DX2                !
 ! A62   A(10,13,31)           109.0643         estimate D2E/DX2                !
 ! A63   A(30,13,31)           107.9598         estimate D2E/DX2                !
 ! D1    D(13,1,8,6)            51.3728         estimate D2E/DX2                !
 ! D2    D(13,1,8,22)          -68.8438         estimate D2E/DX2                !
 ! D3    D(13,1,8,23)          172.4014         estimate D2E/DX2                !
 ! D4    D(14,1,8,6)           173.3802         estimate D2E/DX2                !
 ! D5    D(14,1,8,22)           53.1636         estimate D2E/DX2                !
 ! D6    D(14,1,8,23)          -65.5912         estimate D2E/DX2                !
 ! D7    D(15,1,8,6)           -69.0261         estimate D2E/DX2                !
 ! D8    D(15,1,8,22)          170.7573         estimate D2E/DX2                !
 ! D9    D(15,1,8,23)           52.0025         estimate D2E/DX2                !
 ! D10   D(8,1,13,10)          -51.7476         estimate D2E/DX2                !
 ! D11   D(8,1,13,30)           67.7676         estimate D2E/DX2                !
 ! D12   D(8,1,13,31)         -172.6674         estimate D2E/DX2                !
 ! D13   D(14,1,13,10)        -174.1605         estimate D2E/DX2                !
 ! D14   D(14,1,13,30)         -54.6452         estimate D2E/DX2                !
 ! D15   D(14,1,13,31)          64.9197         estimate D2E/DX2                !
 ! D16   D(15,1,13,10)          68.6357         estimate D2E/DX2                !
 ! D17   D(15,1,13,30)        -171.849          estimate D2E/DX2                !
 ! D18   D(15,1,13,31)         -52.2841         estimate D2E/DX2                !
 ! D19   D(12,2,4,11)           60.6907         estimate D2E/DX2                !
 ! D20   D(16,2,4,11)          -60.8074         estimate D2E/DX2                !
 ! D21   D(17,2,4,11)         -178.6056         estimate D2E/DX2                !
 ! D22   D(4,2,12,7)          -177.2399         estimate D2E/DX2                !
 ! D23   D(4,2,12,9)           -55.96           estimate D2E/DX2                !
 ! D24   D(4,2,12,29)           64.5426         estimate D2E/DX2                !
 ! D25   D(16,2,12,7)          -55.717          estimate D2E/DX2                !
 ! D26   D(16,2,12,9)           65.5629         estimate D2E/DX2                !
 ! D27   D(16,2,12,29)        -173.9345         estimate D2E/DX2                !
 ! D28   D(17,2,12,7)           64.2357         estimate D2E/DX2                !
 ! D29   D(17,2,12,9)         -174.4844         estimate D2E/DX2                !
 ! D30   D(17,2,12,29)         -53.9818         estimate D2E/DX2                !
 ! D31   D(11,3,9,12)          -51.7393         estimate D2E/DX2                !
 ! D32   D(11,3,9,24)           67.4908         estimate D2E/DX2                !
 ! D33   D(11,3,9,25)         -173.881          estimate D2E/DX2                !
 ! D34   D(18,3,9,12)           68.7615         estimate D2E/DX2                !
 ! D35   D(18,3,9,24)         -172.0084         estimate D2E/DX2                !
 ! D36   D(18,3,9,25)          -53.3802         estimate D2E/DX2                !
 ! D37   D(19,3,9,12)         -172.8792         estimate D2E/DX2                !
 ! D38   D(19,3,9,24)          -53.6491         estimate D2E/DX2                !
 ! D39   D(19,3,9,25)           64.9791         estimate D2E/DX2                !
 ! D40   D(9,3,11,4)            55.0837         estimate D2E/DX2                !
 ! D41   D(9,3,11,27)          173.3152         estimate D2E/DX2                !
 ! D42   D(9,3,11,28)          -65.9753         estimate D2E/DX2                !
 ! D43   D(18,3,11,4)          -65.9677         estimate D2E/DX2                !
 ! D44   D(18,3,11,27)          52.2637         estimate D2E/DX2                !
 ! D45   D(18,3,11,28)         172.9732         estimate D2E/DX2                !
 ! D46   D(19,3,11,4)          176.8747         estimate D2E/DX2                !
 ! D47   D(19,3,11,27)         -64.8939         estimate D2E/DX2                !
 ! D48   D(19,3,11,28)          55.8156         estimate D2E/DX2                !
 ! D49   D(2,4,11,3)           -60.3966         estimate D2E/DX2                !
 ! D50   D(2,4,11,27)          178.2782         estimate D2E/DX2                !
 ! D51   D(2,4,11,28)           61.6474         estimate D2E/DX2                !
 ! D52   D(10,5,6,8)            61.079          estimate D2E/DX2                !
 ! D53   D(10,5,6,20)          -60.9811         estimate D2E/DX2                !
 ! D54   D(10,5,6,21)         -177.4302         estimate D2E/DX2                !
 ! D55   D(6,5,10,7)           178.883          estimate D2E/DX2                !
 ! D56   D(6,5,10,13)          -61.4259         estimate D2E/DX2                !
 ! D57   D(6,5,10,26)           60.113          estimate D2E/DX2                !
 ! D58   D(5,6,8,1)            -54.9816         estimate D2E/DX2                !
 ! D59   D(5,6,8,22)            65.7754         estimate D2E/DX2                !
 ! D60   D(5,6,8,23)          -177.0026         estimate D2E/DX2                !
 ! D61   D(20,6,8,1)            66.1184         estimate D2E/DX2                !
 ! D62   D(20,6,8,22)         -173.1247         estimate D2E/DX2                !
 ! D63   D(20,6,8,23)          -55.9026         estimate D2E/DX2                !
 ! D64   D(21,6,8,1)          -173.0736         estimate D2E/DX2                !
 ! D65   D(21,6,8,22)          -52.3167         estimate D2E/DX2                !
 ! D66   D(21,6,8,23)           64.9054         estimate D2E/DX2                !
 ! D67   D(12,7,10,5)          -71.8864         estimate D2E/DX2                !
 ! D68   D(12,7,10,13)         167.5075         estimate D2E/DX2                !
 ! D69   D(12,7,10,26)          45.924          estimate D2E/DX2                !
 ! D70   D(10,7,12,2)         -125.2237         estimate D2E/DX2                !
 ! D71   D(10,7,12,9)          113.8468         Frozen                          !
 ! D72   D(10,7,12,29)          -7.3513         estimate D2E/DX2                !
 ! D73   D(3,9,12,2)            52.0507         estimate D2E/DX2                !
 ! D74   D(3,9,12,7)           171.1375         estimate D2E/DX2                !
 ! D75   D(3,9,12,29)          -67.8964         estimate D2E/DX2                !
 ! D76   D(24,9,12,2)          -67.8834         estimate D2E/DX2                !
 ! D77   D(24,9,12,7)           51.2034         estimate D2E/DX2                !
 ! D78   D(24,9,12,29)         172.1695         estimate D2E/DX2                !
 ! D79   D(25,9,12,2)          174.5365         estimate D2E/DX2                !
 ! D80   D(25,9,12,7)          -66.3767         estimate D2E/DX2                !
 ! D81   D(25,9,12,29)          54.5894         estimate D2E/DX2                !
 ! D82   D(5,10,13,1)           55.8138         estimate D2E/DX2                !
 ! D83   D(5,10,13,30)         -64.8995         estimate D2E/DX2                !
 ! D84   D(5,10,13,31)         177.8546         estimate D2E/DX2                !
 ! D85   D(7,10,13,1)          174.8133         estimate D2E/DX2                !
 ! D86   D(7,10,13,30)          54.1            estimate D2E/DX2                !
 ! D87   D(7,10,13,31)         -63.1459         estimate D2E/DX2                !
 ! D88   D(26,10,13,1)         -64.2247         estimate D2E/DX2                !
 ! D89   D(26,10,13,30)        175.0619         estimate D2E/DX2                !
 ! D90   D(26,10,13,31)         57.816          estimate D2E/DX2                !
 --------------------------------------------------------------------------------
 Trust Radius=3.00D-01 FncErr=1.00D-07 GrdErr=1.00D-06 EigMax=2.50D+02 EigMin=1.00D-04
 Number of steps in this run=    186 maximum allowed number of steps=    186.
 GradGradGradGradGradGradGradGradGradGradGradGradGradGradGradGradGradGrad

                          Input orientation:                          
 ---------------------------------------------------------------------
 Center     Atomic      Atomic             Coordinates (Angstroms)
 Number     Number       Type             X           Y           Z
 ---------------------------------------------------------------------
      1          6           0       -3.674577   -0.909501   -0.054806
      2          6           0        2.111090   -1.295497   -0.227785
      3          6           0        3.163531    1.344539    0.151636
      4          8           0        3.333756   -0.877006   -0.793129
      5          8           0       -1.538787    0.982336    0.004810
      6          6           0       -2.749652    1.337666   -0.644426
      7          8           0       -0.022496   -0.606897    0.547761
      8          6           0       -3.927971    0.598573   -0.031094
      9          6           0        1.792263    0.992868    0.734971
     10          6           0       -1.230251   -0.387244   -0.097618
     11          6           0        4.010313    0.092914   -0.012976
     12          6           0        1.152138   -0.120835   -0.083381
     13          6           0       -2.307587   -1.230539    0.555919
     14          1           0       -4.454742   -1.437633    0.483844
     15          1           0       -3.702979   -1.263924   -1.083125
     16          1           0        2.289595   -1.747434    0.745361
     17          1           0        1.697867   -2.046255   -0.887552
     18          1           0        3.043672    1.822209   -0.817645
     19          1           0        3.681676    2.046825    0.797720
     20          1           0       -2.663736    1.110910   -1.704643
     21          1           0       -2.846288    2.408467   -0.533048
     22          1           0       -4.064072    0.935844    0.993579
     23          1           0       -4.831533    0.848132   -0.580013
     24          1           0        1.907689    0.646575    1.759726
     25          1           0        1.146223    1.863639    0.754886
     26          1           0       -1.133334   -0.635739   -1.151547
     27          1           0        4.935653    0.306445   -0.530211
     28          1           0        4.250255   -0.337958    0.956482
     29          1           0        0.901687    0.248913   -1.071306
     30          1           0       -2.310773   -1.014236    1.620990
     31          1           0       -2.062418   -2.279911    0.428326
 ---------------------------------------------------------------------
                    Distance matrix (angstroms):
                    1          2          3          4          5
     1  C    0.000000
     2  C    5.801108   0.000000
     3  C    7.202988   2.867295   0.000000
     4  O    7.047192   1.410553   2.420087   0.000000
     5  O    2.853805   4.308622   4.718532   5.275939   0.000000
     6  C    2.500579   5.543821   5.966531   6.475704   1.419141
     7  O    3.713806   2.372305   3.757098   3.624275   2.262652
     8  C    1.529398   6.332175   7.132970   7.449209   2.420075
     9  C    5.842011   2.503031   1.531120   2.864912   3.410153
    10  C    2.499863   3.465029   4.729326   4.642603   1.407635
    11  C    7.750105   2.362388   1.520099   1.416726   5.619955
    12  C    4.890807   1.523244   2.499651   2.415573   2.909612
    13  C    1.531245   4.488109   6.060330   5.811167   2.406572
    14  H    1.085230   6.605813   8.117199   7.912374   3.819492
    15  H    1.088054   5.876734   7.448334   7.053328   3.303485
    16  H    6.075668   1.087715   3.267502   2.053015   4.759892
    17  H    5.554172   1.081519   3.837391   2.013006   4.521571
    18  H    7.292396   3.307225   1.087217   2.714869   4.730830
    19  H    7.973777   3.832691   1.085866   3.346735   5.386564
    20  H    2.797467   5.547149   6.120245   6.383775   2.050432
    21  H    3.453070   6.195816   6.141552   7.003922   2.008158
    22  H    2.157803   6.678566   7.287945   7.823465   2.712359
    23  H    2.168793   7.274560   8.043804   8.348261   3.346970
    24  H    6.072528   2.786255   2.156443   3.297277   3.882095
    25  H    5.620144   3.446266   2.168619   3.833117   2.923797
    26  H    2.781313   3.437281   4.907427   4.487936   2.029709
    27  H    8.708651   3.261263   2.164017   2.008919   6.531573
    28  H    8.009515   2.625909   2.158597   2.047360   6.013473
    29  H    4.828808   2.135272   2.794982   2.694445   2.766197
    30  H    2.163151   4.801036   6.139285   6.140644   2.682219
    31  H    2.170368   4.337940   6.365826   5.707783   3.331037
                    6          7          8          9         10
     6  C    0.000000
     7  O    3.555280   0.000000
     8  C    1.520155   4.128070   0.000000
     9  C    4.759266   2.426447   5.784756   0.000000
    10  C    2.362815   1.386879   2.872970   3.425420   0.000000
    11  C    6.902555   4.131308   7.954393   2.507805   5.263196
    12  C    4.203090   1.419282   5.131061   1.523087   2.397280
    13  C    2.869133   2.368678   2.513141   4.667373   1.516216
    14  H    3.447116   4.509879   2.165360   6.707866   3.440750
    15  H    2.805274   4.078900   2.150880   6.212589   2.802530
    16  H    6.069873   2.585660   6.690647   2.785086   3.866529
    17  H    5.593787   2.662991   6.275244   3.446413   3.456904
    18  H    5.816132   4.143220   7.121780   2.159733   4.864827
    19  H    6.629078   4.563509   7.790449   2.164404   5.554579
    20  H    1.087594   3.873026   2.159061   5.081494   2.623333
    21  H    1.080906   4.270172   2.167421   5.012778   3.258401
    22  H    2.138275   4.348924   1.087304   5.862319   3.312373
    23  H    2.139631   5.149351   1.086285   6.754614   3.837719
    24  H    5.286623   2.601089   6.104447   1.087826   3.790142
    25  H    4.172836   2.740867   5.288251   1.084438   3.382435
    26  H    2.600766   2.030379   3.254065   3.843232   1.087156
    27  H    7.755023   5.155527   8.882471   3.457277   6.219864
    28  H    7.373555   4.300672   8.290704   2.803906   5.581174
    29  H    3.834043   2.051317   4.952767   2.146912   2.428564
    30  H    3.294870   2.560070   2.818841   4.652784   2.124679
    31  H    3.835355   2.640932   3.460784   5.065933   2.133379
                   11         12         13         14         15
    11  C    0.000000
    12  C    2.867021   0.000000
    13  C    6.480049   3.689152   0.000000
    14  H    8.616644   5.787297   2.158323   0.000000
    15  H    7.904499   5.087072   2.152835   1.746629   0.000000
    16  H    2.631126   2.150917   4.630027   6.756512   6.283955
    17  H    3.269302   2.156792   4.335051   6.332910   5.460717
    18  H    2.138305   2.809353   6.312046   8.279291   7.423745
    19  H    2.140794   3.445816   6.831607   8.856707   8.308536
    20  H    6.959956   4.325110   3.274044   3.806869   2.665736
    21  H    7.255704   4.752576   3.836458   4.291116   3.810900
    22  H    8.180426   5.430033   2.823119   2.458830   3.046648
    23  H    8.892138   6.081929   3.461433   2.549213   2.446944
    24  H    2.805359   2.134671   4.768780   6.815594   6.573538
    25  H    3.453707   2.154266   4.641371   6.507125   6.055964
    26  H    5.318306   2.574779   2.155945   3.788046   2.646200
    27  H    1.081380   3.833694   7.483751   9.604667   8.797598
    28  H    1.087691   3.275177   6.630418   8.786902   8.262647
    29  H    3.287545   1.084175   3.890511   5.827028   4.846830
    30  H    6.622066   3.961666   1.086818   2.463528   3.051691
    31  H    6.534761   3.905998   1.085159   2.536874   2.451154
                   16         17         18         19         20
    16  H    0.000000
    17  H    1.762340   0.000000
    18  H    3.969127   4.096473   0.000000
    19  H    4.041909   4.850664   1.751258   0.000000
    20  H    6.221586   5.445999   5.819555   6.884912   0.000000
    21  H    6.729275   6.373348   5.925903   6.672034   1.757730
    22  H    6.901498   6.755110   7.388247   7.827468   3.044994
    23  H    7.694416   7.148785   7.938775   8.706879   2.456255
    24  H    2.627940   3.781989   3.052116   2.456254   5.754597
    25  H    3.787775   4.276586   2.464728   2.542423   4.596920
    26  H    4.068239   3.174106   4.858022   5.846376   2.387222
    27  H    3.584289   4.018227   2.441260   2.522852   7.731570
    28  H    2.423919   3.582377   3.044617   2.456762   7.548780
    29  H    3.035123   2.436281   2.669776   3.801853   3.722418
    30  H    4.740010   4.840149   6.531649   6.779182   3.962406
    31  H    4.395914   3.990723   6.667232   7.200813   4.050779
                   21         22         23         24         25
    21  H    0.000000
    22  H    2.445855   0.000000
    23  H    2.525480   1.752964   0.000000
    24  H    5.564295   6.027652   7.136674   0.000000
    25  H    4.230338   5.297636   6.208605   1.752364   0.000000
    26  H    3.547385   3.957356   4.025568   4.400870   3.883009
    27  H    8.060838   9.149488   9.782322   3.811570   4.293729
    28  H    7.753868   8.411420   9.286899   2.664981   3.810864
    29  H    4.358981   5.421659   5.785347   3.030663   2.449921
    30  H    4.079406   2.696389   3.829760   4.535743   4.580734
    31  H    4.849699   3.829779   4.297604   5.108688   5.250812
                   26         27         28         29         30
    26  H    0.000000
    27  H    6.173036   0.000000
    28  H    5.789256   1.759341   0.000000
    29  H    2.220441   4.070501   3.958440   0.000000
    30  H    3.035883   7.673497   6.629179   4.377659   0.000000
    31  H    2.462214   7.522036   6.625705   4.174897   1.756719
                   31
    31  H    0.000000
 Stoichiometry    C10H18O3
 Framework group  C1[X(C10H18O3)]
 Deg. of freedom    87
 Full point group                 C1      NOp   1
 Largest Abelian subgroup         C1      NOp   1
 Largest concise Abelian subgroup C1      NOp   1
                         Standard orientation:                         
 ---------------------------------------------------------------------
 Center     Atomic      Atomic             Coordinates (Angstroms)
 Number     Number       Type             X           Y           Z
 ---------------------------------------------------------------------
      1          6           0       -3.674577   -0.909501   -0.054806
      2          6           0        2.111090   -1.295497   -0.227785
      3          6           0        3.163531    1.344539    0.151636
      4          8           0        3.333756   -0.877006   -0.793129
      5          8           0       -1.538787    0.982336    0.004810
      6          6           0       -2.749652    1.337666   -0.644426
      7          8           0       -0.022496   -0.606897    0.547761
      8          6           0       -3.927971    0.598573   -0.031094
      9          6           0        1.792263    0.992868    0.734971
     10          6           0       -1.230251   -0.387244   -0.097618
     11          6           0        4.010313    0.092914   -0.012976
     12          6           0        1.152138   -0.120835   -0.083381
     13          6           0       -2.307587   -1.230539    0.555919
     14          1           0       -4.454742   -1.437633    0.483844
     15          1           0       -3.702979   -1.263924   -1.083125
     16          1           0        2.289595   -1.747434    0.745361
     17          1           0        1.697867   -2.046255   -0.887552
     18          1           0        3.043672    1.822209   -0.817645
     19          1           0        3.681676    2.046825    0.797720
     20          1           0       -2.663736    1.110910   -1.704643
     21          1           0       -2.846288    2.408467   -0.533048
     22          1           0       -4.064072    0.935844    0.993579
     23          1           0       -4.831533    0.848132   -0.580013
     24          1           0        1.907689    0.646575    1.759726
     25          1           0        1.146223    1.863639    0.754886
     26          1           0       -1.133334   -0.635739   -1.151547
     27          1           0        4.935653    0.306445   -0.530211
     28          1           0        4.250255   -0.337958    0.956482
     29          1           0        0.901687    0.248913   -1.071306
     30          1           0       -2.310773   -1.014236    1.620990
     31          1           0       -2.062418   -2.279911    0.428326
 ---------------------------------------------------------------------
 Rotational constants (GHZ):           2.1853818           0.3644451           0.3329196
 Standard basis: 6-311++G(2d,2p) (5D, 7F)
 There are   557 symmetry adapted cartesian basis functions of A   symmetry.
 There are   531 symmetry adapted basis functions of A   symmetry.
   531 basis functions,   762 primitive gaussians,   557 cartesian basis functions
    51 alpha electrons       51 beta electrons
       nuclear repulsion energy       878.3663102082 Hartrees.
 NAtoms=   31 NActive=   31 NUniq=   31 SFac= 1.00D+00 NAtFMM=   60 NAOKFM=F Big=F
 Integral buffers will be    131072 words long.
 Raffenetti 2 integral format.
 Two-electron integral symmetry is turned on.
 ------------------------------------------------------------------------------
 Polarizable Continuum Model (PCM)
 =================================
 Model                : PCM.
 Atomic radii         : SMD-Coulomb.
 Polarization charges : Total charges.
 Charge compensation  : None.
 Solution method      : On-the-fly selection.
 Cavity type          : VdW (van der Waals Surface) (Alpha=1.000).
 Cavity algorithm     : GePol (No added spheres)
                        Default sphere list used, NSphG=   31.
                        Lebedev-Laikov grids with approx.  5.0 points / Ang**2.
                        Smoothing algorithm: York/Karplus (Gamma=1.0000).
                        Polarization charges: spherical gaussians, with
                                              point-specific exponents (IZeta= 3).
                        Self-potential: point-specific (ISelfS= 7).
                        Self-field    : sphere-specific E.n sum rule (ISelfD= 2).
 1st derivatives      : Analytical E(r).r(x)/FMM algorithm (CHGder, D1EAlg=3).
                        Cavity 1st derivative terms included.
 Solvent              : Water, Eps=  78.355300 Eps(inf)=   1.777849
 ------------------------------------------------------------------------------
 ------------------------------------------------------------------------------
 Atomic radii for non-electrostatic terms: SMD-CDS.
 ------------------------------------------------------------------------------
 Nuclear repulsion after PCM non-electrostatic terms =      878.3727819175 Hartrees.
 One-electron integrals computed using PRISM.
 NBasis=   531 RedAO= T EigKep=  6.48D-06  NBF=   531
 NBsUse=   531 1.00D-06 EigRej= -1.00D+00 NBFU=   531
 ExpMin= 3.60D-02 ExpMax= 8.59D+03 ExpMxC= 1.30D+03 IAcc=3 IRadAn=         5 AccDes= 0.00D+00
 Harris functional with IExCor= 1009 and IRadAn=       5 diagonalized for initial guess.
 HarFok:  IExCor= 1009 AccDes= 0.00D+00 IRadAn=         5 IDoV= 1 UseB2=F ITyADJ=14
 ICtDFT=  3500011 ScaDFX=  1.000000  1.000000  1.000000  1.000000
 FoFCou: FMM=F IPFlag=           0 FMFlag=      100000 FMFlg1=           0
         NFxFlg=           0 DoJE=T BraDBF=F KetDBF=T FulRan=T
         wScrn=  0.000000 ICntrl=       500 IOpCl=  0 I1Cent=   200000004 NGrid=           0
         NMat0=    1 NMatS0=      1 NMatT0=    0 NMatD0=    1 NMtDS0=    0 NMtDT0=    0
 Petite list used in FoFCou.
 Requested convergence on RMS density matrix=1.00D-08 within 128 cycles.
 Requested convergence on MAX density matrix=1.00D-06.
 Requested convergence on             energy=1.00D-06.
 No special actions if energy rises.
 Inv3:  Mode=1 IEnd=    12036027.
 Iteration    1 A*A^-1 deviation from unit magnitude is 6.44D-15 for    573.
 Iteration    1 A*A^-1 deviation from orthogonality  is 3.60D-15 for   1904    582.
 Iteration    1 A^-1*A deviation from unit magnitude is 5.88D-15 for    368.
 Iteration    1 A^-1*A deviation from orthogonality  is 2.58D-13 for   1705   1672.
 Error on total polarization charges =  0.06327
 SCF Done:  E(RM062X) =  -617.506256846     A.U. after   12 cycles
            NFock= 12  Conv=0.45D-08     -V/T= 2.0035
 SMD-CDS (non-electrostatic) energy       (kcal/mol) =       4.06
 (included in total energy above)

 **********************************************************************

            Population analysis using the SCF Density.

 **********************************************************************

 Orbital symmetries:
       Occupied  (A) (A) (A) (A) (A) (A) (A) (A) (A) (A) (A) (A)
                 (A) (A) (A) (A) (A) (A) (A) (A) (A) (A) (A) (A)
                 (A) (A) (A) (A) (A) (A) (A) (A) (A) (A) (A) (A)
                 (A) (A) (A) (A) (A) (A) (A) (A) (A) (A) (A) (A)
                 (A) (A) (A)
       Virtual   (A) (A) (A) (A) (A) (A) (A) (A) (A) (A) (A) (A)
                 (A) (A) (A) (A) (A) (A) (A) (A) (A) (A) (A) (A)
                 (A) (A) (A) (A) (A) (A) (A) (A) (A) (A) (A) (A)
                 (A) (A) (A) (A) (A) (A) (A) (A) (A) (A) (A) (A)
                 (A) (A) (A) (A) (A) (A) (A) (A) (A) (A) (A) (A)
                 (A) (A) (A) (A) (A) (A) (A) (A) (A) (A) (A) (A)
                 (A) (A) (A) (A) (A) (A) (A) (A) (A) (A) (A) (A)
                 (A) (A) (A) (A) (A) (A) (A) (A) (A) (A) (A) (A)
                 (A) (A) (A) (A) (A) (A) (A) (A) (A) (A) (A) (A)
                 (A) (A) (A) (A) (A) (A) (A) (A) (A) (A) (A) (A)
                 (A) (A) (A) (A) (A) (A) (A) (A) (A) (A) (A) (A)
                 (A) (A) (A) (A) (A) (A) (A) (A) (A) (A) (A) (A)
                 (A) (A) (A) (A) (A) (A) (A) (A) (A) (A) (A) (A)
                 (A) (A) (A) (A) (A) (A) (A) (A) (A) (A) (A) (A)
                 (A) (A) (A) (A) (A) (A) (A) (A) (A) (A) (A) (A)
                 (A) (A) (A) (A) (A) (A) (A) (A) (A) (A) (A) (A)
                 (A) (A) (A) (A) (A) (A) (A) (A) (A) (A) (A) (A)
                 (A) (A) (A) (A) (A) (A) (A) (A) (A) (A) (A) (A)
                 (A) (A) (A) (A) (A) (A) (A) (A) (A) (A) (A) (A)
                 (A) (A) (A) (A) (A) (A) (A) (A) (A) (A) (A) (A)
                 (A) (A) (A) (A) (A) (A) (A) (A) (A) (A) (A) (A)
                 (A) (A) (A) (A) (A) (A) (A) (A) (A) (A) (A) (A)
                 (A) (A) (A) (A) (A) (A) (A) (A) (A) (A) (A) (A)
                 (A) (A) (A) (A) (A) (A) (A) (A) (A) (A) (A) (A)
                 (A) (A) (A) (A) (A) (A) (A) (A) (A) (A) (A) (A)
                 (A) (A) (A) (A) (A) (A) (A) (A) (A) (A) (A) (A)
                 (A) (A) (A) (A) (A) (A) (A) (A) (A) (A) (A) (A)
                 (A) (A) (A) (A) (A) (A) (A) (A) (A) (A) (A) (A)
                 (A) (A) (A) (A) (A) (A) (A) (A) (A) (A) (A) (A)
                 (A) (A) (A) (A) (A) (A) (A) (A) (A) (A) (A) (A)
                 (A) (A) (A) (A) (A) (A) (A) (A) (A) (A) (A) (A)
                 (A) (A) (A) (A) (A) (A) (A) (A) (A) (A) (A) (A)
                 (A) (A) (A) (A) (A) (A) (A) (A) (A) (A) (A) (A)
                 (A) (A) (A) (A) (A) (A) (A) (A) (A) (A) (A) (A)
                 (A) (A) (A) (A) (A) (A) (A) (A) (A) (A) (A) (A)
                 (A) (A) (A) (A) (A) (A) (A) (A) (A) (A) (A) (A)
                 (A) (A) (A) (A) (A) (A) (A) (A) (A) (A) (A) (A)
                 (A) (A) (A) (A) (A) (A) (A) (A) (A) (A) (A) (A)
                 (A) (A) (A) (A) (A) (A) (A) (A) (A) (A) (A) (A)
                 (A) (A) (A) (A) (A) (A) (A) (A) (A) (A) (A) (A)
 The electronic state is 1-A.
 Alpha  occ. eigenvalues --  -19.63623 -19.62923 -19.62862 -10.63205 -10.58259
 Alpha  occ. eigenvalues --  -10.57341 -10.57306 -10.57202 -10.52461 -10.52385
 Alpha  occ. eigenvalues --  -10.52329 -10.52313 -10.52126  -1.20648  -1.16727
 Alpha  occ. eigenvalues --   -1.14153  -0.90581  -0.89331  -0.87102  -0.83777
 Alpha  occ. eigenvalues --   -0.74479  -0.73770  -0.72694  -0.69964  -0.66194
 Alpha  occ. eigenvalues --   -0.64333  -0.60139  -0.58045  -0.57239  -0.55594
 Alpha  occ. eigenvalues --   -0.54824  -0.52677  -0.51469  -0.50851  -0.50258
 Alpha  occ. eigenvalues --   -0.48035  -0.46480  -0.45690  -0.45401  -0.44219
 Alpha  occ. eigenvalues --   -0.43164  -0.40284  -0.40236  -0.40065  -0.39262
 Alpha  occ. eigenvalues --   -0.39056  -0.37773  -0.36980  -0.35323  -0.32495
 Alpha  occ. eigenvalues --   -0.31708
 Alpha virt. eigenvalues --    0.00507   0.01290   0.01336   0.01495   0.02597
 Alpha virt. eigenvalues --    0.02879   0.03049   0.04041   0.04213   0.04689
 Alpha virt. eigenvalues --    0.04803   0.05236   0.05981   0.06079   0.07138
 Alpha virt. eigenvalues --    0.07559   0.07765   0.08485   0.08789   0.10367
 Alpha virt. eigenvalues --    0.10566   0.11055   0.11270   0.11770   0.11924
 Alpha virt. eigenvalues --    0.12655   0.13052   0.13633   0.13660   0.13886
 Alpha virt. eigenvalues --    0.14050   0.14144   0.14842   0.15094   0.15403
 Alpha virt. eigenvalues --    0.15588   0.16001   0.16153   0.16537   0.16638
 Alpha virt. eigenvalues --    0.17003   0.17332   0.17550   0.17764   0.18151
 Alpha virt. eigenvalues --    0.18298   0.18834   0.18960   0.19500   0.19590
 Alpha virt. eigenvalues --    0.19816   0.20249   0.20704   0.21014   0.22058
 Alpha virt. eigenvalues --    0.22818   0.23223   0.23592   0.24146   0.24897
 Alpha virt. eigenvalues --    0.25197   0.25968   0.26461   0.27416   0.27472
 Alpha virt. eigenvalues --    0.28380   0.28701   0.29054   0.29547   0.29843
 Alpha virt. eigenvalues --    0.30447   0.30636   0.30980   0.31627   0.31764
 Alpha virt. eigenvalues --    0.32431   0.32658   0.33476   0.33982   0.34395
 Alpha virt. eigenvalues --    0.35225   0.35737   0.35980   0.36331   0.36687
 Alpha virt. eigenvalues --    0.36897   0.37004   0.37376   0.37490   0.38204
 Alpha virt. eigenvalues --    0.38442   0.39111   0.39699   0.39985   0.40710
 Alpha virt. eigenvalues --    0.41824   0.42510   0.42635   0.44319   0.45132
 Alpha virt. eigenvalues --    0.46191   0.47806   0.49304   0.49990   0.50710
 Alpha virt. eigenvalues --    0.51947   0.53366   0.53740   0.53918   0.55926
 Alpha virt. eigenvalues --    0.56407   0.57034   0.58463   0.59069   0.59752
 Alpha virt. eigenvalues --    0.60769   0.60943   0.61468   0.61660   0.62081
 Alpha virt. eigenvalues --    0.62769   0.63040   0.63769   0.64024   0.64286
 Alpha virt. eigenvalues --    0.64650   0.65392   0.66180   0.66664   0.67256
 Alpha virt. eigenvalues --    0.67624   0.68054   0.69406   0.69774   0.70742
 Alpha virt. eigenvalues --    0.71280   0.72216   0.72721   0.73326   0.73633
 Alpha virt. eigenvalues --    0.74548   0.74602   0.75083   0.75824   0.76463
 Alpha virt. eigenvalues --    0.76876   0.77261   0.78025   0.78759   0.79720
 Alpha virt. eigenvalues --    0.81244   0.82903   0.83871   0.84640   0.85824
 Alpha virt. eigenvalues --    0.86536   0.87146   0.88529   0.89306   0.90440
 Alpha virt. eigenvalues --    0.91200   0.91741   0.93236   0.93561   0.95460
 Alpha virt. eigenvalues --    0.96968   0.97871   1.00996   1.01333   1.02321
 Alpha virt. eigenvalues --    1.03461   1.04374   1.05225   1.06633   1.07127
 Alpha virt. eigenvalues --    1.07249   1.07908   1.09530   1.11102   1.11763
 Alpha virt. eigenvalues --    1.13588   1.14398   1.15038   1.15927   1.16466
 Alpha virt. eigenvalues --    1.17872   1.18302   1.18569   1.19082   1.19676
 Alpha virt. eigenvalues --    1.20851   1.21912   1.22236   1.23095   1.24074
 Alpha virt. eigenvalues --    1.24378   1.24900   1.26091   1.26436   1.27113
 Alpha virt. eigenvalues --    1.28420   1.28961   1.29289   1.30172   1.31315
 Alpha virt. eigenvalues --    1.31431   1.32045   1.32489   1.34033   1.34066
 Alpha virt. eigenvalues --    1.34507   1.35471   1.36159   1.36833   1.37622
 Alpha virt. eigenvalues --    1.38243   1.39338   1.40248   1.40693   1.41723
 Alpha virt. eigenvalues --    1.42259   1.42702   1.43407   1.44552   1.44806
 Alpha virt. eigenvalues --    1.45351   1.45932   1.46544   1.47843   1.49012
 Alpha virt. eigenvalues --    1.49745   1.50636   1.50741   1.51013   1.51304
 Alpha virt. eigenvalues --    1.51946   1.53167   1.53636   1.55288   1.55546
 Alpha virt. eigenvalues --    1.56153   1.57295   1.58073   1.58377   1.58662
 Alpha virt. eigenvalues --    1.59873   1.60143   1.61558   1.61779   1.62464
 Alpha virt. eigenvalues --    1.63981   1.64371   1.65435   1.66136   1.67585
 Alpha virt. eigenvalues --    1.68228   1.69018   1.69793   1.70405   1.71987
 Alpha virt. eigenvalues --    1.72972   1.75121   1.76949   1.77933   1.78398
 Alpha virt. eigenvalues --    1.79101   1.79900   1.80611   1.82837   1.84077
 Alpha virt. eigenvalues --    1.87252   1.88280   1.89595   1.94236   1.96582
 Alpha virt. eigenvalues --    2.02168   2.07556   2.11885   2.15937   2.18794
 Alpha virt. eigenvalues --    2.24790   2.25848   2.29867   2.33004   2.36057
 Alpha virt. eigenvalues --    2.41079   2.42453   2.44780   2.48724   2.52524
 Alpha virt. eigenvalues --    2.57917   2.76122   2.76638   2.77926   2.82173
 Alpha virt. eigenvalues --    2.87910   2.90862   2.93060   2.93525   2.95495
 Alpha virt. eigenvalues --    2.97150   2.97688   3.00803   3.02321   3.04222
 Alpha virt. eigenvalues --    3.07333   3.07690   3.08476   3.10406   3.11544
 Alpha virt. eigenvalues --    3.13001   3.15982   3.16546   3.17764   3.20788
 Alpha virt. eigenvalues --    3.25753   3.30340   3.31715   3.32926   3.35937
 Alpha virt. eigenvalues --    3.36151   3.37762   3.38900   3.40751   3.41621
 Alpha virt. eigenvalues --    3.43123   3.43821   3.44799   3.45885   3.46536
 Alpha virt. eigenvalues --    3.47330   3.48162   3.49997   3.51023   3.52012
 Alpha virt. eigenvalues --    3.53431   3.54355   3.54556   3.55666   3.56626
 Alpha virt. eigenvalues --    3.57146   3.58181   3.58936   3.59517   3.60489
 Alpha virt. eigenvalues --    3.61527   3.62104   3.62667   3.62884   3.64723
 Alpha virt. eigenvalues --    3.66148   3.66996   3.67693   3.68939   3.69789
 Alpha virt. eigenvalues --    3.71137   3.71656   3.72390   3.72992   3.73719
 Alpha virt. eigenvalues --    3.74409   3.75714   3.76476   3.76883   3.77840
 Alpha virt. eigenvalues --    3.78409   3.78746   3.79895   3.83197   3.84761
 Alpha virt. eigenvalues --    3.85450   3.87296   3.89624   3.90742   3.91974
 Alpha virt. eigenvalues --    3.92451   3.93983   3.95127   3.97204   3.99031
 Alpha virt. eigenvalues --    4.01062   4.01996   4.03682   4.04381   4.04987
 Alpha virt. eigenvalues --    4.05608   4.06138   4.06391   4.07029   4.07781
 Alpha virt. eigenvalues --    4.07907   4.09246   4.10018   4.10773   4.12202
 Alpha virt. eigenvalues --    4.12361   4.13144   4.14601   4.14937   4.15994
 Alpha virt. eigenvalues --    4.17048   4.17799   4.18048   4.19398   4.21222
 Alpha virt. eigenvalues --    4.21955   4.23496   4.24985   4.26270   4.27471
 Alpha virt. eigenvalues --    4.28165   4.29503   4.30750   4.31538   4.33019
 Alpha virt. eigenvalues --    4.34189   4.34592   4.35375   4.36271   4.38343
 Alpha virt. eigenvalues --    4.41383   4.44945   4.45506   4.47052   4.52237
 Alpha virt. eigenvalues --    4.58370   4.61592   4.77056   4.77329   4.83445
 Alpha virt. eigenvalues --    4.88945   4.92082   4.93519   5.00089   5.00290
 Alpha virt. eigenvalues --    5.06673   5.07235   5.08287   5.09197   5.12266
 Alpha virt. eigenvalues --    5.12974   5.14522   5.15433   5.29989   5.35564
 Alpha virt. eigenvalues --    5.38000   5.57048   5.59363   5.63052   5.86784
 Alpha virt. eigenvalues --    5.88964   6.04420   7.01817   7.04956   7.05400
 Alpha virt. eigenvalues --    7.09435   7.10157   7.12606   7.13445   7.15985
 Alpha virt. eigenvalues --    7.24848   7.34576   7.39481   7.44335   7.53435
 Alpha virt. eigenvalues --    7.55711   7.63347  23.96067  23.98111  24.07054
 Alpha virt. eigenvalues --   24.08873  24.11688  24.13703  24.14890  24.15906
 Alpha virt. eigenvalues --   24.17261  24.18492  50.17119  50.18627  50.22864
          Condensed to atoms (all electrons):
               1          2          3          4          5          6
     1  C    5.689309   0.003560  -0.002411  -0.000310   0.029753  -0.027601
     2  C    0.003560   6.204694   0.155460   0.146605   0.031052   0.016279
     3  C   -0.002411   0.155460   5.558282  -0.021474  -0.004024   0.002277
     4  O   -0.000310   0.146605  -0.021474   8.396775   0.000005  -0.000411
     5  O    0.029753   0.031052  -0.004024   0.000005   8.443239  -0.000108
     6  C   -0.027601   0.016279   0.002277  -0.000411  -0.000108   5.468678
     7  O    0.025102  -0.170440  -0.006414   0.002008   0.011298  -0.004308
     8  C   -0.013242  -0.008242   0.001550   0.000088  -0.058481   0.029277
     9  C    0.012321  -0.185980   0.005754  -0.028573  -0.034250  -0.019007
    10  C    0.040315  -0.023772  -0.121125   0.000350   0.276206  -0.174096
    11  C   -0.002437  -0.221783   0.094150   0.082453  -0.002351  -0.000083
    12  C   -0.113368  -0.388926  -0.065557   0.017809  -0.072386   0.052507
    13  C    0.003632   0.089756   0.021835   0.001584  -0.051899   0.035307
    14  H    0.425356   0.001035   0.000104  -0.000002  -0.002889   0.006130
    15  H    0.520660  -0.001516  -0.000015   0.000012   0.001549  -0.014774
    16  H   -0.002339   0.377280  -0.005185  -0.034304   0.000244  -0.001536
    17  H    0.002731   0.432000   0.006199  -0.075369   0.000019  -0.000001
    18  H    0.000364   0.012399   0.494595   0.001208   0.001634  -0.000642
    19  H   -0.000034  -0.006988   0.422959   0.006891  -0.000885  -0.000136
    20  H   -0.011804   0.003240   0.000728   0.000025  -0.025704   0.473704
    21  H    0.006696   0.000136  -0.000458  -0.000016  -0.072989   0.443150
    22  H   -0.017829   0.000075   0.000010   0.000010  -0.001214  -0.076603
    23  H   -0.061149  -0.000329   0.000008  -0.000009   0.006964  -0.035488
    24  H    0.002197  -0.020338  -0.078652  -0.000574  -0.001263  -0.001159
    25  H   -0.002212   0.004016   0.005288  -0.002672   0.006909   0.001264
    26  H   -0.029166  -0.020008  -0.004130   0.001116  -0.056544   0.009196
    27  H   -0.000097   0.017777  -0.046334  -0.068924  -0.000149  -0.000053
    28  H    0.000081  -0.037856  -0.040590  -0.042004   0.000154  -0.000013
    29  H   -0.002521  -0.077819  -0.014115  -0.013303  -0.004911  -0.001917
    30  H   -0.020229  -0.001639   0.000691   0.000004  -0.007973  -0.005295
    31  H   -0.031690   0.002667   0.000134   0.000263   0.005631   0.004680
               7          8          9         10         11         12
     1  C    0.025102  -0.013242   0.012321   0.040315  -0.002437  -0.113368
     2  C   -0.170440  -0.008242  -0.185980  -0.023772  -0.221783  -0.388926
     3  C   -0.006414   0.001550   0.005754  -0.121125   0.094150  -0.065557
     4  O    0.002008   0.000088  -0.028573   0.000350   0.082453   0.017809
     5  O    0.011298  -0.058481  -0.034250   0.276206  -0.002351  -0.072386
     6  C   -0.004308   0.029277  -0.019007  -0.174096  -0.000083   0.052507
     7  O    8.398585   0.009059  -0.180639   0.153701   0.017470   0.371459
     8  C    0.009059   5.561671  -0.005516   0.128924   0.001486  -0.007354
     9  C   -0.180639  -0.005516   6.622830   0.121645  -0.074184  -0.812565
    10  C    0.153701   0.128924   0.121645   6.321345  -0.031757  -0.557780
    11  C    0.017470   0.001486  -0.074184  -0.031757   5.412386   0.132973
    12  C    0.371459  -0.007354  -0.812565  -0.557780   0.132973   7.191286
    13  C   -0.242201  -0.076535  -0.027090  -0.379305  -0.004277  -0.162471
    14  H   -0.003078  -0.027707   0.000219   0.040468  -0.000089  -0.006330
    15  H    0.000708  -0.061160   0.001166  -0.020992   0.000072   0.004565
    16  H    0.004546   0.000804  -0.004781   0.002590   0.003542  -0.018545
    17  H    0.000843  -0.000804   0.035617   0.007079   0.005903  -0.061760
    18  H    0.000094   0.000107  -0.032490   0.008800  -0.086366  -0.022281
    19  H   -0.001599  -0.000155  -0.019269  -0.003009  -0.031775  -0.004057
    20  H    0.004545  -0.054148  -0.001912  -0.050799   0.000018   0.014861
    21  H   -0.002443  -0.043938   0.002050   0.007886   0.000109  -0.003212
    22  H    0.003111   0.485099  -0.001682  -0.015688   0.000106   0.006868
    23  H    0.000162   0.463554  -0.000015   0.004321  -0.000020  -0.000851
    24  H    0.000690  -0.000057   0.490888   0.028139  -0.015018  -0.038313
    25  H   -0.003476  -0.000118   0.445207  -0.016209  -0.003494  -0.057003
    26  H   -0.032412   0.013744   0.009175   0.435140  -0.001435   0.037544
    27  H    0.000981   0.000046   0.010982  -0.003763   0.437350  -0.006265
    28  H   -0.000228   0.000046  -0.030070   0.003862   0.462970   0.043192
    29  H   -0.023313  -0.003853   0.027613   0.008508   0.017586   0.455482
    30  H    0.002423  -0.007751   0.006322  -0.103745  -0.000470   0.001264
    31  H   -0.002361   0.000468   0.001516  -0.039341   0.000126   0.000158
              13         14         15         16         17         18
     1  C    0.003632   0.425356   0.520660  -0.002339   0.002731   0.000364
     2  C    0.089756   0.001035  -0.001516   0.377280   0.432000   0.012399
     3  C    0.021835   0.000104  -0.000015  -0.005185   0.006199   0.494595
     4  O    0.001584  -0.000002   0.000012  -0.034304  -0.075369   0.001208
     5  O   -0.051899  -0.002889   0.001549   0.000244   0.000019   0.001634
     6  C    0.035307   0.006130  -0.014774  -0.001536  -0.000001  -0.000642
     7  O   -0.242201  -0.003078   0.000708   0.004546   0.000843   0.000094
     8  C   -0.076535  -0.027707  -0.061160   0.000804  -0.000804   0.000107
     9  C   -0.027090   0.000219   0.001166  -0.004781   0.035617  -0.032490
    10  C   -0.379305   0.040468  -0.020992   0.002590   0.007079   0.008800
    11  C   -0.004277  -0.000089   0.000072   0.003542   0.005903  -0.086366
    12  C   -0.162471  -0.006330   0.004565  -0.018545  -0.061760  -0.022281
    13  C    6.247843  -0.064785  -0.047130   0.007237  -0.008635   0.001660
    14  H   -0.064785   0.457147   0.000607  -0.000012   0.000044   0.000013
    15  H   -0.047130   0.000607   0.448844  -0.000008   0.000305  -0.000016
    16  H    0.007237  -0.000012  -0.000008   0.478540  -0.017995   0.002914
    17  H   -0.008635   0.000044   0.000305  -0.017995   0.476798  -0.002235
    18  H    0.001660   0.000013  -0.000016   0.002914  -0.002235   0.470962
    19  H   -0.000195   0.000001   0.000006  -0.002053   0.002318  -0.009537
    20  H    0.017661  -0.001683   0.001662   0.000083   0.000019   0.000060
    21  H    0.005999   0.000524  -0.002131  -0.000005  -0.000029  -0.000194
    22  H   -0.006938  -0.000975   0.002618   0.000086  -0.000031   0.000027
    23  H    0.005717  -0.008828  -0.005507  -0.000050  -0.000021  -0.000018
    24  H   -0.003540   0.000005   0.000013  -0.001261  -0.002225   0.003338
    25  H    0.008862   0.000055   0.000006  -0.002085  -0.000458  -0.002487
    26  H   -0.023182  -0.001496  -0.006139   0.001195  -0.003139   0.001126
    27  H    0.000027  -0.000003   0.000003  -0.002232   0.002242  -0.004193
    28  H    0.000150   0.000003  -0.000005   0.009041  -0.003724   0.003120
    29  H   -0.027694  -0.000187   0.000637  -0.005605  -0.001861  -0.010921
    30  H    0.502743  -0.002631   0.004007  -0.000065   0.000997   0.000087
    31  H    0.436634  -0.010827  -0.006503  -0.000381  -0.001585  -0.000070
              19         20         21         22         23         24
     1  C   -0.000034  -0.011804   0.006696  -0.017829  -0.061149   0.002197
     2  C   -0.006988   0.003240   0.000136   0.000075  -0.000329  -0.020338
     3  C    0.422959   0.000728  -0.000458   0.000010   0.000008  -0.078652
     4  O    0.006891   0.000025  -0.000016   0.000010  -0.000009  -0.000574
     5  O   -0.000885  -0.025704  -0.072989  -0.001214   0.006964  -0.001263
     6  C   -0.000136   0.473704   0.443150  -0.076603  -0.035488  -0.001159
     7  O   -0.001599   0.004545  -0.002443   0.003111   0.000162   0.000690
     8  C   -0.000155  -0.054148  -0.043938   0.485099   0.463554  -0.000057
     9  C   -0.019269  -0.001912   0.002050  -0.001682  -0.000015   0.490888
    10  C   -0.003009  -0.050799   0.007886  -0.015688   0.004321   0.028139
    11  C   -0.031775   0.000018   0.000109   0.000106  -0.000020  -0.015018
    12  C   -0.004057   0.014861  -0.003212   0.006868  -0.000851  -0.038313
    13  C   -0.000195   0.017661   0.005999  -0.006938   0.005717  -0.003540
    14  H    0.000001  -0.001683   0.000524  -0.000975  -0.008828   0.000005
    15  H    0.000006   0.001662  -0.002131   0.002618  -0.005507   0.000013
    16  H   -0.002053   0.000083  -0.000005   0.000086  -0.000050  -0.001261
    17  H    0.002318   0.000019  -0.000029  -0.000031  -0.000021  -0.002225
    18  H   -0.009537   0.000060  -0.000194   0.000027  -0.000018   0.003338
    19  H    0.484397   0.000019   0.000099  -0.000021  -0.000002  -0.005250
    20  H    0.000019   0.474103  -0.006895   0.003991   0.000215  -0.000055
    21  H    0.000099  -0.006895   0.476557  -0.003112  -0.009930  -0.000037
    22  H   -0.000021   0.003991  -0.003112   0.472004  -0.011809  -0.000038
    23  H   -0.000002   0.000215  -0.009930  -0.011809   0.472735   0.000024
    24  H   -0.005250  -0.000055  -0.000037  -0.000038   0.000024   0.450075
    25  H   -0.010114   0.000566  -0.001453  -0.000143   0.000021  -0.010737
    26  H   -0.000239  -0.002130  -0.001008  -0.000307   0.000267  -0.000029
    27  H   -0.008532  -0.000004   0.000003   0.000004  -0.000000  -0.001606
    28  H    0.002111  -0.000017  -0.000011  -0.000000   0.000001  -0.003100
    29  H    0.000745  -0.001846   0.000846  -0.000167   0.000132   0.002088
    30  H   -0.000011   0.000121  -0.000777   0.001357  -0.003110  -0.000208
    31  H    0.000028   0.000052   0.001300  -0.001650   0.001808  -0.000127
              25         26         27         28         29         30
     1  C   -0.002212  -0.029166  -0.000097   0.000081  -0.002521  -0.020229
     2  C    0.004016  -0.020008   0.017777  -0.037856  -0.077819  -0.001639
     3  C    0.005288  -0.004130  -0.046334  -0.040590  -0.014115   0.000691
     4  O   -0.002672   0.001116  -0.068924  -0.042004  -0.013303   0.000004
     5  O    0.006909  -0.056544  -0.000149   0.000154  -0.004911  -0.007973
     6  C    0.001264   0.009196  -0.000053  -0.000013  -0.001917  -0.005295
     7  O   -0.003476  -0.032412   0.000981  -0.000228  -0.023313   0.002423
     8  C   -0.000118   0.013744   0.000046   0.000046  -0.003853  -0.007751
     9  C    0.445207   0.009175   0.010982  -0.030070   0.027613   0.006322
    10  C   -0.016209   0.435140  -0.003763   0.003862   0.008508  -0.103745
    11  C   -0.003494  -0.001435   0.437350   0.462970   0.017586  -0.000470
    12  C   -0.057003   0.037544  -0.006265   0.043192   0.455482   0.001264
    13  C    0.008862  -0.023182   0.000027   0.000150  -0.027694   0.502743
    14  H    0.000055  -0.001496  -0.000003   0.000003  -0.000187  -0.002631
    15  H    0.000006  -0.006139   0.000003  -0.000005   0.000637   0.004007
    16  H   -0.002085   0.001195  -0.002232   0.009041  -0.005605  -0.000065
    17  H   -0.000458  -0.003139   0.002242  -0.003724  -0.001861   0.000997
    18  H   -0.002487   0.001126  -0.004193   0.003120  -0.010921   0.000087
    19  H   -0.010114  -0.000239  -0.008532   0.002111   0.000745  -0.000011
    20  H    0.000566  -0.002130  -0.000004  -0.000017  -0.001846   0.000121
    21  H   -0.001453  -0.001008   0.000003  -0.000011   0.000846  -0.000777
    22  H   -0.000143  -0.000307   0.000004  -0.000000  -0.000167   0.001357
    23  H    0.000021   0.000267  -0.000000   0.000001   0.000132  -0.003110
    24  H   -0.010737  -0.000029  -0.001606  -0.003100   0.002088  -0.000208
    25  H    0.462181  -0.001513   0.001180  -0.000448  -0.001251   0.000331
    26  H   -0.001513   0.425263  -0.000270   0.000641  -0.008397  -0.001521
    27  H    0.001180  -0.000270   0.462208  -0.005806   0.000649  -0.000037
    28  H   -0.000448   0.000641  -0.005806   0.481919  -0.002623   0.000104
    29  H   -0.001251  -0.008397   0.000649  -0.002623   0.434144  -0.000758
    30  H    0.000331  -0.001521  -0.000037   0.000104  -0.000758   0.456811
    31  H   -0.000064   0.001095   0.000024  -0.000125   0.000611  -0.019254
              31
     1  C   -0.031690
     2  C    0.002667
     3  C    0.000134
     4  O    0.000263
     5  O    0.005631
     6  C    0.004680
     7  O   -0.002361
     8  C    0.000468
     9  C    0.001516
    10  C   -0.039341
    11  C    0.000126
    12  C    0.000158
    13  C    0.436634
    14  H   -0.010827
    15  H   -0.006503
    16  H   -0.000381
    17  H   -0.001585
    18  H   -0.000070
    19  H    0.000028
    20  H    0.000052
    21  H    0.001300
    22  H   -0.001650
    23  H    0.001808
    24  H   -0.000127
    25  H   -0.000064
    26  H    0.001095
    27  H    0.000024
    28  H   -0.000125
    29  H    0.000611
    30  H   -0.019254
    31  H    0.474561
 Mulliken charges:
               1
     1  C   -0.423639
     2  C   -0.332396
     3  C   -0.359540
     4  O   -0.369260
     5  O   -0.416639
     6  C   -0.179217
     7  O   -0.333873
     8  C   -0.326862
     9  C   -0.335279
    10  C   -0.047897
    11  C   -0.193164
    12  C    0.069057
    13  C   -0.260772
    14  H    0.199811
    15  H    0.178460
    16  H    0.210339
    17  H    0.206761
    18  H    0.168944
    19  H    0.184289
    20  H    0.161324
    21  H    0.203285
    22  H    0.162841
    23  H    0.181206
    24  H    0.206131
    25  H    0.180050
    26  H    0.257563
    27  H    0.214794
    28  H    0.159227
    29  H    0.254021
    30  H    0.198212
    31  H    0.182222
 Sum of Mulliken charges =  -0.00000
 Mulliken charges with hydrogens summed into heavy atoms:
               1
     1  C   -0.045368
     2  C    0.084704
     3  C   -0.006307
     4  O   -0.369260
     5  O   -0.416639
     6  C    0.185392
     7  O   -0.333873
     8  C    0.017186
     9  C    0.050903
    10  C    0.209666
    11  C    0.180857
    12  C    0.323077
    13  C    0.119662
 Electronic spatial extent (au):  <R**2>=           3387.7494
 Charge=              0.0000 electrons
 Dipole moment (field-independent basis, Debye):
    X=             -2.2335    Y=              0.6427    Z=             -0.8212  Tot=              2.4649
 Quadrupole moment (field-independent basis, Debye-Ang):
   XX=            -69.4222   YY=            -79.4117   ZZ=            -81.2684
   XY=              5.9307   XZ=              8.6758   YZ=             -1.5252
 Traceless Quadrupole moment (field-independent basis, Debye-Ang):
   XX=              7.2786   YY=             -2.7109   ZZ=             -4.5677
   XY=              5.9307   XZ=              8.6758   YZ=             -1.5252
 Octapole moment (field-independent basis, Debye-Ang**2):
  XXX=            -23.6309  YYY=              0.6370  ZZZ=             -0.9925  XYY=             -4.7679
  XXY=             26.7150  XXZ=             17.6184  XZZ=             -5.8631  YZZ=              1.6595
  YYZ=             -1.6291  XYZ=             -2.5823
 Hexadecapole moment (field-independent basis, Debye-Ang**3):
 XXXX=          -3499.0830 YYYY=           -581.0923 ZZZZ=           -240.7030 XXXY=             63.3691
 XXXZ=             77.0396 YYYX=            -16.6732 YYYZ=              1.6825 ZZZX=              6.4661
 ZZZY=             -1.1923 XXYY=           -708.1950 XXZZ=           -661.1435 YYZZ=           -140.1516
 XXYZ=            -34.9716 YYXZ=              8.7685 ZZXY=              2.4135
 N-N= 8.783727819175D+02 E-N=-3.198909592383D+03  KE= 6.153708741488D+02
 D1PCM: PCM CHGder 1st derivatives, ID1Alg=3 FixD1E=F DoIter=F DoCFld=F I1PDM=0.
 Calling FoFJK, ICntrl=      2127 FMM=F ISym2X=0 I1Cent= 0 IOpClX= 0 NMat=1 NMatS=1 NMatT=0.
 ***** Axes restored to original set *****
 -------------------------------------------------------------------
 Center     Atomic                   Forces (Hartrees/Bohr)
 Number     Number              X              Y              Z
 -------------------------------------------------------------------
      1        6           0.002645643    0.003115402    0.001183681
      2        6          -0.001800060    0.005502128    0.001394060
      3        6          -0.000605930   -0.002674199    0.001694716
      4        8           0.004484026   -0.004048837   -0.010644566
      5        8           0.007077984    0.010497200    0.006082739
      6        6          -0.004518261   -0.004610405    0.001865114
      7        8           0.000668404   -0.004878171    0.011604083
      8        6           0.002031218   -0.001880974   -0.001944043
      9        6           0.002771718   -0.002133691   -0.003416404
     10        6          -0.005748008   -0.005715141    0.000203407
     11        6          -0.005187599    0.004771177    0.002112684
     12        6           0.002721062    0.001666172    0.001648050
     13        6          -0.001184967    0.000932812   -0.003193956
     14        1          -0.001794262   -0.001264036    0.001469914
     15        1           0.000571200   -0.000601856   -0.003258966
     16        1          -0.000073184   -0.001444545    0.006071665
     17        1          -0.002595799   -0.003053603   -0.002962140
     18        1          -0.000570108    0.000745018   -0.003191078
     19        1           0.001295201    0.001822602    0.001823385
     20        1          -0.000301368   -0.001865995   -0.005337974
     21        1          -0.000632402    0.004520931    0.000518918
     22        1           0.000384078    0.000962380    0.003189781
     23        1          -0.002217252    0.000545281   -0.001560464
     24        1           0.000545006   -0.002284789    0.003106363
     25        1          -0.002678340    0.002523275   -0.000400200
     26        1          -0.000216203   -0.001893279   -0.008073831
     27        1           0.003728746    0.001121945   -0.002263432
     28        1           0.000584736   -0.001585314    0.005489808
     29        1          -0.000825260    0.002323114   -0.005985138
     30        1           0.000467082    0.001831922    0.003422259
     31        1           0.000972899   -0.002946524   -0.000648436
 -------------------------------------------------------------------
 Cartesian Forces:  Max     0.011604083 RMS     0.003573258

 GradGradGradGradGradGradGradGradGradGradGradGradGradGradGradGradGradGrad
 Berny optimization.
 FormGI is forming the generalized inverse of G from B-inverse, IUseBI=4.
 Internal  Forces:  Max     0.010650317 RMS     0.002141638
 Search for a local minimum.
 Step number   1 out of a maximum of  186
 All quantities printed in internal units (Hartrees-Bohrs-Radians)
 Mixed Optimization -- RFO/linear search
 Second derivative matrix not updated -- first step.
 ITU=  0
     Eigenvalues ---    0.00609   0.00642   0.00743   0.00759   0.01450
     Eigenvalues ---    0.01494   0.01865   0.02736   0.02761   0.03114
     Eigenvalues ---    0.03154   0.04169   0.04206   0.04608   0.04778
     Eigenvalues ---    0.04861   0.04923   0.05127   0.05152   0.05164
     Eigenvalues ---    0.05337   0.05704   0.05740   0.06160   0.06174
     Eigenvalues ---    0.06306   0.06395   0.06521   0.07689   0.07866
     Eigenvalues ---    0.07951   0.07960   0.07971   0.08004   0.08112
     Eigenvalues ---    0.08745   0.09328   0.09932   0.10874   0.11482
     Eigenvalues ---    0.11610   0.11709   0.11712   0.12329   0.12506
     Eigenvalues ---    0.14517   0.14606   0.16271   0.16716   0.17558
     Eigenvalues ---    0.19211   0.21181   0.21859   0.25000   0.28493
     Eigenvalues ---    0.28607   0.28697   0.28771   0.28993   0.29294
     Eigenvalues ---    0.30219   0.30560   0.35038   0.35065   0.35078
     Eigenvalues ---    0.35081   0.35092   0.35126   0.35136   0.35143
     Eigenvalues ---    0.35183   0.35245   0.35295   0.35370   0.35378
     Eigenvalues ---    0.35463   0.35495   0.35811   0.35828   0.35885
     Eigenvalues ---    0.41128   0.41378   0.42387   0.42569   0.42760
     Eigenvalues ---    0.478661000.000001000.000001000.000001000.00000
     Eigenvalues --- 1000.000001000.000001000.000001000.000001000.00000
     Eigenvalues --- 1000.000001000.000001000.000001000.000001000.00000
     Eigenvalues --- 1000.000001000.000001000.000001000.000001000.00000
     Eigenvalues --- 1000.000001000.000001000.000001000.000001000.00000
     Eigenvalues --- 1000.000001000.000001000.000001000.000001000.00000
     Eigenvalues --- 1000.000001000.000001000.000001000.000001000.00000
     Eigenvalues --- 1000.000001000.000001000.000001000.000001000.00000
     Eigenvalues --- 1000.000001000.000001000.000001000.000001000.00000
     Eigenvalues --- 1000.000001000.000001000.000001000.000001000.00000
     Eigenvalues --- 1000.000001000.000001000.000001000.000001000.00000
     Eigenvalues --- 1000.000001000.000001000.000001000.000001000.00000
     Eigenvalues --- 1000.000001000.000001000.000001000.000001000.00000
     Eigenvalues --- 1000.000001000.000001000.000001000.000001000.00000
     Eigenvalues --- 1000.000001000.000001000.000001000.000001000.00000
     Eigenvalues --- 1000.000001000.000001000.000001000.000001000.00000
     Eigenvalues --- 1000.000001000.000001000.000001000.000001000.00000
     Eigenvalues --- 1000.000001000.000001000.000001000.000001000.00000
     Eigenvalues --- 1000.000001000.000001000.000001000.000001000.00000
     Eigenvalues --- 1000.000001000.000001000.000001000.000001000.00000
 RFO step:  Lambda=-2.88453646D-03 EMin= 6.09469864D-03
 Linear search not attempted -- first point.
 Iteration  1 RMS(Cart)=  0.03355390 RMS(Int)=  0.00032051
 Iteration  2 RMS(Cart)=  0.00080430 RMS(Int)=  0.00002218
 Iteration  3 RMS(Cart)=  0.00000010 RMS(Int)=  0.00002218
 Iteration  1 RMS(Cart)=  0.00000476 RMS(Int)=  0.00000107
 Iteration  2 RMS(Cart)=  0.00000263 RMS(Int)=  0.00000120
 Iteration  3 RMS(Cart)=  0.00000145 RMS(Int)=  0.00000135
 Iteration  4 RMS(Cart)=  0.00000080 RMS(Int)=  0.00000146
 Variable       Old X    -DE/DX   Delta X   Delta X   Delta X     New X
                                 (Linear)    (Quad)   (Total)
    R1        2.89014  -0.00068   0.00000  -0.00363  -0.00366   2.88649
    R2        2.89363  -0.00107   0.00000  -0.00413  -0.00417   2.88947
    R3        2.05079   0.00263   0.00000   0.00739   0.00739   2.05818
    R4        2.05612   0.00326   0.00000   0.00923   0.00923   2.06536
    R5        2.66556   0.00622   0.00000   0.01464   0.01467   2.68022
    R6        2.87851  -0.00056   0.00000  -0.00165  -0.00164   2.87687
    R7        2.05548   0.00602   0.00000   0.01702   0.01702   2.07251
    R8        2.04377   0.00492   0.00000   0.01363   0.01363   2.05740
    R9        2.89340  -0.00098   0.00000  -0.00417  -0.00420   2.88920
   R10        2.87257  -0.00079   0.00000  -0.00270  -0.00270   2.86987
   R11        2.05454   0.00323   0.00000   0.00913   0.00913   2.06367
   R12        2.05199   0.00288   0.00000   0.00810   0.00810   2.06009
   R13        2.67722   0.00616   0.00000   0.01468   0.01471   2.69194
   R14        2.68179   0.00576   0.00000   0.01381   0.01384   2.69563
   R15        2.66004   0.00840   0.00000   0.01970   0.01973   2.67977
   R16        2.87268  -0.00070   0.00000  -0.00251  -0.00251   2.87016
   R17        2.05525   0.00557   0.00000   0.01574   0.01574   2.07099
   R18        2.04262   0.00459   0.00000   0.01269   0.01269   2.05530
   R19        2.62082   0.00523   0.00000   0.01087   0.01087   2.63169
   R20        2.68205   0.00505   0.00000   0.01179   0.01179   2.69384
   R21        2.05471   0.00326   0.00000   0.00920   0.00920   2.06390
   R22        2.05278   0.00276   0.00000   0.00776   0.00776   2.06054
   R23        2.87822  -0.00196   0.00000  -0.00704  -0.00707   2.87115
   R24        2.05569   0.00371   0.00000   0.01050   0.01050   2.06619
   R25        2.04929   0.00361   0.00000   0.01011   0.01011   2.05940
   R26        2.86523  -0.00157   0.00000  -0.00473  -0.00472   2.86051
   R27        2.05443   0.00824   0.00000   0.02326   0.02326   2.07769
   R28        2.04351   0.00449   0.00000   0.01244   0.01244   2.05596
   R29        2.05544   0.00565   0.00000   0.01598   0.01598   2.07141
   R30        2.04879   0.00644   0.00000   0.01799   0.01799   2.06678
   R31        2.05379   0.00372   0.00000   0.01048   0.01048   2.06427
   R32        2.05065   0.00315   0.00000   0.00882   0.00882   2.05947
    A1        1.92672   0.00204   0.00000  -0.00124  -0.00132   1.92540
    A2        1.93164  -0.00052   0.00000   0.00069   0.00072   1.93236
    A3        1.90872  -0.00075   0.00000  -0.00149  -0.00148   1.90724
    A4        1.91961  -0.00062   0.00000  -0.00063  -0.00060   1.91901
    A5        1.90917  -0.00081   0.00000  -0.00206  -0.00205   1.90713
    A6        1.86691   0.00059   0.00000   0.00486   0.00485   1.87176
    A7        1.93360   0.00125   0.00000   0.00642   0.00646   1.94006
    A8        1.91729   0.00101   0.00000   0.00735   0.00737   1.92466
    A9        1.86778  -0.00039   0.00000   0.00322   0.00323   1.87100
   A10        1.91655  -0.00194   0.00000  -0.01373  -0.01377   1.90279
   A11        1.93116  -0.00069   0.00000  -0.00644  -0.00648   1.92468
   A12        1.89659   0.00082   0.00000   0.00372   0.00363   1.90022
   A13        1.92948  -0.00040   0.00000  -0.00621  -0.00628   1.92320
   A14        1.91967   0.00061   0.00000   0.00167   0.00168   1.92134
   A15        1.92753  -0.00046   0.00000  -0.00039  -0.00039   1.92715
   A16        1.90352  -0.00023   0.00000  -0.00116  -0.00116   1.90236
   A17        1.90831   0.00033   0.00000   0.00137   0.00140   1.90971
   A18        1.87434   0.00017   0.00000   0.00505   0.00504   1.87939
   A19        1.97833  -0.00495   0.00000  -0.02679  -0.02672   1.95161
   A20        1.97942  -0.00505   0.00000  -0.02600  -0.02594   1.95348
   A21        1.93377   0.00094   0.00000   0.00333   0.00335   1.93712
   A22        1.90325   0.00077   0.00000   0.00455   0.00456   1.90781
   A23        1.85166  -0.00074   0.00000  -0.00022  -0.00023   1.85143
   A24        1.93176  -0.00136   0.00000  -0.00794  -0.00796   1.92380
   A25        1.95064  -0.00007   0.00000  -0.00192  -0.00192   1.94872
   A26        1.89026   0.00052   0.00000   0.00272   0.00270   1.89296
   A27        2.04829  -0.01065   0.00000  -0.04212  -0.04212   2.00618
   A28        1.92275   0.00015   0.00000  -0.00399  -0.00406   1.91869
   A29        1.91901   0.00053   0.00000   0.00200   0.00202   1.92103
   A30        1.93533  -0.00063   0.00000  -0.00090  -0.00089   1.93444
   A31        1.90333  -0.00040   0.00000  -0.00177  -0.00175   1.90158
   A32        1.90622   0.00006   0.00000  -0.00034  -0.00032   1.90590
   A33        1.87636   0.00028   0.00000   0.00517   0.00516   1.88152
   A34        1.91734   0.00195   0.00000  -0.00211  -0.00219   1.91515
   A35        1.91451  -0.00048   0.00000   0.00160   0.00160   1.91611
   A36        1.93490  -0.00014   0.00000   0.00469   0.00470   1.93960
   A37        1.89438  -0.00112   0.00000  -0.00623  -0.00622   1.88817
   A38        1.92478  -0.00096   0.00000  -0.00505  -0.00501   1.91977
   A39        1.87709   0.00069   0.00000   0.00706   0.00701   1.88410
   A40        1.88716  -0.00198   0.00000  -0.01196  -0.01194   1.87522
   A41        1.93269   0.00160   0.00000   0.00766   0.00765   1.94034
   A42        1.88859   0.00014   0.00000  -0.00021  -0.00020   1.88840
   A43        1.90721   0.00005   0.00000  -0.00098  -0.00097   1.90624
   A44        1.91483   0.00086   0.00000   0.00771   0.00771   1.92254
   A45        1.93272  -0.00069   0.00000  -0.00237  -0.00237   1.93035
   A46        1.93619   0.00143   0.00000   0.00652   0.00651   1.94270
   A47        1.94538  -0.00037   0.00000  -0.00339  -0.00340   1.94198
   A48        1.93108  -0.00130   0.00000  -0.00787  -0.00788   1.92320
   A49        1.85504  -0.00094   0.00000  -0.00236  -0.00235   1.85269
   A50        1.90176   0.00058   0.00000   0.00430   0.00433   1.90609
   A51        1.89207   0.00063   0.00000   0.00318   0.00315   1.89522
   A52        1.87453   0.00038   0.00000   0.00117   0.00117   1.87571
   A53        1.92861  -0.00007   0.00000  -0.00329  -0.00334   1.92527
   A54        1.89868  -0.00022   0.00000   0.00018   0.00019   1.89887
   A55        1.93834  -0.00090   0.00000  -0.00396  -0.00395   1.93439
   A56        1.90797   0.00030   0.00000   0.00539   0.00538   1.91335
   A57        1.91486   0.00051   0.00000   0.00068   0.00069   1.91554
   A58        1.92389  -0.00064   0.00000  -0.00700  -0.00706   1.91683
   A59        1.92465   0.00081   0.00000   0.00406   0.00402   1.92868
   A60        1.93643  -0.00006   0.00000   0.00303   0.00302   1.93945
   A61        1.88998  -0.00049   0.00000  -0.00620  -0.00619   1.88379
   A62        1.90353   0.00015   0.00000  -0.00084  -0.00081   1.90273
   A63        1.88425   0.00022   0.00000   0.00697   0.00694   1.89120
    D1        0.89662  -0.00008   0.00000   0.01325   0.01323   0.90986
    D2       -1.20155  -0.00001   0.00000   0.01669   0.01669  -1.18486
    D3        3.00897  -0.00031   0.00000   0.00957   0.00956   3.01853
    D4        3.02606   0.00017   0.00000   0.01208   0.01207   3.03812
    D5        0.92788   0.00023   0.00000   0.01552   0.01553   0.94341
[...]
 008501,-0.00020994,0.00019478,0.00195045,0.00191745,-0.00020491,0.0136
 3712,-0.01688369,-0.00285650,-0.00004960,0.00000649,-0.00005690,-0.000
 00807,0.00000317,-0.00000199,-0.00000159,0.00000057,-0.00000156,0.0002
 3723,-0.00027985,0.00011124,0.00070445,-0.00090385,-0.00002759,-0.0006
 2083,-0.00039241,0.00045671,-0.00051344,0.00032207,0.00028537,-0.00000
 462,0.00000070,0.00000290,-0.00000568,0.00000143,0.00000033,0.00000241
 ,0.00000092,-0.00000013,0.00000101,0.00000044,-0.00000043,-0.01801374,
 0.02263740,0.00284712,-0.01069535,0.01484647,0.05037072,0.00144436,0.0
 0028725,0.00065876,0.00011380,0.00009255,-0.00022459,0.00000598,-0.000
 14082,-0.00009120,-0.00005336,-0.00001239,0.00007608,0.00224666,0.0065
 0257,0.00390405,0.00139530,0.00080368,0.00163554,-0.01426277,-0.003634
 31,-0.03822350,-0.00017773,-0.00016490,-0.00012893,-0.00046487,-0.0003
 4948,0.00032395,-0.05694777,0.00256852,0.03388572,0.00003152,-0.000026
 45,0.00001239,0.00326574,0.00139271,-0.00457160,-0.00126533,0.00373459
 ,0.02332852,0.00007203,-0.00009116,-0.00018738,-0.00009026,-0.00012211
 ,-0.00031277,0.00002140,0.00003754,0.00005325,0.00009369,0.00007780,0.
 00009135,-0.00002856,-0.00000864,0.00002663,-0.00006840,-0.00001954,0.
 00001272,-0.00003311,-0.00007265,-0.00015454,0.00001963,0.00000888,0.0
 0003157,0.00002499,0.00000856,-0.00005623,-0.00003840,0.00006328,-0.00
 000259,-0.00006115,-0.00008390,0.00018595,0.00002369,-0.00002382,-0.00
 000636,0.06764566,0.00085810,0.00007784,0.00005424,-0.00023211,0.00012
 049,-0.00004139,-0.00001404,0.00005281,0.00003491,0.00010110,-0.000057
 50,-0.00005333,0.01173447,-0.03369938,-0.03491253,-0.00414672,0.000839
 34,-0.00415241,0.00348123,0.00543436,0.00973825,0.00039380,-0.00017704
 ,0.00049255,0.00006770,0.00001880,-0.00002850,0.00172923,-0.05797841,-
 0.04741709,-0.00004393,0.00000008,-0.00001562,-0.00105119,-0.00043910,
 -0.00057585,-0.00324794,0.00576615,0.01665608,0.00004774,-0.00009907,-
 0.00016236,0.00000373,-0.00002529,-0.00034315,-0.00000994,-0.00000596,
 0.00002011,-0.00008185,-0.00008585,-0.00004510,0.00000647,0.00000211,-
 0.00000480,0.00002750,0.00001071,-0.00000577,0.00018450,0.00037836,0.0
 0126978,0.00008196,0.00000710,0.00051090,-0.00004351,-0.00001393,-0.00
 001304,0.00020760,0.00019813,-0.00005641,0.00000341,-0.00000680,-0.000
 01047,0.00001407,0.00002336,0.00000244,-0.00762672,0.08018487,-0.00043
 867,-0.00018466,0.00030188,-0.00011805,-0.00056136,0.00040972,-0.00005
 027,-0.00012748,-0.00012746,-0.00050911,0.00013759,0.00006650,0.001350
 20,-0.00841947,-0.00050067,-0.00016216,0.00103227,0.00114639,-0.013061
 42,-0.00002759,-0.02082271,0.00002940,-0.00019129,0.00011632,-0.000141
 22,-0.00022678,0.00057680,0.02749304,-0.04979175,-0.27615063,0.0000567
 2,0.00004406,0.00006898,0.00325548,0.00233422,0.00012966,0.00183728,-0
 .00256255,-0.01323614,0.00011243,0.00012543,0.00028400,0.00036221,-0.0
 0014171,0.00043238,0.00002844,-0.00006711,-0.00004865,-0.00014896,-0.0
 0003494,-0.00006736,-0.00001362,-0.00001155,0.00000848,-0.00006585,-0.
 00002602,0.00001973,0.00094207,-0.00035041,0.00011118,0.00026200,-0.00
 006993,0.00042087,-0.00005528,0.00002542,-0.00018803,0.00007031,-0.000
 05907,-0.00001550,0.00012747,0.00018578,0.00006012,0.00000396,-0.00000
 177,-0.00002047,-0.02200324,0.05805112,0.30621776,-0.00000561,-0.00001
 407,0.00001931,0.00146520,-0.00069969,-0.00348705,-0.01409657,-0.00332
 609,0.00952155,-0.01777472,-0.01031623,0.00460323,-0.00011664,0.000073
 31,-0.00004551,0.00003278,-0.00000891,0.00002681,-0.00054830,-0.000009
 41,0.00006879,-0.00000579,0.00000080,-0.00000952,-0.00051471,0.0036293
 6,-0.00015657,0.00025199,-0.00010012,0.00017915,-0.24011849,-0.0489418
 5,0.11020773,0.00084510,-0.00004793,0.00009784,-0.00004215,0.00002414,
 -0.00003447,-0.00001129,0.00000093,-0.00000369,-0.00000099,-0.00000026
 ,-0.00000231,-0.00001152,-0.00005346,0.00026549,-0.00081059,-0.0002631
 2,0.00040781,0.00067746,-0.00066802,-0.00048925,0.00033302,0.00022237,
 0.00010808,-0.00000525,-0.00000013,-0.00000595,-0.00000714,0.00000569,
 -0.00000362,0.00000028,0.00000054,0.00000143,-0.00000545,0.00000017,0.
 00000098,0.00006227,-0.00009668,0.00011780,-0.00093361,-0.00042459,0.0
 0043320,-0.00001241,0.00000651,-0.00002182,0.26354653,0.00000098,-0.00
 000119,-0.00000255,-0.00038522,-0.00195365,-0.00425577,0.02427503,0.00
 811641,-0.01390469,-0.02748368,-0.01213129,0.00956803,0.00003084,0.000
 00614,0.00001187,-0.00000441,0.00001658,-0.00000774,-0.00010891,0.0004
 3771,0.00015653,0.00000307,-0.00000203,0.00000317,0.00256966,-0.005070
 48,0.00012455,0.00000105,0.00004365,0.00005736,-0.04506347,-0.06135902
 ,0.02834576,-0.00028931,-0.00117023,-0.00030916,0.00000256,-0.00000430
 ,-0.00000092,0.00000079,0.00000020,-0.00000010,-0.00000020,0.00000049,
 0.00000004,0.00018053,0.00004256,-0.00005042,-0.00143289,-0.00027458,0
 .00033063,-0.00090398,0.00121764,0.00043071,-0.00111574,0.00082101,0.0
 0016962,0.00000192,0.00000021,0.00000178,-0.00000117,-0.00000039,-0.00
 000068,-0.00000020,0.00000016,0.00000026,0.00000157,0.00000051,-0.0000
 0064,-0.00018172,0.00002978,-0.00008756,0.00170026,0.00047230,-0.00058
 801,0.00001292,-0.00000363,-0.00000611,0.05917436,0.07256794,-0.000000
 94,-0.00000393,0.00000209,-0.00145976,-0.00195626,-0.00204160,0.001731
 78,0.00206585,-0.00151284,-0.02354465,-0.00984278,0.01017154,-0.000013
 99,0.00002464,-0.00000493,0.00000232,0.00000690,-0.00000063,-0.0001836
 7,0.00025574,0.00013847,0.00000009,-0.00000053,-0.00000030,0.00028463,
 -0.00156973,0.00104175,0.00003465,0.00000816,0.00006129,0.12049542,0.0
 3464208,-0.12188841,-0.00001157,-0.00062604,-0.00024219,-0.00000714,0.
 00000081,-0.00000876,-0.00000136,0.00000040,-0.00000057,-0.00000023,0.
 00000026,-0.00000004,-0.00008905,-0.00017726,0.00041979,-0.00075985,-0
 .00038150,0.00045080,-0.00028195,-0.00055500,0.00067822,0.00002156,-0.
 00003591,0.00008606,-0.00000064,0.00000016,-0.00000006,-0.00000200,0.0
 0000053,-0.00000094,-0.00000016,0.00000014,0.00000030,-0.00000001,0.00
 000043,0.00000010,-0.00031569,-0.00015193,0.00024461,0.00057052,0.0002
 1745,0.00004944,0.00000415,-0.00000079,-0.00000580,-0.11923983,-0.0272
 8231,0.12387769,-0.00000262,-0.00000533,0.00000560,0.00147094,0.001802
 92,-0.00323591,-0.00376555,0.01026812,-0.01625102,-0.00746791,-0.00253
 544,-0.02045604,-0.00001850,0.00001861,-0.00000797,0.00000804,0.000002
 45,0.00000437,-0.00028794,0.00002249,0.00009067,0.00000019,-0.00000024
 ,-0.00000179,0.00092509,-0.00032408,-0.00119679,0.00006492,-0.00003348
 ,0.00006864,-0.06520358,0.02303647,-0.03985636,-0.00013200,-0.00011304
 ,0.00017218,-0.00001461,0.00000669,-0.00001351,-0.00000345,0.00000013,
 -0.00000078,-0.00000035,0.00000017,-0.00000033,0.00032184,0.00000758,0
 .00053960,0.00004894,-0.00007337,0.00016817,-0.00129213,0.00308390,0.0
 0029681,0.00062042,-0.00032203,0.00029296,-0.00000085,0.00000004,-0.00
 000035,-0.00000189,0.00000110,-0.00000095,-0.00000038,0.00000031,0.000
 00064,-0.00000108,0.00000026,0.00000016,-0.00002485,-0.00005551,0.0002
 4585,0.00017310,-0.00005657,0.00018074,0.00000037,0.00000297,-0.000007
 62,0.00787648,-0.01101364,0.02278654,0.06667259,0.00000078,-0.00000028
 ,-0.00000151,0.00263686,0.00236838,-0.00317081,0.00622562,-0.01299292,
 0.02504911,-0.01362560,0.00418882,-0.02948423,-0.00000480,0.00000027,-
 0.00000727,-0.00000083,0.00000268,-0.00000137,-0.00006989,0.00019055,0
 .00012224,0.,0.00000030,0.00000034,-0.00125920,0.00099724,0.00031870,0
 .00000679,0.00002539,0.00003434,0.02356301,-0.09900831,0.10142504,-0.0
 0020994,-0.00046593,0.00011082,0.00000216,-0.00000249,0.00000234,0.000
 00076,0.00000015,-0.00000012,-0.00000026,0.00000023,-0.00000012,0.0008
 7862,-0.00003401,0.00088320,0.00014735,-0.00003165,0.00003649,0.004072
 51,-0.00384319,-0.00115017,-0.00063478,0.00091169,-0.00020440,0.000000
 18,-0.00000076,-0.00000015,-0.00000096,0.00000052,-0.00000022,0.000000
 19,-0.00000004,-0.00000025,0.00000013,-0.00000011,0.00000010,0.0002791
 8,0.00039903,-0.00046253,-0.00019384,0.00001000,-0.00032429,0.00000534
 ,0.00000026,-0.00000371,0.00185280,-0.00189195,0.00534092,-0.02366068,
 0.10926620,-0.00000477,-0.00001219,0.00001453,0.00299284,0.00138118,0.
 00052802,0.00222741,-0.00103219,0.00430895,-0.01370460,-0.00562464,-0.
 02608668,-0.00006648,0.00005129,-0.00002349,0.00002033,0.00000003,0.00
 001496,-0.00055141,0.00006477,0.00004079,-0.00000261,-0.00000109,-0.00
 000612,-0.00021023,-0.00048211,0.00070114,0.00016500,-0.00007526,0.000
 14537,-0.04362463,0.09813492,-0.23763505,0.00024730,-0.00046372,0.0000
 2640,-0.00003236,0.00001875,-0.00002851,-0.00000874,0.00000081,-0.0000
 0275,-0.00000050,0.00000023,-0.00000124,-0.00096622,-0.00029680,0.0007
 7542,-0.00007175,-0.00032595,0.00040000,0.00101912,-0.00086594,0.00099
 164,-0.00046871,0.00078474,0.00027558,-0.00000260,0.00000036,-0.000002
 47,-0.00000541,0.00000373,-0.00000296,-0.00000018,0.00000061,0.0000015
 2,-0.00000315,0.00000055,0.00000041,-0.00045977,-0.00007854,-0.0000512
 2,-0.00010570,0.00002182,0.00012051,-0.00001044,0.00000442,-0.00001644
 ,-0.00252659,0.00724771,-0.01152398,0.05614259,-0.09855193,0.26716535,
 0.00002565,-0.00001300,-0.00003914,-0.00559930,0.00847147,-0.01909300,
 0.00064205,0.00038811,-0.00046839,0.00154098,-0.00057719,0.00011646,-0
 .00073429,0.00003306,0.00038168,-0.00004035,0.00005073,-0.00003880,-0.
 00519421,-0.01626665,0.03165280,-0.00002263,-0.00000299,-0.00001341,-0
 .00263717,0.00497134,-0.01180498,0.00151914,-0.00130097,0.00488276,0.0
 0007289,-0.00005214,0.00007950,-0.07197763,0.02891804,-0.07128062,-0.0
 0009501,-0.00000366,-0.00004116,-0.00000602,-0.00000067,0.00000490,-0.
 00002355,0.00000884,-0.00001423,-0.00247151,0.00293808,0.00077529,0.00
 096235,-0.00060327,0.00055559,-0.00007486,-0.00013378,0.00012082,0.000
 02291,-0.00004996,0.00005206,0.00002618,-0.00000291,-0.00002800,0.0000
 0577,0.00000411,-0.00001180,0.00000408,0.00000092,0.00000069,-0.000002
 28,0.00001132,0.00000340,-0.00061727,-0.00214107,-0.00143239,0.0004400
 9,-0.00024349,0.00064181,-0.00041675,-0.00043654,-0.00051863,-0.000068
 55,0.00002791,-0.00001906,0.00003612,-0.00001138,0.00001274,0.08477673
 ,-0.00002342,-0.00004007,0.00001962,0.00930992,-0.01186039,0.02390176,
 0.00103761,0.00090064,-0.00001559,-0.00133172,0.00187628,-0.00105487,0
 .00020949,0.00037218,-0.00060765,-0.00007165,0.00009277,0.00001854,-0.
 00428635,-0.00655631,0.01252436,0.00001950,0.00001563,-0.00000320,-0.0
 0752222,0.00823399,-0.02327858,0.00184704,0.00037826,0.00204249,-0.000
 09911,-0.00030557,-0.00024611,0.02478622,-0.08166824,0.07974491,-0.000
 08912,-0.00009195,-0.00031386,-0.00001513,0.00000281,-0.00000281,-0.00
 001000,-0.00000214,-0.00000623,0.00324853,-0.00303161,-0.00038450,-0.0
 0087262,0.00123817,0.00006098,0.00007305,-0.00011789,0.00035689,0.0002
 1520,-0.00012156,0.00014424,-0.00002270,0.00001136,0.00000788,-0.00002
 595,0.00000686,-0.00001921,-0.00000266,0.00000023,0.00000288,-0.000000
 78,0.00000158,-0.00000070,-0.00256624,-0.00290857,-0.00303524,0.000701
 49,0.00115448,0.00073172,-0.00055149,-0.00026543,-0.00049974,-0.000018
 02,0.00008897,0.00001998,-0.00006011,-0.00008989,0.00009660,-0.0239331
 1,0.09263692,0.00007178,0.00009233,-0.00006268,0.00189980,-0.00220839,
 0.00495841,0.00027365,0.00030055,0.00022481,-0.00150552,-0.00040548,0.
 00061933,-0.00010133,-0.00074009,0.00026901,0.00006593,-0.00020996,0.0
 0015893,0.00660199,0.00883320,-0.01779450,-0.00006618,0.00001829,-0.00
 003814,-0.00648396,0.00525072,-0.01706908,-0.00410699,0.00122362,0.000
 11917,0.00004750,-0.00004045,0.00009738,-0.06231315,0.08107957,-0.2530
 0259,0.00004151,0.00009893,0.00065231,0.00003925,-0.00001411,0.0000026
 4,0.00001065,0.00000012,-0.00000474,0.00136742,-0.00088013,0.00064968,
 -0.00032798,0.00044166,0.00068512,-0.00033927,-0.00003589,0.00041643,-
 0.00003255,-0.00023833,0.00028988,0.00003479,-0.00000738,-0.00003418,0
 .00002849,-0.00000780,0.00001380,0.00000494,-0.00000173,-0.00000176,-0
 .00001445,-0.00001361,0.00000660,-0.00138802,-0.00236912,-0.00104624,0
 .00048644,0.00035244,0.00084475,0.00017296,-0.00032966,0.00092784,-0.0
 0003400,0.00004863,0.00000916,0.00003387,0.00004056,-0.00013105,0.0657
 1381,-0.09015172,0.27819991,-0.00053704,-0.00732616,-0.03045326,0.0000
 2539,0.00002073,-0.00002323,0.00000702,0.00000868,0.00000877,0.0000186
 8,-0.00000780,-0.00000969,0.00132114,0.00115678,-0.00205633,-0.0004087
 4,0.00013366,-0.00020244,0.00217026,0.00021339,0.00006298,0.00133301,-
 0.00104681,0.00035129,-0.00000997,0.00007160,-0.00010769,-0.00366038,0
 .00686869,0.02728922,0.00000123,-0.00000273,0.00000217,0.00006329,-0.0
 0018208,0.00010487,-0.04590217,0.00075808,0.00489582,0.00146123,-0.000
 44487,0.00078752,-0.00489950,0.00196618,-0.00279380,-0.00001209,0.0000
 1132,0.00000269,0.00000931,-0.00000051,0.00000618,-0.00000098,0.000000
 89,0.00000112,0.00000110,-0.00000182,0.00000033,-0.00006159,0.00006050
 ,0.00003632,0.00009632,0.00003076,-0.00002449,0.00005592,0.00026244,0.
 00041568,-0.00006623,-0.00015952,0.00031664,-0.00002231,-0.00002632,-0
 .00001724,0.00000718,-0.00000249,0.00000299,-0.00309137,-0.00289701,0.
 00144702,-0.00000083,0.00000060,0.00000005,-0.00000079,0.00000022,-0.0
 0000014,-0.00010921,0.00006626,-0.00019632,0.05318227,-0.00054829,0.00
 065729,0.00627124,0.00001499,0.00002706,-0.00003783,0.00000685,0.00000
 229,0.00000620,0.00001755,-0.00001258,-0.00000358,0.00026570,0.0020871
 4,-0.00031471,0.00004753,-0.00001075,0.00010909,0.00144432,0.00038354,
 -0.00060455,-0.00018368,0.00053211,0.00069413,-0.00000563,0.00004633,-
 0.00006545,-0.00126418,0.00236981,0.01934638,-0.00000097,-0.00000019,0
 .00000031,0.00005412,-0.00017479,0.00007865,0.00160605,-0.06541823,-0.
 06276414,-0.00024441,0.00013919,-0.00036641,0.00092493,0.00066631,0.00
 075188,-0.00000809,0.00000729,0.00000669,0.00000611,0.00000073,0.00000
 278,-0.00000147,-0.00000007,0.00000144,0.00000023,-0.00000062,-0.00000
 041,0.00002676,-0.00005379,-0.00011266,-0.00000377,-0.00000882,-0.0000
 1103,0.00011309,0.00019408,-0.00002720,-0.00003808,0.00010719,-0.00002
 224,-0.00001324,-0.00001859,-0.00000568,0.00000660,-0.00000281,0.00000
 330,-0.00246481,-0.00096735,0.00122270,-0.00000054,0.00000026,-0.00000
 001,0.00000044,-0.00000015,-0.00000020,-0.00006110,0.00003631,-0.00010
 483,-0.00029705,0.06491245,-0.00053983,-0.00304450,-0.01243161,-0.0000
 2586,-0.00002388,0.00004868,0.00000746,0.00002164,0.00002083,-0.000003
 17,0.00001180,-0.00000319,-0.00103410,-0.00014207,0.00182553,-0.000037
 31,0.00002389,0.00020110,-0.00066462,-0.00030662,0.00136905,0.00060183
 ,-0.00020426,0.00034618,0.00008493,-0.00000781,-0.00004183,0.00085557,
 -0.00445270,-0.01893469,-0.00000671,0.00000016,-0.00000464,-0.00006620
 ,0.00014966,0.00049852,0.00656301,-0.06000342,-0.29444564,-0.00003040,
 -0.00001916,0.00076603,-0.00226102,0.00069192,0.00002421,0.00000685,-0
 .00000642,-0.00000033,-0.00000535,-0.00000009,-0.00000391,0.00000025,-
 0.00000005,-0.00000108,0.00001004,0.00000438,-0.00000370,0.00004321,-0
 .00012937,-0.00007148,0.00002401,0.00004407,-0.00003864,0.00000241,0.0
 0050354,-0.00000092,-0.00010694,0.00009015,0.00022883,0.00001138,0.000
 00319,0.00000373,-0.00000084,0.00000360,-0.00000605,0.00222488,0.00191
 967,-0.00036708,0.00000116,-0.00000041,-0.00000047,0.00000066,-0.00000
 123,0.00000188,-0.00018957,-0.00006309,0.00005081,-0.00565727,0.065528
 28,0.32203564,-0.00503053,0.02976636,0.00318421,-0.00000106,-0.0000187
 7,0.00001397,0.00000436,0.00000971,0.00001123,-0.00002030,0.00001061,0
 .00001176,-0.00295856,-0.00674148,0.00314196,-0.00151939,0.00026842,-0
 .00049372,0.00111782,-0.00011458,-0.00000993,-0.00545233,-0.00025153,-
 0.00344136,0.00006764,-0.00000154,-0.00002088,0.00535638,-0.02171259,-
 0.00520515,0.00000238,0.00000018,0.00000018,0.00020825,0.00026602,0.00
 003824,-0.05810212,0.05430333,0.00717269,0.00112060,-0.00053756,0.0008
 6653,0.00133552,-0.00063831,0.00015575,-0.00000121,-0.00000144,-0.0000
 0155,0.00001048,0.00000809,0.00000397,-0.00000036,-0.00000049,-0.00000
 001,0.00000485,0.00000106,-0.00000187,0.00020618,-0.00003642,0.0000264
 6,0.00032405,0.00001987,0.00006016,0.00002514,-0.00023533,0.00012374,-
 0.00015760,0.00200245,-0.00029735,-0.00000156,0.00000152,0.00000386,-0
 .00000640,0.00000539,-0.00000232,0.00060743,0.00087944,-0.00006210,-0.
 00000051,0.00000050,-0.00000015,-0.00000054,-0.00000031,-0.00000035,0.
 00001567,-0.00001192,0.00001495,-0.00097013,0.00060003,0.00019154,0.06
 381587,0.00096764,-0.00401668,-0.00030741,-0.00003969,-0.00008250,0.00
 000344,0.00000445,0.00001760,0.00001199,-0.00003772,0.00002305,0.00001
 216,-0.00262219,-0.00377928,0.00298788,-0.00101302,0.00063754,-0.00094
 482,0.00047854,0.00109058,-0.00027703,0.00119073,0.00159211,0.00077908
 ,0.00005602,0.00000770,-0.00003663,0.00660814,-0.01622748,-0.00399426,
 0.00000464,0.00000138,0.00000631,-0.00009301,0.00036821,0.00015730,0.0
 5137269,-0.30457102,-0.02408643,0.00031718,0.00033642,0.00000586,0.000
 01781,0.00041897,0.00024646,-0.00000754,0.00000372,-0.00000360,-0.0000
 0130,-0.00000049,0.00000726,-0.00000020,-0.00000077,-0.00000009,0.0000
 0435,-0.00000049,-0.00000241,0.00010846,-0.00003132,0.00013744,0.00011
 819,-0.00009406,0.00006470,-0.00002638,0.00006450,-0.00006594,-0.00012
 279,-0.00043840,-0.00005906,-0.00000397,-0.00000372,-0.00000287,-0.000
 00865,0.00000731,-0.00000295,-0.00020301,0.00070996,0.00020641,-0.0000
 0187,0.00000024,-0.00000049,-0.00000111,0.,-0.00000194,0.00000995,0.00
 001219,-0.00002193,0.00076440,-0.00550063,-0.00059088,-0.05784072,0.32
 945537,-0.00277881,0.01455384,-0.00011259,0.00001123,-0.00000240,0.000
 01901,-0.00000463,-0.00000904,-0.00001236,0.00000106,0.00000117,-0.000
 00794,0.00229359,0.00354616,-0.00006655,0.00045402,-0.00055684,0.00042
 107,-0.00076947,-0.00048232,0.00034126,-0.00261870,-0.00011798,-0.0004
 6259,-0.00004245,0.00000308,0.00002379,-0.00490469,0.01403190,0.000607
 52,0.00000157,-0.00000218,0.00000105,-0.00003223,-0.00012775,-0.000130
 81,0.00783518,-0.02703933,-0.05182600,0.00042767,-0.00050580,0.0002743
 2,0.00074709,0.00009186,0.00057860,-0.00000280,-0.00000026,-0.00000308
 ,-0.00000417,-0.00000338,-0.00000046,-0.00000008,0.00000058,0.00000059
 ,-0.00000468,-0.00000165,0.00000253,-0.00001388,-0.00002842,-0.0000863
 8,-0.00003850,0.00000844,-0.00004306,-0.00002444,0.00036667,0.00014748
 ,-0.00020694,0.00066309,0.00018609,0.00000171,-0.00000217,-0.00000413,
 0.00000468,-0.00000220,0.00000030,-0.00065514,-0.00058621,0.00026833,-
 0.00000019,0.00000046,0.00000019,-0.00000065,0.00000008,-0.00000051,-0
 .00000114,0.00001028,-0.00001102,0.00581024,-0.02958212,-0.00106576,-0
 .00548443,0.02577244,0.05096112\\-0.00000832,0.00000393,0.00002240,-0.
 00000234,0.00001655,-0.00000413,-0.00000845,0.00000459,0.00000605,0.00
 002941,0.00000394,-0.00004168,-0.00002619,0.00011710,-0.00001218,0.000
 03017,-0.00000810,0.00003042,0.00001595,-0.00032681,-0.00026105,-0.000
 02870,-0.00000198,-0.00000982,-0.00014546,0.00021546,-0.00014008,-0.00
 007370,0.00015194,0.00017815,-0.00000232,0.00000351,-0.00000870,0.0001
 9038,-0.00018978,0.00024820,0.00000198,0.00002195,-0.00000937,0.000000
 85,0.00000156,-0.00001414,0.00000136,0.00000162,-0.00000843,-0.0000129
 8,-0.00000254,0.00001312,-0.00000070,0.00000765,0.00001222,0.00000080,
 -0.00000838,0.00000119,0.00001797,-0.00000406,-0.00000705,-0.00001702,
 0.00000124,-0.00001678,-0.00000840,-0.00000312,-0.00001151,0.00000775,
 -0.00000077,-0.00000059,0.00000458,0.00001139,0.00000133,0.00000071,-0
 .00000371,0.00000816,-0.00000165,-0.00001904,0.00000474,-0.00000105,0.
 00000561,0.00000812,-0.00000432,-0.00000853,0.00000761,0.00000133,0.00
 000593,0.00001436,0.00001813,0.00000569,-0.00000203,0.00000361,-0.0000
 0120,-0.00000973,0.00001661,-0.00000166,0.00000119\\\@


 WHEN HAVING A MEETING OF THE MINDS,
 MAKE SURE YOU HAVE THE EQUIPMENT FOR IT.
 Job cpu time:       0 days 11 hours 37 minutes 47.6 seconds.
 Elapsed time:       0 days  0 hours 58 minutes 10.1 seconds.
 File lengths (MBytes):  RWF=    722 Int=      0 D2E=      0 Chk=     34 Scr=      1
 Normal termination of Gaussian 16 at Sun Mar 10 03:30:56 2019.
