 Entering Gaussian System, Link 0=g16
 Initial command:
 /sw/Projects/G16/g16/l1.exe "/nvme/pbs/tmpdir/pbs.74288[4].flm1/Gau-2713.inp" -scrdir="/nvme/pbs/tmpdir/pbs.74288[4].flm1/"
 Entering Link 1 = /sw/Projects/G16/g16/l1.exe PID=      2714.
  
 Copyright (c) 1988-2017, Gaussian, Inc.  All Rights Reserved.
  
 This is part of the Gaussian(R) 16 program.  It is based on
 the Gaussian(R) 09 system (copyright 2009, Gaussian, Inc.),
 the Gaussian(R) 03 system (copyright 2003, Gaussian, Inc.),
 the Gaussian(R) 98 system (copyright 1998, Gaussian, Inc.),
 the Gaussian(R) 94 system (copyright 1995, Gaussian, Inc.),
 the Gaussian 92(TM) system (copyright 1992, Gaussian, Inc.),
 the Gaussian 90(TM) system (copyright 1990, Gaussian, Inc.),
 the Gaussian 88(TM) system (copyright 1988, Gaussian, Inc.),
 the Gaussian 86(TM) system (copyright 1986, Carnegie Mellon
 University), and the Gaussian 82(TM) system (copyright 1983,
 Carnegie Mellon University). Gaussian is a federally registered
 trademark of Gaussian, Inc.
  
 This software contains proprietary and confidential information,
 including trade secrets, belonging to Gaussian, Inc.
  
 This software is provided under written license and may be
 used, copied, transmitted, or stored only in accord with that
 written license.
  
 The following legend is applicable only to US Government
 contracts under FAR:
  
                    RESTRICTED RIGHTS LEGEND
  
 Use, reproduction and disclosure by the US Government is
 subject to restrictions as set forth in subparagraphs (a)
 and (c) of the Commercial Computer Software - Restricted
 Rights clause in FAR 52.227-19.
  
 Gaussian, Inc.
 340 Quinnipiac St., Bldg. 40, Wallingford CT 06492
  
  
 ---------------------------------------------------------------
 Warning -- This program may not be used in any manner that
 competes with the business of Gaussian, Inc. or will provide
 assistance to any competitor of Gaussian, Inc.  The licensee
 of this program is prohibited from giving any competitor of
 Gaussian, Inc. access to this program.  By using this program,
 the user acknowledges that Gaussian, Inc. is engaged in the
 business of creating and licensing software in the field of
 computational chemistry and represents and warrants to the
 licensee that it is not a competitor of Gaussian, Inc. and that
 it will not use this program in any manner prohibited above.
 ---------------------------------------------------------------
  

 Cite this work as:
 Gaussian 16, Revision B.01,
 M. J. Frisch, G. W. Trucks, H. B. Schlegel, G. E. Scuseria, 
 M. A. Robb, J. R. Cheeseman, G. Scalmani, V. Barone, 
 G. A. Petersson, H. Nakatsuji, X. Li, M. Caricato, A. V. Marenich, 
 J. Bloino, B. G. Janesko, R. Gomperts, B. Mennucci, H. P. Hratchian, 
 J. V. Ortiz, A. F. Izmaylov, J. L. Sonnenberg, D. Williams-Young, 
 F. Ding, F. Lipparini, F. Egidi, J. Goings, B. Peng, A. Petrone, 
 T. Henderson, D. Ranasinghe, V. G. Zakrzewski, J. Gao, N. Rega, 
 G. Zheng, W. Liang, M. Hada, M. Ehara, K. Toyota, R. Fukuda, 
 J. Hasegawa, M. Ishida, T. Nakajima, Y. Honda, O. Kitao, H. Nakai, 
 T. Vreven, K. Throssell, J. A. Montgomery, Jr., J. E. Peralta, 
 F. Ogliaro, M. J. Bearpark, J. J. Heyd, E. N. Brothers, K. N. Kudin, 
 V. N. Staroverov, T. A. Keith, R. Kobayashi, J. Normand, 
 K. Raghavachari, A. P. Rendell, J. C. Burant, S. S. Iyengar, 
 J. Tomasi, M. Cossi, J. M. Millam, M. Klene, C. Adamo, R. Cammi, 
 J. W. Ochterski, R. L. Martin, K. Morokuma, O. Farkas, 
 J. B. Foresman, and D. J. Fox, Gaussian, Inc., Wallingford CT, 2016.
 
 ******************************************
 Gaussian 16:  ES64L-G16RevB.01 20-Dec-2017
                10-Mar-2019 
 ******************************************
 %mem=20gb
 %nproc=12
 Will use up to   12 processors via shared memory.
 %chk=4c1_b1_4e_4c1_PSI.inp_extract_4.chk
 ----------------------------------------------------------------------
 #M062X/6-311++G(2d,2p) opt=ModRedundant freq=noraman SCRF=(SMD,solvent
 =water)
 ----------------------------------------------------------------------
 1/18=120,19=15,26=3,38=1/1,3;
 2/9=110,12=2,17=6,18=5,40=1/2;
 3/5=4,6=6,7=1212,11=2,25=1,30=1,70=32201,71=1,72=1,74=-55/1,2,3;
 4//1;
 5/5=2,38=5,53=1/2;
 6/7=2,8=2,9=2,10=2,28=1/1;
 7//1,2,3,16;
 1/18=20,19=15,26=3/3(2);
 2/9=110/2;
 99//99;
 2/9=110/2;
 3/5=4,6=6,7=1212,11=2,25=1,30=1,70=32205,71=1,72=1,74=-55/1,2,3;
 4/5=5,16=3,69=1/1;
 5/5=2,38=5,53=1/2;
 7//1,2,3,16;
 1/18=20,19=15,26=3/3(-5);
 2/9=110/2;
 6/7=2,8=2,9=2,10=2,19=2,28=1/1;
 99/9=1/99;
 -------------------------------
 4c1_b1_4e_4c1_PSI.inp_extract_4
 -------------------------------
 Symbolic Z-matrix:
 Charge =  0 Multiplicity = 1
 C                    -3.54767  -1.03034   0.22311 
 C                     1.74994  -1.10156  -0.44566 
 C                     3.52779   1.02258   0.28669 
 O                     2.97713  -0.87708  -1.10477 
 O                    -1.67869   1.07124  -0.25767 
 C                    -2.8783    1.03662  -1.01457 
 O                    -0.01688  -0.02276   0.80178 
 C                    -3.9918    0.36093  -0.23069 
 C                     2.17246   0.8933    0.98514 
 C                    -1.19066  -0.20638   0.08142 
 C                     3.97278  -0.32228  -0.26408 
 C                     1.16956   0.21717   0.06215 
 C                    -2.19545  -0.9524    0.93719 
 H                    -4.28897  -1.4738    0.88008 
 H                    -3.46134  -1.68227  -0.64379 
 H                     1.89848  -1.7796    0.39175 
 H                     1.09821  -1.57835  -1.16341 
 H                     3.45768   1.73631  -0.53018 
 H                     4.27667   1.39396   0.97963 
 H                    -2.6937    0.51198  -1.9493 
 H                    -3.1175    2.06535  -1.24463 
 H                    -4.23833   0.97193   0.63427 
 H                    -4.88083   0.30033  -0.85197 
 H                     2.27681   0.28921   1.88342 
 H                     1.79928   1.86682   1.28695 
 H                    -0.99344  -0.74756  -0.838 
 H                     4.86353  -0.2271   -0.8697 
 H                     4.18012  -1.01873   0.54518 
 H                     0.94746   0.86241  -0.78056 
 H                    -2.29741  -0.4232    1.88106 
 H                    -1.81118  -1.94469   1.15026 
 
 The following ModRedundant input section has been read:
 D      10       7      12       9 F                                           
 

 GradGradGradGradGradGradGradGradGradGradGradGradGradGradGradGradGradGrad
 Berny optimization.
 Initialization pass.
                           ----------------------------
                           !    Initial Parameters    !
                           ! (Angstroms and Degrees)  !
 --------------------------                            --------------------------
 ! Name  Definition              Value          Derivative Info.                !
 --------------------------------------------------------------------------------
 ! R1    R(1,8)                  1.5293         estimate D2E/DX2                !
 ! R2    R(1,13)                 1.5312         estimate D2E/DX2                !
 ! R3    R(1,14)                 1.0853         estimate D2E/DX2                !
 ! R4    R(1,15)                 1.0881         estimate D2E/DX2                !
 ! R5    R(2,4)                  1.411          estimate D2E/DX2                !
 ! R6    R(2,12)                 1.5277         estimate D2E/DX2                !
 ! R7    R(2,16)                 1.0877         estimate D2E/DX2                !
 ! R8    R(2,17)                 1.0804         estimate D2E/DX2                !
 ! R9    R(3,9)                  1.5302         estimate D2E/DX2                !
 ! R10   R(3,11)                 1.5199         estimate D2E/DX2                !
 ! R11   R(3,18)                 1.087          estimate D2E/DX2                !
 ! R12   R(3,19)                 1.0858         estimate D2E/DX2                !
 ! R13   R(4,11)                 1.4163         estimate D2E/DX2                !
 ! R14   R(5,6)                  1.4189         estimate D2E/DX2                !
 ! R15   R(5,10)                 1.4091         estimate D2E/DX2                !
 ! R16   R(6,8)                  1.5202         estimate D2E/DX2                !
 ! R17   R(6,20)                 1.0877         estimate D2E/DX2                !
 ! R18   R(6,21)                 1.0809         estimate D2E/DX2                !
 ! R19   R(7,10)                 1.3894         estimate D2E/DX2                !
 ! R20   R(7,12)                 1.4185         estimate D2E/DX2                !
 ! R21   R(8,22)                 1.0873         estimate D2E/DX2                !
 ! R22   R(8,23)                 1.0863         estimate D2E/DX2                !
 ! R23   R(9,12)                 1.5215         estimate D2E/DX2                !
 ! R24   R(9,24)                 1.0875         estimate D2E/DX2                !
 ! R25   R(9,25)                 1.0854         estimate D2E/DX2                !
 ! R26   R(10,13)                1.5161         estimate D2E/DX2                !
 ! R27   R(10,26)                1.0849         estimate D2E/DX2                !
 ! R28   R(11,27)                1.0813         estimate D2E/DX2                !
 ! R29   R(11,28)                1.0876         estimate D2E/DX2                !
 ! R30   R(12,29)                1.0843         estimate D2E/DX2                !
 ! R31   R(13,30)                1.0869         estimate D2E/DX2                !
 ! R32   R(13,31)                1.0852         estimate D2E/DX2                !
 ! A1    A(8,1,13)             110.399          estimate D2E/DX2                !
 ! A2    A(8,1,14)             110.6704         estimate D2E/DX2                !
 ! A3    A(8,1,15)             109.3711         estimate D2E/DX2                !
 ! A4    A(13,1,14)            109.9811         estimate D2E/DX2                !
 ! A5    A(13,1,15)            109.3892         estimate D2E/DX2                !
 ! A6    A(14,1,15)            106.9578         estimate D2E/DX2                !
 ! A7    A(4,2,12)             110.3873         estimate D2E/DX2                !
 ! A8    A(4,2,16)             109.8798         estimate D2E/DX2                !
 ! A9    A(4,2,17)             106.5315         estimate D2E/DX2                !
 ! A10   A(12,2,16)            109.517          estimate D2E/DX2                !
 ! A11   A(12,2,17)            111.8768         estimate D2E/DX2                !
 ! A12   A(16,2,17)            108.5877         estimate D2E/DX2                !
 ! A13   A(9,3,11)             110.4859         estimate D2E/DX2                !
 ! A14   A(9,3,18)             109.959          estimate D2E/DX2                !
 ! A15   A(9,3,19)             110.3955         estimate D2E/DX2                !
 ! A16   A(11,3,18)            109.1201         estimate D2E/DX2                !
 ! A17   A(11,3,19)            109.3898         estimate D2E/DX2                !
 ! A18   A(18,3,19)            107.4276         estimate D2E/DX2                !
 ! A19   A(2,4,11)             113.358          estimate D2E/DX2                !
 ! A20   A(6,5,10)             113.5212         estimate D2E/DX2                !
 ! A21   A(5,6,8)              110.7972         estimate D2E/DX2                !
 ! A22   A(5,6,20)             109.0699         estimate D2E/DX2                !
 ! A23   A(5,6,21)             106.1062         estimate D2E/DX2                !
 ! A24   A(8,6,20)             110.6743         estimate D2E/DX2                !
 ! A25   A(8,6,21)             111.7569         estimate D2E/DX2                !
 ! A26   A(20,6,21)            108.283          estimate D2E/DX2                !
 ! A27   A(10,7,12)            117.2972         estimate D2E/DX2                !
 ! A28   A(1,8,6)              110.1604         estimate D2E/DX2                !
 ! A29   A(1,8,22)             109.938          estimate D2E/DX2                !
 ! A30   A(1,8,23)             110.8938         estimate D2E/DX2                !
 ! A31   A(6,8,22)             109.0568         estimate D2E/DX2                !
 ! A32   A(6,8,23)             109.2294         estimate D2E/DX2                !
 ! A33   A(22,8,23)            107.5032         estimate D2E/DX2                !
 ! A34   A(3,9,12)             110.1505         estimate D2E/DX2                !
 ! A35   A(3,9,24)             109.813          estimate D2E/DX2                !
 ! A36   A(3,9,25)             110.835          estimate D2E/DX2                !
 ! A37   A(12,9,24)            108.5108         estimate D2E/DX2                !
 ! A38   A(12,9,25)            109.916          estimate D2E/DX2                !
 ! A39   A(24,9,25)            107.5491         estimate D2E/DX2                !
 ! A40   A(5,10,7)             107.3103         estimate D2E/DX2                !
 ! A41   A(5,10,13)            110.6376         estimate D2E/DX2                !
 ! A42   A(5,10,26)            108.1376         estimate D2E/DX2                !
 ! A43   A(7,10,13)            109.4075         estimate D2E/DX2                !
 ! A44   A(7,10,26)            110.5927         estimate D2E/DX2                !
 ! A45   A(13,10,26)           110.6937         estimate D2E/DX2                !
 ! A46   A(3,11,4)             110.8486         estimate D2E/DX2                !
 ! A47   A(3,11,27)            111.4847         estimate D2E/DX2                !
 ! A48   A(3,11,28)            110.6582         estimate D2E/DX2                !
 ! A49   A(4,11,27)            106.3274         estimate D2E/DX2                !
 ! A50   A(4,11,28)            108.9557         estimate D2E/DX2                !
 ! A51   A(27,11,28)           108.4243         estimate D2E/DX2                !
 ! A52   A(2,12,7)             110.1854         estimate D2E/DX2                !
 ! A53   A(2,12,9)             109.5631         estimate D2E/DX2                !
 ! A54   A(2,12,29)            109.4601         estimate D2E/DX2                !
 ! A55   A(7,12,9)             108.0693         estimate D2E/DX2                !
 ! A56   A(7,12,29)            109.5447         estimate D2E/DX2                !
 ! A57   A(9,12,29)            110.0011         estimate D2E/DX2                !
 ! A58   A(1,13,10)            110.3101         estimate D2E/DX2                !
 ! A59   A(1,13,30)            110.3001         estimate D2E/DX2                !
 ! A60   A(1,13,31)            110.9615         estimate D2E/DX2                !
 ! A61   A(10,13,30)           108.226          estimate D2E/DX2                !
 ! A62   A(10,13,31)           109.0309         estimate D2E/DX2                !
 ! A63   A(30,13,31)           107.9334         estimate D2E/DX2                !
 ! D1    D(13,1,8,6)            51.3815         estimate D2E/DX2                !
 ! D2    D(13,1,8,22)          -68.8286         estimate D2E/DX2                !
 ! D3    D(13,1,8,23)          172.4254         estimate D2E/DX2                !
 ! D4    D(14,1,8,6)           173.3841         estimate D2E/DX2                !
 ! D5    D(14,1,8,22)           53.174          estimate D2E/DX2                !
 ! D6    D(14,1,8,23)          -65.572          estimate D2E/DX2                !
 ! D7    D(15,1,8,6)           -69.0293         estimate D2E/DX2                !
 ! D8    D(15,1,8,22)          170.7606         estimate D2E/DX2                !
 ! D9    D(15,1,8,23)           52.0146         estimate D2E/DX2                !
 ! D10   D(8,1,13,10)          -51.7943         estimate D2E/DX2                !
 ! D11   D(8,1,13,30)           67.7104         estimate D2E/DX2                !
 ! D12   D(8,1,13,31)         -172.7333         estimate D2E/DX2                !
 ! D13   D(14,1,13,10)        -174.2023         estimate D2E/DX2                !
 ! D14   D(14,1,13,30)         -54.6976         estimate D2E/DX2                !
 ! D15   D(14,1,13,31)          64.8587         estimate D2E/DX2                !
 ! D16   D(15,1,13,10)          68.6056         estimate D2E/DX2                !
 ! D17   D(15,1,13,30)        -171.8897         estimate D2E/DX2                !
 ! D18   D(15,1,13,31)         -52.3333         estimate D2E/DX2                !
 ! D19   D(12,2,4,11)           61.8108         estimate D2E/DX2                !
 ! D20   D(16,2,4,11)          -59.0786         estimate D2E/DX2                !
 ! D21   D(17,2,4,11)         -176.5236         estimate D2E/DX2                !
 ! D22   D(4,2,12,7)          -176.0652         estimate D2E/DX2                !
 ! D23   D(4,2,12,9)           -57.2914         estimate D2E/DX2                !
 ! D24   D(4,2,12,29)           63.4088         estimate D2E/DX2                !
 ! D25   D(16,2,12,7)          -54.9596         estimate D2E/DX2                !
 ! D26   D(16,2,12,9)           63.8142         estimate D2E/DX2                !
 ! D27   D(16,2,12,29)        -175.4856         estimate D2E/DX2                !
 ! D28   D(17,2,12,7)           65.4882         estimate D2E/DX2                !
 ! D29   D(17,2,12,9)         -175.738          estimate D2E/DX2                !
 ! D30   D(17,2,12,29)         -55.0378         estimate D2E/DX2                !
 ! D31   D(11,3,9,12)          -52.0657         estimate D2E/DX2                !
 ! D32   D(11,3,9,24)           67.3843         estimate D2E/DX2                !
 ! D33   D(11,3,9,25)         -173.9285         estimate D2E/DX2                !
 ! D34   D(18,3,9,12)           68.444          estimate D2E/DX2                !
 ! D35   D(18,3,9,24)         -172.106          estimate D2E/DX2                !
 ! D36   D(18,3,9,25)          -53.4187         estimate D2E/DX2                !
 ! D37   D(19,3,9,12)         -173.1982         estimate D2E/DX2                !
 ! D38   D(19,3,9,24)          -53.7482         estimate D2E/DX2                !
 ! D39   D(19,3,9,25)           64.939          estimate D2E/DX2                !
 ! D40   D(9,3,11,4)            54.418          estimate D2E/DX2                !
 ! D41   D(9,3,11,27)          172.6592         estimate D2E/DX2                !
 ! D42   D(9,3,11,28)          -66.5842         estimate D2E/DX2                !
 ! D43   D(18,3,11,4)          -66.5919         estimate D2E/DX2                !
 ! D44   D(18,3,11,27)          51.6492         estimate D2E/DX2                !
 ! D45   D(18,3,11,28)         172.4059         estimate D2E/DX2                !
 ! D46   D(19,3,11,4)          176.146          estimate D2E/DX2                !
 ! D47   D(19,3,11,27)         -65.6128         estimate D2E/DX2                !
 ! D48   D(19,3,11,28)          55.1438         estimate D2E/DX2                !
 ! D49   D(2,4,11,3)           -60.363          estimate D2E/DX2                !
 ! D50   D(2,4,11,27)          178.3084         estimate D2E/DX2                !
 ! D51   D(2,4,11,28)           61.6397         estimate D2E/DX2                !
 ! D52   D(10,5,6,8)            61.0345         estimate D2E/DX2                !
 ! D53   D(10,5,6,20)          -61.0311         estimate D2E/DX2                !
 ! D54   D(10,5,6,21)         -177.474          estimate D2E/DX2                !
 ! D55   D(6,5,10,7)           179.3924         estimate D2E/DX2                !
 ! D56   D(6,5,10,13)          -61.3133         estimate D2E/DX2                !
 ! D57   D(6,5,10,26)           60.0673         estimate D2E/DX2                !
 ! D58   D(5,6,8,1)            -54.9474         estimate D2E/DX2                !
 ! D59   D(5,6,8,22)            65.7929         estimate D2E/DX2                !
 ! D60   D(5,6,8,23)          -176.9817         estimate D2E/DX2                !
 ! D61   D(20,6,8,1)            66.1753         estimate D2E/DX2                !
 ! D62   D(20,6,8,22)         -173.0844         estimate D2E/DX2                !
 ! D63   D(20,6,8,23)          -55.8591         estimate D2E/DX2                !
 ! D64   D(21,6,8,1)          -173.0528         estimate D2E/DX2                !
 ! D65   D(21,6,8,22)          -52.3125         estimate D2E/DX2                !
 ! D66   D(21,6,8,23)           64.9129         estimate D2E/DX2                !
 ! D67   D(12,7,10,5)          -81.4857         estimate D2E/DX2                !
 ! D68   D(12,7,10,13)         158.4337         estimate D2E/DX2                !
 ! D69   D(12,7,10,26)          36.2521         estimate D2E/DX2                !
 ! D70   D(10,7,12,2)          -81.4697         estimate D2E/DX2                !
 ! D71   D(10,7,12,9)          158.8468         Frozen                          !
 ! D72   D(10,7,12,29)          39.0054         estimate D2E/DX2                !
 ! D73   D(3,9,12,2)            53.1394         estimate D2E/DX2                !
 ! D74   D(3,9,12,7)           173.2144         estimate D2E/DX2                !
 ! D75   D(3,9,12,29)          -67.2319         estimate D2E/DX2                !
 ! D76   D(24,9,12,2)          -67.0994         estimate D2E/DX2                !
 ! D77   D(24,9,12,7)           52.9756         estimate D2E/DX2                !
 ! D78   D(24,9,12,29)         172.5294         estimate D2E/DX2                !
 ! D79   D(25,9,12,2)          175.5455         estimate D2E/DX2                !
 ! D80   D(25,9,12,7)          -64.3795         estimate D2E/DX2                !
 ! D81   D(25,9,12,29)          55.1743         estimate D2E/DX2                !
 ! D82   D(5,10,13,1)           55.7225         estimate D2E/DX2                !
 ! D83   D(5,10,13,30)         -65.0312         estimate D2E/DX2                !
 ! D84   D(5,10,13,31)         177.8074         estimate D2E/DX2                !
 ! D85   D(7,10,13,1)          173.7432         estimate D2E/DX2                !
 ! D86   D(7,10,13,30)          52.9895         estimate D2E/DX2                !
 ! D87   D(7,10,13,31)         -64.1719         estimate D2E/DX2                !
 ! D88   D(26,10,13,1)         -64.1357         estimate D2E/DX2                !
 ! D89   D(26,10,13,30)        175.1106         estimate D2E/DX2                !
 ! D90   D(26,10,13,31)         57.9492         estimate D2E/DX2                !
 --------------------------------------------------------------------------------
 Trust Radius=3.00D-01 FncErr=1.00D-07 GrdErr=1.00D-06 EigMax=2.50D+02 EigMin=1.00D-04
 Number of steps in this run=    186 maximum allowed number of steps=    186.
 GradGradGradGradGradGradGradGradGradGradGradGradGradGradGradGradGradGrad

                          Input orientation:                          
 ---------------------------------------------------------------------
 Center     Atomic      Atomic             Coordinates (Angstroms)
 Number     Number       Type             X           Y           Z
 ---------------------------------------------------------------------
      1          6           0       -3.547666   -1.030339    0.223110
      2          6           0        1.749937   -1.101564   -0.445659
      3          6           0        3.527794    1.022575    0.286693
      4          8           0        2.977130   -0.877077   -1.104769
      5          8           0       -1.678693    1.071238   -0.257668
      6          6           0       -2.878295    1.036622   -1.014572
      7          8           0       -0.016876   -0.022760    0.801781
      8          6           0       -3.991801    0.360925   -0.230692
      9          6           0        2.172459    0.893301    0.985136
     10          6           0       -1.190657   -0.206379    0.081421
     11          6           0        3.972781   -0.322276   -0.264076
     12          6           0        1.169561    0.217171    0.062145
     13          6           0       -2.195454   -0.952404    0.937191
     14          1           0       -4.288965   -1.473795    0.880081
     15          1           0       -3.461335   -1.682268   -0.643794
     16          1           0        1.898478   -1.779600    0.391747
     17          1           0        1.098210   -1.578352   -1.163406
     18          1           0        3.457678    1.736306   -0.530183
     19          1           0        4.276668    1.393956    0.979632
     20          1           0       -2.693698    0.511978   -1.949296
     21          1           0       -3.117503    2.065355   -1.244631
     22          1           0       -4.238330    0.971927    0.634267
     23          1           0       -4.880825    0.300325   -0.851971
     24          1           0        2.276814    0.289211    1.883420
     25          1           0        1.799282    1.866816    1.286949
     26          1           0       -0.993435   -0.747556   -0.838002
     27          1           0        4.863528   -0.227096   -0.869697
     28          1           0        4.180123   -1.018733    0.545180
     29          1           0        0.947455    0.862405   -0.780559
     30          1           0       -2.297410   -0.423201    1.881063
     31          1           0       -1.811179   -1.944688    1.150263
 ---------------------------------------------------------------------
                    Distance matrix (angstroms):
                    1          2          3          4          5
     1  C    0.000000
     2  C    5.340124   0.000000
     3  C    7.367539   2.865149   0.000000
     4  O    6.660309   1.410965   2.418279   0.000000
     5  O    2.853215   4.063485   5.235093   5.117636   0.000000
     6  C    2.500448   5.129915   6.536931   6.160875   1.418854
     7  O    3.717062   2.416930   3.731317   3.650871   2.254085
     8  C    1.529316   5.928966   7.566358   7.131806   2.419864
     9  C    6.082837   2.491021   1.530185   2.854722   4.050629
    10  C    2.500895   3.118696   4.880189   4.384898   1.409066
    11  C    7.569401   2.362477   1.519863   1.416294   5.820746
    12  C    4.882051   1.527666   2.502071   2.413788   2.990696
    13  C    1.531164   4.183376   6.089274   5.561556   2.406212
    14  H    1.085260   6.193907   8.227132   7.555914   3.819056
    15  H    1.088112   5.247269   7.551815   6.504972   3.302832
    16  H    5.500029   1.087679   3.243130   2.053679   4.620083
    17  H    4.879232   1.080387   3.843239   2.006381   3.943587
    18  H    7.569453   3.313160   1.087021   2.718611   5.186414
    19  H    8.226162   3.826675   1.085772   3.345313   6.091090
    20  H    2.797740   4.960880   6.630786   5.899236   2.050515
    21  H    3.452915   5.861715   6.898718   6.769196   2.008118
    22  H    2.157576   6.428448   7.774063   7.648917   2.712407
    23  H    2.168820   6.789506   8.516048   7.949694   3.346812
    24  H    6.198581   2.763415   2.156922   3.283282   4.565289
    25  H    6.173744   3.437389   2.168181   3.825780   3.887814
    26  H    2.780292   2.793805   4.983956   3.981624   2.028393
    27  H    8.519836   3.261741   2.164047   2.009037   6.697828
    28  H    7.734506   2.625724   2.158538   2.046849   6.272023
    29  H    4.979553   2.147862   2.796932   2.692673   2.685829
    30  H    2.163461   4.717502   6.210095   6.077990   2.681479
    31  H    2.170492   3.992414   6.168876   5.399339   3.331011
                    6          7          8          9         10
     6  C    0.000000
     7  O    3.550936   0.000000
     8  C    1.520174   4.124711   0.000000
     9  C    5.434104   2.380331   6.305534   0.000000
    10  C    2.365243   1.389387   2.875005   3.651924   0.000000
    11  C    7.024748   4.140426   7.993900   2.505857   5.176282
    12  C    4.268016   1.418542   5.171661   1.521469   2.397998
    13  C    2.869124   2.372504   2.513095   4.742108   1.516085
    14  H    3.447012   4.512469   2.165253   6.882164   3.441470
    15  H    2.805312   4.087536   2.150973   6.405201   2.803598
    16  H    5.720699   2.631197   6.297989   2.751650   3.480529
    17  H    4.761600   2.743218   5.526207   3.446638   2.944625
    18  H    6.392867   4.115941   7.581300   2.158388   5.074949
    19  H    7.436265   4.524736   8.420191   2.162957   5.767105
    20  H    1.087675   3.875532   2.159048   5.695242   2.626591
    21  H    1.080944   4.261680   2.167383   5.859118   3.260663
    22  H    2.138352   4.340292   1.087315   6.420865   3.313964
    23  H    2.139789   5.147551   1.086289   7.312687   3.839962
    24  H    5.960883   2.555050   6.615901   1.087533   3.939056
    25  H    5.278821   2.665392   6.173134   1.085396   3.832906
    26  H    2.601378   2.041540   3.253883   4.004888   1.084946
    27  H    7.845623   5.162745   8.897806   3.455076   6.128475
    28  H    7.515223   4.321181   8.323808   2.807160   5.451630
    29  H    3.836858   2.053595   4.995006   2.149248   2.541030
    30  H    3.294421   2.554611   2.818745   4.745060   2.123823
    31  H    3.835812   2.652314   3.460925   4.893958   2.132883
                   11         12         13         14         15
    11  C    0.000000
    12  C    2.873233   0.000000
    13  C    6.315634   3.668370   0.000000
    14  H    8.419711   5.772685   2.158216   0.000000
    15  H    7.567024   5.054841   2.152828   1.746605   0.000000
    16  H    2.618517   2.151058   4.212130   6.214213   5.459800
    17  H    3.263385   2.175079   3.956329   5.762675   4.590234
    18  H    2.138669   2.809645   6.429638   8.503180   7.718309
    19  H    2.141170   3.446842   6.884444   9.033492   8.483829
    20  H    6.926607   4.365498   3.274823   3.807039   2.666143
    21  H    7.545489   4.847924   3.836325   4.290956   3.811024
    22  H    8.360881   5.490197   2.822792   2.458566   3.046623
    23  H    8.894919   6.119615   3.461452   2.549079   2.447236
    24  H    2.803919   2.132661   4.736891   6.871996   6.572663
    25  H    3.452810   2.148958   4.901862   6.956434   6.633088
    26  H    5.017326   2.533676   2.153630   3.786786   2.646117
    27  H    1.081326   3.835505   7.322578   9.401282   8.454106
    28  H    1.087630   3.290025   6.387962   8.487914   7.761818
    29  H    3.289806   1.084347   4.015230   5.969560   5.092298
    30  H    6.627752   3.967169   1.086897   2.464144   3.052028
    31  H    6.171448   3.839589   1.085216   2.536565   2.451636
                   16         17         18         19         20
    16  H    0.000000
    17  H    1.760520   0.000000
    18  H    3.955080   4.117647   0.000000
    19  H    4.009096   4.850755   1.751425   0.000000
    20  H    5.640912   4.400644   6.430574   7.611998   0.000000
    21  H    6.528513   5.572740   6.622063   7.750606   1.757596
    22  H    6.729794   6.181764   7.821046   8.532443   3.045035
    23  H    7.199436   6.274972   8.467362   9.402685   2.456103
    24  H    2.578411   3.762984   3.051885   2.456972   6.280551
    25  H    3.756005   4.285432   2.463591   2.540764   5.700503
    26  H    3.307651   2.274003   5.106538   5.971922   2.390041
    27  H    3.576735   4.011206   2.438572   2.528286   7.669643
    28  H    2.410055   3.568000   3.044433   2.453393   7.470937
    29  H    3.042850   2.475196   2.669759   3.803219   3.840148
    30  H    4.654391   4.704615   6.602925   6.879908   3.962733
    31  H    3.790007   3.735212   6.643378   6.945325   4.052322
                   21         22         23         24         25
    21  H    0.000000
    22  H    2.445832   0.000000
    23  H    2.525632   1.752927   0.000000
    24  H    6.483675   6.668852   7.662525   0.000000
    25  H    5.533813   6.138369   7.186981   1.752898   0.000000
    26  H    3.548166   3.956456   4.026171   4.378990   4.376029
    27  H    8.312206   9.302870   9.758632   3.812783   4.292458
    28  H    8.122214   8.651070   9.262436   2.669118   3.813793
    29  H    4.264544   5.376439   5.855756   3.031919   2.451334
    30  H    4.078655   2.695933   3.829752   4.629369   4.730754
    31  H    4.849994   3.829355   4.297877   4.715879   5.251826
                   26         27         28         29         30
    26  H    0.000000
    27  H    5.880127   0.000000
    28  H    5.362129   1.759434   0.000000
    29  H    2.522366   4.065782   3.968174   0.000000
    30  H    3.032964   7.673602   6.640608   4.389324   0.000000
    31  H    2.460697   7.182066   6.092554   4.383823   1.756534
                   31
    31  H    0.000000
 Stoichiometry    C10H18O3
 Framework group  C1[X(C10H18O3)]
 Deg. of freedom    87
 Full point group                 C1      NOp   1
 Largest Abelian subgroup         C1      NOp   1
 Largest concise Abelian subgroup C1      NOp   1
                         Standard orientation:                         
 ---------------------------------------------------------------------
 Center     Atomic      Atomic             Coordinates (Angstroms)
 Number     Number       Type             X           Y           Z
 ---------------------------------------------------------------------
      1          6           0       -3.547666   -1.030339    0.223110
      2          6           0        1.749937   -1.101564   -0.445659
      3          6           0        3.527794    1.022575    0.286693
      4          8           0        2.977130   -0.877077   -1.104769
      5          8           0       -1.678693    1.071238   -0.257668
      6          6           0       -2.878295    1.036622   -1.014572
      7          8           0       -0.016876   -0.022760    0.801781
      8          6           0       -3.991801    0.360925   -0.230692
      9          6           0        2.172459    0.893301    0.985136
     10          6           0       -1.190657   -0.206379    0.081421
     11          6           0        3.972781   -0.322276   -0.264076
     12          6           0        1.169561    0.217171    0.062145
     13          6           0       -2.195454   -0.952404    0.937191
     14          1           0       -4.288965   -1.473795    0.880081
     15          1           0       -3.461335   -1.682268   -0.643794
     16          1           0        1.898478   -1.779600    0.391747
     17          1           0        1.098210   -1.578352   -1.163406
     18          1           0        3.457678    1.736306   -0.530183
     19          1           0        4.276668    1.393956    0.979632
     20          1           0       -2.693698    0.511978   -1.949296
     21          1           0       -3.117503    2.065355   -1.244631
     22          1           0       -4.238330    0.971927    0.634267
     23          1           0       -4.880825    0.300325   -0.851971
     24          1           0        2.276814    0.289211    1.883420
     25          1           0        1.799282    1.866816    1.286949
     26          1           0       -0.993435   -0.747556   -0.838002
     27          1           0        4.863528   -0.227096   -0.869697
     28          1           0        4.180123   -1.018733    0.545180
     29          1           0        0.947455    0.862405   -0.780559
     30          1           0       -2.297410   -0.423201    1.881063
     31          1           0       -1.811179   -1.944688    1.150263
 ---------------------------------------------------------------------
 Rotational constants (GHZ):           2.1695840           0.3530557           0.3422236
 Standard basis: 6-311++G(2d,2p) (5D, 7F)
 There are   557 symmetry adapted cartesian basis functions of A   symmetry.
 There are   531 symmetry adapted basis functions of A   symmetry.
   531 basis functions,   762 primitive gaussians,   557 cartesian basis functions
    51 alpha electrons       51 beta electrons
       nuclear repulsion energy       877.6529324916 Hartrees.
 NAtoms=   31 NActive=   31 NUniq=   31 SFac= 1.00D+00 NAtFMM=   60 NAOKFM=F Big=F
 Integral buffers will be    131072 words long.
 Raffenetti 2 integral format.
 Two-electron integral symmetry is turned on.
 ------------------------------------------------------------------------------
 Polarizable Continuum Model (PCM)
 =================================
 Model                : PCM.
 Atomic radii         : SMD-Coulomb.
 Polarization charges : Total charges.
 Charge compensation  : None.
 Solution method      : On-the-fly selection.
 Cavity type          : VdW (van der Waals Surface) (Alpha=1.000).
 Cavity algorithm     : GePol (No added spheres)
                        Default sphere list used, NSphG=   31.
                        Lebedev-Laikov grids with approx.  5.0 points / Ang**2.
                        Smoothing algorithm: York/Karplus (Gamma=1.0000).
                        Polarization charges: spherical gaussians, with
                                              point-specific exponents (IZeta= 3).
                        Self-potential: point-specific (ISelfS= 7).
                        Self-field    : sphere-specific E.n sum rule (ISelfD= 2).
 1st derivatives      : Analytical E(r).r(x)/FMM algorithm (CHGder, D1EAlg=3).
                        Cavity 1st derivative terms included.
 Solvent              : Water, Eps=  78.355300 Eps(inf)=   1.777849
 ------------------------------------------------------------------------------
 ------------------------------------------------------------------------------
 Atomic radii for non-electrostatic terms: SMD-CDS.
 ------------------------------------------------------------------------------
 Nuclear repulsion after PCM non-electrostatic terms =      877.6593280357 Hartrees.
 One-electron integrals computed using PRISM.
 NBasis=   531 RedAO= T EigKep=  5.76D-06  NBF=   531
 NBsUse=   531 1.00D-06 EigRej= -1.00D+00 NBFU=   531
 ExpMin= 3.60D-02 ExpMax= 8.59D+03 ExpMxC= 1.30D+03 IAcc=3 IRadAn=         5 AccDes= 0.00D+00
 Harris functional with IExCor= 1009 and IRadAn=       5 diagonalized for initial guess.
 HarFok:  IExCor= 1009 AccDes= 0.00D+00 IRadAn=         5 IDoV= 1 UseB2=F ITyADJ=14
 ICtDFT=  3500011 ScaDFX=  1.000000  1.000000  1.000000  1.000000
 FoFCou: FMM=F IPFlag=           0 FMFlag=      100000 FMFlg1=           0
         NFxFlg=           0 DoJE=T BraDBF=F KetDBF=T FulRan=T
         wScrn=  0.000000 ICntrl=       500 IOpCl=  0 I1Cent=   200000004 NGrid=           0
         NMat0=    1 NMatS0=      1 NMatT0=    0 NMatD0=    1 NMtDS0=    0 NMtDT0=    0
 Petite list used in FoFCou.
 Requested convergence on RMS density matrix=1.00D-08 within 128 cycles.
 Requested convergence on MAX density matrix=1.00D-06.
 Requested convergence on             energy=1.00D-06.
 No special actions if energy rises.
 Inv3:  Mode=1 IEnd=    12350523.
 Iteration    1 A*A^-1 deviation from unit magnitude is 3.77D-15 for   2002.
 Iteration    1 A*A^-1 deviation from orthogonality  is 3.77D-15 for   2029    609.
 Iteration    1 A^-1*A deviation from unit magnitude is 3.77D-15 for   2002.
 Iteration    1 A^-1*A deviation from orthogonality  is 4.14D-12 for   1922   1898.
 Error on total polarization charges =  0.06357
 SCF Done:  E(RM062X) =  -617.506635687     A.U. after   12 cycles
            NFock= 12  Conv=0.44D-08     -V/T= 2.0035
 SMD-CDS (non-electrostatic) energy       (kcal/mol) =       4.01
 (included in total energy above)

 **********************************************************************

            Population analysis using the SCF Density.

 **********************************************************************

 Orbital symmetries:
       Occupied  (A) (A) (A) (A) (A) (A) (A) (A) (A) (A) (A) (A)
                 (A) (A) (A) (A) (A) (A) (A) (A) (A) (A) (A) (A)
                 (A) (A) (A) (A) (A) (A) (A) (A) (A) (A) (A) (A)
                 (A) (A) (A) (A) (A) (A) (A) (A) (A) (A) (A) (A)
                 (A) (A) (A)
       Virtual   (A) (A) (A) (A) (A) (A) (A) (A) (A) (A) (A) (A)
                 (A) (A) (A) (A) (A) (A) (A) (A) (A) (A) (A) (A)
                 (A) (A) (A) (A) (A) (A) (A) (A) (A) (A) (A) (A)
                 (A) (A) (A) (A) (A) (A) (A) (A) (A) (A) (A) (A)
                 (A) (A) (A) (A) (A) (A) (A) (A) (A) (A) (A) (A)
                 (A) (A) (A) (A) (A) (A) (A) (A) (A) (A) (A) (A)
                 (A) (A) (A) (A) (A) (A) (A) (A) (A) (A) (A) (A)
                 (A) (A) (A) (A) (A) (A) (A) (A) (A) (A) (A) (A)
                 (A) (A) (A) (A) (A) (A) (A) (A) (A) (A) (A) (A)
                 (A) (A) (A) (A) (A) (A) (A) (A) (A) (A) (A) (A)
                 (A) (A) (A) (A) (A) (A) (A) (A) (A) (A) (A) (A)
                 (A) (A) (A) (A) (A) (A) (A) (A) (A) (A) (A) (A)
                 (A) (A) (A) (A) (A) (A) (A) (A) (A) (A) (A) (A)
                 (A) (A) (A) (A) (A) (A) (A) (A) (A) (A) (A) (A)
                 (A) (A) (A) (A) (A) (A) (A) (A) (A) (A) (A) (A)
                 (A) (A) (A) (A) (A) (A) (A) (A) (A) (A) (A) (A)
                 (A) (A) (A) (A) (A) (A) (A) (A) (A) (A) (A) (A)
                 (A) (A) (A) (A) (A) (A) (A) (A) (A) (A) (A) (A)
                 (A) (A) (A) (A) (A) (A) (A) (A) (A) (A) (A) (A)
                 (A) (A) (A) (A) (A) (A) (A) (A) (A) (A) (A) (A)
                 (A) (A) (A) (A) (A) (A) (A) (A) (A) (A) (A) (A)
                 (A) (A) (A) (A) (A) (A) (A) (A) (A) (A) (A) (A)
                 (A) (A) (A) (A) (A) (A) (A) (A) (A) (A) (A) (A)
                 (A) (A) (A) (A) (A) (A) (A) (A) (A) (A) (A) (A)
                 (A) (A) (A) (A) (A) (A) (A) (A) (A) (A) (A) (A)
                 (A) (A) (A) (A) (A) (A) (A) (A) (A) (A) (A) (A)
                 (A) (A) (A) (A) (A) (A) (A) (A) (A) (A) (A) (A)
                 (A) (A) (A) (A) (A) (A) (A) (A) (A) (A) (A) (A)
                 (A) (A) (A) (A) (A) (A) (A) (A) (A) (A) (A) (A)
                 (A) (A) (A) (A) (A) (A) (A) (A) (A) (A) (A) (A)
                 (A) (A) (A) (A) (A) (A) (A) (A) (A) (A) (A) (A)
                 (A) (A) (A) (A) (A) (A) (A) (A) (A) (A) (A) (A)
                 (A) (A) (A) (A) (A) (A) (A) (A) (A) (A) (A) (A)
                 (A) (A) (A) (A) (A) (A) (A) (A) (A) (A) (A) (A)
                 (A) (A) (A) (A) (A) (A) (A) (A) (A) (A) (A) (A)
                 (A) (A) (A) (A) (A) (A) (A) (A) (A) (A) (A) (A)
                 (A) (A) (A) (A) (A) (A) (A) (A) (A) (A) (A) (A)
                 (A) (A) (A) (A) (A) (A) (A) (A) (A) (A) (A) (A)
                 (A) (A) (A) (A) (A) (A) (A) (A) (A) (A) (A) (A)
                 (A) (A) (A) (A) (A) (A) (A) (A) (A) (A) (A) (A)
 The electronic state is 1-A.
 Alpha  occ. eigenvalues --  -19.63711 -19.62956 -19.62800 -10.63156 -10.58316
 Alpha  occ. eigenvalues --  -10.57320 -10.57282 -10.57209 -10.52524 -10.52456
 Alpha  occ. eigenvalues --  -10.52420 -10.52328 -10.52117  -1.20616  -1.16747
 Alpha  occ. eigenvalues --   -1.14144  -0.90601  -0.89411  -0.86922  -0.83884
 Alpha  occ. eigenvalues --   -0.74790  -0.73482  -0.72910  -0.69824  -0.65906
 Alpha  occ. eigenvalues --   -0.64601  -0.60123  -0.57972  -0.57578  -0.55432
 Alpha  occ. eigenvalues --   -0.54766  -0.52741  -0.51856  -0.50801  -0.50189
 Alpha  occ. eigenvalues --   -0.48151  -0.46036  -0.45465  -0.45358  -0.44190
 Alpha  occ. eigenvalues --   -0.43972  -0.40544  -0.40337  -0.40066  -0.39173
 Alpha  occ. eigenvalues --   -0.38184  -0.37801  -0.37089  -0.35851  -0.32411
 Alpha  occ. eigenvalues --   -0.31755
 Alpha virt. eigenvalues --    0.00493   0.01272   0.01415   0.01480   0.02590
 Alpha virt. eigenvalues --    0.02844   0.03024   0.04108   0.04235   0.04703
 Alpha virt. eigenvalues --    0.04821   0.05076   0.05884   0.06173   0.06957
 Alpha virt. eigenvalues --    0.07562   0.08042   0.08380   0.09818   0.10153
 Alpha virt. eigenvalues --    0.10586   0.10993   0.11337   0.11991   0.12164
 Alpha virt. eigenvalues --    0.12474   0.12795   0.13129   0.13600   0.13890
 Alpha virt. eigenvalues --    0.14038   0.14432   0.14781   0.15156   0.15412
 Alpha virt. eigenvalues --    0.15493   0.15869   0.16236   0.16524   0.16688
 Alpha virt. eigenvalues --    0.17072   0.17324   0.17385   0.17871   0.18021
 Alpha virt. eigenvalues --    0.18372   0.18795   0.19026   0.19624   0.20097
 Alpha virt. eigenvalues --    0.20243   0.20597   0.20705   0.21356   0.22009
 Alpha virt. eigenvalues --    0.22444   0.23256   0.23540   0.23930   0.24556
 Alpha virt. eigenvalues --    0.25705   0.25940   0.26720   0.27243   0.27642
 Alpha virt. eigenvalues --    0.28233   0.28415   0.28909   0.29381   0.29974
 Alpha virt. eigenvalues --    0.30183   0.30802   0.31491   0.32065   0.32294
 Alpha virt. eigenvalues --    0.32586   0.32734   0.33533   0.34175   0.35231
 Alpha virt. eigenvalues --    0.35314   0.35535   0.35846   0.36315   0.36768
 Alpha virt. eigenvalues --    0.37233   0.37380   0.37618   0.37890   0.38342
 Alpha virt. eigenvalues --    0.38583   0.39120   0.39644   0.40616   0.40903
 Alpha virt. eigenvalues --    0.41470   0.41958   0.42794   0.43458   0.45356
 Alpha virt. eigenvalues --    0.46957   0.47816   0.49313   0.50629   0.50989
 Alpha virt. eigenvalues --    0.52318   0.52539   0.53596   0.54235   0.55014
 Alpha virt. eigenvalues --    0.56027   0.56663   0.58141   0.59145   0.59562
 Alpha virt. eigenvalues --    0.59982   0.60134   0.61056   0.61922   0.62109
 Alpha virt. eigenvalues --    0.62623   0.63024   0.63460   0.64063   0.64247
 Alpha virt. eigenvalues --    0.64365   0.65429   0.66099   0.66287   0.66862
 Alpha virt. eigenvalues --    0.68023   0.68494   0.69722   0.70212   0.70535
 Alpha virt. eigenvalues --    0.71401   0.72051   0.73180   0.73281   0.73980
 Alpha virt. eigenvalues --    0.74638   0.74826   0.75164   0.75409   0.76229
 Alpha virt. eigenvalues --    0.76405   0.76634   0.77641   0.77766   0.78960
 Alpha virt. eigenvalues --    0.81877   0.83557   0.84382   0.84718   0.85696
 Alpha virt. eigenvalues --    0.86331   0.88216   0.89522   0.89646   0.90528
 Alpha virt. eigenvalues --    0.91440   0.91898   0.92938   0.94559   0.95105
 Alpha virt. eigenvalues --    0.96415   0.98619   0.99821   1.00781   1.02115
 Alpha virt. eigenvalues --    1.03330   1.04424   1.05265   1.06630   1.06756
 Alpha virt. eigenvalues --    1.08521   1.08700   1.09048   1.11184   1.11859
 Alpha virt. eigenvalues --    1.12467   1.13677   1.14332   1.15353   1.16538
 Alpha virt. eigenvalues --    1.17266   1.18160   1.18807   1.19367   1.19987
 Alpha virt. eigenvalues --    1.20503   1.22199   1.22830   1.23391   1.24003
 Alpha virt. eigenvalues --    1.24659   1.25204   1.26197   1.26941   1.27073
 Alpha virt. eigenvalues --    1.28036   1.28183   1.29047   1.29536   1.31142
 Alpha virt. eigenvalues --    1.31922   1.32188   1.33082   1.33540   1.34261
 Alpha virt. eigenvalues --    1.34450   1.35586   1.36337   1.36810   1.37434
 Alpha virt. eigenvalues --    1.38669   1.39388   1.39703   1.40617   1.41281
 Alpha virt. eigenvalues --    1.42039   1.42895   1.43404   1.43911   1.44527
 Alpha virt. eigenvalues --    1.45270   1.45865   1.46999   1.47627   1.48137
 Alpha virt. eigenvalues --    1.49436   1.49627   1.50087   1.50576   1.51745
 Alpha virt. eigenvalues --    1.52398   1.53478   1.54528   1.54597   1.55974
 Alpha virt. eigenvalues --    1.56778   1.57589   1.58037   1.58695   1.58865
 Alpha virt. eigenvalues --    1.59364   1.60107   1.61029   1.61525   1.62646
 Alpha virt. eigenvalues --    1.63931   1.64263   1.64874   1.65918   1.66349
 Alpha virt. eigenvalues --    1.68223   1.69366   1.70175   1.70790   1.71412
 Alpha virt. eigenvalues --    1.74350   1.75607   1.75667   1.77380   1.78543
 Alpha virt. eigenvalues --    1.79110   1.80294   1.81545   1.82126   1.84346
 Alpha virt. eigenvalues --    1.88171   1.90839   1.92069   1.94576   1.97835
 Alpha virt. eigenvalues --    2.00721   2.06836   2.11301   2.12256   2.18854
 Alpha virt. eigenvalues --    2.24075   2.26542   2.32010   2.33159   2.34962
 Alpha virt. eigenvalues --    2.41463   2.43274   2.45577   2.50274   2.51652
 Alpha virt. eigenvalues --    2.56295   2.76437   2.76611   2.79815   2.81005
 Alpha virt. eigenvalues --    2.88109   2.90377   2.91970   2.93319   2.94840
 Alpha virt. eigenvalues --    2.97084   2.98190   3.00315   3.01540   3.04677
 Alpha virt. eigenvalues --    3.07022   3.07630   3.08800   3.09294   3.11369
 Alpha virt. eigenvalues --    3.12940   3.14489   3.17579   3.20015   3.22101
 Alpha virt. eigenvalues --    3.25609   3.28583   3.31663   3.34247   3.35229
 Alpha virt. eigenvalues --    3.36274   3.36716   3.39075   3.40393   3.41426
 Alpha virt. eigenvalues --    3.42909   3.43969   3.45027   3.46332   3.46469
 Alpha virt. eigenvalues --    3.48079   3.49252   3.49477   3.50732   3.52105
 Alpha virt. eigenvalues --    3.53332   3.53644   3.54974   3.56053   3.56261
 Alpha virt. eigenvalues --    3.57185   3.57680   3.58571   3.59308   3.60868
 Alpha virt. eigenvalues --    3.61522   3.62054   3.62712   3.63349   3.65634
 Alpha virt. eigenvalues --    3.66735   3.67394   3.68169   3.69311   3.70312
 Alpha virt. eigenvalues --    3.70694   3.72020   3.72963   3.73262   3.73824
 Alpha virt. eigenvalues --    3.74665   3.75303   3.76442   3.76476   3.78370
 Alpha virt. eigenvalues --    3.78691   3.78821   3.79404   3.81079   3.84111
 Alpha virt. eigenvalues --    3.85792   3.87872   3.88788   3.90486   3.91912
 Alpha virt. eigenvalues --    3.92314   3.94592   3.95367   3.97430   3.98507
 Alpha virt. eigenvalues --    4.00097   4.02630   4.03258   4.03893   4.04696
 Alpha virt. eigenvalues --    4.05473   4.06005   4.06856   4.07334   4.08094
 Alpha virt. eigenvalues --    4.08992   4.09205   4.09752   4.11853   4.12482
 Alpha virt. eigenvalues --    4.12654   4.13397   4.14376   4.15117   4.15913
 Alpha virt. eigenvalues --    4.17283   4.17993   4.18419   4.19958   4.20571
 Alpha virt. eigenvalues --    4.21531   4.22965   4.25605   4.26393   4.26799
 Alpha virt. eigenvalues --    4.27732   4.29485   4.30632   4.32157   4.32881
 Alpha virt. eigenvalues --    4.33362   4.34200   4.35449   4.37487   4.40190
 Alpha virt. eigenvalues --    4.42823   4.44809   4.45075   4.45924   4.58001
 Alpha virt. eigenvalues --    4.58833   4.61764   4.76803   4.77305   4.83356
 Alpha virt. eigenvalues --    4.89197   4.92606   4.93422   4.99590   5.00210
 Alpha virt. eigenvalues --    5.06526   5.07571   5.08442   5.09201   5.12275
 Alpha virt. eigenvalues --    5.12903   5.14544   5.15606   5.29998   5.34724
 Alpha virt. eigenvalues --    5.36495   5.56555   5.58662   5.62473   5.86826
 Alpha virt. eigenvalues --    5.88986   6.04193   7.02304   7.04379   7.05493
 Alpha virt. eigenvalues --    7.08464   7.10376   7.12246   7.13352   7.16331
 Alpha virt. eigenvalues --    7.22043   7.36605   7.41240   7.44776   7.53999
 Alpha virt. eigenvalues --    7.54914   7.61466  23.95825  23.97603  24.07305
 Alpha virt. eigenvalues --   24.07936  24.12147  24.12593  24.14669  24.15893
 Alpha virt. eigenvalues --   24.17296  24.18345  50.17717  50.20113  50.22228
          Condensed to atoms (all electrons):
               1          2          3          4          5          6
     1  C    5.719286   0.010251  -0.001450  -0.000349   0.015516  -0.085481
     2  C    0.010251   6.085941   0.147450   0.153209   0.010619   0.014416
     3  C   -0.001450   0.147450   5.592957  -0.030343  -0.007194   0.002137
     4  O   -0.000349   0.153209  -0.030343   8.401481   0.000072  -0.000692
     5  O    0.015516   0.010619  -0.007194   0.000072   8.419296   0.014823
     6  C   -0.085481   0.014416   0.002137  -0.000692   0.014823   5.508069
     7  O    0.018185  -0.180130   0.001179   0.005626   0.009297  -0.008754
     8  C    0.028082   0.001598  -0.000169   0.000038  -0.062321   0.052154
     9  C    0.006778   0.060329   0.121136  -0.016075  -0.064473   0.008918
    10  C    0.033707  -0.026009  -0.130823  -0.012255   0.273041  -0.163758
    11  C   -0.000762  -0.245412   0.046364   0.073288   0.001336  -0.001650
    12  C   -0.131338  -0.442842  -0.132023   0.017620  -0.012022   0.009404
    13  C    0.010367   0.121148   0.012498  -0.000641  -0.032881   0.017039
    14  H    0.430737   0.000747  -0.000065  -0.000004  -0.003281   0.001951
    15  H    0.521422   0.002069   0.000100   0.000057   0.000537  -0.011380
    16  H   -0.003218   0.370305  -0.005714  -0.032214   0.000345  -0.001317
    17  H    0.009299   0.475151   0.019985  -0.071407  -0.001104  -0.001692
    18  H    0.000227   0.005212   0.495814  -0.000853   0.000060  -0.000605
    19  H   -0.000064  -0.002769   0.437366   0.007207  -0.000191   0.000169
    20  H    0.001784   0.002274   0.000922   0.000077  -0.026539   0.472407
    21  H    0.008484  -0.000105   0.000062  -0.000025  -0.072820   0.433316
    22  H   -0.013144  -0.000273   0.000152   0.000004  -0.001791  -0.075967
    23  H   -0.060546  -0.000182  -0.000039  -0.000012   0.006345  -0.032597
    24  H    0.000348  -0.041040  -0.072363  -0.000634   0.000513  -0.000672
    25  H   -0.001122   0.016914   0.001890  -0.001728  -0.001804   0.000826
    26  H   -0.065114  -0.042302  -0.011651   0.000711  -0.069024   0.016346
    27  H   -0.000074   0.009774  -0.048592  -0.070856  -0.000064  -0.000116
    28  H    0.000180  -0.037906  -0.043577  -0.039689  -0.000038  -0.000011
    29  H   -0.006005  -0.129547  -0.025223  -0.012864   0.009426   0.002464
    30  H   -0.016810   0.004621   0.000559   0.000104  -0.009780  -0.005583
    31  H   -0.028830   0.001924   0.000838   0.000344   0.006318   0.004045
               7          8          9         10         11         12
     1  C    0.018185   0.028082   0.006778   0.033707  -0.000762  -0.131338
     2  C   -0.180130   0.001598   0.060329  -0.026009  -0.245412  -0.442842
     3  C    0.001179  -0.000169   0.121136  -0.130823   0.046364  -0.132023
     4  O    0.005626   0.000038  -0.016075  -0.012255   0.073288   0.017620
     5  O    0.009297  -0.062321  -0.064473   0.273041   0.001336  -0.012022
     6  C   -0.008754   0.052154   0.008918  -0.163758  -0.001650   0.009404
     7  O    8.412050   0.017410  -0.148439   0.176432   0.015143   0.304679
     8  C    0.017410   5.542159   0.003767   0.117472   0.000186  -0.043437
     9  C   -0.148439   0.003767   7.023429   0.009922  -0.212299  -1.216273
    10  C    0.176432   0.117472   0.009922   6.436051   0.012291  -0.375084
    11  C    0.015143   0.000186  -0.212299   0.012291   5.436662   0.224751
    12  C    0.304679  -0.043437  -1.216273  -0.375084   0.224751   7.536214
    13  C   -0.250341  -0.074173  -0.162197  -0.688504   0.001465  -0.082004
    14  H   -0.002511  -0.024813  -0.000508   0.033857   0.000051  -0.006606
    15  H   -0.000351  -0.068188  -0.001024  -0.022941   0.000015   0.004709
    16  H    0.010950   0.000704  -0.026646  -0.026686   0.018886   0.028355
    17  H   -0.009866  -0.001607   0.015748   0.019737  -0.002693  -0.118114
    18  H   -0.000108   0.000171  -0.006831  -0.001093  -0.078540  -0.035517
    19  H   -0.001928  -0.000063  -0.040945  -0.000721  -0.040743   0.007431
    20  H    0.003337  -0.065017  -0.000566  -0.036512  -0.000159   0.011070
    21  H   -0.002168  -0.038167   0.001463   0.010311  -0.000104  -0.000676
    22  H    0.002256   0.477526  -0.001140  -0.013743   0.000052   0.006752
    23  H    0.000268   0.461374   0.000918   0.008389  -0.000036  -0.002897
    24  H   -0.006761  -0.000889   0.487014   0.011216  -0.010255  -0.005580
    25  H    0.004740   0.001015   0.392792  -0.010456   0.003285  -0.013425
    26  H   -0.012848   0.027565   0.032522   0.483883   0.003242   0.059712
    27  H    0.000880  -0.000031   0.008189  -0.001734   0.434544   0.005467
    28  H   -0.000228   0.000120  -0.027563   0.000075   0.476567   0.041882
    29  H   -0.031134  -0.005998  -0.000965   0.006925   0.020480   0.498368
    30  H    0.001088  -0.014979   0.001097  -0.120804  -0.000249   0.004076
    31  H    0.000850  -0.000296   0.002678  -0.019765  -0.001433   0.003108
              13         14         15         16         17         18
     1  C    0.010367   0.430737   0.521422  -0.003218   0.009299   0.000227
     2  C    0.121148   0.000747   0.002069   0.370305   0.475151   0.005212
     3  C    0.012498  -0.000065   0.000100  -0.005714   0.019985   0.495814
     4  O   -0.000641  -0.000004   0.000057  -0.032214  -0.071407  -0.000853
     5  O   -0.032881  -0.003281   0.000537   0.000345  -0.001104   0.000060
     6  C    0.017039   0.001951  -0.011380  -0.001317  -0.001692  -0.000605
     7  O   -0.250341  -0.002511  -0.000351   0.010950  -0.009866  -0.000108
     8  C   -0.074173  -0.024813  -0.068188   0.000704  -0.001607   0.000171
     9  C   -0.162197  -0.000508  -0.001024  -0.026646   0.015748  -0.006831
    10  C   -0.688504   0.033857  -0.022941  -0.026686   0.019737  -0.001093
    11  C    0.001465   0.000051   0.000015   0.018886  -0.002693  -0.078540
    12  C   -0.082004  -0.006606   0.004709   0.028355  -0.118114  -0.035517
    13  C    6.655317  -0.058227  -0.038296  -0.002688   0.014893   0.000873
    14  H   -0.058227   0.457634  -0.000154  -0.000040   0.000565   0.000006
    15  H   -0.038296  -0.000154   0.450875   0.000228   0.000254   0.000009
    16  H   -0.002688  -0.000040   0.000228   0.468852  -0.019261   0.001714
    17  H    0.014893   0.000565   0.000254  -0.019261   0.467969  -0.001657
    18  H    0.000873   0.000006   0.000009   0.001714  -0.001657   0.467213
    19  H   -0.000476   0.000001  -0.000007  -0.001241   0.001580  -0.006034
    20  H    0.016855  -0.001408   0.003096  -0.000150   0.002217   0.000034
    21  H    0.001204   0.000454  -0.002208  -0.000074   0.000077  -0.000038
    22  H   -0.005380  -0.000005   0.002562   0.000035   0.000123   0.000005
    23  H   -0.002172  -0.009679  -0.006392  -0.000061  -0.000166  -0.000006
    24  H    0.001649   0.000034  -0.000005  -0.001344  -0.002403   0.002856
    25  H   -0.000325  -0.000100   0.000070  -0.002547  -0.000039  -0.004582
    26  H   -0.121270  -0.003504  -0.012255   0.005551  -0.010886  -0.000086
    27  H    0.000133  -0.000000   0.000005  -0.000490   0.002084  -0.002482
    28  H    0.000460   0.000001  -0.000007   0.005588  -0.004566   0.001533
    29  H   -0.007384   0.000076  -0.000549  -0.001275  -0.001591  -0.008268
    30  H    0.526770  -0.001936   0.004964   0.000500   0.001389   0.000155
    31  H    0.412984  -0.012626  -0.006023  -0.004243   0.000120  -0.000026
              19         20         21         22         23         24
     1  C   -0.000064   0.001784   0.008484  -0.013144  -0.060546   0.000348
     2  C   -0.002769   0.002274  -0.000105  -0.000273  -0.000182  -0.041040
     3  C    0.437366   0.000922   0.000062   0.000152  -0.000039  -0.072363
     4  O    0.007207   0.000077  -0.000025   0.000004  -0.000012  -0.000634
     5  O   -0.000191  -0.026539  -0.072820  -0.001791   0.006345   0.000513
     6  C    0.000169   0.472407   0.433316  -0.075967  -0.032597  -0.000672
     7  O   -0.001928   0.003337  -0.002168   0.002256   0.000268  -0.006761
     8  C   -0.000063  -0.065017  -0.038167   0.477526   0.461374  -0.000889
     9  C   -0.040945  -0.000566   0.001463  -0.001140   0.000918   0.487014
    10  C   -0.000721  -0.036512   0.010311  -0.013743   0.008389   0.011216
    11  C   -0.040743  -0.000159  -0.000104   0.000052  -0.000036  -0.010255
    12  C    0.007431   0.011070  -0.000676   0.006752  -0.002897  -0.005580
    13  C   -0.000476   0.016855   0.001204  -0.005380  -0.002172   0.001649
    14  H    0.000001  -0.001408   0.000454  -0.000005  -0.009679   0.000034
    15  H   -0.000007   0.003096  -0.002208   0.002562  -0.006392  -0.000005
    16  H   -0.001241  -0.000150  -0.000074   0.000035  -0.000061  -0.001344
    17  H    0.001580   0.002217   0.000077   0.000123  -0.000166  -0.002403
    18  H   -0.006034   0.000034  -0.000038   0.000005  -0.000006   0.002856
    19  H    0.471334   0.000008   0.000012  -0.000005   0.000001  -0.004848
    20  H    0.000008   0.474381  -0.005127   0.004516  -0.000633   0.000084
    21  H    0.000012  -0.005127   0.473627  -0.003058  -0.009991  -0.000021
    22  H   -0.000005   0.004516  -0.003058   0.469819  -0.011171  -0.000009
    23  H    0.000001  -0.000633  -0.009991  -0.011171   0.475644  -0.000016
    24  H   -0.004848   0.000084  -0.000021  -0.000009  -0.000016   0.449568
    25  H   -0.011348  -0.000053  -0.000045   0.000057   0.000014  -0.016981
    26  H    0.000213  -0.012339  -0.000706  -0.002724   0.003572  -0.000922
    27  H   -0.009148   0.000016  -0.000006   0.000006  -0.000004  -0.000942
    28  H    0.003682  -0.000021   0.000007  -0.000007   0.000006  -0.003097
    29  H    0.001220  -0.001656  -0.000342  -0.000453   0.000105   0.007156
    30  H   -0.000034   0.001393  -0.000876   0.002063  -0.003640  -0.000404
    31  H    0.000024  -0.000137   0.001316  -0.001282   0.001743   0.000539
              25         26         27         28         29         30
     1  C   -0.001122  -0.065114  -0.000074   0.000180  -0.006005  -0.016810
     2  C    0.016914  -0.042302   0.009774  -0.037906  -0.129547   0.004621
     3  C    0.001890  -0.011651  -0.048592  -0.043577  -0.025223   0.000559
     4  O   -0.001728   0.000711  -0.070856  -0.039689  -0.012864   0.000104
     5  O   -0.001804  -0.069024  -0.000064  -0.000038   0.009426  -0.009780
     6  C    0.000826   0.016346  -0.000116  -0.000011   0.002464  -0.005583
     7  O    0.004740  -0.012848   0.000880  -0.000228  -0.031134   0.001088
     8  C    0.001015   0.027565  -0.000031   0.000120  -0.005998  -0.014979
     9  C    0.392792   0.032522   0.008189  -0.027563  -0.000965   0.001097
    10  C   -0.010456   0.483883  -0.001734   0.000075   0.006925  -0.120804
    11  C    0.003285   0.003242   0.434544   0.476567   0.020480  -0.000249
    12  C   -0.013425   0.059712   0.005467   0.041882   0.498368   0.004076
    13  C   -0.000325  -0.121270   0.000133   0.000460  -0.007384   0.526770
    14  H   -0.000100  -0.003504  -0.000000   0.000001   0.000076  -0.001936
    15  H    0.000070  -0.012255   0.000005  -0.000007  -0.000549   0.004964
    16  H   -0.002547   0.005551  -0.000490   0.005588  -0.001275   0.000500
    17  H   -0.000039  -0.010886   0.002084  -0.004566  -0.001591   0.001389
    18  H   -0.004582  -0.000086  -0.002482   0.001533  -0.008268   0.000155
    19  H   -0.011348   0.000213  -0.009148   0.003682   0.001220  -0.000034
    20  H   -0.000053  -0.012339   0.000016  -0.000021  -0.001656   0.001393
    21  H   -0.000045  -0.000706  -0.000006   0.000007  -0.000342  -0.000876
    22  H    0.000057  -0.002724   0.000006  -0.000007  -0.000453   0.002063
    23  H    0.000014   0.003572  -0.000004   0.000006   0.000105  -0.003640
    24  H   -0.016981  -0.000922  -0.000942  -0.003097   0.007156  -0.000404
    25  H    0.471060   0.000220   0.001026  -0.000843  -0.008499   0.000301
    26  H    0.000220   0.474746  -0.000044   0.000397   0.000660  -0.010458
    27  H    0.001026  -0.000044   0.459139  -0.002705   0.000239  -0.000023
    28  H   -0.000843   0.000397  -0.002705   0.475414  -0.001150   0.000067
    29  H   -0.008499   0.000660   0.000239  -0.001150   0.430697  -0.002019
    30  H    0.000301  -0.010458  -0.000023   0.000067  -0.002019   0.457839
    31  H   -0.000159   0.005595  -0.000008  -0.000110   0.000079  -0.018711
              31
     1  C   -0.028830
     2  C    0.001924
     3  C    0.000838
     4  O    0.000344
     5  O    0.006318
     6  C    0.004045
     7  O    0.000850
     8  C   -0.000296
     9  C    0.002678
    10  C   -0.019765
    11  C   -0.001433
    12  C    0.003108
    13  C    0.412984
    14  H   -0.012626
    15  H   -0.006023
    16  H   -0.004243
    17  H    0.000120
    18  H   -0.000026
    19  H    0.000024
    20  H   -0.000137
    21  H    0.001316
    22  H   -0.001282
    23  H    0.001743
    24  H    0.000539
    25  H   -0.000159
    26  H    0.005595
    27  H   -0.000008
    28  H   -0.000110
    29  H    0.000079
    30  H   -0.018711
    31  H    0.481139
 Mulliken charges:
               1
     1  C   -0.400350
     2  C   -0.345435
     3  C   -0.372183
     4  O   -0.369198
     5  O   -0.402217
     6  C   -0.168209
     7  O   -0.328802
     8  C   -0.331192
     9  C   -0.250754
    10  C    0.017580
    11  C   -0.174273
    12  C   -0.145758
    13  C   -0.266695
    14  H    0.199353
    15  H    0.178807
    16  H    0.217193
    17  H    0.215860
    18  H    0.170843
    19  H    0.190317
    20  H    0.155845
    21  H    0.206226
    22  H    0.164228
    23  H    0.181859
    24  H    0.208207
    25  H    0.179845
    26  H    0.261201
    27  H    0.215816
    28  H    0.155539
    29  H    0.267026
    30  H    0.199317
    31  H    0.170006
 Sum of Mulliken charges =  -0.00000
 Mulliken charges with hydrogens summed into heavy atoms:
               1
     1  C   -0.022190
     2  C    0.087618
     3  C   -0.011024
     4  O   -0.369198
     5  O   -0.402217
     6  C    0.193863
     7  O   -0.328802
     8  C    0.014895
     9  C    0.137298
    10  C    0.278781
    11  C    0.197082
    12  C    0.121268
    13  C    0.102627
 Electronic spatial extent (au):  <R**2>=           3396.5246
 Charge=             -0.0000 electrons
 Dipole moment (field-independent basis, Debye):
    X=             -1.3293    Y=             -1.0304    Z=             -0.3515  Tot=              1.7182
 Quadrupole moment (field-independent basis, Debye-Ang):
   XX=            -65.3676   YY=            -80.5654   ZZ=            -82.8959
   XY=              5.6104   XZ=              8.9073   YZ=             -2.5264
 Traceless Quadrupole moment (field-independent basis, Debye-Ang):
   XX=             10.9087   YY=             -4.2891   ZZ=             -6.6196
   XY=              5.6104   XZ=              8.9073   YZ=             -2.5264
 Octapole moment (field-independent basis, Debye-Ang**2):
  XXX=             -0.8055  YYY=             -0.4199  ZZZ=             -0.9957  XYY=             -1.3449
  XXY=             14.2965  XXZ=             12.9539  XZZ=            -11.8659  YZZ=              3.2534
  YYZ=              0.0655  XYZ=             -2.8568
 Hexadecapole moment (field-independent basis, Debye-Ang**3):
 XXXX=          -3409.4060 YYYY=           -475.5916 ZZZZ=           -361.7115 XXXY=             15.4401
 XXXZ=             64.1695 YYYX=            -10.5312 YYYZ=             -5.7806 ZZZX=             13.4203
 ZZZY=             -2.3582 XXYY=           -698.7329 XXZZ=           -679.6291 YYZZ=           -137.7787
 XXYZ=            -32.4060 YYXZ=             12.0920 ZZXY=              4.7515
 N-N= 8.776593280357D+02 E-N=-3.197392422177D+03  KE= 6.153679821417D+02
 D1PCM: PCM CHGder 1st derivatives, ID1Alg=3 FixD1E=F DoIter=F DoCFld=F I1PDM=0.
 Calling FoFJK, ICntrl=      2127 FMM=F ISym2X=0 I1Cent= 0 IOpClX= 0 NMat=1 NMatS=1 NMatT=0.
 ***** Axes restored to original set *****
 -------------------------------------------------------------------
 Center     Atomic                   Forces (Hartrees/Bohr)
 Number     Number              X              Y              Z
 -------------------------------------------------------------------
      1        6           0.002106369    0.003659140    0.000273192
      2        6          -0.000356990    0.005529008    0.002951876
      3        6          -0.001340324   -0.002834822    0.001161239
      4        8           0.002102475   -0.002558022   -0.012102501
      5        8           0.004877401    0.012337634    0.002650194
      6        6          -0.003944141   -0.004473835    0.003048902
      7        8           0.000799196   -0.002049119    0.012825169
      8        6           0.002352595   -0.002107980   -0.001196761
      9        6           0.000710777    0.000050512   -0.004724634
     10        6          -0.005325893   -0.004215138    0.001786562
     11        6          -0.003384568    0.005306827    0.003810875
     12        6           0.004084262   -0.002829577    0.001304165
     13        6          -0.001180725   -0.000272365   -0.003494292
     14        1          -0.001726451   -0.000992244    0.001744730
     15        1           0.000873548   -0.001467169   -0.002894851
     16        1           0.000132383   -0.002600675    0.005674900
     17        1          -0.004096114   -0.001793693   -0.003345538
     18        1          -0.000625426    0.001605052   -0.002842658
     19        1           0.001893504    0.000932924    0.001962389
     20        1           0.000274644   -0.003431748   -0.004497253
     21        1          -0.001215225    0.004338313   -0.000923684
     22        1           0.000061085    0.001928515    0.002743783
     23        1          -0.002162106   -0.000280881   -0.001703876
     24        1           0.000162766   -0.003144356    0.002575979
     25        1          -0.001447814    0.002743773    0.000508652
     26        1           0.000985044   -0.004721676   -0.007368114
     27        1           0.003653713    0.000657186   -0.002565439
     28        1           0.000668814   -0.002925256    0.004877111
     29        1          -0.000401570    0.003628172   -0.005276030
     30        1           0.000026384    0.002842771    0.002716314
     31        1           0.001442390   -0.002861272    0.000319599
 -------------------------------------------------------------------
 Cartesian Forces:  Max     0.012825169 RMS     0.003599612

 GradGradGradGradGradGradGradGradGradGradGradGradGradGradGradGradGradGrad
 Berny optimization.
 FormGI is forming the generalized inverse of G from B-inverse, IUseBI=4.
 Internal  Forces:  Max     0.011587819 RMS     0.002181538
 Search for a local minimum.
 Step number   1 out of a maximum of  186
 All quantities printed in internal units (Hartrees-Bohrs-Radians)
 Mixed Optimization -- RFO/linear search
 Second derivative matrix not updated -- first step.
 ITU=  0
     Eigenvalues ---    0.00610   0.00656   0.00731   0.00759   0.01442
     Eigenvalues ---    0.01492   0.01832   0.02739   0.02792   0.03107
     Eigenvalues ---    0.03157   0.04167   0.04282   0.04660   0.04776
     Eigenvalues ---    0.04870   0.04925   0.05110   0.05148   0.05158
     Eigenvalues ---    0.05359   0.05704   0.05727   0.06134   0.06152
     Eigenvalues ---    0.06289   0.06290   0.06507   0.07700   0.07919
     Eigenvalues ---    0.07951   0.07968   0.07979   0.07996   0.08091
     Eigenvalues ---    0.08759   0.09242   0.09960   0.10852   0.11479
     Eigenvalues ---    0.11612   0.11702   0.11712   0.12326   0.12487
     Eigenvalues ---    0.14504   0.14523   0.16268   0.16715   0.17335
     Eigenvalues ---    0.19170   0.21154   0.21845   0.25000   0.28301
     Eigenvalues ---    0.28613   0.28739   0.28776   0.28997   0.29393
     Eigenvalues ---    0.30090   0.30567   0.35032   0.35082   0.35083
     Eigenvalues ---    0.35088   0.35099   0.35125   0.35159   0.35174
     Eigenvalues ---    0.35245   0.35306   0.35350   0.35366   0.35371
     Eigenvalues ---    0.35403   0.35474   0.35835   0.35881   0.35948
     Eigenvalues ---    0.41169   0.41444   0.42300   0.42551   0.42681
     Eigenvalues ---    0.474261000.000001000.000001000.000001000.00000
     Eigenvalues --- 1000.000001000.000001000.000001000.000001000.00000
     Eigenvalues --- 1000.000001000.000001000.000001000.000001000.00000
     Eigenvalues --- 1000.000001000.000001000.000001000.000001000.00000
     Eigenvalues --- 1000.000001000.000001000.000001000.000001000.00000
     Eigenvalues --- 1000.000001000.000001000.000001000.000001000.00000
     Eigenvalues --- 1000.000001000.000001000.000001000.000001000.00000
     Eigenvalues --- 1000.000001000.000001000.000001000.000001000.00000
     Eigenvalues --- 1000.000001000.000001000.000001000.000001000.00000
     Eigenvalues --- 1000.000001000.000001000.000001000.000001000.00000
     Eigenvalues --- 1000.000001000.000001000.000001000.000001000.00000
     Eigenvalues --- 1000.000001000.000001000.000001000.000001000.00000
     Eigenvalues --- 1000.000001000.000001000.000001000.000001000.00000
     Eigenvalues --- 1000.000001000.000001000.000001000.000001000.00000
     Eigenvalues --- 1000.000001000.000001000.000001000.000001000.00000
     Eigenvalues --- 1000.000001000.000001000.000001000.000001000.00000
     Eigenvalues --- 1000.000001000.000001000.000001000.000001000.00000
     Eigenvalues --- 1000.000001000.000001000.000001000.000001000.00000
     Eigenvalues --- 1000.000001000.000001000.000001000.000001000.00000
     Eigenvalues --- 1000.000001000.000001000.000001000.000001000.00000
 RFO step:  Lambda=-3.00149474D-03 EMin= 6.10433089D-03
 Linear search not attempted -- first point.
 Iteration  1 RMS(Cart)=  0.03696420 RMS(Int)=  0.00041807
 Iteration  2 RMS(Cart)=  0.00107208 RMS(Int)=  0.00002353
 Iteration  3 RMS(Cart)=  0.00000027 RMS(Int)=  0.00002353
 Iteration  1 RMS(Cart)=  0.00000731 RMS(Int)=  0.00000167
 Iteration  2 RMS(Cart)=  0.00000404 RMS(Int)=  0.00000187
 Iteration  3 RMS(Cart)=  0.00000223 RMS(Int)=  0.00000212
 Iteration  4 RMS(Cart)=  0.00000124 RMS(Int)=  0.00000228
 Iteration  5 RMS(Cart)=  0.00000068 RMS(Int)=  0.00000238
 Variable       Old X    -DE/DX   Delta X   Delta X   Delta X     New X
                                 (Linear)    (Quad)   (Total)
    R1        2.88999  -0.00080   0.00000  -0.00382  -0.00384   2.88615
    R2        2.89348  -0.00108   0.00000  -0.00417  -0.00419   2.88929
    R3        2.05084   0.00264   0.00000   0.00740   0.00740   2.05825
    R4        2.05623   0.00326   0.00000   0.00921   0.00921   2.06545
    R5        2.66634   0.00628   0.00000   0.01464   0.01467   2.68101
    R6        2.88687  -0.00106   0.00000  -0.00316  -0.00315   2.88372
    R7        2.05542   0.00601   0.00000   0.01698   0.01698   2.07240
    R8        2.04164   0.00548   0.00000   0.01513   0.01513   2.05677
    R9        2.89163  -0.00103   0.00000  -0.00411  -0.00414   2.88749
   R10        2.87213  -0.00049   0.00000  -0.00191  -0.00191   2.87021
   R11        2.05417   0.00323   0.00000   0.00911   0.00911   2.06328
   R12        2.05181   0.00288   0.00000   0.00808   0.00808   2.05989
   R13        2.67641   0.00630   0.00000   0.01500   0.01503   2.69144
   R14        2.68125   0.00575   0.00000   0.01377   0.01380   2.69505
   R15        2.66275   0.00818   0.00000   0.01916   0.01919   2.68194
   R16        2.87271  -0.00069   0.00000  -0.00244  -0.00244   2.87027
   R17        2.05541   0.00557   0.00000   0.01574   0.01574   2.07114
   R18        2.04269   0.00459   0.00000   0.01270   0.01270   2.05538
   R19        2.62556   0.00565   0.00000   0.01184   0.01184   2.63740
   R20        2.68066   0.00491   0.00000   0.01142   0.01142   2.69207
   R21        2.05473   0.00325   0.00000   0.00918   0.00918   2.06391
   R22        2.05279   0.00276   0.00000   0.00777   0.00777   2.06055
   R23        2.87516  -0.00229   0.00000  -0.00811  -0.00814   2.86702
   R24        2.05514   0.00389   0.00000   0.01099   0.01099   2.06613
   R25        2.05110   0.00310   0.00000   0.00870   0.00870   2.05980
   R26        2.86498  -0.00152   0.00000  -0.00464  -0.00464   2.86035
   R27        2.05025   0.00878   0.00000   0.02459   0.02459   2.07484
   R28        2.04341   0.00450   0.00000   0.01246   0.01246   2.05587
   R29        2.05532   0.00563   0.00000   0.01591   0.01591   2.07123
   R30        2.04912   0.00634   0.00000   0.01773   0.01773   2.06684
   R31        2.05394   0.00374   0.00000   0.01054   0.01054   2.06448
   R32        2.05076   0.00319   0.00000   0.00894   0.00894   2.05970
    A1        1.92683   0.00202   0.00000  -0.00123  -0.00131   1.92552
    A2        1.93156  -0.00051   0.00000   0.00080   0.00083   1.93239
    A3        1.90888  -0.00076   0.00000  -0.00170  -0.00169   1.90719
    A4        1.91953  -0.00060   0.00000  -0.00043  -0.00040   1.91914
    A5        1.90920  -0.00082   0.00000  -0.00224  -0.00223   1.90697
    A6        1.86677   0.00059   0.00000   0.00492   0.00491   1.87168
    A7        1.92662   0.00090   0.00000   0.00617   0.00622   1.93284
    A8        1.91776   0.00130   0.00000   0.00796   0.00798   1.92575
    A9        1.85933  -0.00029   0.00000   0.00475   0.00475   1.86407
   A10        1.91143  -0.00203   0.00000  -0.01405  -0.01410   1.89733
   A11        1.95262  -0.00066   0.00000  -0.00802  -0.00807   1.94455
   A12        1.89521   0.00088   0.00000   0.00402   0.00391   1.89912
   A13        1.92834  -0.00028   0.00000  -0.00460  -0.00465   1.92369
   A14        1.91915   0.00066   0.00000   0.00140   0.00142   1.92056
   A15        1.92677  -0.00058   0.00000  -0.00093  -0.00093   1.92584
   A16        1.90451  -0.00035   0.00000  -0.00172  -0.00172   1.90278
   A17        1.90921   0.00037   0.00000   0.00121   0.00124   1.91045
   A18        1.87497   0.00019   0.00000   0.00488   0.00488   1.87984
   A19        1.97847  -0.00487   0.00000  -0.02823  -0.02814   1.95033
   A20        1.98132  -0.00491   0.00000  -0.02612  -0.02606   1.95526
   A21        1.93378   0.00091   0.00000   0.00329   0.00330   1.93708
   A22        1.90363   0.00079   0.00000   0.00487   0.00489   1.90851
   A23        1.85190  -0.00075   0.00000  -0.00055  -0.00056   1.85134
   A24        1.93163  -0.00131   0.00000  -0.00790  -0.00792   1.92371
   A25        1.95053  -0.00010   0.00000  -0.00195  -0.00194   1.94858
   A26        1.88989   0.00052   0.00000   0.00275   0.00273   1.89263
   A27        2.04722  -0.01159   0.00000  -0.04580  -0.04580   2.00142
   A28        1.92266   0.00010   0.00000  -0.00414  -0.00421   1.91845
   A29        1.91878   0.00054   0.00000   0.00201   0.00203   1.92081
   A30        1.93546  -0.00061   0.00000  -0.00093  -0.00092   1.93454
   A31        1.90340  -0.00039   0.00000  -0.00180  -0.00178   1.90162
   A32        1.90641   0.00009   0.00000  -0.00023  -0.00020   1.90621
   A33        1.87628   0.00028   0.00000   0.00527   0.00526   1.88154
   A34        1.92249   0.00152   0.00000  -0.00468  -0.00477   1.91772
   A35        1.91660  -0.00041   0.00000   0.00176   0.00174   1.91834
   A36        1.93443  -0.00010   0.00000   0.00396   0.00397   1.93841
   A37        1.89387  -0.00113   0.00000  -0.00632  -0.00632   1.88755
   A38        1.91840  -0.00053   0.00000  -0.00177  -0.00172   1.91668
   A39        1.87709   0.00060   0.00000   0.00712   0.00709   1.88418
   A40        1.87292  -0.00137   0.00000  -0.00655  -0.00654   1.86638
   A41        1.93099   0.00142   0.00000   0.00755   0.00754   1.93853
   A42        1.88736   0.00021   0.00000   0.00099   0.00100   1.88836
   A43        1.90952  -0.00016   0.00000  -0.00172  -0.00172   1.90780
   A44        1.93021   0.00055   0.00000   0.00328   0.00328   1.93348
   A45        1.93197  -0.00065   0.00000  -0.00350  -0.00350   1.92847
   A46        1.93467   0.00134   0.00000   0.00763   0.00763   1.94230
   A47        1.94578  -0.00036   0.00000  -0.00342  -0.00343   1.94234
   A48        1.93135  -0.00128   0.00000  -0.00834  -0.00835   1.92300
   A49        1.85576  -0.00099   0.00000  -0.00262  -0.00261   1.85315
   A50        1.90164   0.00069   0.00000   0.00415   0.00418   1.90582
   A51        1.89236   0.00062   0.00000   0.00297   0.00295   1.89531
   A52        1.92310  -0.00048   0.00000  -0.00438  -0.00436   1.91874
   A53        1.91224   0.00082   0.00000   0.00073   0.00069   1.91293
   A54        1.91044  -0.00033   0.00000  -0.00322  -0.00320   1.90724
   A55        1.88616  -0.00038   0.00000   0.00219   0.00220   1.88837
   A56        1.91192   0.00045   0.00000   0.00593   0.00591   1.91783
   A57        1.91988  -0.00008   0.00000  -0.00119  -0.00119   1.91869
   A58        1.92527  -0.00049   0.00000  -0.00623  -0.00628   1.91899
   A59        1.92510   0.00082   0.00000   0.00430   0.00427   1.92937
   A60        1.93664  -0.00011   0.00000   0.00295   0.00294   1.93959
   A61        1.88890  -0.00055   0.00000  -0.00639  -0.00638   1.88252
   A62        1.90295   0.00008   0.00000  -0.00147  -0.00144   1.90151
   A63        1.88379   0.00025   0.00000   0.00683   0.00680   1.89059
    D1        0.89678  -0.00010   0.00000   0.01267   0.01265   0.90943
    D2       -1.20129  -0.00002   0.00000   0.01624   0.01624  -1.18505
    D3        3.00939  -0.00033   0.00000   0.00902   0.00900   3.01839
    D4        3.02612   0.00016   0.00000   0.01184   0.01183   3.03795
[...]
 0001212,-0.00000719,-0.00000149,-0.00000268,-0.00000206,-0.00000027,-0
 .00000259,0.00015302,-0.00027419,0.00008574,0.00054335,-0.00114787,-0.
 00031718,-0.00071599,-0.00015011,0.00044031,-0.00038257,0.00042456,0.0
 0051794,-0.00000321,-0.00000094,-0.00000119,-0.00000752,0.00000353,-0.
 00000333,0.00000014,0.00000169,0.00000118,-0.00000285,0.00000107,0.000
 00009,-0.00871212,0.02220673,0.00896367,-0.03020563,0.08096319,0.07795
 051,0.00124735,0.00067567,0.00057920,-0.00133879,0.00061720,-0.0005291
 7,-0.00000357,-0.00002097,-0.00004780,0.00026644,-0.00003102,0.0001127
 9,-0.00165629,0.01346257,0.00460567,0.00161588,0.00154879,0.00203568,-
 0.00699233,-0.01678670,-0.03531801,-0.00018698,-0.00020395,-0.00014908
 ,-0.00029657,0.00005210,0.00032862,-0.06565171,0.02268268,0.05180053,-
 0.00003375,-0.00006172,-0.00005383,0.00285372,-0.00041419,-0.00261883,
 -0.00319034,0.00949523,0.01994608,0.00008062,-0.00013037,-0.00015276,-
 0.00004913,-0.00020533,-0.00026785,0.00009397,-0.00002869,0.00000635,-
 0.00212161,0.00109726,0.00016134,-0.00001197,-0.00000348,0.00000863,-0
 .00003799,0.00000519,0.00000646,-0.00001685,-0.00028965,-0.00035416,-0
 .00001299,-0.00001592,-0.00007490,0.00003366,0.00000047,-0.00003998,-0
 .00006988,0.00002831,-0.00001005,0.00001274,-0.00006918,0.00009018,0.0
 0005291,0.00006122,0.00003164,0.07759967,0.00085004,0.00026231,0.00027
 625,0.00012712,-0.00024421,0.00000356,-0.00003032,-0.00002344,-0.00001
 329,0.00013920,0.00010409,0.00008009,0.01845109,-0.03839825,-0.0203979
 2,-0.00343919,-0.00043445,-0.00360428,-0.00307143,0.00220006,-0.004714
 18,0.00034409,-0.00004169,0.00052243,-0.00008184,-0.00006054,0.0001255
 0,0.01952639,-0.10192732,-0.09654448,-0.00000328,0.00001636,-0.0000583
 4,0.00047089,-0.00016610,-0.00110811,-0.00449359,0.00933293,0.01315783
 ,0.00009441,-0.00008599,-0.00007074,0.00013449,-0.00013973,-0.00022158
 ,0.00003934,-0.00002569,0.00008810,0.00125529,-0.00003779,0.00012426,-
 0.00000278,-0.00000025,0.00000017,-0.00000343,0.00000584,0.00000642,0.
 00035338,0.00057856,0.00111320,0.00007963,0.00020279,0.00057744,-0.000
 04554,-0.00003581,-0.00006954,0.00017459,0.00017794,-0.00010044,0.0000
 1295,0.00000103,0.00003413,0.00000147,0.00001986,0.00001463,-0.0288007
 2,0.12901102,-0.00056785,-0.00015410,0.00034857,-0.00075971,-0.0008522
 3,-0.00015267,-0.00005825,-0.00007871,-0.00013886,-0.00008156,0.000418
 03,0.00042432,-0.00397277,0.00566356,0.00944809,0.00127569,0.00134927,
 0.00219646,-0.00993070,-0.01108309,-0.02047620,-0.00009049,-0.00017938
 ,-0.00005120,-0.00016516,-0.00004173,0.00042160,0.04528610,-0.09920880
 ,-0.22912147,0.00011051,-0.00000782,-0.00006127,0.00297507,0.00181554,
 -0.00097080,0.00462997,-0.00847835,-0.01486152,0.00002702,0.00024075,0
 .00025129,0.00033176,0.00006766,0.00053360,0.00008704,0.00004429,0.000
 10049,0.00072302,0.00023695,0.00079898,-0.00001015,-0.00000196,0.00000
 829,-0.00006499,-0.00000133,0.00002699,0.00084808,-0.00031044,-0.00003
 105,0.00018538,0.00005960,0.00025351,-0.00002777,-0.00002953,-0.000178
 40,-0.00000020,-0.00010878,0.00004061,0.00009888,0.00006665,0.00002630
 ,0.00003306,0.00002746,0.00001955,-0.04236008,0.10932181,0.25131569,-0
 .00000254,-0.00000804,0.00002058,-0.00010295,-0.00067536,-0.00505506,-
 0.00520905,0.00012259,0.00556079,-0.02955195,-0.00804193,0.01060180,-0
 .00010266,0.00007891,-0.00004078,0.00003674,0.00000931,0.00002500,-0.0
 0049675,0.00016287,0.00023019,-0.00000309,-0.00000426,-0.00000761,0.00
 087223,0.00151134,0.00025186,0.00026055,-0.00006784,0.00013043,-0.2205
 8928,-0.01875245,0.12478805,0.00052659,-0.00066134,-0.00025261,-0.0000
 3182,0.00001845,-0.00002533,-0.00001106,-0.00000169,-0.00000384,-0.000
 00064,-0.00000056,-0.00000193,0.00007028,-0.00010888,0.00025612,-0.001
 26808,-0.00012418,0.00067531,0.00019936,-0.00033991,-0.00037095,0.0001
 1429,0.00040365,0.00024891,-0.00000394,-0.00000338,-0.00000397,-0.0000
 0836,0.00000311,-0.00000549,-0.00000014,0.00000113,0.00000131,-0.00000
 491,0.00000015,0.,-0.00005359,-0.00010806,0.00009857,-0.00034736,-0.00
 018194,0.00023834,0.00000579,0.00002139,0.00002245,0.24883771,0.000006
 46,0.00000473,-0.00001081,-0.00111337,-0.00046370,-0.00264062,0.025296
 45,0.00397089,-0.01787106,-0.01614222,-0.00307540,0.00699620,0.0000089
 2,0.00000415,0.00001236,-0.00000364,-0.00000260,-0.00000849,0.00014330
 ,0.00028437,0.00021163,0.00000095,0.00000071,0.00000211,0.00071181,-0.
 00560683,-0.00151350,-0.00000663,0.00004624,-0.00006129,-0.01793916,-0
 .05276006,0.01561769,-0.00075338,-0.00068479,-0.00036024,0.00002642,-0
 .00000002,0.00002900,0.00000447,0.00000038,0.00000178,-0.00000050,0.00
 000035,0.00000055,0.00018426,0.00008702,-0.00024224,-0.00092958,0.0001
 3280,0.00023336,-0.00042073,0.00151206,0.00078321,-0.00086193,0.000911
 38,0.00042575,0.00000044,0.00000035,0.00000113,0.00000141,-0.00000031,
 0.00000116,-0.00000041,-0.00000012,0.00000006,0.00000100,-0.00000010,-
 0.00000001,-0.00009007,0.00013865,-0.00012320,0.00172572,0.00012921,-0
 .00083824,0.00002855,0.00000632,0.00002425,0.02643435,0.05618419,0.000
 00384,0.00000094,-0.00000407,-0.00257128,-0.00106999,-0.00206773,0.008
 63103,0.00284664,-0.00624565,-0.02475216,-0.00506665,0.01298923,-0.000
 01420,0.00001954,-0.00000447,0.00000401,-0.00000062,-0.00000278,-0.000
 01641,0.00027557,0.00027057,-0.00000030,0.00000006,-0.00000016,-0.0000
 4651,-0.00329533,0.00029954,0.00004277,0.00002486,-0.00000910,0.137005
 15,0.01892840,-0.14963070,-0.00043100,-0.00063534,-0.00042487,0.000010
 87,0.00000278,0.00001487,0.00000118,0.00000010,0.00000053,-0.00000010,
 0.00000064,0.00000020,-0.00004241,-0.00021187,0.00033936,-0.00085926,-
 0.00022004,0.00049696,-0.00049894,-0.00021625,0.00086737,-0.00020156,0
 .00010303,0.00014297,-0.00000082,-0.00000025,0.00000049,-0.00000032,0.
 00000014,0.,-0.00000026,0.00000003,0.00000024,0.00000013,-0.00000015,0
 .00000013,-0.00034803,-0.00006374,0.00022938,0.00107974,0.00008795,-0.
 00023117,0.00002082,0.00000436,0.00001957,-0.13490745,-0.01295406,0.15
 454667,-0.00000163,-0.00000390,0.00000694,0.00277827,0.00264254,-0.003
 92655,-0.00059848,0.00748456,-0.00590336,-0.01657494,0.00851518,-0.028
 24709,-0.00002981,0.00001675,-0.00001505,0.00000878,0.00000333,0.00000
 471,-0.00029405,0.00012090,0.00021787,-0.00000062,-0.00000083,-0.00000
 234,0.00030127,0.00002459,-0.00103368,0.00010883,-0.00000604,0.0000748
 6,-0.05969070,0.02803394,-0.02333323,-0.00021598,-0.00026450,0.0001888
 1,-0.00001313,0.00000366,-0.00001188,-0.00000371,-0.00000067,-0.000001
 27,-0.00000014,0.00000007,-0.00000051,0.00049824,-0.00033257,0.0007844
 9,0.00008124,-0.00016402,0.00015946,0.00061355,0.00150222,0.00034298,0
 .00038466,-0.00010795,0.00019610,-0.00000084,-0.00000003,-0.00000067,-
 0.00000230,0.00000061,-0.00000157,-0.00000027,0.00000003,0.00000075,-0
 .00000112,-0.00000022,-0.00000006,0.00004954,0.00003487,0.00005827,0.0
 0008257,-0.00008634,0.00006432,0.00000896,-0.00000052,-0.00000700,0.00
 691617,-0.01638577,0.01787863,0.06559119,0.00000391,0.00000312,-0.0000
 0892,0.00128459,0.00149678,-0.00233967,0.00478066,-0.02155578,0.022120
 49,-0.00756008,0.01119896,-0.01335385,0.00001924,-0.00000766,0.0000093
 8,-0.00000788,-0.00000278,-0.00000780,0.00017587,0.00011680,0.00012779
 ,0.,0.00000126,0.00000228,-0.00090289,0.00126182,0.00089431,-0.0000242
 4,0.00002648,-0.00004884,0.02996044,-0.16192247,0.12298145,-0.00029062
 ,-0.00023394,0.00002394,0.00001699,-0.00000356,0.00001815,0.00000382,0
 .00000079,0.00000101,-0.00000054,0.00000022,0.00000070,0.00096646,-0.0
 0033680,0.00035709,0.00015454,0.00005660,-0.00012826,0.00232997,-0.004
 64628,-0.00279450,-0.00041959,0.00094784,-0.00007634,0.00000057,0.0000
 0045,0.00000090,0.00000124,-0.00000014,0.00000123,0.00000032,-0.000000
 33,-0.00000028,0.00000132,-0.00000020,-0.00000024,0.00043246,0.0003760
 8,-0.00046704,-0.00021915,0.00015391,-0.00033276,0.00000334,-0.0000007
 1,0.00000440,0.00027464,-0.00088162,0.00140422,-0.03094631,0.17404284,
 -0.00000257,-0.00000577,0.00001294,0.00359349,0.00037808,0.00026552,0.
 00359513,-0.00860466,0.00955082,-0.01824190,0.00578696,-0.02425719,-0.
 00006365,0.00003800,-0.00003097,0.00001904,0.00000707,0.00001170,-0.00
 044871,0.00014733,0.00015847,-0.00000171,-0.00000216,-0.00000378,-0.00
 054500,-0.00027481,0.00094796,0.00018012,-0.00001389,0.00012292,-0.027
 72560,0.12109813,-0.17986216,0.00007136,-0.00056881,-0.00011263,-0.000
 02288,0.00000838,-0.00001984,-0.00000708,-0.00000127,-0.00000248,-0.00
 000100,-0.00000008,-0.00000139,-0.00075869,-0.00022331,0.00085098,-0.0
 0008170,-0.00036440,0.00031878,0.00130399,-0.00260624,-0.00002873,-0.0
 0031684,0.00104859,0.00048178,-0.00000211,-0.00000077,-0.00000176,-0.0
 0000520,0.00000154,-0.00000351,-0.00000032,0.00000080,0.00000106,-0.00
 000271,0.00000004,0.00000010,-0.00042186,0.00016900,-0.00005916,-0.000
 15248,0.00007270,0.00005019,0.00000798,0.00000226,-0.00000501,-0.00248
 315,0.01222617,-0.01162927,0.04249007,-0.12843513,0.20334859,-0.000010
 75,-0.00002083,0.00007449,-0.00160275,0.00665359,-0.00843243,0.0009898
 6,0.00048897,-0.00047361,0.00099811,-0.00030583,-0.00039347,-0.0009335
 0,0.00063111,0.00042664,0.00014108,0.00002517,-0.00011146,-0.00555818,
 -0.02137944,0.03122291,0.00000705,-0.00001819,0.00000068,-0.00515060,0
 .01337746,-0.01680937,0.00258099,-0.00112109,0.00238390,-0.00004456,-0
 .00015710,-0.00004665,-0.06764865,0.04318204,-0.05560476,-0.00024177,-
 0.00001814,-0.00034897,-0.00005194,0.00000051,-0.00000803,-0.00000678,
 -0.00000308,-0.00000569,-0.00047486,0.00174975,0.00109242,0.00047162,-
 0.00029501,0.00047801,-0.00010398,-0.00021193,0.00020816,0.00006619,-0
 .00013849,0.00007089,0.00000594,-0.00000014,-0.00000752,-0.00000642,0.
 00001528,-0.00000753,0.00000256,0.00000477,-0.00000223,-0.00000757,0.0
 0002834,-0.00001295,-0.00260411,-0.00200892,-0.00259463,0.00089602,-0.
 00030234,0.00082048,-0.00021557,-0.00006130,-0.00024232,-0.00004646,0.
 00007556,0.00001597,0.00000687,-0.00003940,0.00002518,0.07848857,-0.00
 004991,-0.00003333,0.00005752,0.00853485,-0.02006490,0.02238861,0.0008
 4180,0.00039063,0.00005729,-0.00054259,0.00245060,-0.00068302,0.000645
 00,0.00054748,-0.00072217,-0.00016514,0.00010013,-0.00015821,-0.005928
 89,-0.00223128,0.00581056,0.00005182,0.00000881,0.00002609,-0.00435623
 ,0.00961531,-0.01273941,0.00122785,-0.00012562,0.00212674,-0.00033306,
 -0.00016723,-0.00035061,0.04074908,-0.14671305,0.11610038,-0.00010201,
 -0.00013925,-0.00023221,-0.00002145,-0.00000026,-0.00000965,-0.0000018
 1,-0.00000212,-0.00000163,0.00213317,-0.00423694,-0.00181130,-0.000719
 42,0.00145730,0.00003450,0.00015716,-0.00013405,0.00014927,0.00019098,
 -0.00008434,-0.00000679,-0.00001195,0.00000399,0.00000355,-0.00001361,
 -0.00001867,-0.00001142,-0.00000326,0.00000044,0.00000182,0.00001580,0
 .00000598,-0.00000456,-0.00259771,-0.00044330,-0.00214598,0.00065536,0
 .00086324,0.00046291,-0.00017825,-0.00019329,-0.00021224,0.00004471,0.
 00006364,0.00003883,-0.00008140,-0.00009283,0.00012030,-0.04015871,0.1
 5912225,0.00006142,0.00008060,-0.00013420,0.00364381,-0.00865189,0.009
 43677,0.00058931,0.00024216,0.00035879,-0.00180882,0.00044744,0.000732
 28,-0.00031264,-0.00071818,0.00103574,0.00009127,-0.00024718,0.0002006
 4,0.00769024,0.01390507,-0.01833705,-0.00007793,-0.00000136,-0.0000333
 7,-0.00654509,0.01112201,-0.01545667,-0.00355273,-0.00030944,-0.001657
 29,-0.00003056,-0.00008555,0.00002132,-0.04792757,0.11569562,-0.193290
 35,0.00028046,0.00004127,0.00032690,0.00006738,0.00000544,0.00002445,0
 .00000730,0.00000062,0.00001182,0.00158512,-0.00239167,-0.00026991,-0.
 00049199,0.00074094,0.00063587,-0.00022648,-0.00005454,0.00049069,0.00
 001282,-0.00029524,0.00023342,0.00002809,-0.00000977,-0.00002539,0.000
 06934,0.00000966,0.00004350,0.00000786,-0.00000207,-0.00000585,-0.0000
 0841,-0.00001804,0.00001026,-0.00238257,-0.00145177,-0.00138431,0.0007
 0022,0.00017096,0.00074718,0.00020232,-0.00000075,0.00050083,0.0000025
 2,0.00005622,0.00003051,0.00001555,0.00004786,-0.00010700,0.04837243,-
 0.12824910,0.21581305,0.00292825,-0.01565338,-0.02635080,0.00002496,0.
 00000452,0.00003301,0.00000955,0.00000554,0.00000799,-0.00006243,-0.00
 001636,-0.00003249,0.00144790,0.00041063,-0.00231089,-0.00041842,-0.00
 000793,-0.00028151,0.00193464,0.00037353,-0.00010624,0.00143922,-0.000
 78200,0.00060080,0.00000263,0.00003254,-0.00006610,-0.00642477,0.01347
 128,0.02250368,-0.00000147,0.00000646,0.00002084,0.00020608,0.00013764
 ,-0.00001835,-0.05030587,0.01710497,0.02855587,0.00145413,0.00002198,0
 .00092252,-0.00476965,0.00011208,-0.00342867,-0.00002118,0.00000514,-0
 .00001468,0.00002845,-0.00006915,-0.00004644,-0.00000094,0.00000066,0.
 00000214,0.00000128,-0.00000262,-0.00000073,-0.00008413,0.00008207,0.0
 0002782,0.00009516,0.00003770,-0.00002303,-0.00002336,0.00031755,0.000
 34080,-0.00005067,-0.00008549,0.00033480,-0.00001642,-0.00001278,-0.00
 000990,-0.00000158,-0.00000734,-0.00000427,-0.00262365,-0.00284940,0.0
 0206541,-0.00000604,-0.00000235,-0.00000341,-0.00000141,0.00000087,-0.
 00000173,0.00002281,0.00005096,-0.00006762,0.05723455,-0.00039382,-0.0
 0216049,-0.00192758,-0.00002559,-0.00001309,0.00006296,0.00001685,0.00
 000797,0.00001421,-0.00003459,-0.00000495,-0.00002556,-0.00008845,0.00
 196961,-0.00073038,-0.00003982,0.00005204,0.00012417,0.00145150,0.0004
 1475,-0.00024589,0.00010951,0.00055212,0.00070314,0.00002725,0.0000296
 2,-0.00007915,-0.00309080,0.00665107,0.01547911,-0.00000641,0.00000494
 ,0.00001255,0.00013407,0.00005450,0.00016468,0.01846086,-0.11815099,-0
 .11443166,-0.00002510,0.00005063,-0.00001842,-0.00072221,0.00107402,-0
 .00009139,-0.00000562,0.00000568,-0.00001193,-0.00000912,-0.00004482,-
 0.00002919,-0.00000144,0.00000028,0.00000219,0.00000442,-0.00000087,-0
 .00000218,0.00004803,-0.00010675,-0.00009055,0.00001963,0.00000246,-0.
 00002742,0.00004447,0.00037301,-0.00008591,-0.00009743,0.00011195,0.00
 005704,-0.00001353,-0.00001496,-0.00000464,-0.00000144,-0.00000135,-0.
 00000308,-0.00214201,-0.00074175,0.00139976,-0.00000405,-0.00000182,-0
 .00000282,-0.00000039,-0.00000064,-0.00000144,-0.00003953,0.00002655,-
 0.00003526,-0.01692080,0.12284615,0.00126479,-0.00754180,-0.01298835,-
 0.00012111,-0.00008867,-0.00001444,0.00001367,0.00000957,0.00002296,0.
 00003107,0.00003940,0.00003084,-0.00107568,-0.00030790,0.00187469,-0.0
 0007056,0.00005092,0.00012978,-0.00113346,-0.00002189,0.00157735,0.000
 69871,-0.00026499,0.00023743,0.00007240,-0.00001195,-0.00005685,0.0037
 0610,-0.01104467,-0.02049814,-0.00000270,-0.00000035,-0.00001944,-0.00
 014024,0.00018564,0.00031578,0.02935667,-0.11154938,-0.23661559,0.0000
 3564,0.00019922,0.00085567,-0.00260925,0.00000830,-0.00051355,0.000020
 51,0.00000304,0.00001502,0.00001190,0.00005682,0.00005907,0.00000151,0
 .00000092,-0.00000254,0.00001197,0.00000347,-0.00000403,0.00004771,-0.
 00010858,0.00000222,0.00002246,0.00003840,-0.00004394,-0.00007411,0.00
 040301,-0.00010153,-0.00011663,0.00010158,0.00020360,0.00000734,0.0000
 0229,-0.00000093,-0.00000197,0.00000685,0.00000063,0.00251638,0.002166
 87,-0.00112518,0.00000585,0.00000111,0.00000169,0.00000059,-0.00000128
 ,0.00000296,-0.00008305,-0.00002935,0.00001748,-0.03154319,0.12422407,
 0.25923318,-0.00896858,0.02728683,-0.00586924,0.00000786,-0.00004455,0
 .00000875,0.00001182,0.00000266,0.00001380,-0.00001795,0.00002371,0.00
 000887,-0.00201545,-0.00564344,0.00440654,-0.00138377,-0.00013192,-0.0
 0046517,0.00132536,-0.00013220,0.00018120,-0.00494872,-0.00229722,-0.0
 0333119,0.00003962,-0.00000400,-0.00002835,0.00759333,-0.01978190,0.00
 195320,0.00000003,0.00000189,-0.00000187,0.00014297,0.00033186,0.00000
 823,-0.07862557,0.08607615,-0.01824647,0.00100136,-0.00010380,0.000977
 94,0.00132824,-0.00043536,0.00032106,0.00000671,0.00002181,-0.00002644
 ,0.00001201,0.00001511,0.00000234,-0.00000086,0.00000079,-0.00000009,0
 .00000596,0.00000012,-0.00000260,0.00019335,0.00000375,0.00002569,0.00
 029920,0.00009589,0.00005490,0.00005683,-0.00020796,0.00019618,-0.0003
 7276,0.00176583,-0.00089566,0.00000019,-0.00000143,0.00000162,-0.00000
 167,0.00000025,-0.00000146,0.00063826,0.00080755,-0.00036041,0.0000010
 0,-0.00000034,0.00000025,-0.00000100,-0.00000054,0.00000053,0.00003077
 ,-0.00003312,0.00000496,-0.00201763,0.00334555,-0.00085335,0.08565910,
 -0.00138470,0.00473301,-0.00141715,-0.00005405,-0.00005304,0.00006222,
 0.00000159,-0.00000332,-0.00000790,-0.00003502,0.00001991,-0.00000068,
 -0.00198402,-0.00277499,0.00413298,-0.00104919,0.00003392,-0.00096384,
 0.00030175,0.00098868,-0.00036573,-0.00067553,0.00129209,-0.00039712,-
 0.00001124,0.00000917,0.00001429,0.00778255,-0.01406990,0.00046957,0.0
 0000789,-0.00000372,0.00001181,-0.00010285,0.00027749,-0.00003231,0.08
 336790,-0.27426523,0.05342752,0.00055959,0.00023444,0.00020255,0.00035
 849,0.00049959,0.00031983,-0.00001673,-0.00000794,0.00000115,-0.000030
 55,-0.00002865,-0.00001092,-0.00000040,-0.00000052,0.00000103,-0.00000
 425,-0.00000206,0.00000186,0.00012936,0.00001108,0.00011873,0.00015823
 ,-0.00003680,0.00008530,-0.00004333,0.00011965,-0.00004142,-0.00020804
 ,0.00003789,-0.00007787,-0.00000595,-0.00000154,-0.00000488,0.00000099
 ,-0.00000248,-0.00000328,-0.00037643,0.00063790,0.00000849,-0.00000273
 ,-0.00000008,-0.00000099,-0.00000176,0.00000177,-0.00000259,0.00004692
 ,0.00002412,-0.00004408,0.00423350,-0.01298487,0.00346936,-0.09096198,
 0.29531441,-0.00527149,0.01465278,-0.00489436,0.00001405,0.00000552,-0
 .00001318,-0.00000511,0.00000415,-0.00000316,-0.00000080,-0.00000934,-
 0.00000296,0.00231756,0.00428442,-0.00206240,0.00073876,-0.00037386,0.
 00086298,-0.00082753,-0.00093371,0.00048535,-0.00286402,-0.00129198,-0
 .00067088,0.00000032,-0.00000509,0.00000478,-0.00881483,0.01611968,-0.
 00406082,0.00000062,0.00000055,0.00000257,0.00005128,-0.00015697,-0.00
 006902,-0.01631825,0.05090081,-0.06072055,0.00039136,-0.00042884,0.000
 46368,0.00070782,0.00020102,0.00049666,0.00000122,-0.00000072,0.000004
 18,0.00001448,-0.00000164,0.00000233,0.00000058,0.00000029,-0.00000089
 ,-0.00000074,0.00000025,0.00000043,-0.00002889,-0.00005912,-0.00011345
 ,-0.00006439,0.00000591,-0.00006985,-0.00006960,0.00035029,0.00005776,
 -0.00029032,0.00081419,-0.00008321,-0.00000076,0.00000209,-0.00000092,
 -0.00000020,0.00000130,0.00000124,-0.00048419,-0.00071565,0.00043891,0
 .00000008,0.00000003,-0.00000030,-0.00000016,-0.00000029,0.00000011,-0
 .00000750,-0.00001072,0.00002987,0.00889437,-0.02439941,0.00740417,0.0
 2191626,-0.05895594,0.06251093\\-0.00000184,-0.00000016,-0.00000169,0.
 00000387,0.00000181,0.00000419,0.00000516,-0.00000662,-0.00000520,-0.0
 0001179,-0.00001027,-0.00000388,0.00001116,0.00000043,0.00000767,-0.00
 001793,-0.00000680,-0.00001639,-0.00022114,0.00146922,0.00020737,0.000
 00781,0.00000086,-0.00000378,0.00041567,-0.00104334,0.00028441,0.00026
 172,-0.00128751,-0.00007152,0.00001092,0.00000687,0.00001533,-0.000448
 80,0.00086101,-0.00041743,0.00000009,0.00000010,-0.00000037,-0.0000012
 2,0.00000326,0.00000375,-0.00000073,-0.00000085,0.00000329,-0.00000186
 ,0.00000083,0.00000378,-0.00000249,-0.00000145,0.00000091,0.00000125,-
 0.00000070,-0.00000359,-0.00000194,0.00000410,0.00000007,0.00000261,-0
 .00000143,0.00000165,0.00000265,-0.00000093,-0.00000143,-0.00000121,0.
 00000292,-0.00000217,-0.00000206,-0.00000277,0.00000030,-0.00000075,0.
 00000395,-0.00000168,0.00000226,0.00000410,-0.00000591,-0.00000166,-0.
 00000051,-0.00000121,-0.00000089,-0.00000141,-0.00000081,-0.00000148,0
 .00000013,-0.00000056,-0.00000276,-0.00000108,0.00000059,-0.00000113,0
 .00000463,0.00000108,-0.00000347,0.00000159,0.00000320\\\@


 READER, WHETHER YOU BE DILETTANTE OR PROFESSOR ... SHOW YOURSELF TO BE
 MORE HUMAN THAN CRITICAL, AND THEN YOUR PLEASURE WILL INCREASE.
                                           -- DOMENICO SCARLATTI (1738)
 Job cpu time:       0 days 12 hours  9 minutes 20.6 seconds.
 Elapsed time:       0 days  1 hours  0 minutes 48.0 seconds.
 File lengths (MBytes):  RWF=    723 Int=      0 D2E=      0 Chk=     34 Scr=      1
 Normal termination of Gaussian 16 at Sun Mar 10 03:46:49 2019.
