 Entering Gaussian System, Link 0=g16
 Initial command:
 /sw/Projects/G16/g16/l1.exe "/nvme/pbs/tmpdir/pbs.74288[16].flm1/Gau-22237.inp" -scrdir="/nvme/pbs/tmpdir/pbs.74288[16].flm1/"
 Entering Link 1 = /sw/Projects/G16/g16/l1.exe PID=     22238.
  
 Copyright (c) 1988-2017, Gaussian, Inc.  All Rights Reserved.
  
 This is part of the Gaussian(R) 16 program.  It is based on
 the Gaussian(R) 09 system (copyright 2009, Gaussian, Inc.),
 the Gaussian(R) 03 system (copyright 2003, Gaussian, Inc.),
 the Gaussian(R) 98 system (copyright 1998, Gaussian, Inc.),
 the Gaussian(R) 94 system (copyright 1995, Gaussian, Inc.),
 the Gaussian 92(TM) system (copyright 1992, Gaussian, Inc.),
 the Gaussian 90(TM) system (copyright 1990, Gaussian, Inc.),
 the Gaussian 88(TM) system (copyright 1988, Gaussian, Inc.),
 the Gaussian 86(TM) system (copyright 1986, Carnegie Mellon
 University), and the Gaussian 82(TM) system (copyright 1983,
 Carnegie Mellon University). Gaussian is a federally registered
 trademark of Gaussian, Inc.
  
 This software contains proprietary and confidential information,
 including trade secrets, belonging to Gaussian, Inc.
  
 This software is provided under written license and may be
 used, copied, transmitted, or stored only in accord with that
 written license.
  
 The following legend is applicable only to US Government
 contracts under FAR:
  
                    RESTRICTED RIGHTS LEGEND
  
 Use, reproduction and disclosure by the US Government is
 subject to restrictions as set forth in subparagraphs (a)
 and (c) of the Commercial Computer Software - Restricted
 Rights clause in FAR 52.227-19.
  
 Gaussian, Inc.
 340 Quinnipiac St., Bldg. 40, Wallingford CT 06492
  
  
 ---------------------------------------------------------------
 Warning -- This program may not be used in any manner that
 competes with the business of Gaussian, Inc. or will provide
 assistance to any competitor of Gaussian, Inc.  The licensee
 of this program is prohibited from giving any competitor of
 Gaussian, Inc. access to this program.  By using this program,
 the user acknowledges that Gaussian, Inc. is engaged in the
 business of creating and licensing software in the field of
 computational chemistry and represents and warrants to the
 licensee that it is not a competitor of Gaussian, Inc. and that
 it will not use this program in any manner prohibited above.
 ---------------------------------------------------------------
  

 Cite this work as:
 Gaussian 16, Revision B.01,
 M. J. Frisch, G. W. Trucks, H. B. Schlegel, G. E. Scuseria, 
 M. A. Robb, J. R. Cheeseman, G. Scalmani, V. Barone, 
 G. A. Petersson, H. Nakatsuji, X. Li, M. Caricato, A. V. Marenich, 
 J. Bloino, B. G. Janesko, R. Gomperts, B. Mennucci, H. P. Hratchian, 
 J. V. Ortiz, A. F. Izmaylov, J. L. Sonnenberg, D. Williams-Young, 
 F. Ding, F. Lipparini, F. Egidi, J. Goings, B. Peng, A. Petrone, 
 T. Henderson, D. Ranasinghe, V. G. Zakrzewski, J. Gao, N. Rega, 
 G. Zheng, W. Liang, M. Hada, M. Ehara, K. Toyota, R. Fukuda, 
 J. Hasegawa, M. Ishida, T. Nakajima, Y. Honda, O. Kitao, H. Nakai, 
 T. Vreven, K. Throssell, J. A. Montgomery, Jr., J. E. Peralta, 
 F. Ogliaro, M. J. Bearpark, J. J. Heyd, E. N. Brothers, K. N. Kudin, 
 V. N. Staroverov, T. A. Keith, R. Kobayashi, J. Normand, 
 K. Raghavachari, A. P. Rendell, J. C. Burant, S. S. Iyengar, 
 J. Tomasi, M. Cossi, J. M. Millam, M. Klene, C. Adamo, R. Cammi, 
 J. W. Ochterski, R. L. Martin, K. Morokuma, O. Farkas, 
 J. B. Foresman, and D. J. Fox, Gaussian, Inc., Wallingford CT, 2016.
 
 ******************************************
 Gaussian 16:  ES64L-G16RevB.01 20-Dec-2017
                10-Mar-2019 
 ******************************************
 %mem=20gb
 %nproc=12
 Will use up to   12 processors via shared memory.
 %chk=4c1_b1_4e_4c1_PSI.inp_extract_16.chk
 ----------------------------------------------------------------------
 #M062X/6-311++G(2d,2p) opt=ModRedundant freq=noraman SCRF=(SMD,solvent
 =water)
 ----------------------------------------------------------------------
 1/18=120,19=15,26=3,38=1/1,3;
 2/9=110,12=2,17=6,18=5,40=1/2;
 3/5=4,6=6,7=1212,11=2,25=1,30=1,70=32201,71=1,72=1,74=-55/1,2,3;
 4//1;
 5/5=2,38=5,53=1/2;
 6/7=2,8=2,9=2,10=2,28=1/1;
 7//1,2,3,16;
 1/18=20,19=15,26=3/3(2);
 2/9=110/2;
 99//99;
 2/9=110/2;
 3/5=4,6=6,7=1212,11=2,25=1,30=1,70=32205,71=1,72=1,74=-55/1,2,3;
 4/5=5,16=3,69=1/1;
 5/5=2,38=5,53=1/2;
 7//1,2,3,16;
 1/18=20,19=15,26=3/3(-5);
 2/9=110/2;
 6/7=2,8=2,9=2,10=2,19=2,28=1/1;
 99/9=1/99;
 --------------------------------
 4c1_b1_4e_4c1_PSI.inp_extract_16
 --------------------------------
 Symbolic Z-matrix:
 Charge =  0 Multiplicity = 1
 C                    -3.62927   0.47673   0.4436 
 C                     1.88225   0.16418  -1.26362 
 C                     3.03229  -0.19024   1.32975 
 O                     3.26652  -0.03382  -1.07328 
 O                    -1.22652  -0.7529   -0.48177 
 C                    -2.27914  -1.578    -0.0085 
 O                    -0.08083   1.19994  -0.35249 
 C                    -3.62705  -0.90517  -0.21136 
 C                     1.52774   0.07879   1.21284 
 C                    -1.14165   0.48498   0.18455 
 C                     3.56584  -0.83033   0.0585 
 C                     1.27662   0.8807   -0.06009 
 C                    -2.41437   1.28642  -0.01729 
 H                    -4.54339   1.01167   0.20672 
 H                    -3.59907   0.36343   1.52539 
 H                     1.39369  -0.79229  -1.42408 
 H                     1.7703    0.76553  -2.15531 
 H                     3.56385   0.74026   1.51091 
 H                     3.22924  -0.8467    2.17178 
 H                    -2.11407  -1.79572   1.04441 
 H                    -2.20624  -2.50391  -0.56155 
 H                    -3.8199   -0.81063  -1.27727 
 H                    -4.40749  -1.5341    0.20748 
 H                     0.99964  -0.86871   1.17355 
 H                     1.17405   0.62074   2.08371 
 H                    -0.98217   0.29537   1.23899 
 H                     4.6425   -0.92664   0.08736 
 H                     3.1364   -1.8199   -0.08097 
 H                     1.76882   1.84091   0.03705 
 H                    -2.502     1.5292   -1.073 
 H                    -2.33716   2.21745   0.53487 
 
 The following ModRedundant input section has been read:
 D      10       7      12       9 F                                           
 

 GradGradGradGradGradGradGradGradGradGradGradGradGradGradGradGradGradGrad
 Berny optimization.
 Initialization pass.
                           ----------------------------
                           !    Initial Parameters    !
                           ! (Angstroms and Degrees)  !
 --------------------------                            --------------------------
 ! Name  Definition              Value          Derivative Info.                !
 --------------------------------------------------------------------------------
 ! R1    R(1,8)                  1.5293         estimate D2E/DX2                !
 ! R2    R(1,13)                 1.531          estimate D2E/DX2                !
 ! R3    R(1,14)                 1.0853         estimate D2E/DX2                !
 ! R4    R(1,15)                 1.0881         estimate D2E/DX2                !
 ! R5    R(2,4)                  1.4113         estimate D2E/DX2                !
 ! R6    R(2,12)                 1.526          estimate D2E/DX2                !
 ! R7    R(2,16)                 1.0859         estimate D2E/DX2                !
 ! R8    R(2,17)                 1.0813         estimate D2E/DX2                !
 ! R9    R(3,9)                  1.5329         estimate D2E/DX2                !
 ! R10   R(3,11)                 1.52           estimate D2E/DX2                !
 ! R11   R(3,18)                 1.0868         estimate D2E/DX2                !
 ! R12   R(3,19)                 1.0857         estimate D2E/DX2                !
 ! R13   R(4,11)                 1.416          estimate D2E/DX2                !
 ! R14   R(5,6)                  1.4187         estimate D2E/DX2                !
 ! R15   R(5,10)                 1.4084         estimate D2E/DX2                !
 ! R16   R(6,8)                  1.5201         estimate D2E/DX2                !
 ! R17   R(6,20)                 1.0878         estimate D2E/DX2                !
 ! R18   R(6,21)                 1.081          estimate D2E/DX2                !
 ! R19   R(7,10)                 1.3874         estimate D2E/DX2                !
 ! R20   R(7,12)                 1.4248         estimate D2E/DX2                !
 ! R21   R(8,22)                 1.0873         estimate D2E/DX2                !
 ! R22   R(8,23)                 1.0863         estimate D2E/DX2                !
 ! R23   R(9,12)                 1.5253         estimate D2E/DX2                !
 ! R24   R(9,24)                 1.0854         estimate D2E/DX2                !
 ! R25   R(9,25)                 1.085          estimate D2E/DX2                !
 ! R26   R(10,13)                1.5175         estimate D2E/DX2                !
 ! R27   R(10,26)                1.0832         estimate D2E/DX2                !
 ! R28   R(11,27)                1.0814         estimate D2E/DX2                !
 ! R29   R(11,28)                1.0877         estimate D2E/DX2                !
 ! R30   R(12,29)                1.0834         estimate D2E/DX2                !
 ! R31   R(13,30)                1.0868         estimate D2E/DX2                !
 ! R32   R(13,31)                1.0852         estimate D2E/DX2                !
 ! A1    A(8,1,13)             110.3542         estimate D2E/DX2                !
 ! A2    A(8,1,14)             110.6796         estimate D2E/DX2                !
 ! A3    A(8,1,15)             109.3697         estimate D2E/DX2                !
 ! A4    A(13,1,14)            109.9979         estimate D2E/DX2                !
 ! A5    A(13,1,15)            109.4101         estimate D2E/DX2                !
 ! A6    A(14,1,15)            106.9589         estimate D2E/DX2                !
 ! A7    A(4,2,12)             110.4138         estimate D2E/DX2                !
 ! A8    A(4,2,16)             109.7337         estimate D2E/DX2                !
 ! A9    A(4,2,17)             106.9053         estimate D2E/DX2                !
 ! A10   A(12,2,16)            110.5821         estimate D2E/DX2                !
 ! A11   A(12,2,17)            110.3746         estimate D2E/DX2                !
 ! A12   A(16,2,17)            108.7468         estimate D2E/DX2                !
 ! A13   A(9,3,11)             110.7716         estimate D2E/DX2                !
 ! A14   A(9,3,18)             110.0297         estimate D2E/DX2                !
 ! A15   A(9,3,19)             110.0793         estimate D2E/DX2                !
 ! A16   A(11,3,18)            109.1637         estimate D2E/DX2                !
 ! A17   A(11,3,19)            109.2895         estimate D2E/DX2                !
 ! A18   A(18,3,19)            107.4373         estimate D2E/DX2                !
 ! A19   A(2,4,11)             113.2074         estimate D2E/DX2                !
 ! A20   A(6,5,10)             113.4565         estimate D2E/DX2                !
 ! A21   A(5,6,8)              110.8525         estimate D2E/DX2                !
 ! A22   A(5,6,20)             109.0689         estimate D2E/DX2                !
 ! A23   A(5,6,21)             106.1081         estimate D2E/DX2                !
 ! A24   A(8,6,20)             110.6294         estimate D2E/DX2                !
 ! A25   A(8,6,21)             111.7556         estimate D2E/DX2                !
 ! A26   A(20,6,21)            108.2736         estimate D2E/DX2                !
 ! A27   A(10,7,12)            122.2461         estimate D2E/DX2                !
 ! A28   A(1,8,6)              110.1268         estimate D2E/DX2                !
 ! A29   A(1,8,22)             109.9391         estimate D2E/DX2                !
 ! A30   A(1,8,23)             110.9158         estimate D2E/DX2                !
 ! A31   A(6,8,22)             109.0615         estimate D2E/DX2                !
 ! A32   A(6,8,23)             109.2289         estimate D2E/DX2                !
 ! A33   A(22,8,23)            107.5104         estimate D2E/DX2                !
 ! A34   A(3,9,12)             108.5133         estimate D2E/DX2                !
 ! A35   A(3,9,24)             109.0929         estimate D2E/DX2                !
 ! A36   A(3,9,25)             110.2673         estimate D2E/DX2                !
 ! A37   A(12,9,24)            110.4032         estimate D2E/DX2                !
 ! A38   A(12,9,25)            110.7061         estimate D2E/DX2                !
 ! A39   A(24,9,25)            107.8463         estimate D2E/DX2                !
 ! A40   A(5,10,7)             108.4132         estimate D2E/DX2                !
 ! A41   A(5,10,13)            110.5318         estimate D2E/DX2                !
 ! A42   A(5,10,26)            108.3958         estimate D2E/DX2                !
 ! A43   A(7,10,13)            108.5194         estimate D2E/DX2                !
 ! A44   A(7,10,26)            110.7594         estimate D2E/DX2                !
 ! A45   A(13,10,26)           110.2077         estimate D2E/DX2                !
 ! A46   A(3,11,4)             110.9408         estimate D2E/DX2                !
 ! A47   A(3,11,27)            111.3874         estimate D2E/DX2                !
 ! A48   A(3,11,28)            110.5953         estimate D2E/DX2                !
 ! A49   A(4,11,27)            106.3739         estimate D2E/DX2                !
 ! A50   A(4,11,28)            109.0159         estimate D2E/DX2                !
 ! A51   A(27,11,28)           108.3905         estimate D2E/DX2                !
 ! A52   A(2,12,7)             108.7514         estimate D2E/DX2                !
 ! A53   A(2,12,9)             110.2424         estimate D2E/DX2                !
 ! A54   A(2,12,29)            107.8521         estimate D2E/DX2                !
 ! A55   A(7,12,9)             116.4827         estimate D2E/DX2                !
 ! A56   A(7,12,29)            104.635          estimate D2E/DX2                !
 ! A57   A(9,12,29)            108.4426         estimate D2E/DX2                !
 ! A58   A(1,13,10)            110.2532         estimate D2E/DX2                !
 ! A59   A(1,13,30)            110.2786         estimate D2E/DX2                !
 ! A60   A(1,13,31)            110.9172         estimate D2E/DX2                !
 ! A61   A(10,13,30)           108.3485         estimate D2E/DX2                !
 ! A62   A(10,13,31)           109.0107         estimate D2E/DX2                !
 ! A63   A(30,13,31)           107.9596         estimate D2E/DX2                !
 ! D1    D(13,1,8,6)            51.412          estimate D2E/DX2                !
 ! D2    D(13,1,8,22)          -68.7833         estimate D2E/DX2                !
 ! D3    D(13,1,8,23)          172.4473         estimate D2E/DX2                !
 ! D4    D(14,1,8,6)           173.4116         estimate D2E/DX2                !
 ! D5    D(14,1,8,22)           53.2163         estimate D2E/DX2                !
 ! D6    D(14,1,8,23)          -65.553          estimate D2E/DX2                !
 ! D7    D(15,1,8,6)           -68.9958         estimate D2E/DX2                !
 ! D8    D(15,1,8,22)          170.8089         estimate D2E/DX2                !
 ! D9    D(15,1,8,23)           52.0395         estimate D2E/DX2                !
 ! D10   D(8,1,13,10)          -51.9702         estimate D2E/DX2                !
 ! D11   D(8,1,13,30)           67.6367         estimate D2E/DX2                !
 ! D12   D(8,1,13,31)         -172.8165         estimate D2E/DX2                !
 ! D13   D(14,1,13,10)        -174.3711         estimate D2E/DX2                !
 ! D14   D(14,1,13,30)         -54.7642         estimate D2E/DX2                !
 ! D15   D(14,1,13,31)          64.7826         estimate D2E/DX2                !
 ! D16   D(15,1,13,10)          68.4134         estimate D2E/DX2                !
 ! D17   D(15,1,13,30)        -171.9797         estimate D2E/DX2                !
 ! D18   D(15,1,13,31)         -52.4329         estimate D2E/DX2                !
 ! D19   D(12,2,4,11)           60.8309         estimate D2E/DX2                !
 ! D20   D(16,2,4,11)          -61.3107         estimate D2E/DX2                !
 ! D21   D(17,2,4,11)         -179.078          estimate D2E/DX2                !
 ! D22   D(4,2,12,7)           173.3568         estimate D2E/DX2                !
 ! D23   D(4,2,12,9)           -57.8057         estimate D2E/DX2                !
 ! D24   D(4,2,12,29)           60.4238         estimate D2E/DX2                !
 ! D25   D(16,2,12,7)          -65.0021         estimate D2E/DX2                !
 ! D26   D(16,2,12,9)           63.8354         estimate D2E/DX2                !
 ! D27   D(16,2,12,29)        -177.9352         estimate D2E/DX2                !
 ! D28   D(17,2,12,7)           55.3741         estimate D2E/DX2                !
 ! D29   D(17,2,12,9)         -175.7885         estimate D2E/DX2                !
 ! D30   D(17,2,12,29)         -57.559          estimate D2E/DX2                !
 ! D31   D(11,3,9,12)          -53.1773         estimate D2E/DX2                !
 ! D32   D(11,3,9,24)           67.1514         estimate D2E/DX2                !
 ! D33   D(11,3,9,25)         -174.5852         estimate D2E/DX2                !
 ! D34   D(18,3,9,12)           67.6176         estimate D2E/DX2                !
 ! D35   D(18,3,9,24)         -172.0538         estimate D2E/DX2                !
 ! D36   D(18,3,9,25)          -53.7904         estimate D2E/DX2                !
 ! D37   D(19,3,9,12)         -174.1626         estimate D2E/DX2                !
 ! D38   D(19,3,9,24)          -53.8339         estimate D2E/DX2                !
 ! D39   D(19,3,9,25)           64.4295         estimate D2E/DX2                !
 ! D40   D(9,3,11,4)            55.5554         estimate D2E/DX2                !
 ! D41   D(9,3,11,27)          173.852          estimate D2E/DX2                !
 ! D42   D(9,3,11,28)          -65.5422         estimate D2E/DX2                !
 ! D43   D(18,3,11,4)          -65.7515         estimate D2E/DX2                !
 ! D44   D(18,3,11,27)          52.5451         estimate D2E/DX2                !
 ! D45   D(18,3,11,28)         173.1509         estimate D2E/DX2                !
 ! D46   D(19,3,11,4)          177.0069         estimate D2E/DX2                !
 ! D47   D(19,3,11,27)         -64.6964         estimate D2E/DX2                !
 ! D48   D(19,3,11,28)          55.9094         estimate D2E/DX2                !
 ! D49   D(2,4,11,3)           -59.8276         estimate D2E/DX2                !
 ! D50   D(2,4,11,27)          178.88           estimate D2E/DX2                !
 ! D51   D(2,4,11,28)           62.196          estimate D2E/DX2                !
 ! D52   D(10,5,6,8)            61.1112         estimate D2E/DX2                !
 ! D53   D(10,5,6,20)          -60.9333         estimate D2E/DX2                !
 ! D54   D(10,5,6,21)         -177.3659         estimate D2E/DX2                !
 ! D55   D(6,5,10,7)           179.7063         estimate D2E/DX2                !
 ! D56   D(6,5,10,13)          -61.4676         estimate D2E/DX2                !
 ! D57   D(6,5,10,26)           59.4144         estimate D2E/DX2                !
 ! D58   D(5,6,8,1)            -54.9359         estimate D2E/DX2                !
 ! D59   D(5,6,8,22)            65.7878         estimate D2E/DX2                !
 ! D60   D(5,6,8,23)          -176.9757         estimate D2E/DX2                !
 ! D61   D(20,6,8,1)            66.1924         estimate D2E/DX2                !
 ! D62   D(20,6,8,22)         -173.0839         estimate D2E/DX2                !
 ! D63   D(20,6,8,23)          -55.8474         estimate D2E/DX2                !
 ! D64   D(21,6,8,1)          -173.0793         estimate D2E/DX2                !
 ! D65   D(21,6,8,22)          -52.3555         estimate D2E/DX2                !
 ! D66   D(21,6,8,23)           64.881          estimate D2E/DX2                !
 ! D67   D(12,7,10,5)          -74.758          estimate D2E/DX2                !
 ! D68   D(12,7,10,13)         165.1524         estimate D2E/DX2                !
 ! D69   D(12,7,10,26)          44.0511         estimate D2E/DX2                !
 ! D70   D(10,7,12,2)          104.1113         estimate D2E/DX2                !
 ! D71   D(10,7,12,9)          -21.1533         Frozen                          !
 ! D72   D(10,7,12,29)        -140.8488         estimate D2E/DX2                !
 ! D73   D(3,9,12,2)            54.1023         estimate D2E/DX2                !
 ! D74   D(3,9,12,7)           178.6097         estimate D2E/DX2                !
 ! D75   D(3,9,12,29)          -63.7639         estimate D2E/DX2                !
 ! D76   D(24,9,12,2)          -65.4089         estimate D2E/DX2                !
 ! D77   D(24,9,12,7)           59.0984         estimate D2E/DX2                !
 ! D78   D(24,9,12,29)         176.7248         estimate D2E/DX2                !
 ! D79   D(25,9,12,2)          175.2403         estimate D2E/DX2                !
 ! D80   D(25,9,12,7)          -60.2523         estimate D2E/DX2                !
 ! D81   D(25,9,12,29)          57.3741         estimate D2E/DX2                !
 ! D82   D(5,10,13,1)           55.973          estimate D2E/DX2                !
 ! D83   D(5,10,13,30)         -64.7968         estimate D2E/DX2                !
 ! D84   D(5,10,13,31)         177.9533         estimate D2E/DX2                !
 ! D85   D(7,10,13,1)          174.7345         estimate D2E/DX2                !
 ! D86   D(7,10,13,30)          53.9648         estimate D2E/DX2                !
 ! D87   D(7,10,13,31)         -63.2851         estimate D2E/DX2                !
 ! D88   D(26,10,13,1)         -63.8248         estimate D2E/DX2                !
 ! D89   D(26,10,13,30)        175.4054         estimate D2E/DX2                !
 ! D90   D(26,10,13,31)         58.1555         estimate D2E/DX2                !
 --------------------------------------------------------------------------------
 Trust Radius=3.00D-01 FncErr=1.00D-07 GrdErr=1.00D-06 EigMax=2.50D+02 EigMin=1.00D-04
 Number of steps in this run=    186 maximum allowed number of steps=    186.
 GradGradGradGradGradGradGradGradGradGradGradGradGradGradGradGradGradGrad

                          Input orientation:                          
 ---------------------------------------------------------------------
 Center     Atomic      Atomic             Coordinates (Angstroms)
 Number     Number       Type             X           Y           Z
 ---------------------------------------------------------------------
      1          6           0       -3.629265    0.476730    0.443601
      2          6           0        1.882250    0.164179   -1.263615
      3          6           0        3.032291   -0.190241    1.329748
      4          8           0        3.266524   -0.033816   -1.073284
      5          8           0       -1.226515   -0.752899   -0.481772
      6          6           0       -2.279135   -1.578002   -0.008500
      7          8           0       -0.080829    1.199937   -0.352488
      8          6           0       -3.627048   -0.905173   -0.211362
      9          6           0        1.527741    0.078786    1.212835
     10          6           0       -1.141652    0.484981    0.184554
     11          6           0        3.565835   -0.830334    0.058498
     12          6           0        1.276615    0.880699   -0.060085
     13          6           0       -2.414374    1.286424   -0.017289
     14          1           0       -4.543389    1.011671    0.206723
     15          1           0       -3.599065    0.363431    1.525386
     16          1           0        1.393692   -0.792294   -1.424082
     17          1           0        1.770295    0.765533   -2.155312
     18          1           0        3.563851    0.740257    1.510913
     19          1           0        3.229242   -0.846700    2.171784
     20          1           0       -2.114065   -1.795715    1.044409
     21          1           0       -2.206240   -2.503909   -0.561547
     22          1           0       -3.819904   -0.810630   -1.277273
     23          1           0       -4.407493   -1.534098    0.207478
     24          1           0        0.999642   -0.868705    1.173549
     25          1           0        1.174053    0.620735    2.083710
     26          1           0       -0.982165    0.295368    1.238991
     27          1           0        4.642504   -0.926644    0.087363
     28          1           0        3.136399   -1.819904   -0.080966
     29          1           0        1.768817    1.840906    0.037048
     30          1           0       -2.501998    1.529197   -1.073004
     31          1           0       -2.337160    2.217445    0.534871
 ---------------------------------------------------------------------
                    Distance matrix (angstroms):
                    1          2          3          4          5
     1  C    0.000000
     2  C    5.778328   0.000000
     3  C    6.753254   2.858975   0.000000
     4  O    7.079089   1.411256   2.419483   0.000000
     5  O    2.853333   3.334176   4.662147   4.588504   0.000000
     6  C    2.499834   4.682695   5.650490   5.854281   1.418728
     7  O    3.707854   2.399297   3.801845   3.639569   2.267792
     8  C    1.529260   5.709914   6.872623   7.001679   2.420510
     9  C    5.229225   2.503153   1.532878   2.874437   3.339060
    10  C    2.501078   3.368099   4.380547   4.613385   1.408382
    11  C    7.322990   2.360402   1.520021   1.415966   4.823329
    12  C    4.948186   1.526001   2.482125   2.413016   3.018629
    13  C    1.531008   4.612346   5.801828   5.927121   2.405326
    14  H    1.085309   6.645974   7.752206   7.982869   3.819605
    15  H    1.088121   6.153295   6.657305   7.351680   3.302101
    16  H    5.507155   1.085946   3.260530   2.050816   2.784777
    17  H    5.999417   1.081334   3.827764   2.012075   3.753297
    18  H    7.276642   3.295095   1.086832   2.713976   5.398881
    19  H    7.195638   3.825994   1.085704   3.345540   5.186900
    20  H    2.796571   5.013850   5.398513   6.044804   2.050473
    21  H    3.452467   4.932276   6.030942   6.026141   2.008049
    22  H    2.157556   5.784894   7.357582   7.131796   2.713268
    23  H    2.169060   6.679006   7.643025   7.923493   3.347231
    24  H    4.875428   2.790271   2.148575   3.299099   2.776558
    25  H    5.077653   3.451749   2.163143   3.843629   3.772439
    26  H    2.769960   3.805932   4.044739   4.848333   2.029679
    27  H    8.397531   3.260987   2.163006   2.009369   5.899109
    28  H    7.164071   2.628333   2.157951   2.047373   4.509342
    29  H    5.582611   2.125089   2.719007   2.643964   3.996125
    30  H    2.162986   4.595785   6.273599   5.976525   2.680368
    31  H    2.169782   5.025323   5.937995   6.249449   3.330171
                    6          7          8          9         10
     6  C    0.000000
     7  O    3.559188   0.000000
     8  C    1.520106   4.126388   0.000000
     9  C    4.327691   2.508927   5.437680   0.000000
    10  C    2.363691   1.387415   2.875147   2.889293   0.000000
    11  C    5.892976   4.193932   7.198333   2.512533   4.889415
    12  C    4.323335   1.424804   5.220932   1.525272   2.462612
    13  C    2.867630   2.359083   2.512238   4.302542   1.517522
    14  H    3.446676   4.501400   2.165356   6.224239   3.442341
    15  H    2.804315   4.074817   2.150914   5.144206   2.802050
    16  H    4.013835   2.700280   5.166359   2.780302   3.262991
    17  H    5.147703   2.620218   5.975074   3.445993   3.746080
    18  H    6.467103   4.119134   7.575137   2.161513   4.895524
    19  H    5.969142   4.638668   7.258892   2.161299   4.982687
    20  H    1.087780   3.880631   2.158505   4.099375   2.624216
    21  H    1.080962   4.275459   2.167321   4.874562   3.259368
    22  H    2.138367   4.344915   1.087335   5.965652   3.314903
    23  H    2.139739   5.148644   1.086309   6.232106   3.839651
    24  H    3.556785   2.788456   4.829655   1.085436   2.719507
    25  H    4.597423   2.800940   5.535912   1.085001   2.997951
    26  H    2.597668   2.040455   3.246572   2.519369   1.083156
    27  H    6.952880   5.198624   8.274974   3.461116   5.954712
    28  H    5.421418   4.420828   6.826269   2.804768   4.866695
    29  H    5.298766   1.995938   6.059539   2.132055   3.214206
    30  H    3.292039   2.547472   2.816793   4.854642   2.126589
    31  H    3.834584   2.629403   3.459974   4.468888   2.133868
                   11         12         13         14         15
    11  C    0.000000
    12  C    2.860459   0.000000
    13  C    6.344234   3.713468   0.000000
    14  H    8.317119   5.827588   2.158327   0.000000
    15  H    7.410305   5.153013   2.152964   1.746664   0.000000
    16  H    2.630151   2.161736   4.560866   6.415820   5.912925
    17  H    3.266758   2.155681   4.727994   6.745547   6.522212
    18  H    2.139222   2.778346   6.194584   8.215955   7.172836
    19  H    2.139986   3.431894   6.418151   8.229751   6.964770
    20  H    5.845104   4.458678   3.273678   3.805883   2.664296
    21  H    6.041702   4.882347   3.834861   4.290898   3.810104
    22  H    7.505585   5.506055   2.821473   2.458954   3.046652
    23  H    8.005713   6.181579   3.460981   2.549394   2.447663
    24  H    2.798242   2.158467   4.209297   5.932601   4.773893
    25  H    3.453651   2.161934   4.211193   6.030344   4.812545
    26  H    4.831674   2.670636   2.147476   3.776372   2.633405
    27  H    1.081353   3.823276   7.396496   9.388927   8.464967
    28  H    1.087711   3.279099   6.361164   8.190221   7.260427
    29  H    3.219512   1.083372   4.220129   6.368702   5.763006
    30  H    6.608047   3.965409   1.086808   2.464308   3.051917
    31  H    6.660423   3.898748   1.085193   2.535551   2.451712
                   16         17         18         19         20
    16  H    0.000000
    17  H    1.761633   0.000000
    18  H    3.958851   4.081506   0.000000
    19  H    4.037630   4.842683   1.751327   0.000000
    20  H    4.405072   5.646810   6.235985   5.542791   0.000000
    21  H    4.078370   5.389079   6.936401   6.305704   1.757592
    22  H    5.215695   5.874144   8.043573   7.847787   3.044747
    23  H    6.071739   7.002581   8.391303   7.915222   2.455343
    24  H    2.628460   3.787606   3.045938   2.442964   3.251338
    25  H    3.788073   4.283197   2.460389   2.526841   4.210831
    26  H    3.730906   4.395268   4.575820   4.462104   2.385726
    27  H    3.585707   4.017790   2.443061   2.519625   6.879131
    28  H    2.428368   3.585197   3.044868   2.455734   5.369770
    29  H    3.034693   2.441899   2.570185   3.730036   5.414477
    30  H    4.548514   4.472925   6.640300   7.001475   3.960930
    31  H    5.178347   5.120187   6.160899   6.561501   4.051525
                   21         22         23         24         25
    21  H    0.000000
    22  H    2.446093   0.000000
    23  H    2.525361   1.753041   0.000000
    24  H    3.995263   5.407210   5.532915   0.000000
    25  H    5.309159   6.187457   6.270343   1.754207   0.000000
    26  H    3.546301   3.950643   4.017939   2.299328   2.338523
    27  H    7.057914   8.572517   9.071156   3.801789   4.290680
    28  H    5.407644   7.130213   7.554812   2.654113   3.807012
    29  H    5.919190   6.323914   7.040348   3.037311   2.455888
    30  H    4.076151   2.693212   3.828096   4.801918   4.929858
    31  H    4.848758   3.827745   4.297388   4.589823   4.156561
                   26         27         28         29         30
    26  H    0.000000
    27  H    5.869963   0.000000
    28  H    4.814481   1.759148   0.000000
    29  H    3.376575   3.989980   3.909698   0.000000
    30  H    3.029447   7.643397   6.632657   4.423713   0.000000
    31  H    2.454827   7.668199   6.829296   4.153150   1.756735
                   31
    31  H    0.000000
 Stoichiometry    C10H18O3
 Framework group  C1[X(C10H18O3)]
 Deg. of freedom    87
 Full point group                 C1      NOp   1
 Largest Abelian subgroup         C1      NOp   1
 Largest concise Abelian subgroup C1      NOp   1
                         Standard orientation:                         
 ---------------------------------------------------------------------
 Center     Atomic      Atomic             Coordinates (Angstroms)
 Number     Number       Type             X           Y           Z
 ---------------------------------------------------------------------
      1          6           0        3.629265   -0.476730    0.443601
      2          6           0       -1.882250   -0.164179   -1.263615
      3          6           0       -3.032291    0.190241    1.329748
      4          8           0       -3.266524    0.033816   -1.073284
      5          8           0        1.226515    0.752899   -0.481772
      6          6           0        2.279135    1.578002   -0.008500
      7          8           0        0.080829   -1.199937   -0.352488
      8          6           0        3.627048    0.905173   -0.211362
      9          6           0       -1.527741   -0.078786    1.212835
     10          6           0        1.141652   -0.484981    0.184554
     11          6           0       -3.565835    0.830334    0.058498
     12          6           0       -1.276615   -0.880699   -0.060085
     13          6           0        2.414374   -1.286424   -0.017289
     14          1           0        4.543389   -1.011671    0.206723
     15          1           0        3.599065   -0.363431    1.525386
     16          1           0       -1.393692    0.792294   -1.424082
     17          1           0       -1.770295   -0.765533   -2.155312
     18          1           0       -3.563851   -0.740257    1.510913
     19          1           0       -3.229242    0.846700    2.171784
     20          1           0        2.114065    1.795715    1.044409
     21          1           0        2.206240    2.503909   -0.561547
     22          1           0        3.819904    0.810630   -1.277273
     23          1           0        4.407493    1.534098    0.207478
     24          1           0       -0.999642    0.868705    1.173549
     25          1           0       -1.174053   -0.620735    2.083710
     26          1           0        0.982165   -0.295368    1.238991
     27          1           0       -4.642504    0.926644    0.087363
     28          1           0       -3.136399    1.819904   -0.080966
     29          1           0       -1.768817   -1.840906    0.037048
     30          1           0        2.501998   -1.529197   -1.073004
     31          1           0        2.337160   -2.217445    0.534871
 ---------------------------------------------------------------------
 Rotational constants (GHZ):           1.9329853           0.3945284           0.3841417
 Standard basis: 6-311++G(2d,2p) (5D, 7F)
 There are   557 symmetry adapted cartesian basis functions of A   symmetry.
 There are   531 symmetry adapted basis functions of A   symmetry.
   531 basis functions,   762 primitive gaussians,   557 cartesian basis functions
    51 alpha electrons       51 beta electrons
       nuclear repulsion energy       890.7920701858 Hartrees.
 NAtoms=   31 NActive=   31 NUniq=   31 SFac= 1.00D+00 NAtFMM=   60 NAOKFM=F Big=F
 Integral buffers will be    131072 words long.
 Raffenetti 2 integral format.
 Two-electron integral symmetry is turned on.
 ------------------------------------------------------------------------------
 Polarizable Continuum Model (PCM)
 =================================
 Model                : PCM.
 Atomic radii         : SMD-Coulomb.
 Polarization charges : Total charges.
 Charge compensation  : None.
 Solution method      : On-the-fly selection.
 Cavity type          : VdW (van der Waals Surface) (Alpha=1.000).
 Cavity algorithm     : GePol (No added spheres)
                        Default sphere list used, NSphG=   31.
                        Lebedev-Laikov grids with approx.  5.0 points / Ang**2.
                        Smoothing algorithm: York/Karplus (Gamma=1.0000).
                        Polarization charges: spherical gaussians, with
                                              point-specific exponents (IZeta= 3).
                        Self-potential: point-specific (ISelfS= 7).
                        Self-field    : sphere-specific E.n sum rule (ISelfD= 2).
 1st derivatives      : Analytical E(r).r(x)/FMM algorithm (CHGder, D1EAlg=3).
                        Cavity 1st derivative terms included.
 Solvent              : Water, Eps=  78.355300 Eps(inf)=   1.777849
 ------------------------------------------------------------------------------
 ------------------------------------------------------------------------------
 Atomic radii for non-electrostatic terms: SMD-CDS.
 ------------------------------------------------------------------------------
 Nuclear repulsion after PCM non-electrostatic terms =      890.7984254924 Hartrees.
 One-electron integrals computed using PRISM.
 NBasis=   531 RedAO= T EigKep=  5.11D-06  NBF=   531
 NBsUse=   531 1.00D-06 EigRej= -1.00D+00 NBFU=   531
 ExpMin= 3.60D-02 ExpMax= 8.59D+03 ExpMxC= 1.30D+03 IAcc=3 IRadAn=         5 AccDes= 0.00D+00
 Harris functional with IExCor= 1009 and IRadAn=       5 diagonalized for initial guess.
 HarFok:  IExCor= 1009 AccDes= 0.00D+00 IRadAn=         5 IDoV= 1 UseB2=F ITyADJ=14
 ICtDFT=  3500011 ScaDFX=  1.000000  1.000000  1.000000  1.000000
 FoFCou: FMM=F IPFlag=           0 FMFlag=      100000 FMFlg1=           0
         NFxFlg=           0 DoJE=T BraDBF=F KetDBF=T FulRan=T
         wScrn=  0.000000 ICntrl=       500 IOpCl=  0 I1Cent=   200000004 NGrid=           0
         NMat0=    1 NMatS0=      1 NMatT0=    0 NMatD0=    1 NMtDS0=    0 NMtDT0=    0
 Petite list used in FoFCou.
 Requested convergence on RMS density matrix=1.00D-08 within 128 cycles.
 Requested convergence on MAX density matrix=1.00D-06.
 Requested convergence on             energy=1.00D-06.
 No special actions if energy rises.
 Inv3:  Mode=1 IEnd=    12000000.
 Iteration    1 A*A^-1 deviation from unit magnitude is 6.22D-15 for    251.
 Iteration    1 A*A^-1 deviation from orthogonality  is 4.61D-15 for   1669    207.
 Iteration    1 A^-1*A deviation from unit magnitude is 6.11D-15 for    222.
 Iteration    1 A^-1*A deviation from orthogonality  is 4.63D-15 for   1340   1339.
 Error on total polarization charges =  0.06218
 SCF Done:  E(RM062X) =  -617.502594528     A.U. after   13 cycles
            NFock= 13  Conv=0.18D-08     -V/T= 2.0035
 SMD-CDS (non-electrostatic) energy       (kcal/mol) =       3.99
 (included in total energy above)

 **********************************************************************

            Population analysis using the SCF Density.

 **********************************************************************

 Orbital symmetries:
       Occupied  (A) (A) (A) (A) (A) (A) (A) (A) (A) (A) (A) (A)
                 (A) (A) (A) (A) (A) (A) (A) (A) (A) (A) (A) (A)
                 (A) (A) (A) (A) (A) (A) (A) (A) (A) (A) (A) (A)
                 (A) (A) (A) (A) (A) (A) (A) (A) (A) (A) (A) (A)
                 (A) (A) (A)
       Virtual   (A) (A) (A) (A) (A) (A) (A) (A) (A) (A) (A) (A)
                 (A) (A) (A) (A) (A) (A) (A) (A) (A) (A) (A) (A)
                 (A) (A) (A) (A) (A) (A) (A) (A) (A) (A) (A) (A)
                 (A) (A) (A) (A) (A) (A) (A) (A) (A) (A) (A) (A)
                 (A) (A) (A) (A) (A) (A) (A) (A) (A) (A) (A) (A)
                 (A) (A) (A) (A) (A) (A) (A) (A) (A) (A) (A) (A)
                 (A) (A) (A) (A) (A) (A) (A) (A) (A) (A) (A) (A)
                 (A) (A) (A) (A) (A) (A) (A) (A) (A) (A) (A) (A)
                 (A) (A) (A) (A) (A) (A) (A) (A) (A) (A) (A) (A)
                 (A) (A) (A) (A) (A) (A) (A) (A) (A) (A) (A) (A)
                 (A) (A) (A) (A) (A) (A) (A) (A) (A) (A) (A) (A)
                 (A) (A) (A) (A) (A) (A) (A) (A) (A) (A) (A) (A)
                 (A) (A) (A) (A) (A) (A) (A) (A) (A) (A) (A) (A)
                 (A) (A) (A) (A) (A) (A) (A) (A) (A) (A) (A) (A)
                 (A) (A) (A) (A) (A) (A) (A) (A) (A) (A) (A) (A)
                 (A) (A) (A) (A) (A) (A) (A) (A) (A) (A) (A) (A)
                 (A) (A) (A) (A) (A) (A) (A) (A) (A) (A) (A) (A)
                 (A) (A) (A) (A) (A) (A) (A) (A) (A) (A) (A) (A)
                 (A) (A) (A) (A) (A) (A) (A) (A) (A) (A) (A) (A)
                 (A) (A) (A) (A) (A) (A) (A) (A) (A) (A) (A) (A)
                 (A) (A) (A) (A) (A) (A) (A) (A) (A) (A) (A) (A)
                 (A) (A) (A) (A) (A) (A) (A) (A) (A) (A) (A) (A)
                 (A) (A) (A) (A) (A) (A) (A) (A) (A) (A) (A) (A)
                 (A) (A) (A) (A) (A) (A) (A) (A) (A) (A) (A) (A)
                 (A) (A) (A) (A) (A) (A) (A) (A) (A) (A) (A) (A)
                 (A) (A) (A) (A) (A) (A) (A) (A) (A) (A) (A) (A)
                 (A) (A) (A) (A) (A) (A) (A) (A) (A) (A) (A) (A)
                 (A) (A) (A) (A) (A) (A) (A) (A) (A) (A) (A) (A)
                 (A) (A) (A) (A) (A) (A) (A) (A) (A) (A) (A) (A)
                 (A) (A) (A) (A) (A) (A) (A) (A) (A) (A) (A) (A)
                 (A) (A) (A) (A) (A) (A) (A) (A) (A) (A) (A) (A)
                 (A) (A) (A) (A) (A) (A) (A) (A) (A) (A) (A) (A)
                 (A) (A) (A) (A) (A) (A) (A) (A) (A) (A) (A) (A)
                 (A) (A) (A) (A) (A) (A) (A) (A) (A) (A) (A) (A)
                 (A) (A) (A) (A) (A) (A) (A) (A) (A) (A) (A) (A)
                 (A) (A) (A) (A) (A) (A) (A) (A) (A) (A) (A) (A)
                 (A) (A) (A) (A) (A) (A) (A) (A) (A) (A) (A) (A)
                 (A) (A) (A) (A) (A) (A) (A) (A) (A) (A) (A) (A)
                 (A) (A) (A) (A) (A) (A) (A) (A) (A) (A) (A) (A)
                 (A) (A) (A) (A) (A) (A) (A) (A) (A) (A) (A) (A)
 The electronic state is 1-A.
 Alpha  occ. eigenvalues --  -19.63474 -19.62875 -19.62772 -10.63101 -10.58438
 Alpha  occ. eigenvalues --  -10.57312 -10.57215 -10.57141 -10.52715 -10.52530
 Alpha  occ. eigenvalues --  -10.52424 -10.52255 -10.52108  -1.20297  -1.16684
 Alpha  occ. eigenvalues --   -1.13948  -0.90496  -0.89337  -0.87218  -0.83901
 Alpha  occ. eigenvalues --   -0.75168  -0.73458  -0.72970  -0.69674  -0.65716
 Alpha  occ. eigenvalues --   -0.64782  -0.59717  -0.57543  -0.56559  -0.56100
 Alpha  occ. eigenvalues --   -0.54676  -0.52705  -0.52213  -0.50973  -0.50093
 Alpha  occ. eigenvalues --   -0.48047  -0.46280  -0.45730  -0.45201  -0.44445
 Alpha  occ. eigenvalues --   -0.43889  -0.41115  -0.39963  -0.39859  -0.39097
 Alpha  occ. eigenvalues --   -0.38113  -0.37368  -0.36652  -0.35844  -0.32369
 Alpha  occ. eigenvalues --   -0.31666
 Alpha virt. eigenvalues --    0.00418   0.01264   0.01356   0.01475   0.02637
 Alpha virt. eigenvalues --    0.02904   0.03087   0.03879   0.04047   0.04800
 Alpha virt. eigenvalues --    0.05114   0.05462   0.06042   0.06223   0.07391
 Alpha virt. eigenvalues --    0.07724   0.07897   0.08521   0.09209   0.10265
 Alpha virt. eigenvalues --    0.10629   0.10928   0.11513   0.12076   0.12234
 Alpha virt. eigenvalues --    0.12673   0.13389   0.13437   0.13743   0.13958
 Alpha virt. eigenvalues --    0.14102   0.14780   0.14994   0.15248   0.15492
 Alpha virt. eigenvalues --    0.15777   0.15899   0.16080   0.16467   0.16683
 Alpha virt. eigenvalues --    0.17270   0.17406   0.17632   0.17723   0.18054
 Alpha virt. eigenvalues --    0.18600   0.18872   0.19234   0.19674   0.19775
 Alpha virt. eigenvalues --    0.20065   0.20524   0.20824   0.21323   0.21548
 Alpha virt. eigenvalues --    0.22589   0.22936   0.23183   0.23857   0.24826
 Alpha virt. eigenvalues --    0.25804   0.26288   0.26856   0.27596   0.27808
 Alpha virt. eigenvalues --    0.28398   0.28556   0.29315   0.29684   0.30113
 Alpha virt. eigenvalues --    0.30168   0.31047   0.31314   0.31847   0.32655
 Alpha virt. eigenvalues --    0.32909   0.33580   0.33878   0.34530   0.34693
 Alpha virt. eigenvalues --    0.35108   0.35159   0.35673   0.36391   0.36704
 Alpha virt. eigenvalues --    0.37246   0.37595   0.37672   0.38156   0.38432
 Alpha virt. eigenvalues --    0.39024   0.39335   0.40329   0.40726   0.40796
 Alpha virt. eigenvalues --    0.41044   0.41444   0.42752   0.43963   0.45571
 Alpha virt. eigenvalues --    0.46386   0.47940   0.48993   0.49729   0.51325
 Alpha virt. eigenvalues --    0.53156   0.54028   0.54353   0.55412   0.56131
 Alpha virt. eigenvalues --    0.56575   0.56990   0.58921   0.59284   0.60119
 Alpha virt. eigenvalues --    0.60883   0.61104   0.61524   0.62012   0.62645
 Alpha virt. eigenvalues --    0.62676   0.63346   0.63942   0.64188   0.64442
 Alpha virt. eigenvalues --    0.65066   0.65447   0.65818   0.66722   0.67204
 Alpha virt. eigenvalues --    0.67977   0.69403   0.70195   0.71171   0.71375
 Alpha virt. eigenvalues --    0.72293   0.72496   0.73211   0.73507   0.74010
 Alpha virt. eigenvalues --    0.74407   0.74604   0.75302   0.75697   0.76477
 Alpha virt. eigenvalues --    0.77116   0.77533   0.78367   0.79012   0.79998
 Alpha virt. eigenvalues --    0.80889   0.82107   0.84469   0.84769   0.85457
 Alpha virt. eigenvalues --    0.86686   0.87689   0.88654   0.90623   0.91390
 Alpha virt. eigenvalues --    0.91788   0.92448   0.93553   0.94841   0.95961
 Alpha virt. eigenvalues --    0.96801   0.98138   0.99559   1.02001   1.02740
 Alpha virt. eigenvalues --    1.03554   1.05104   1.06011   1.06864   1.07399
 Alpha virt. eigenvalues --    1.08287   1.09317   1.10199   1.10704   1.12800
 Alpha virt. eigenvalues --    1.13144   1.13489   1.14719   1.15947   1.16463
 Alpha virt. eigenvalues --    1.17912   1.18534   1.19258   1.19368   1.20264
 Alpha virt. eigenvalues --    1.21505   1.22103   1.22690   1.23152   1.24121
 Alpha virt. eigenvalues --    1.24802   1.25860   1.26614   1.27470   1.28168
 Alpha virt. eigenvalues --    1.29468   1.29881   1.30257   1.30898   1.31883
 Alpha virt. eigenvalues --    1.32215   1.32821   1.33130   1.34346   1.34905
 Alpha virt. eigenvalues --    1.35909   1.36605   1.36763   1.37904   1.38517
 Alpha virt. eigenvalues --    1.38764   1.39851   1.40895   1.41663   1.42232
 Alpha virt. eigenvalues --    1.42941   1.43889   1.44022   1.44440   1.45273
 Alpha virt. eigenvalues --    1.45963   1.47037   1.47522   1.48510   1.49052
 Alpha virt. eigenvalues --    1.49471   1.50282   1.51099   1.51487   1.52427
 Alpha virt. eigenvalues --    1.53297   1.54207   1.54795   1.55349   1.56214
 Alpha virt. eigenvalues --    1.56909   1.57370   1.57793   1.58782   1.59605
 Alpha virt. eigenvalues --    1.60903   1.61801   1.62271   1.63000   1.63544
 Alpha virt. eigenvalues --    1.64702   1.65282   1.65735   1.66900   1.67308
 Alpha virt. eigenvalues --    1.69309   1.69780   1.70826   1.71667   1.72715
 Alpha virt. eigenvalues --    1.73931   1.74314   1.76439   1.77425   1.78512
 Alpha virt. eigenvalues --    1.79795   1.80064   1.81040   1.81928   1.84663
 Alpha virt. eigenvalues --    1.86618   1.88928   1.89632   1.95928   1.97850
 Alpha virt. eigenvalues --    2.00534   2.09328   2.11538   2.17378   2.19549
 Alpha virt. eigenvalues --    2.22853   2.26808   2.31921   2.33557   2.36362
 Alpha virt. eigenvalues --    2.40370   2.43680   2.46061   2.50611   2.52632
 Alpha virt. eigenvalues --    2.58511   2.76328   2.77340   2.79330   2.82182
 Alpha virt. eigenvalues --    2.87956   2.89934   2.92797   2.94313   2.95498
 Alpha virt. eigenvalues --    2.97113   2.99643   3.01494   3.03992   3.05903
 Alpha virt. eigenvalues --    3.07930   3.08330   3.10021   3.10829   3.11777
 Alpha virt. eigenvalues --    3.15261   3.15848   3.17781   3.18682   3.22565
 Alpha virt. eigenvalues --    3.24360   3.27625   3.32412   3.33845   3.36361
 Alpha virt. eigenvalues --    3.36700   3.36739   3.39503   3.39954   3.42017
 Alpha virt. eigenvalues --    3.43240   3.44556   3.46047   3.46723   3.47411
 Alpha virt. eigenvalues --    3.48045   3.49396   3.50548   3.51776   3.52331
 Alpha virt. eigenvalues --    3.53513   3.54863   3.55545   3.56351   3.57022
 Alpha virt. eigenvalues --    3.57174   3.58266   3.58902   3.59297   3.60622
 Alpha virt. eigenvalues --    3.61275   3.62584   3.62847   3.64501   3.65054
 Alpha virt. eigenvalues --    3.66458   3.66956   3.67629   3.69182   3.70701
 Alpha virt. eigenvalues --    3.71207   3.72231   3.72695   3.73916   3.74374
 Alpha virt. eigenvalues --    3.75306   3.76394   3.76946   3.77417   3.78527
 Alpha virt. eigenvalues --    3.78980   3.79917   3.81335   3.83813   3.84444
 Alpha virt. eigenvalues --    3.85816   3.88217   3.89162   3.90773   3.91710
 Alpha virt. eigenvalues --    3.91966   3.94072   3.96570   3.96731   3.99820
 Alpha virt. eigenvalues --    4.00070   4.02431   4.04311   4.04786   4.05094
 Alpha virt. eigenvalues --    4.05278   4.06154   4.06794   4.08197   4.08234
 Alpha virt. eigenvalues --    4.09600   4.10312   4.10757   4.12044   4.12933
 Alpha virt. eigenvalues --    4.13333   4.13597   4.14432   4.15971   4.16885
 Alpha virt. eigenvalues --    4.18120   4.19240   4.19554   4.20952   4.22216
 Alpha virt. eigenvalues --    4.22562   4.24153   4.25494   4.26289   4.27946
 Alpha virt. eigenvalues --    4.28508   4.30133   4.31436   4.32488   4.33674
 Alpha virt. eigenvalues --    4.34537   4.36032   4.36598   4.38777   4.39501
 Alpha virt. eigenvalues --    4.41396   4.43838   4.45672   4.50309   4.55697
 Alpha virt. eigenvalues --    4.58362   4.61810   4.76470   4.77287   4.84715
 Alpha virt. eigenvalues --    4.89130   4.93089   4.93507   4.99797   5.01101
 Alpha virt. eigenvalues --    5.06814   5.07485   5.08576   5.09143   5.12667
 Alpha virt. eigenvalues --    5.12897   5.14560   5.16663   5.30045   5.35181
 Alpha virt. eigenvalues --    5.38536   5.57780   5.58555   5.65843   5.86408
 Alpha virt. eigenvalues --    5.89147   6.01814   7.01700   7.05199   7.05744
 Alpha virt. eigenvalues --    7.09312   7.11292   7.13006   7.13415   7.17126
 Alpha virt. eigenvalues --    7.24504   7.36319   7.42399   7.43983   7.53498
 Alpha virt. eigenvalues --    7.55216   7.62706  23.96456  23.97375  24.07032
 Alpha virt. eigenvalues --   24.07789  24.11440  24.12576  24.13933  24.17289
 Alpha virt. eigenvalues --   24.19133  24.19934  50.17420  50.19238  50.23263
          Condensed to atoms (all electrons):
               1          2          3          4          5          6
     1  C    5.635568   0.009884   0.013879  -0.000386   0.019542  -0.012862
     2  C    0.009884   5.799860   0.097995   0.126845   0.002316  -0.007309
     3  C    0.013879   0.097995   6.594096  -0.019711  -0.036034   0.020648
     4  O   -0.000386   0.126845  -0.019711   8.449075   0.000588   0.000159
     5  O    0.019542   0.002316  -0.036034   0.000588   8.392486  -0.029533
     6  C   -0.012862  -0.007309   0.020648   0.000159  -0.029533   5.459952
     7  O    0.043486  -0.071904   0.030758  -0.001655  -0.012456   0.006616
     8  C   -0.045066  -0.000633  -0.012316   0.000086  -0.024846  -0.014298
     9  C    0.000086   0.343428  -0.709814  -0.026538  -0.097080   0.043957
    10  C    0.043482   0.180558  -0.260256  -0.005407   0.300171   0.001955
    11  C   -0.000203  -0.214846   0.024050   0.088984  -0.006652   0.001527
    12  C   -0.057821  -0.575766   0.005884  -0.013074   0.045670  -0.008036
    13  C   -0.096932  -0.095892  -0.053799   0.002032  -0.014637  -0.168523
    14  H    0.429136  -0.000495  -0.000274  -0.000008  -0.002927   0.002929
    15  H    0.536058   0.000487   0.003153  -0.000005  -0.000335  -0.000918
    16  H   -0.001456   0.367038   0.024859  -0.033545   0.000653  -0.001110
    17  H   -0.000143   0.481469  -0.008633  -0.067559   0.000865  -0.000218
    18  H   -0.000356   0.001659   0.465122  -0.006275   0.000718  -0.000296
    19  H   -0.000277   0.005111   0.456118   0.008344  -0.001030   0.000245
    20  H    0.001858  -0.000899   0.003720  -0.000110  -0.029999   0.480350
    21  H    0.007857   0.004023  -0.000044   0.000123  -0.070808   0.442170
    22  H   -0.015644  -0.000825   0.000115   0.000007  -0.002061  -0.067563
    23  H   -0.051315   0.000234   0.000029  -0.000003   0.006487  -0.038813
    24  H   -0.001508  -0.064687  -0.087425  -0.001852   0.001077   0.008938
    25  H    0.002790   0.011383   0.034364  -0.002502   0.001287  -0.003618
    26  H   -0.040763   0.006172  -0.052487   0.001283  -0.049158   0.011302
    27  H    0.000116   0.015012  -0.025116  -0.070504  -0.000400   0.000212
    28  H   -0.000042  -0.024638  -0.034940  -0.039800   0.002084  -0.000659
    29  H   -0.003372  -0.105723  -0.005710   0.006804   0.001847   0.003860
    30  H   -0.004648   0.002443   0.001464   0.000266  -0.009273   0.005282
    31  H   -0.025607   0.002595   0.000024  -0.000063   0.005701  -0.000620
               7          8          9         10         11         12
     1  C    0.043486  -0.045066   0.000086   0.043482  -0.000203  -0.057821
     2  C   -0.071904  -0.000633   0.343428   0.180558  -0.214846  -0.575766
     3  C    0.030758  -0.012316  -0.709814  -0.260256   0.024050   0.005884
     4  O   -0.001655   0.000086  -0.026538  -0.005407   0.088984  -0.013074
     5  O   -0.012456  -0.024846  -0.097080   0.300171  -0.006652   0.045670
     6  C    0.006616  -0.014298   0.043957   0.001955   0.001527  -0.008036
     7  O    8.495121  -0.000694   0.058729   0.225448   0.005775   0.033031
     8  C   -0.000694   5.693296  -0.033537  -0.091409  -0.001673   0.004391
     9  C    0.058729  -0.033537   6.869112   0.483641   0.018822  -0.983562
    10  C    0.225448  -0.091409   0.483641   6.918527  -0.018003  -0.710990
    11  C    0.005775  -0.001673   0.018822  -0.018003   5.437519   0.075786
    12  C    0.033031   0.004391  -0.983562  -0.710990   0.075786   7.265628
    13  C   -0.294506   0.203036  -0.433737  -1.385461   0.006493   0.345740
    14  H   -0.002137  -0.018662  -0.005382   0.020902   0.000124   0.000099
    15  H    0.001166  -0.090605   0.007092   0.022973  -0.000164   0.003294
    16  H   -0.008148   0.001642  -0.061572  -0.062407   0.000800   0.089594
    17  H    0.007722   0.001659   0.013046   0.017064  -0.002941  -0.076999
    18  H   -0.000568   0.000298  -0.017900  -0.000312  -0.075119  -0.004085
    19  H   -0.000329   0.000094  -0.050142  -0.003892  -0.036174   0.000877
    20  H    0.004188  -0.063882   0.000744  -0.040042  -0.000224   0.010480
    21  H   -0.001337  -0.043491   0.004689   0.012559   0.000081  -0.010236
    22  H    0.002347   0.471523  -0.001171  -0.013551  -0.000148   0.005951
    23  H    0.000197   0.457754   0.002296   0.014275   0.000039  -0.003044
    24  H   -0.008836  -0.009382   0.454291  -0.012596   0.004906   0.046299
    25  H   -0.000843   0.000988   0.351257   0.001914  -0.002784   0.002125
    26  H   -0.040544   0.029039   0.067444   0.465953   0.000335  -0.076492
    27  H    0.000568  -0.000155  -0.002855  -0.003088   0.429114  -0.002588
    28  H   -0.001295   0.000568  -0.024382  -0.000251   0.454336   0.032075
    29  H   -0.068434  -0.000998  -0.034632  -0.048505   0.010095   0.523240
    30  H    0.005135  -0.028713   0.006180  -0.078198  -0.000058   0.002169
    31  H   -0.000549   0.002047   0.005669  -0.008296  -0.000161  -0.016148
              13         14         15         16         17         18
     1  C   -0.096932   0.429136   0.536058  -0.001456  -0.000143  -0.000356
     2  C   -0.095892  -0.000495   0.000487   0.367038   0.481469   0.001659
     3  C   -0.053799  -0.000274   0.003153   0.024859  -0.008633   0.465122
     4  O    0.002032  -0.000008  -0.000005  -0.033545  -0.067559  -0.006275
     5  O   -0.014637  -0.002927  -0.000335   0.000653   0.000865   0.000718
     6  C   -0.168523   0.002929  -0.000918  -0.001110  -0.000218  -0.000296
     7  O   -0.294506  -0.002137   0.001166  -0.008148   0.007722  -0.000568
     8  C    0.203036  -0.018662  -0.090605   0.001642   0.001659   0.000298
     9  C   -0.433737  -0.005382   0.007092  -0.061572   0.013046  -0.017900
    10  C   -1.385461   0.020902   0.022973  -0.062407   0.017064  -0.000312
    11  C    0.006493   0.000124  -0.000164   0.000800  -0.002941  -0.075119
    12  C    0.345740   0.000099   0.003294   0.089594  -0.076999  -0.004085
    13  C    7.603044  -0.048632  -0.095856   0.000628   0.004389  -0.000380
    14  H   -0.048632   0.457644  -0.004658  -0.000057   0.000049  -0.000013
    15  H   -0.095856  -0.004658   0.460503  -0.000094  -0.000004  -0.000034
    16  H    0.000628  -0.000057  -0.000094   0.490189  -0.024695   0.000317
    17  H    0.004389   0.000049  -0.000004  -0.024695   0.468102  -0.000957
    18  H   -0.000380  -0.000013  -0.000034   0.000317  -0.000957   0.473036
    19  H   -0.001648  -0.000036   0.000061  -0.001000   0.001196  -0.013161
    20  H    0.015325  -0.002206   0.003607   0.000633  -0.000012   0.000007
    21  H   -0.000819   0.000352  -0.001882  -0.001769   0.000140  -0.000078
    22  H   -0.007250  -0.001069   0.004071  -0.000532   0.000020   0.000013
    23  H   -0.008691  -0.009118  -0.006213   0.000262  -0.000038  -0.000001
    24  H   -0.002104   0.000289   0.000118  -0.001350  -0.003611   0.000775
    25  H    0.011634   0.000169   0.000377  -0.001353   0.000763  -0.007328
    26  H   -0.014182  -0.000587  -0.017612  -0.004339  -0.000386   0.001803
    27  H    0.000201   0.000006   0.000017  -0.003466   0.002342  -0.003988
    28  H    0.001495   0.000001  -0.000064   0.005698  -0.002436   0.002500
    29  H    0.012238  -0.000093   0.000296   0.008456  -0.009754  -0.000356
    30  H    0.465925  -0.005140   0.006358   0.000096  -0.000644  -0.000047
    31  H    0.419900  -0.010724  -0.006337  -0.000063   0.000179   0.000006
              19         20         21         22         23         24
     1  C   -0.000277   0.001858   0.007857  -0.015644  -0.051315  -0.001508
     2  C    0.005111  -0.000899   0.004023  -0.000825   0.000234  -0.064687
     3  C    0.456118   0.003720  -0.000044   0.000115   0.000029  -0.087425
     4  O    0.008344  -0.000110   0.000123   0.000007  -0.000003  -0.001852
     5  O   -0.001030  -0.029999  -0.070808  -0.002061   0.006487   0.001077
     6  C    0.000245   0.480350   0.442170  -0.067563  -0.038813   0.008938
     7  O   -0.000329   0.004188  -0.001337   0.002347   0.000197  -0.008836
     8  C    0.000094  -0.063882  -0.043491   0.471523   0.457754  -0.009382
     9  C   -0.050142   0.000744   0.004689  -0.001171   0.002296   0.454291
    10  C   -0.003892  -0.040042   0.012559  -0.013551   0.014275  -0.012596
    11  C   -0.036174  -0.000224   0.000081  -0.000148   0.000039   0.004906
    12  C    0.000877   0.010480  -0.010236   0.005951  -0.003044   0.046299
    13  C   -0.001648   0.015325  -0.000819  -0.007250  -0.008691  -0.002104
    14  H   -0.000036  -0.002206   0.000352  -0.001069  -0.009118   0.000289
    15  H    0.000061   0.003607  -0.001882   0.004071  -0.006213   0.000118
    16  H   -0.001000   0.000633  -0.001769  -0.000532   0.000262  -0.001350
    17  H    0.001196  -0.000012   0.000140   0.000020  -0.000038  -0.003611
    18  H   -0.013161   0.000007  -0.000078   0.000013  -0.000001   0.000775
    19  H    0.486515   0.000142   0.000082   0.000000   0.000008  -0.008490
    20  H    0.000142   0.473594  -0.006248   0.003215   0.000311  -0.002979
    21  H    0.000082  -0.006248   0.476856  -0.002560  -0.010000  -0.000163
    22  H    0.000000   0.003215  -0.002560   0.471765  -0.011458   0.000549
    23  H    0.000008   0.000311  -0.010000  -0.011458   0.474601  -0.000074
    24  H   -0.008490  -0.002979  -0.000163   0.000549  -0.000074   0.472858
    25  H   -0.010639   0.000862   0.000043   0.000018  -0.000196  -0.025188
    26  H   -0.000303  -0.009767  -0.000977  -0.002020   0.001923  -0.000748
    27  H   -0.008867   0.000010   0.000027  -0.000005  -0.000001  -0.000373
    28  H    0.004739   0.000240  -0.000308  -0.000008   0.000009  -0.010021
    29  H   -0.001060   0.000241  -0.000073   0.000134  -0.000041   0.006732
    30  H    0.000047   0.000907  -0.000589   0.002609  -0.003071  -0.000451
    31  H    0.000034  -0.000354   0.001289  -0.001975   0.001614  -0.000562
              25         26         27         28         29         30
     1  C    0.002790  -0.040763   0.000116  -0.000042  -0.003372  -0.004648
     2  C    0.011383   0.006172   0.015012  -0.024638  -0.105723   0.002443
     3  C    0.034364  -0.052487  -0.025116  -0.034940  -0.005710   0.001464
     4  O   -0.002502   0.001283  -0.070504  -0.039800   0.006804   0.000266
     5  O    0.001287  -0.049158  -0.000400   0.002084   0.001847  -0.009273
     6  C   -0.003618   0.011302   0.000212  -0.000659   0.003860   0.005282
     7  O   -0.000843  -0.040544   0.000568  -0.001295  -0.068434   0.005135
     8  C    0.000988   0.029039  -0.000155   0.000568  -0.000998  -0.028713
     9  C    0.351257   0.067444  -0.002855  -0.024382  -0.034632   0.006180
    10  C    0.001914   0.465953  -0.003088  -0.000251  -0.048505  -0.078198
    11  C   -0.002784   0.000335   0.429114   0.454336   0.010095  -0.000058
    12  C    0.002125  -0.076492  -0.002588   0.032075   0.523240   0.002169
    13  C    0.011634  -0.014182   0.000201   0.001495   0.012238   0.465925
    14  H    0.000169  -0.000587   0.000006   0.000001  -0.000093  -0.005140
    15  H    0.000377  -0.017612   0.000017  -0.000064   0.000296   0.006358
    16  H   -0.001353  -0.004339  -0.003466   0.005698   0.008456   0.000096
    17  H    0.000763  -0.000386   0.002342  -0.002436  -0.009754  -0.000644
    18  H   -0.007328   0.001803  -0.003988   0.002500  -0.000356  -0.000047
    19  H   -0.010639  -0.000303  -0.008867   0.004739  -0.001060   0.000047
    20  H    0.000862  -0.009767   0.000010   0.000240   0.000241   0.000907
    21  H    0.000043  -0.000977   0.000027  -0.000308  -0.000073  -0.000589
    22  H    0.000018  -0.002020  -0.000005  -0.000008   0.000134   0.002609
    23  H   -0.000196   0.001923  -0.000001   0.000009  -0.000041  -0.003071
    24  H   -0.025188  -0.000748  -0.000373  -0.010021   0.006732  -0.000451
    25  H    0.466777  -0.007608   0.001563  -0.000502  -0.005127   0.000492
    26  H   -0.007608   0.449239  -0.000995   0.001082  -0.001466  -0.008056
    27  H    0.001563  -0.000995   0.458194  -0.006206  -0.001487   0.000007
    28  H   -0.000502   0.001082  -0.006206   0.485200   0.001746  -0.000013
    29  H   -0.005127  -0.001466  -0.001487   0.001746   0.436964   0.000776
    30  H    0.000492  -0.008056   0.000007  -0.000013   0.000776   0.461144
    31  H   -0.000672   0.000767   0.000001  -0.000027  -0.001015  -0.019523
              31
     1  C   -0.025607
     2  C    0.002595
     3  C    0.000024
     4  O   -0.000063
     5  O    0.005701
     6  C   -0.000620
     7  O   -0.000549
     8  C    0.002047
     9  C    0.005669
    10  C   -0.008296
    11  C   -0.000161
    12  C   -0.016148
    13  C    0.419900
    14  H   -0.010724
    15  H   -0.006337
    16  H   -0.000063
    17  H    0.000179
    18  H    0.000006
    19  H    0.000034
    20  H   -0.000354
    21  H    0.001289
    22  H   -0.001975
    23  H    0.001614
    24  H   -0.000562
    25  H   -0.000672
    26  H    0.000767
    27  H    0.000001
    28  H   -0.000027
    29  H   -0.001015
    30  H   -0.019523
    31  H    0.468575
 Mulliken charges:
               1
     1  C   -0.385344
     2  C   -0.294894
     3  C   -0.469719
     4  O   -0.395600
     5  O   -0.394264
     6  C   -0.135728
     7  O   -0.406054
     8  C   -0.386062
     9  C   -0.248181
    10  C    0.033244
    11  C   -0.199637
    12  C    0.046508
    13  C   -0.369029
    14  H    0.200518
    15  H    0.175150
    16  H    0.216090
    17  H    0.200026
    18  H    0.184999
    19  H    0.173434
    20  H    0.156288
    21  H    0.201092
    22  H    0.165502
    23  H    0.182037
    24  H    0.245570
    25  H    0.179552
    26  H    0.292144
    27  H    0.222703
    28  H    0.153817
    29  H    0.274418
    30  H    0.197122
    31  H    0.184298
 Sum of Mulliken charges =  -0.00000
 Mulliken charges with hydrogens summed into heavy atoms:
               1
     1  C   -0.009676
     2  C    0.121222
     3  C   -0.111286
     4  O   -0.395600
     5  O   -0.394264
     6  C    0.221652
     7  O   -0.406054
     8  C   -0.038523
     9  C    0.176941
    10  C    0.325388
    11  C    0.176884
    12  C    0.320926
    13  C    0.012390
 Electronic spatial extent (au):  <R**2>=           3106.8273
 Charge=              0.0000 electrons
 Dipole moment (field-independent basis, Debye):
    X=              2.4429    Y=              1.6684    Z=              4.3276  Tot=              5.2421
 Quadrupole moment (field-independent basis, Debye-Ang):
   XX=            -75.0169   YY=            -78.5552   ZZ=            -80.6721
   XY=             -0.7658   XZ=             -5.6575   YZ=             -0.1717
 Traceless Quadrupole moment (field-independent basis, Debye-Ang):
   XX=              3.0645   YY=             -0.4738   ZZ=             -2.5907
   XY=             -0.7658   XZ=             -5.6575   YZ=             -0.1717
 Octapole moment (field-independent basis, Debye-Ang**2):
  XXX=             36.3779  YYY=              8.4462  ZZZ=              0.1341  XYY=              0.0989
  XXY=             14.6881  XXZ=             29.1226  XZZ=              3.3843  YZZ=             -1.3035
  YYZ=              0.6590  XYZ=             -0.5207
 Hexadecapole moment (field-independent basis, Debye-Ang**3):
 XXXX=          -3179.5460 YYYY=           -491.6747 ZZZZ=           -406.4537 XXXY=            -33.8305
 XXXZ=           -101.4844 YYYX=             15.7678 YYYZ=             -7.9067 ZZZX=             -3.7212
 ZZZY=              5.5349 XXYY=           -588.1018 XXZZ=           -633.8837 YYZZ=           -149.3863
 XXYZ=              5.8661 YYXZ=              1.3502 ZZXY=              2.6413
 N-N= 8.907984254924D+02 E-N=-3.223687307084D+03  KE= 6.153579478879D+02
 D1PCM: PCM CHGder 1st derivatives, ID1Alg=3 FixD1E=F DoIter=F DoCFld=F I1PDM=0.
 Calling FoFJK, ICntrl=      2127 FMM=F ISym2X=0 I1Cent= 0 IOpClX= 0 NMat=1 NMatS=1 NMatT=0.
 ***** Axes restored to original set *****
 -------------------------------------------------------------------
 Center     Atomic                   Forces (Hartrees/Bohr)
 Number     Number              X              Y              Z
 -------------------------------------------------------------------
      1        6           0.002975986   -0.001724992   -0.002498706
      2        6          -0.000890221    0.001151206    0.005956081
      3        6          -0.002106257   -0.001634989   -0.002061358
      4        8           0.008667798    0.004865586   -0.007312953
      5        8           0.008380753   -0.005578438   -0.010138996
      6        6          -0.005429710    0.003765043    0.000441010
      7        8          -0.002613174    0.009917438   -0.006352498
      8        6           0.001835242    0.001403758    0.002523048
      9        6           0.002983405    0.002856679   -0.003128729
     10        6          -0.004818429    0.002875104    0.001122077
     11        6          -0.004427902    0.002469971    0.005355385
     12        6          -0.000040412   -0.009524436    0.002273426
     13        6          -0.000882903   -0.002328871    0.002629052
     14        1          -0.002135316    0.001357124   -0.000749851
     15        1           0.000831606   -0.000707789    0.003181075
     16        1          -0.004368756   -0.005512746    0.000445323
     17        1          -0.001019439    0.003122360   -0.003705895
     18        1           0.001428567    0.003079173   -0.000224436
     19        1           0.000431605   -0.001839238    0.002253894
     20        1           0.000111413   -0.000594529    0.005712921
     21        1           0.000082925   -0.003944382   -0.002347544
     22        1           0.000175668    0.000535447   -0.003296232
     23        1          -0.001899774   -0.001558638    0.001244552
     24        1          -0.002898269   -0.004253931   -0.001562276
     25        1          -0.001423059    0.002021249    0.002453219
     26        1           0.000618591   -0.001876697    0.008917920
     27        1           0.004498260   -0.000209646    0.000310029
     28        1          -0.002894661   -0.004990070    0.000075237
     29        1           0.003875337    0.004460019    0.000607926
     30        1           0.000431871   -0.000139319   -0.003892761
     31        1           0.000519251    0.002538553    0.001770061
 -------------------------------------------------------------------
 Cartesian Forces:  Max     0.010138996 RMS     0.003697906

 GradGradGradGradGradGradGradGradGradGradGradGradGradGradGradGradGradGrad
 Berny optimization.
 FormGI is forming the generalized inverse of G from B-inverse, IUseBI=4.
 Internal  Forces:  Max     0.017729155 RMS     0.002434153
 Search for a local minimum.
 Step number   1 out of a maximum of  186
 All quantities printed in internal units (Hartrees-Bohrs-Radians)
 Mixed Optimization -- RFO/linear search
 Second derivative matrix not updated -- first step.
 ITU=  0
     Eigenvalues ---    0.00612   0.00639   0.00732   0.00754   0.01436
     Eigenvalues ---    0.01490   0.01858   0.02626   0.02740   0.03114
     Eigenvalues ---    0.03162   0.03887   0.04172   0.04543   0.04775
     Eigenvalues ---    0.04855   0.04928   0.05155   0.05161   0.05210
     Eigenvalues ---    0.05374   0.05720   0.05769   0.06147   0.06205
     Eigenvalues ---    0.06332   0.06415   0.06535   0.07640   0.07692
     Eigenvalues ---    0.07945   0.07958   0.07967   0.08028   0.08040
     Eigenvalues ---    0.08727   0.09406   0.09858   0.10827   0.11470
     Eigenvalues ---    0.11599   0.11704   0.11713   0.12323   0.12490
     Eigenvalues ---    0.14465   0.14773   0.16424   0.16684   0.17853
     Eigenvalues ---    0.19151   0.21486   0.21856   0.25000   0.28390
     Eigenvalues ---    0.28517   0.28618   0.28778   0.28963   0.29091
     Eigenvalues ---    0.30126   0.30487   0.35031   0.35071   0.35079
     Eigenvalues ---    0.35122   0.35181   0.35184   0.35243   0.35285
     Eigenvalues ---    0.35314   0.35345   0.35360   0.35374   0.35397
     Eigenvalues ---    0.35590   0.35616   0.35831   0.35834   0.35878
     Eigenvalues ---    0.41187   0.41515   0.41745   0.42289   0.42650
     Eigenvalues ---    0.477711000.000001000.000001000.000001000.00000
     Eigenvalues --- 1000.000001000.000001000.000001000.000001000.00000
     Eigenvalues --- 1000.000001000.000001000.000001000.000001000.00000
     Eigenvalues --- 1000.000001000.000001000.000001000.000001000.00000
     Eigenvalues --- 1000.000001000.000001000.000001000.000001000.00000
     Eigenvalues --- 1000.000001000.000001000.000001000.000001000.00000
     Eigenvalues --- 1000.000001000.000001000.000001000.000001000.00000
     Eigenvalues --- 1000.000001000.000001000.000001000.000001000.00000
     Eigenvalues --- 1000.000001000.000001000.000001000.000001000.00000
     Eigenvalues --- 1000.000001000.000001000.000001000.000001000.00000
     Eigenvalues --- 1000.000001000.000001000.000001000.000001000.00000
     Eigenvalues --- 1000.000001000.000001000.000001000.000001000.00000
     Eigenvalues --- 1000.000001000.000001000.000001000.000001000.00000
     Eigenvalues --- 1000.000001000.000001000.000001000.000001000.00000
     Eigenvalues --- 1000.000001000.000001000.000001000.000001000.00000
     Eigenvalues --- 1000.000001000.000001000.000001000.000001000.00000
     Eigenvalues --- 1000.000001000.000001000.000001000.000001000.00000
     Eigenvalues --- 1000.000001000.000001000.000001000.000001000.00000
     Eigenvalues --- 1000.000001000.000001000.000001000.000001000.00000
     Eigenvalues --- 1000.000001000.000001000.000001000.000001000.00000
 RFO step:  Lambda=-4.07659172D-03 EMin= 6.11602282D-03
 Linear search not attempted -- first point.
 Iteration  1 RMS(Cart)=  0.08378926 RMS(Int)=  0.00128471
 Iteration  2 RMS(Cart)=  0.00418411 RMS(Int)=  0.00004725
 Iteration  3 RMS(Cart)=  0.00000364 RMS(Int)=  0.00004721
 Iteration  4 RMS(Cart)=  0.00000000 RMS(Int)=  0.00004721
 Iteration  1 RMS(Cart)=  0.00003496 RMS(Int)=  0.00000815
 Iteration  2 RMS(Cart)=  0.00001928 RMS(Int)=  0.00000910
 Iteration  3 RMS(Cart)=  0.00001063 RMS(Int)=  0.00001030
 Iteration  4 RMS(Cart)=  0.00000586 RMS(Int)=  0.00001109
 Iteration  5 RMS(Cart)=  0.00000323 RMS(Int)=  0.00001157
 Iteration  6 RMS(Cart)=  0.00000178 RMS(Int)=  0.00001183
 Iteration  7 RMS(Cart)=  0.00000098 RMS(Int)=  0.00001199
 Variable       Old X    -DE/DX   Delta X   Delta X   Delta X     New X
                                 (Linear)    (Quad)   (Total)
    R1        2.88988  -0.00069   0.00000  -0.00343  -0.00346   2.88643
    R2        2.89318  -0.00110   0.00000  -0.00410  -0.00413   2.88906
    R3        2.05094   0.00263   0.00000   0.00735   0.00735   2.05829
    R4        2.05625   0.00326   0.00000   0.00920   0.00920   2.06545
    R5        2.66689   0.00601   0.00000   0.01413   0.01416   2.68105
    R6        2.88372  -0.00078   0.00000  -0.00218  -0.00214   2.88158
    R7        2.05214   0.00675   0.00000   0.01892   0.01892   2.07106
    R8        2.04343   0.00490   0.00000   0.01352   0.01352   2.05695
    R9        2.89672  -0.00100   0.00000  -0.00420  -0.00422   2.89250
   R10        2.87242  -0.00062   0.00000  -0.00237  -0.00241   2.87002
   R11        2.05381   0.00330   0.00000   0.00927   0.00927   2.06308
   R12        2.05168   0.00294   0.00000   0.00822   0.00822   2.05991
   R13        2.67579   0.00639   0.00000   0.01480   0.01480   2.69059
   R14        2.68101   0.00584   0.00000   0.01385   0.01388   2.69488
   R15        2.66146   0.00850   0.00000   0.01979   0.01981   2.68127
   R16        2.87258  -0.00054   0.00000  -0.00185  -0.00185   2.87074
   R17        2.05561   0.00566   0.00000   0.01596   0.01596   2.07157
   R18        2.04272   0.00459   0.00000   0.01264   0.01264   2.05537
   R19        2.62184   0.00427   0.00000   0.00887   0.00887   2.63070
   R20        2.69249   0.00296   0.00000   0.00703   0.00703   2.69952
   R21        2.05477   0.00325   0.00000   0.00914   0.00914   2.06391
   R22        2.05283   0.00275   0.00000   0.00771   0.00771   2.06053
   R23        2.88235  -0.00307   0.00000  -0.01028  -0.01027   2.87207
   R24        2.05118   0.00518   0.00000   0.01449   0.01449   2.06567
   R25        2.05035   0.00344   0.00000   0.00962   0.00962   2.05997
   R26        2.86770  -0.00145   0.00000  -0.00450  -0.00450   2.86320
   R27        2.04687   0.00910   0.00000   0.02527   0.02527   2.07214
   R28        2.04346   0.00451   0.00000   0.01243   0.01243   2.05590
   R29        2.05548   0.00567   0.00000   0.01598   0.01598   2.07145
   R30        2.04728   0.00577   0.00000   0.01603   0.01603   2.06330
   R31        2.05377   0.00371   0.00000   0.01043   0.01043   2.06420
   R32        2.05072   0.00312   0.00000   0.00871   0.00871   2.05942
    A1        1.92604   0.00211   0.00000  -0.00033  -0.00040   1.92564
    A2        1.93172  -0.00051   0.00000   0.00048   0.00051   1.93223
    A3        1.90886  -0.00081   0.00000  -0.00193  -0.00192   1.90694
    A4        1.91982  -0.00064   0.00000  -0.00069  -0.00067   1.91916
    A5        1.90957  -0.00082   0.00000  -0.00217  -0.00216   1.90741
    A6        1.86679   0.00061   0.00000   0.00473   0.00472   1.87151
    A7        1.92708   0.00105   0.00000   0.00636   0.00646   1.93355
    A8        1.91521   0.00124   0.00000   0.00881   0.00881   1.92403
    A9        1.86585  -0.00028   0.00000   0.00396   0.00395   1.86980
   A10        1.93002  -0.00226   0.00000  -0.01650  -0.01652   1.91350
   A11        1.92640  -0.00051   0.00000  -0.00553  -0.00562   1.92078
   A12        1.89799   0.00085   0.00000   0.00368   0.00357   1.90156
   A13        1.93333  -0.00031   0.00000  -0.00541  -0.00547   1.92786
   A14        1.92038   0.00053   0.00000   0.00076   0.00076   1.92114
   A15        1.92125  -0.00043   0.00000   0.00010   0.00012   1.92137
   A16        1.90527  -0.00027   0.00000  -0.00112  -0.00109   1.90417
   A17        1.90746   0.00029   0.00000   0.00084   0.00084   1.90831
   A18        1.87514   0.00020   0.00000   0.00514   0.00513   1.88026
   A19        1.97584  -0.00537   0.00000  -0.02809  -0.02807   1.94778
   A20        1.98019  -0.00518   0.00000  -0.02692  -0.02685   1.95334
   A21        1.93474   0.00092   0.00000   0.00303   0.00306   1.93780
   A22        1.90361   0.00071   0.00000   0.00386   0.00386   1.90747
   A23        1.85194  -0.00074   0.00000  -0.00021  -0.00022   1.85171
   A24        1.93085  -0.00130   0.00000  -0.00710  -0.00713   1.92372
   A25        1.95050  -0.00003   0.00000  -0.00179  -0.00179   1.94871
   A26        1.88973   0.00049   0.00000   0.00268   0.00267   1.89240
   A27        2.13360  -0.01773   0.00000  -0.06978  -0.06978   2.06382
   A28        1.92208   0.00020   0.00000  -0.00271  -0.00278   1.91930
   A29        1.91880   0.00054   0.00000   0.00190   0.00193   1.92072
   A30        1.93585  -0.00066   0.00000  -0.00138  -0.00137   1.93448
   A31        1.90348  -0.00041   0.00000  -0.00193  -0.00191   1.90157
   A32        1.90640   0.00005   0.00000  -0.00059  -0.00058   1.90583
   A33        1.87641   0.00029   0.00000   0.00484   0.00483   1.88124
   A34        1.89391   0.00150   0.00000  -0.00197  -0.00200   1.89192
   A35        1.90403   0.00001   0.00000   0.00470   0.00467   1.90870
   A36        1.92453  -0.00013   0.00000   0.00534   0.00534   1.92987
   A37        1.92690  -0.00144   0.00000  -0.01039  -0.01037   1.91653
   A38        1.93219  -0.00048   0.00000  -0.00240  -0.00240   1.92979
   A39        1.88227   0.00052   0.00000   0.00484   0.00479   1.88706
   A40        1.89217  -0.00224   0.00000  -0.01250  -0.01250   1.87967
   A41        1.92914   0.00176   0.00000   0.00934   0.00934   1.93848
   A42        1.89186  -0.00002   0.00000  -0.00289  -0.00290   1.88896
   A43        1.89402   0.00050   0.00000   0.00255   0.00256   1.89658
   A44        1.93312   0.00056   0.00000   0.00466   0.00464   1.93775
   A45        1.92349  -0.00057   0.00000  -0.00122  -0.00121   1.92228
   A46        1.93628   0.00163   0.00000   0.00741   0.00745   1.94373
   A47        1.94408  -0.00036   0.00000  -0.00301  -0.00302   1.94106
   A48        1.93025  -0.00141   0.00000  -0.00864  -0.00867   1.92158
   A49        1.85657  -0.00100   0.00000  -0.00207  -0.00206   1.85451
   A50        1.90269   0.00053   0.00000   0.00375   0.00375   1.90643
   A51        1.89177   0.00064   0.00000   0.00293   0.00291   1.89468
   A52        1.89807   0.00096   0.00000  -0.00304  -0.00343   1.89464
   A53        1.92409   0.00058   0.00000  -0.00656  -0.00679   1.91730
   A54        1.88237  -0.00032   0.00000   0.00631   0.00629   1.88867
   A55        2.03301  -0.00304   0.00000  -0.02347  -0.02358   2.00943
   A56        1.82622   0.00136   0.00000   0.02216   0.02226   1.84848
   A57        1.89268   0.00063   0.00000   0.00819   0.00835   1.90103
   A58        1.92428  -0.00073   0.00000  -0.00747  -0.00752   1.91676
   A59        1.92472   0.00089   0.00000   0.00468   0.00464   1.92936
   A60        1.93587  -0.00006   0.00000   0.00293   0.00292   1.93879
   A61        1.89104  -0.00054   0.00000  -0.00642  -0.00641   1.88463
   A62        1.90260   0.00023   0.00000  -0.00050  -0.00047   1.90213
   A63        1.88425   0.00021   0.00000   0.00680   0.00678   1.89103
    D1        0.89731  -0.00007   0.00000   0.01090   0.01089   0.90820
    D2       -1.20050  -0.00003   0.00000   0.01379   0.01379  -1.18671
[...]
 06998427,-0.10552638,-0.22529388,0.00032230,0.00009544,-0.00040576,-0.
 00137851,0.00078751,0.00080965,0.00995479,-0.01472441,-0.02298813,-0.0
 0010084,-0.00011142,0.00026749,-0.00000697,-0.00000571,0.00000290,-0.0
 0000195,0.00000213,0.00000136,-0.00006863,0.00005881,0.00022053,0.0009
 1645,-0.00077829,-0.00141205,0.00040511,-0.00003333,0.00023067,0.00061
 084,-0.00009251,0.00045074,0.00000337,-0.00000830,0.00000103,0.0000033
 7,0.00000031,0.00000119,0.00000121,-0.00000031,0.00000241,-0.00000261,
 0.00000290,0.00000063,0.00014645,-0.00102294,-0.00163051,-0.07593540,0
 .11396716,0.24399906,0.00144934,0.00029120,-0.00084044,-0.00024601,0.0
 0016801,-0.00023218,-0.00007096,-0.00035392,0.00018916,-0.00022300,0.0
 0015235,0.00002036,0.00402469,-0.00097062,0.00172730,0.00069472,-0.000
 34604,-0.00112432,-0.00571590,-0.01419046,0.03240979,-0.00015219,0.000
 09693,0.00009622,-0.00317158,0.00114571,-0.00018871,-0.06162385,0.0103
 9369,-0.04670975,0.00001154,-0.00003049,0.00012968,0.00344637,-0.00052
 751,0.00166381,-0.00468719,0.00650188,-0.02682612,0.00011014,0.0000333
 1,0.00026359,-0.00006426,-0.00006359,0.00042335,0.00002722,0.00003040,
 0.00002453,-0.00001565,-0.00002106,-0.00015817,-0.00000950,0.00001876,
 0.00000124,0.00006657,-0.00002294,0.00000992,0.00005092,0.00001728,0.0
 0001391,-0.00000380,0.00002993,-0.00007470,0.00003226,-0.00001237,0.00
 004470,0.00001624,-0.00008156,-0.00002244,-0.00121649,0.00054953,-0.00
 025632,-0.00177540,0.00027061,-0.00081524,0.07240907,-0.00075596,0.000
 10709,-0.00016659,-0.00003613,-0.00004809,-0.00030935,0.00016075,0.000
 13194,-0.00020778,-0.00026842,0.00020044,0.00008431,-0.00731920,-0.013
 64366,-0.03992378,0.00335807,0.00301887,-0.00395030,-0.00891151,-0.007
 37513,0.02439828,-0.00029891,-0.00025435,0.00040025,0.00072459,0.00008
 576,-0.00028986,0.00922175,-0.05446670,0.04577934,0.00002441,-0.000080
 44,0.00004332,0.00295760,-0.00082738,0.00018961,0.00424095,-0.00079400
 ,0.01630834,-0.00001394,-0.00003469,-0.00025339,0.00004191,0.00027261,
 -0.00034668,0.00000164,0.00005509,0.00002263,-0.00000167,-0.00002308,-
 0.00006112,0.00001748,-0.00001318,0.00000948,-0.00008474,0.00001783,-0
 .00001336,0.00023926,0.00020638,0.00119369,0.00007422,-0.00006626,0.00
 025668,0.00003634,-0.00005216,0.00006205,-0.00019191,0.00013997,0.0000
 4055,0.00100553,-0.00032465,-0.00007945,-0.00017604,0.00009067,-0.0002
 2632,-0.00565687,0.07388809,0.00007554,-0.00032623,0.00033549,0.000065
 63,-0.00001360,0.00018781,-0.00015348,-0.00053158,0.00063131,0.0002872
 9,-0.00017149,-0.00003482,-0.00391780,-0.01359177,-0.02201851,0.001374
 99,0.00175581,0.00008215,0.00858298,0.00965348,-0.01199036,-0.00010265
 ,-0.00039833,0.00012767,-0.00178947,0.00028038,-0.00027995,-0.03815635
 ,0.04388998,-0.28234239,-0.00018778,0.00007703,-0.00017188,-0.00277339
 ,0.00115472,-0.00060782,-0.00124018,0.00207422,-0.00369899,-0.00005894
 ,-0.00001474,0.00021567,-0.00027131,-0.00030186,0.00018347,0.00000297,
 -0.00000484,-0.00001415,0.00000557,0.00000804,0.00005493,-0.00019138,0
 .00001425,-0.00000976,0.00009660,-0.00000107,-0.00001790,-0.00068326,-
 0.00045544,0.00061087,-0.00014719,-0.00031544,0.00054396,0.00003643,0.
 00010310,-0.00015005,-0.00013980,0.00002446,-0.00000940,-0.00025342,-0
 .00045616,-0.00021819,-0.00109713,0.00059553,0.00016320,0.04064812,-0.
 04360901,0.31724405,-0.00000628,0.00001367,-0.00000927,0.00293891,0.00
 056267,-0.00058526,-0.00860651,-0.00000920,-0.00017591,-0.00464978,0.0
 0301136,-0.00423232,-0.00007989,-0.00006109,-0.00001759,0.00003010,0.0
 0002698,-0.00001972,-0.00031934,0.00003434,-0.00001738,-0.00000360,-0.
 00000344,0.00000811,0.00100843,0.00100809,0.00226176,0.00013630,0.0001
 2547,0.00001191,-0.31896880,0.03612179,-0.00962419,0.00036919,-0.00047
 988,0.00011881,-0.00001383,-0.00003059,-0.00000265,-0.00000839,-0.0000
 0326,0.00000233,0.00000022,-0.00000099,0.00000153,0.00014176,0.0000136
 4,0.00004873,-0.00043041,0.00022005,0.00003172,0.00080602,0.00021679,-
 0.00012684,0.00003782,0.00002219,0.00038139,-0.00000181,-0.00000185,0.
 00000416,-0.00000409,-0.00000646,0.00000080,-0.00000017,0.00000013,-0.
 00000162,-0.00000475,-0.00000115,-0.00000036,0.00021521,-0.00004272,-0
 .00000233,-0.00072093,0.00026641,-0.00023880,0.00000412,-0.00001422,-0
 .00002342,0.34053746,0.00000761,-0.00001776,0.00001149,-0.00147656,-0.
 00191040,0.00236557,0.01443581,-0.00193889,-0.00072626,0.02612121,-0.0
 0671813,0.00743875,0.00007104,0.00009456,0.00002009,-0.00002530,-0.000
 02822,0.00001913,0.00049897,-0.00004189,-0.00019576,0.00000362,0.00000
 445,-0.00000849,0.00039316,-0.00030904,-0.00217200,-0.00011904,-0.0001
 9743,-0.00003838,0.02710882,-0.05601101,-0.00109958,-0.00046404,0.0003
 9799,0.00024728,0.00001973,0.00003861,-0.00000408,0.00001010,0.0000049
 0,-0.00000293,0.00000041,0.00000061,-0.00000134,0.00041152,0.00031884,
 0.00001642,0.00104053,-0.00005158,0.00018804,-0.00000734,0.00050758,0.
 00101051,-0.00026124,0.00035885,0.00001507,0.00000361,0.00000155,-0.00
 000576,0.00000584,0.00000742,-0.00000063,-0.00000014,0.00000003,0.0000
 0130,0.00000440,0.00000116,0.00000080,0.00032395,0.00012270,0.00008019
 ,0.00066047,0.00003688,0.00003539,0.00003453,0.00001749,0.00003722,-0.
 04227929,0.05950193,-0.00000738,-0.00000009,-0.00000215,0.00157887,0.0
 0339919,-0.00355819,0.02906531,-0.00354573,0.00297894,-0.03466228,0.00
 926524,-0.00820007,0.00001703,0.00000622,0.00006244,-0.00002273,-0.000
 00865,0.00000559,-0.00013702,-0.00001245,0.00054756,0.00000080,-0.0000
 0116,-0.00000175,0.00063114,-0.00300046,-0.00511590,0.00001359,0.00006
 330,-0.00010334,-0.00090065,-0.00100810,-0.04840606,-0.00027321,0.0003
 0142,-0.00141041,-0.00002128,-0.00001041,0.00005189,0.00000106,-0.0000
 0014,-0.00000027,-0.00000016,0.00000058,-0.00000003,0.00009616,-0.0001
 2776,-0.00000330,-0.00151014,0.00061371,-0.00012635,-0.00089452,0.0003
 4038,0.00122104,-0.00074366,0.00069410,0.00081212,-0.00000137,-0.00000
 108,-0.00000125,0.00000289,0.00000239,0.00000008,0.00000026,-0.0000001
 6,0.00000095,0.00000101,0.00000067,-0.00000003,-0.00022704,0.00013942,
 -0.00002311,0.00185778,-0.00067949,0.00020652,-0.00004304,-0.00001563,
 0.00008052,0.01201222,-0.00635202,0.05995141,0.00000110,-0.00000252,0.
 00000494,0.00215743,0.00301984,-0.00004243,0.00479033,0.01003202,0.002
 92839,0.00407577,0.00528960,0.00058422,0.00006633,0.00001469,-0.000000
 26,-0.00000839,-0.00002352,0.00000904,0.00005197,-0.00004406,0.0000000
 5,0.00000214,0.00000601,-0.00000543,0.00121673,0.00060823,-0.00011961,
 -0.00003975,-0.00002476,0.00000583,-0.11013949,-0.10112000,-0.02155809
 ,-0.00027344,0.00008670,0.00017032,0.00000312,0.00000880,0.00000134,0.
 00000227,0.00000069,-0.00000107,0.00000003,-0.00000016,-0.00000102,0.0
 0073560,-0.00075774,0.00018747,0.00018557,0.00004311,0.00009872,0.0002
 7228,0.00128607,0.00183710,0.00034346,-0.00050548,-0.00052870,0.000000
 13,0.00000197,-0.00000239,0.00000187,0.00000231,-0.00000067,0.00000012
 ,-0.00000050,0.00000085,0.00000293,0.00000006,-0.00000021,0.00025059,-
 0.00028057,0.00007445,0.00011063,-0.00010702,-0.00005737,-0.00000093,-
 0.00000017,0.00000814,-0.01239192,-0.02655633,-0.00585998,0.10869265,0
 .00000949,-0.00001586,0.00000988,-0.00310171,0.00065276,-0.00121021,-0
 .00754527,-0.01164956,-0.00467298,-0.00544972,-0.02692330,0.01341738,0
 .00007605,0.00007705,0.00000066,-0.00000860,-0.00002539,0.00001806,0.0
 0051748,-0.00010056,-0.00011536,0.00000403,0.00000375,-0.00000781,-0.0
 0048237,0.00034070,0.00085418,-0.00012672,-0.00020894,0.00003355,-0.09
 722299,-0.23425228,-0.04317183,0.00006769,0.00023473,0.00028452,0.0000
 2524,0.00004138,-0.00001244,0.00000859,0.00000486,-0.00000259,-0.00000
 016,0.00000077,-0.00000142,0.00102649,0.00007380,-0.00005050,0.0003423
 2,0.00032228,0.00015703,0.00087383,-0.00006111,-0.00232085,0.00009526,
 0.00038452,-0.00031836,0.00000353,0.00000146,-0.00000632,0.00000673,0.
 00000803,0.00000124,-0.00000073,0.00000068,0.00000146,0.00000428,0.000
 00127,0.00000052,0.00046679,-0.00005785,0.00010197,0.00010260,0.000252
 35,-0.00004572,0.00000579,0.00001448,-0.00000053,0.00124898,0.00587731
 ,-0.00001096,0.10916164,0.26504938,-0.00000622,0.00000415,-0.00000413,
 0.00467448,0.00052875,0.00141378,-0.01349487,-0.02621036,-0.00573807,0
 .00893029,0.03684542,-0.00645319,-0.00000309,-0.00001312,0.00001735,0.
 00000100,-0.00000067,0.00000265,-0.00019917,-0.00000505,0.00028087,0.0
 0000045,0.00000063,-0.00000034,-0.00111838,0.00055580,0.00099401,0.000
 00951,0.00006899,-0.00002099,-0.02387749,-0.04515695,-0.05709512,-0.00
 028123,-0.00009593,-0.00050553,-0.00001410,-0.00001595,0.00001223,-0.0
 0000259,-0.00000087,0.00000125,0.00000061,-0.00000038,0.00000030,-0.00
 018648,-0.00114886,0.00015648,-0.00001229,-0.00020088,-0.00007818,0.00
 287879,-0.00285491,-0.00437262,-0.00026460,0.00080047,0.00105456,-0.00
 000025,-0.00000050,-0.00000205,0.,-0.00000038,0.00000159,-0.00000037,-
 0.00000012,-0.00000022,-0.00000037,-0.00000026,-0.00000022,0.00044064,
 0.00034258,0.00021915,-0.00001330,0.00036558,-0.00004646,-0.00000400,-
 0.00000523,0.00001404,0.00020319,-0.00088916,0.00092529,0.02235756,0.0
 3709228,0.06928673,-0.00023256,0.00040303,-0.00014389,0.00553694,0.010
 15828,0.00206793,0.00068321,0.00058088,-0.00025856,0.00212866,-0.00053
 517,0.00019032,-0.00115823,-0.00168656,0.00024052,0.00039645,0.0000099
 5,-0.00035180,-0.03834083,-0.02425451,-0.00258392,-0.00000209,-0.00001
 583,0.00009073,0.00202061,0.00163742,0.00085654,0.00041987,0.00323079,
 -0.00612484,0.00000839,0.00010730,-0.00014266,-0.09956150,-0.10323769,
 -0.01329505,-0.00067826,-0.00080743,0.00070438,-0.00016661,-0.00009668
 ,0.00006125,-0.00001718,-0.00001910,0.00002835,-0.00084257,0.00148517,
 0.00186538,0.00049501,-0.00049702,-0.00044297,0.00029987,0.00003476,-0
 .00020271,0.00016523,0.00015484,0.00011329,-0.00005061,-0.00003676,0.0
 0005376,-0.00011728,-0.00012530,0.00004797,-0.00000555,-0.00000296,-0.
 00002260,-0.00004715,-0.00001430,-0.00000733,0.00048978,0.00068717,-0.
 00077031,0.00006763,-0.00022026,-0.00012079,0.00005250,-0.00027094,0.0
 0027741,-0.00000636,0.00002533,0.00000650,-0.00011322,-0.00011137,-0.0
 0002077,0.12861898,0.00002604,-0.00006150,0.00000367,-0.00783230,-0.01
 497625,-0.00322897,-0.00069589,0.00016329,-0.00039617,0.00043622,0.001
 09272,0.00104184,0.00027950,0.00045053,-0.00013410,-0.00001287,0.00011
 524,0.00006630,0.00820243,0.01206330,0.00120409,-0.00000833,-0.0000021
 5,-0.00000115,-0.00801534,-0.01671140,-0.00081343,0.00152639,0.0003977
 4,0.00092488,0.00008925,0.00014061,-0.00003536,-0.11028356,-0.25179564
 ,-0.02796219,0.00012782,0.00005532,-0.00014647,0.00001524,0.00001117,-
 0.00000323,0.00000060,0.00000050,-0.00000164,0.00136449,-0.00040780,-0
 .00252997,0.00017802,0.00108104,0.00005939,0.00050954,0.00010647,0.000
 01682,0.00018035,0.00022431,0.00010703,-0.00000281,-0.00000494,-0.0000
 0811,0.00002723,0.00002268,-0.00000992,0.00000045,0.00000065,0.0000019
 4,-0.00000080,-0.00000148,0.00000069,0.00056504,-0.00090646,0.00302637
 ,0.00008236,0.00108029,0.00004113,0.00000620,-0.00007093,-0.00008039,0
 .00003481,-0.00006172,-0.00003994,-0.00013623,-0.00004481,-0.00000327,
 0.11335533,0.26805670,-0.00002183,0.00004618,-0.00000849,-0.01213118,-
 0.02848636,-0.00638480,0.00102898,-0.00042392,0.00088902,-0.00053267,0
 .00226625,0.00174102,-0.00025430,-0.00048150,0.00008352,0.00003346,-0.
 00004569,-0.00007120,-0.00758295,-0.00247161,0.00247084,0.00000169,-0.
 00000900,0.00001331,0.01262740,0.02690515,0.00143241,0.00095471,0.0006
 8246,-0.00124688,-0.00001886,0.00018951,-0.00034543,-0.01277363,-0.026
 88978,-0.05525812,-0.00006445,-0.00003871,0.00011612,-0.00001288,-0.00
 000880,0.00000491,-0.00000130,-0.00000087,0.00000432,0.00254659,-0.002
 83985,-0.00380695,-0.00058955,0.00081242,0.00139156,-0.00029668,-0.000
 31903,-0.00000805,0.00006861,-0.00031491,-0.00008561,-0.00000606,-0.00
 000024,0.00001230,-0.00002576,-0.00002039,0.00000951,0.00000067,-0.000
 00093,-0.00000279,-0.00000713,0.,-0.00000201,-0.00100447,0.00347438,-0
 .00401364,0.00032806,-0.00093005,0.00131443,-0.00004145,0.00002481,0.0
 0009219,-0.00000657,0.00000678,0.00010553,-0.00009179,-0.00002636,-0.0
 0006261,0.01788636,0.02891510,0.06160548,0.00155713,-0.00489148,0.0273
 7707,0.00000802,-0.00002760,0.00001532,0.00002199,-0.00007152,0.000059
 74,-0.00000637,-0.00000038,0.00001174,0.00200465,-0.00208640,0.0013081
 5,-0.00032685,-0.00027400,0.00014154,0.00254796,0.00025291,-0.00006914
 ,0.00101641,0.00125870,-0.00008747,-0.00029071,0.00014745,-0.00003088,
 -0.00630911,0.00531505,-0.03236141,-0.00003234,0.00000142,-0.00003775,
 0.00024889,0.00007145,-0.00000914,-0.04881079,0.00500931,-0.02282530,0
 .00115606,0.00087581,-0.00042962,-0.00359167,-0.00370891,0.00171004,0.
 00000404,-0.00000159,-0.00000355,-0.00000713,0.00000287,0.00001322,-0.
 00004580,0.00000135,-0.00000448,-0.00000699,0.00000666,-0.00000770,-0.
 00005007,-0.00006728,-0.00004152,0.00009704,-0.00000928,0.00000703,0.0
 0005179,-0.00003983,-0.00047041,-0.00011830,0.00023957,-0.00018697,-0.
 00003790,-0.00014522,0.00000761,-0.00000174,0.00004672,0.00008408,-0.0
 0429452,0.00276584,0.00009327,-0.00000762,0.00000791,0.00001872,0.0000
 0360,0.00000348,0.00000251,0.00001539,-0.00001166,0.00000890,0.0560460
 9,0.00171844,-0.00372186,0.01683106,0.00001480,0.00002233,0.00001725,-
 0.00001143,0.00005094,-0.00004955,0.00001732,-0.00001331,-0.00001320,-
 0.00073241,0.00166249,0.00029964,-0.00013004,-0.00011261,0.00004356,-0
 .00146077,0.00055267,-0.00081703,0.00061304,0.00073792,0.00063983,0.00
 007130,-0.00008303,0.00002031,0.00265013,-0.00535250,0.01827801,0.0000
 1865,0.00000504,0.00001690,-0.00005607,-0.00011408,-0.00012428,0.00479
 742,-0.05683110,0.04125431,0.00033715,0.00061773,-0.00064016,-0.002545
 52,-0.00118823,0.00122125,-0.00000253,-0.00000180,0.00000348,0.0000048
 6,0.00000016,-0.00000223,0.00002676,-0.00000121,0.00000088,0.00000031,
 -0.00000275,0.00000451,-0.00002613,0.00002141,-0.00007679,0.00004033,-
 0.00002700,-0.00000698,-0.00006689,-0.00003461,-0.00015478,-0.00006266
 ,0.00015094,-0.00012390,0.00003859,0.00007478,0.00002505,0.00001023,-0
 .00004394,-0.00003666,0.00261597,-0.00076998,0.00025643,0.00000470,-0.
 00000539,-0.00000968,-0.00000160,-0.00000218,-0.00000091,-0.00000672,0
 .00000779,-0.00001179,-0.00484286,0.05796627,-0.00003160,0.00154429,-0
 .00998924,-0.00003850,-0.00001283,-0.00006603,0.00001470,-0.00002954,0
 .00005836,-0.00004540,0.00002614,0.00002696,0.00076781,0.00027293,0.00
 161583,0.00005274,-0.00006516,0.00020203,0.00021990,-0.00056679,0.0009
 3058,-0.00041716,-0.00035595,0.00058280,0.00015557,-0.00001214,0.00000
 724,-0.00053771,0.00074095,-0.00858879,-0.00000820,-0.00000865,-0.0000
 0288,-0.00002137,-0.00001666,0.00032300,-0.02537112,0.04366959,-0.3000
 5606,0.00016297,-0.00017745,0.00051011,0.00165498,0.00117574,0.0005485
 7,-0.00000672,0.00000147,0.00000228,-0.00000415,-0.00000400,0.00000574
 ,-0.00001072,0.00000190,-0.00000008,0.00000660,0.00000006,-0.00000174,
 -0.00003630,-0.00009646,-0.00015447,-0.00003700,0.00004499,-0.00001795
 ,-0.00015581,0.00045994,0.00021853,0.00011569,0.00005035,0.00022929,0.
 00001480,-0.00001945,-0.00001478,-0.00000873,0.00003391,0.00001463,-0.
 00104836,0.00083273,0.00081376,-0.00000333,0.00000305,0.00000308,0.000
 00082,0.00000199,-0.00000075,-0.00002071,-0.00000738,0.00000644,0.0261
 0451,-0.05016192,0.32590452,0.00005597,-0.02347667,-0.01369450,0.00008
 361,0.00003259,0.00004097,0.00000082,-0.00000850,0.00000761,0.00001292
 ,-0.00002409,-0.00002643,-0.00530401,0.00770193,0.00016094,-0.00152789
 ,-0.00106107,0.00052626,0.00140000,0.00030825,-0.00002227,-0.00431931,
 -0.00233998,0.00306744,0.00000539,0.00003589,-0.00004479,0.00267699,0.
 02180041,0.01567607,-0.00000172,0.00000586,-0.00000648,0.00020620,-0.0
 0026231,-0.00019698,-0.04806756,-0.00836200,-0.00703846,0.00090439,0.0
 0092109,-0.00061311,0.00111809,0.00083400,0.00005761,-0.00001068,-0.00
 002122,0.00000107,-0.00000234,-0.00000343,-0.00000480,-0.00000464,-0.0
 0000146,0.00000095,0.00000037,0.00000051,-0.00000078,0.00020563,0.0001
 0554,-0.00005046,0.00032737,0.00010199,-0.00008343,-0.00003385,0.00027
 639,0.00002313,0.00020609,-0.00177375,-0.00044765,0.00000143,-0.000019
 24,0.00000219,-0.00001624,0.00000106,0.00000181,0.00087553,-0.00086975
 ,-0.00036801,-0.00000106,0.00000070,0.00000115,0.00000050,-0.00000064,
 0.00000053,-0.00005853,-0.00000749,-0.00002192,-0.00084112,-0.00303434
 ,-0.00146819,0.05210763,-0.00027163,-0.01439080,-0.00731110,-0.0000812
 1,-0.00002134,-0.00003908,-0.00000727,0.00000986,0.00000162,-0.0000022
 6,0.00002230,0.00001844,0.00342467,-0.00336559,0.00030412,0.00052221,0
 .00118634,-0.00055299,-0.00083852,0.00114135,0.00022458,-0.00330467,0.
 00002956,0.00224560,0.00002476,-0.00001857,0.00001732,-0.00415718,-0.0
 1394932,-0.00859170,0.00000276,-0.00000399,0.00000750,0.00008476,0.000
 26893,0.00025578,-0.00530863,-0.25318737,-0.11340112,-0.00002051,0.000
 69376,-0.00001106,0.00049080,0.00057946,0.00012633,0.00001905,0.000018
 88,-0.00000147,0.00000305,0.00000211,-0.00000252,0.00000895,0.00000047
 ,0.00000068,0.00000472,-0.00000319,0.00000212,-0.00003613,-0.00008168,
 0.00014125,-0.00003092,-0.00011896,0.00002129,0.00000483,0.00002297,-0
 .00014734,0.00017140,-0.00094799,-0.00050574,-0.00001577,0.00002406,-0
 .00000505,0.00001673,-0.00000608,-0.00000151,-0.00008463,0.00059798,0.
 00034783,0.00000204,-0.00000140,-0.00000270,-0.00000105,0.00000027,-0.
 00000088,0.00006836,-0.00002526,-0.00000325,0.00017153,0.00643511,0.00
 267434,0.00913974,0.27508812,-0.00000349,0.01179543,0.00506476,-0.0000
 0397,0.00000212,0.00001090,0.00000043,0.00000270,-0.00000112,0.0000138
 2,-0.00000373,-0.00000378,-0.00094579,0.00053889,0.00175256,0.00010874
 ,-0.00018031,-0.00012267,0.00050305,0.00011290,0.00014882,0.00192663,0
 .00101882,-0.00005998,0.00001522,-0.00000083,-0.00001372,0.00041582,0.
 00540906,0.00103571,-0.00000086,0.00000382,-0.00000207,0.00003417,0.00
 003429,-0.00001318,-0.00588073,-0.11596614,-0.11308323,-0.00044490,-0.
 00053218,0.00013330,-0.00069985,-0.00021193,0.00071804,0.00000266,0.00
 000083,-0.00000416,-0.00000124,-0.00000158,-0.00000384,0.00000320,0.00
 000077,0.00000054,0.00000117,-0.00000128,0.00000078,-0.00003512,-0.000
 03473,-0.00003292,-0.00002327,-0.00002759,-0.00002154,-0.00001671,0.00
 027862,0.00024114,0.00016925,0.00043941,0.00030989,0.00000666,0.000015
 21,0.00000530,-0.00000575,-0.00000173,-0.00000016,0.00071957,-0.000188
 22,0.00018307,0.00000090,-0.00000072,-0.00000074,-0.00000023,-0.000000
 49,0.00000018,0.00001822,-0.00000753,0.00000365,-0.00039811,-0.0266826
 3,-0.01311098,0.00452050,0.12418873,0.11686548\\-0.00000672,0.00001636
 ,-0.00000921,0.00001283,-0.00000875,-0.00002029,-0.00001807,0.00001324
 ,0.00000983,-0.00000054,-0.00000415,-0.00000043,-0.00000335,-0.0000107
 4,0.00001901,0.00000947,0.00000422,-0.00001921,0.00002563,-0.00156841,
 -0.00191201,-0.00000799,-0.00000226,0.00000040,-0.00012447,-0.00099759
 ,-0.00064378,-0.00006428,0.00073877,0.00108310,0.00001427,0.00000321,-
 0.00000507,0.00015200,0.00183265,0.00146757,-0.00000431,-0.00001611,-0
 .00000700,0.00000477,-0.00000099,0.00000214,-0.00000334,0.00000167,-0.
 00000594,0.00000560,0.00000489,0.00000487,-0.00000151,-0.00001049,0.00
 000724,-0.00000420,-0.00000412,-0.00000335,0.00000466,0.00000383,0.000
 00638,-0.00000549,-0.00000027,0.00000159,-0.00000491,-0.00000543,0.000
 01515,0.00000263,-0.00000318,0.00000657,0.00000990,-0.00001030,-0.0000
 0285,-0.00000186,0.00001355,0.00000764,-0.00000545,-0.00000125,-0.0000
 0361,0.00000976,0.00001230,-0.00000960,-0.00000783,-0.00000227,0.00000
 633,0.00000159,0.00000428,0.00001052,-0.00000299,-0.00000525,-0.000001
 97,0.00000513,-0.00000492,0.00000605,0.00000906,0.00000749,-0.00001007
 \\\@


 WOE UNTO THEM THAT CALL EVIL GOOD, AND GOOD EVIL      
 Job cpu time:       0 days 12 hours 35 minutes 25.9 seconds.
 Elapsed time:       0 days  1 hours  3 minutes 12.8 seconds.
 File lengths (MBytes):  RWF=    721 Int=      0 D2E=      0 Chk=     34 Scr=      1
 Normal termination of Gaussian 16 at Sun Mar 10 05:11:36 2019.
