 Entering Gaussian System, Link 0=g16
 Initial command:
 /sw/Projects/G16/g16/l1.exe "/nvme/pbs/tmpdir/pbs.74288[3].flm1/Gau-5924.inp" -scrdir="/nvme/pbs/tmpdir/pbs.74288[3].flm1/"
 Entering Link 1 = /sw/Projects/G16/g16/l1.exe PID=      5925.
  
 Copyright (c) 1988-2017, Gaussian, Inc.  All Rights Reserved.
  
 This is part of the Gaussian(R) 16 program.  It is based on
 the Gaussian(R) 09 system (copyright 2009, Gaussian, Inc.),
 the Gaussian(R) 03 system (copyright 2003, Gaussian, Inc.),
 the Gaussian(R) 98 system (copyright 1998, Gaussian, Inc.),
 the Gaussian(R) 94 system (copyright 1995, Gaussian, Inc.),
 the Gaussian 92(TM) system (copyright 1992, Gaussian, Inc.),
 the Gaussian 90(TM) system (copyright 1990, Gaussian, Inc.),
 the Gaussian 88(TM) system (copyright 1988, Gaussian, Inc.),
 the Gaussian 86(TM) system (copyright 1986, Carnegie Mellon
 University), and the Gaussian 82(TM) system (copyright 1983,
 Carnegie Mellon University). Gaussian is a federally registered
 trademark of Gaussian, Inc.
  
 This software contains proprietary and confidential information,
 including trade secrets, belonging to Gaussian, Inc.
  
 This software is provided under written license and may be
 used, copied, transmitted, or stored only in accord with that
 written license.
  
 The following legend is applicable only to US Government
 contracts under FAR:
  
                    RESTRICTED RIGHTS LEGEND
  
 Use, reproduction and disclosure by the US Government is
 subject to restrictions as set forth in subparagraphs (a)
 and (c) of the Commercial Computer Software - Restricted
 Rights clause in FAR 52.227-19.
  
 Gaussian, Inc.
 340 Quinnipiac St., Bldg. 40, Wallingford CT 06492
  
  
 ---------------------------------------------------------------
 Warning -- This program may not be used in any manner that
 competes with the business of Gaussian, Inc. or will provide
 assistance to any competitor of Gaussian, Inc.  The licensee
 of this program is prohibited from giving any competitor of
 Gaussian, Inc. access to this program.  By using this program,
 the user acknowledges that Gaussian, Inc. is engaged in the
 business of creating and licensing software in the field of
 computational chemistry and represents and warrants to the
 licensee that it is not a competitor of Gaussian, Inc. and that
 it will not use this program in any manner prohibited above.
 ---------------------------------------------------------------
  

 Cite this work as:
 Gaussian 16, Revision B.01,
 M. J. Frisch, G. W. Trucks, H. B. Schlegel, G. E. Scuseria, 
 M. A. Robb, J. R. Cheeseman, G. Scalmani, V. Barone, 
 G. A. Petersson, H. Nakatsuji, X. Li, M. Caricato, A. V. Marenich, 
 J. Bloino, B. G. Janesko, R. Gomperts, B. Mennucci, H. P. Hratchian, 
 J. V. Ortiz, A. F. Izmaylov, J. L. Sonnenberg, D. Williams-Young, 
 F. Ding, F. Lipparini, F. Egidi, J. Goings, B. Peng, A. Petrone, 
 T. Henderson, D. Ranasinghe, V. G. Zakrzewski, J. Gao, N. Rega, 
 G. Zheng, W. Liang, M. Hada, M. Ehara, K. Toyota, R. Fukuda, 
 J. Hasegawa, M. Ishida, T. Nakajima, Y. Honda, O. Kitao, H. Nakai, 
 T. Vreven, K. Throssell, J. A. Montgomery, Jr., J. E. Peralta, 
 F. Ogliaro, M. J. Bearpark, J. J. Heyd, E. N. Brothers, K. N. Kudin, 
 V. N. Staroverov, T. A. Keith, R. Kobayashi, J. Normand, 
 K. Raghavachari, A. P. Rendell, J. C. Burant, S. S. Iyengar, 
 J. Tomasi, M. Cossi, J. M. Millam, M. Klene, C. Adamo, R. Cammi, 
 J. W. Ochterski, R. L. Martin, K. Morokuma, O. Farkas, 
 J. B. Foresman, and D. J. Fox, Gaussian, Inc., Wallingford CT, 2016.
 
 ******************************************
 Gaussian 16:  ES64L-G16RevB.01 20-Dec-2017
                10-Mar-2019 
 ******************************************
 %mem=20gb
 %nproc=12
 Will use up to   12 processors via shared memory.
 %chk=4c1_b1_4e_4c1_PSI.inp_extract_3.chk
 ----------------------------------------------------------------------
 #M062X/6-311++G(2d,2p) opt=ModRedundant freq=noraman SCRF=(SMD,solvent
 =water)
 ----------------------------------------------------------------------
 1/18=120,19=15,26=3,38=1/1,3;
 2/9=110,12=2,17=6,18=5,40=1/2;
 3/5=4,6=6,7=1212,11=2,25=1,30=1,70=32201,71=1,72=1,74=-55/1,2,3;
 4//1;
 5/5=2,38=5,53=1/2;
 6/7=2,8=2,9=2,10=2,28=1/1;
 7//1,2,3,16;
 1/18=20,19=15,26=3/3(2);
 2/9=110/2;
 99//99;
 2/9=110/2;
 3/5=4,6=6,7=1212,11=2,25=1,30=1,70=32205,71=1,72=1,74=-55/1,2,3;
 4/5=5,16=3,69=1/1;
 5/5=2,38=5,53=1/2;
 7//1,2,3,16;
 1/18=20,19=15,26=3/3(-5);
 2/9=110/2;
 6/7=2,8=2,9=2,10=2,19=2,28=1/1;
 99/9=1/99;
 -------------------------------
 4c1_b1_4e_4c1_PSI.inp_extract_3
 -------------------------------
 Symbolic Z-matrix:
 Charge =  0 Multiplicity = 1
 C                    -3.59314  -1.00336   0.08627 
 C                     1.86414  -1.18309  -0.37778 
 C                     3.41846   1.14328   0.24345 
 O                     3.08     -0.88794  -1.02996 
 O                    -1.63525   1.06071  -0.13909 
 C                    -2.83681   1.173    -0.88549 
 O                    -0.02057  -0.23206   0.76046 
 C                    -3.97728   0.45183  -0.18537 
 C                     2.06685   0.93571   0.93168 
 C                    -1.20355  -0.2687    0.03499 
 C                     3.99822  -0.18745  -0.20946 
 C                     1.15759   0.10067   0.04334 
 C                    -2.23843  -1.0734    0.79632 
 H                    -4.35246  -1.49455   0.68619 
 H                    -3.53505  -1.54329  -0.85664 
 H                     2.0549   -1.79959   0.49778 
 H                     1.26179  -1.74942  -1.07483 
 H                     3.29859   1.79122  -0.62116 
 H                     4.11715   1.62824   0.91845 
 H                    -2.67687   0.76343  -1.88029 
 H                    -3.03162   2.23184  -0.98205 
 H                    -4.1961    0.95874   0.75132 
 H                    -4.86882   0.50811  -0.80346 
 H                     2.21035   0.41155   1.87391 
 H                     1.59479   1.88724   1.15448 
 H                    -1.02635  -0.70016  -0.9463 
 H                     4.89099  -0.04747  -0.80332 
 H                     4.24968  -0.80739   0.6481 
 H                     0.89328   0.66846  -0.84128 
 H                    -2.31749  -0.66375   1.79994 
 H                    -1.89654  -2.09988   0.88022 
 
 The following ModRedundant input section has been read:
 D      10       7      12       9 F                                           
 

 GradGradGradGradGradGradGradGradGradGradGradGradGradGradGradGradGradGrad
 Berny optimization.
 Initialization pass.
                           ----------------------------
                           !    Initial Parameters    !
                           ! (Angstroms and Degrees)  !
 --------------------------                            --------------------------
 ! Name  Definition              Value          Derivative Info.                !
 --------------------------------------------------------------------------------
 ! R1    R(1,8)                  1.5294         estimate D2E/DX2                !
 ! R2    R(1,13)                 1.5311         estimate D2E/DX2                !
 ! R3    R(1,14)                 1.0852         estimate D2E/DX2                !
 ! R4    R(1,15)                 1.0881         estimate D2E/DX2                !
 ! R5    R(2,4)                  1.4109         estimate D2E/DX2                !
 ! R6    R(2,12)                 1.5247         estimate D2E/DX2                !
 ! R7    R(2,16)                 1.0877         estimate D2E/DX2                !
 ! R8    R(2,17)                 1.0814         estimate D2E/DX2                !
 ! R9    R(3,9)                  1.5309         estimate D2E/DX2                !
 ! R10   R(3,11)                 1.5206         estimate D2E/DX2                !
 ! R11   R(3,18)                 1.0871         estimate D2E/DX2                !
 ! R12   R(3,19)                 1.0858         estimate D2E/DX2                !
 ! R13   R(4,11)                 1.4167         estimate D2E/DX2                !
 ! R14   R(5,6)                  1.419          estimate D2E/DX2                !
 ! R15   R(5,10)                 1.4085         estimate D2E/DX2                !
 ! R16   R(6,8)                  1.5202         estimate D2E/DX2                !
 ! R17   R(6,20)                 1.0876         estimate D2E/DX2                !
 ! R18   R(6,21)                 1.0809         estimate D2E/DX2                !
 ! R19   R(7,10)                 1.3882         estimate D2E/DX2                !
 ! R20   R(7,12)                 1.4188         estimate D2E/DX2                !
 ! R21   R(8,22)                 1.0873         estimate D2E/DX2                !
 ! R22   R(8,23)                 1.0863         estimate D2E/DX2                !
 ! R23   R(9,12)                 1.5209         estimate D2E/DX2                !
 ! R24   R(9,24)                 1.0877         estimate D2E/DX2                !
 ! R25   R(9,25)                 1.0853         estimate D2E/DX2                !
 ! R26   R(10,13)                1.516          estimate D2E/DX2                !
 ! R27   R(10,26)                1.0865         estimate D2E/DX2                !
 ! R28   R(11,27)                1.0813         estimate D2E/DX2                !
 ! R29   R(11,28)                1.0876         estimate D2E/DX2                !
 ! R30   R(12,29)                1.0839         estimate D2E/DX2                !
 ! R31   R(13,30)                1.0869         estimate D2E/DX2                !
 ! R32   R(13,31)                1.0852         estimate D2E/DX2                !
 ! A1    A(8,1,13)             110.3736         estimate D2E/DX2                !
 ! A2    A(8,1,14)             110.6769         estimate D2E/DX2                !
 ! A3    A(8,1,15)             109.3692         estimate D2E/DX2                !
 ! A4    A(13,1,14)            109.9988         estimate D2E/DX2                !
 ! A5    A(13,1,15)            109.3858         estimate D2E/DX2                !
 ! A6    A(14,1,15)            106.9652         estimate D2E/DX2                !
 ! A7    A(4,2,12)             110.5408         estimate D2E/DX2                !
 ! A8    A(4,2,16)             109.8475         estimate D2E/DX2                !
 ! A9    A(4,2,17)             106.9542         estimate D2E/DX2                !
 ! A10   A(12,2,16)            109.644          estimate D2E/DX2                !
 ! A11   A(12,2,17)            111.1529         estimate D2E/DX2                !
 ! A12   A(16,2,17)            108.6464         estimate D2E/DX2                !
 ! A13   A(9,3,11)             110.6021         estimate D2E/DX2                !
 ! A14   A(9,3,18)             109.9394         estimate D2E/DX2                !
 ! A15   A(9,3,19)             110.4386         estimate D2E/DX2                !
 ! A16   A(11,3,18)            109.0728         estimate D2E/DX2                !
 ! A17   A(11,3,19)            109.3113         estimate D2E/DX2                !
 ! A18   A(18,3,19)            107.408          estimate D2E/DX2                !
 ! A19   A(2,4,11)             113.2195         estimate D2E/DX2                !
 ! A20   A(6,5,10)             113.5296         estimate D2E/DX2                !
 ! A21   A(5,6,8)              110.823          estimate D2E/DX2                !
 ! A22   A(5,6,20)             109.0741         estimate D2E/DX2                !
 ! A23   A(5,6,21)             106.0881         estimate D2E/DX2                !
 ! A24   A(8,6,20)             110.6662         estimate D2E/DX2                !
 ! A25   A(8,6,21)             111.7547         estimate D2E/DX2                !
 ! A26   A(20,6,21)            108.2805         estimate D2E/DX2                !
 ! A27   A(10,7,12)            116.7227         estimate D2E/DX2                !
 ! A28   A(1,8,6)              110.1665         estimate D2E/DX2                !
 ! A29   A(1,8,22)             109.9462         estimate D2E/DX2                !
 ! A30   A(1,8,23)             110.8856         estimate D2E/DX2                !
 ! A31   A(6,8,22)             109.0609         estimate D2E/DX2                !
 ! A32   A(6,8,23)             109.2137         estimate D2E/DX2                !
 ! A33   A(22,8,23)            107.5088         estimate D2E/DX2                !
 ! A34   A(3,9,12)             109.8575         estimate D2E/DX2                !
 ! A35   A(3,9,24)             109.7731         estimate D2E/DX2                !
 ! A36   A(3,9,25)             110.9429         estimate D2E/DX2                !
 ! A37   A(12,9,24)            108.678          estimate D2E/DX2                !
 ! A38   A(12,9,25)            109.9522         estimate D2E/DX2                !
 ! A39   A(24,9,25)            107.5807         estimate D2E/DX2                !
 ! A40   A(5,10,7)             107.509          estimate D2E/DX2                !
 ! A41   A(5,10,13)            110.7226         estimate D2E/DX2                !
 ! A42   A(5,10,26)            108.25           estimate D2E/DX2                !
 ! A43   A(7,10,13)            109.4686         estimate D2E/DX2                !
 ! A44   A(7,10,26)            110.0898         estimate D2E/DX2                !
 ! A45   A(13,10,26)           110.7395         estimate D2E/DX2                !
 ! A46   A(3,11,4)             110.9843         estimate D2E/DX2                !
 ! A47   A(3,11,27)            111.4127         estimate D2E/DX2                !
 ! A48   A(3,11,28)            110.6174         estimate D2E/DX2                !
 ! A49   A(4,11,27)            106.3231         estimate D2E/DX2                !
 ! A50   A(4,11,28)            108.9453         estimate D2E/DX2                !
 ! A51   A(27,11,28)           108.4159         estimate D2E/DX2                !
 ! A52   A(2,12,7)             109.0843         estimate D2E/DX2                !
 ! A53   A(2,12,9)             110.2777         estimate D2E/DX2                !
 ! A54   A(2,12,29)            109.1875         estimate D2E/DX2                !
 ! A55   A(7,12,9)             109.2669         estimate D2E/DX2                !
 ! A56   A(7,12,29)            109.4431         estimate D2E/DX2                !
 ! A57   A(9,12,29)            109.5649         estimate D2E/DX2                !
 ! A58   A(1,13,10)            110.2928         estimate D2E/DX2                !
 ! A59   A(1,13,30)            110.2808         estimate D2E/DX2                !
 ! A60   A(1,13,31)            110.9707         estimate D2E/DX2                !
 ! A61   A(10,13,30)           108.2593         estimate D2E/DX2                !
 ! A62   A(10,13,31)           109.018          estimate D2E/DX2                !
 ! A63   A(30,13,31)           107.9416         estimate D2E/DX2                !
 ! D1    D(13,1,8,6)            51.4395         estimate D2E/DX2                !
 ! D2    D(13,1,8,22)          -68.7847         estimate D2E/DX2                !
 ! D3    D(13,1,8,23)          172.4622         estimate D2E/DX2                !
 ! D4    D(14,1,8,6)           173.4516         estimate D2E/DX2                !
 ! D5    D(14,1,8,22)           53.2274         estimate D2E/DX2                !
 ! D6    D(14,1,8,23)          -65.5256         estimate D2E/DX2                !
 ! D7    D(15,1,8,6)           -68.9501         estimate D2E/DX2                !
 ! D8    D(15,1,8,22)          170.8257         estimate D2E/DX2                !
 ! D9    D(15,1,8,23)           52.0727         estimate D2E/DX2                !
 ! D10   D(8,1,13,10)          -51.816          estimate D2E/DX2                !
 ! D11   D(8,1,13,30)           67.7068         estimate D2E/DX2                !
 ! D12   D(8,1,13,31)         -172.7332         estimate D2E/DX2                !
 ! D13   D(14,1,13,10)        -174.2271         estimate D2E/DX2                !
 ! D14   D(14,1,13,30)         -54.7043         estimate D2E/DX2                !
 ! D15   D(14,1,13,31)          64.8557         estimate D2E/DX2                !
 ! D16   D(15,1,13,10)          68.5636         estimate D2E/DX2                !
 ! D17   D(15,1,13,30)        -171.9136         estimate D2E/DX2                !
 ! D18   D(15,1,13,31)         -52.3536         estimate D2E/DX2                !
 ! D19   D(12,2,4,11)           61.2237         estimate D2E/DX2                !
 ! D20   D(16,2,4,11)          -59.9023         estimate D2E/DX2                !
 ! D21   D(17,2,4,11)         -177.6386         estimate D2E/DX2                !
 ! D22   D(4,2,12,7)          -176.7509         estimate D2E/DX2                !
 ! D23   D(4,2,12,9)           -56.7472         estimate D2E/DX2                !
 ! D24   D(4,2,12,29)           63.6885         estimate D2E/DX2                !
 ! D25   D(16,2,12,7)          -55.5042         estimate D2E/DX2                !
 ! D26   D(16,2,12,9)           64.4995         estimate D2E/DX2                !
 ! D27   D(16,2,12,29)        -175.0648         estimate D2E/DX2                !
 ! D28   D(17,2,12,7)           64.6365         estimate D2E/DX2                !
 ! D29   D(17,2,12,9)         -175.3597         estimate D2E/DX2                !
 ! D30   D(17,2,12,29)         -54.924          estimate D2E/DX2                !
 ! D31   D(11,3,9,12)          -51.6661         estimate D2E/DX2                !
 ! D32   D(11,3,9,24)           67.7836         estimate D2E/DX2                !
 ! D33   D(11,3,9,25)         -173.4485         estimate D2E/DX2                !
 ! D34   D(18,3,9,12)           68.8465         estimate D2E/DX2                !
 ! D35   D(18,3,9,24)         -171.7038         estimate D2E/DX2                !
 ! D36   D(18,3,9,25)          -52.9359         estimate D2E/DX2                !
 ! D37   D(19,3,9,12)         -172.8055         estimate D2E/DX2                !
 ! D38   D(19,3,9,24)          -53.3558         estimate D2E/DX2                !
 ! D39   D(19,3,9,25)           65.4121         estimate D2E/DX2                !
 ! D40   D(9,3,11,4)            54.7087         estimate D2E/DX2                !
 ! D41   D(9,3,11,27)          172.9863         estimate D2E/DX2                !
 ! D42   D(9,3,11,28)          -66.3438         estimate D2E/DX2                !
 ! D43   D(18,3,11,4)          -66.3195         estimate D2E/DX2                !
 ! D44   D(18,3,11,27)          51.9581         estimate D2E/DX2                !
 ! D45   D(18,3,11,28)         172.628          estimate D2E/DX2                !
 ! D46   D(19,3,11,4)          176.5138         estimate D2E/DX2                !
 ! D47   D(19,3,11,27)         -65.2085         estimate D2E/DX2                !
 ! D48   D(19,3,11,28)          55.4614         estimate D2E/DX2                !
 ! D49   D(2,4,11,3)           -60.3596         estimate D2E/DX2                !
 ! D50   D(2,4,11,27)          178.3239         estimate D2E/DX2                !
 ! D51   D(2,4,11,28)           61.6726         estimate D2E/DX2                !
 ! D52   D(10,5,6,8)            60.9094         estimate D2E/DX2                !
 ! D53   D(10,5,6,20)          -61.1655         estimate D2E/DX2                !
 ! D54   D(10,5,6,21)         -177.5981         estimate D2E/DX2                !
 ! D55   D(6,5,10,7)           179.2641         estimate D2E/DX2                !
 ! D56   D(6,5,10,13)          -61.1978         estimate D2E/DX2                !
 ! D57   D(6,5,10,26)           60.3641         estimate D2E/DX2                !
 ! D58   D(5,6,8,1)            -54.9421         estimate D2E/DX2                !
 ! D59   D(5,6,8,22)            65.8146         estimate D2E/DX2                !
 ! D60   D(5,6,8,23)          -176.9599         estimate D2E/DX2                !
 ! D61   D(20,6,8,1)            66.1977         estimate D2E/DX2                !
 ! D62   D(20,6,8,22)         -173.0455         estimate D2E/DX2                !
 ! D63   D(20,6,8,23)          -55.82           estimate D2E/DX2                !
 ! D64   D(21,6,8,1)          -173.0405         estimate D2E/DX2                !
 ! D65   D(21,6,8,22)          -52.2838         estimate D2E/DX2                !
 ! D66   D(21,6,8,23)           64.9417         estimate D2E/DX2                !
 ! D67   D(12,7,10,5)          -78.8589         estimate D2E/DX2                !
 ! D68   D(12,7,10,13)         160.8061         estimate D2E/DX2                !
 ! D69   D(12,7,10,26)          38.8535         estimate D2E/DX2                !
 ! D70   D(10,7,12,2)          -95.528          estimate D2E/DX2                !
 ! D71   D(10,7,12,9)          143.8468         Frozen                          !
 ! D72   D(10,7,12,29)          23.8741         estimate D2E/DX2                !
 ! D73   D(3,9,12,2)            52.5163         estimate D2E/DX2                !
 ! D74   D(3,9,12,7)           172.4098         estimate D2E/DX2                !
 ! D75   D(3,9,12,29)          -67.6924         estimate D2E/DX2                !
 ! D76   D(24,9,12,2)          -67.6007         estimate D2E/DX2                !
 ! D77   D(24,9,12,7)           52.2928         estimate D2E/DX2                !
 ! D78   D(24,9,12,29)         172.1905         estimate D2E/DX2                !
 ! D79   D(25,9,12,2)          174.8881         estimate D2E/DX2                !
 ! D80   D(25,9,12,7)          -65.2184         estimate D2E/DX2                !
 ! D81   D(25,9,12,29)          54.6793         estimate D2E/DX2                !
 ! D82   D(5,10,13,1)           55.6976         estimate D2E/DX2                !
 ! D83   D(5,10,13,30)         -65.0429         estimate D2E/DX2                !
 ! D84   D(5,10,13,31)         177.7745         estimate D2E/DX2                !
 ! D85   D(7,10,13,1)          174.051          estimate D2E/DX2                !
 ! D86   D(7,10,13,30)          53.3105         estimate D2E/DX2                !
 ! D87   D(7,10,13,31)         -63.8721         estimate D2E/DX2                !
 ! D88   D(26,10,13,1)         -64.387          estimate D2E/DX2                !
 ! D89   D(26,10,13,30)        174.8725         estimate D2E/DX2                !
 ! D90   D(26,10,13,31)         57.6899         estimate D2E/DX2                !
 --------------------------------------------------------------------------------
 Trust Radius=3.00D-01 FncErr=1.00D-07 GrdErr=1.00D-06 EigMax=2.50D+02 EigMin=1.00D-04
 Number of steps in this run=    186 maximum allowed number of steps=    186.
 GradGradGradGradGradGradGradGradGradGradGradGradGradGradGradGradGradGrad

                          Input orientation:                          
 ---------------------------------------------------------------------
 Center     Atomic      Atomic             Coordinates (Angstroms)
 Number     Number       Type             X           Y           Z
 ---------------------------------------------------------------------
      1          6           0       -3.593136   -1.003357    0.086265
      2          6           0        1.864143   -1.183089   -0.377783
      3          6           0        3.418460    1.143280    0.243448
      4          8           0        3.080001   -0.887935   -1.029958
      5          8           0       -1.635246    1.060713   -0.139094
      6          6           0       -2.836809    1.173000   -0.885490
      7          8           0       -0.020573   -0.232064    0.760463
      8          6           0       -3.977282    0.451832   -0.185367
      9          6           0        2.066849    0.935710    0.931684
     10          6           0       -1.203550   -0.268700    0.034988
     11          6           0        3.998216   -0.187447   -0.209462
     12          6           0        1.157593    0.100667    0.043339
     13          6           0       -2.238429   -1.073405    0.796318
     14          1           0       -4.352461   -1.494550    0.686189
     15          1           0       -3.535047   -1.543294   -0.856635
     16          1           0        2.054901   -1.799592    0.497782
     17          1           0        1.261786   -1.749417   -1.074835
     18          1           0        3.298592    1.791218   -0.621158
     19          1           0        4.117150    1.628242    0.918446
     20          1           0       -2.676867    0.763432   -1.880287
     21          1           0       -3.031619    2.231839   -0.982050
     22          1           0       -4.196098    0.958738    0.751322
     23          1           0       -4.868819    0.508112   -0.803455
     24          1           0        2.210348    0.411545    1.873908
     25          1           0        1.594789    1.887235    1.154484
     26          1           0       -1.026348   -0.700160   -0.946300
     27          1           0        4.890988   -0.047471   -0.803316
     28          1           0        4.249676   -0.807385    0.648104
     29          1           0        0.893279    0.668464   -0.841282
     30          1           0       -2.317486   -0.663747    1.799939
     31          1           0       -1.896537   -2.099883    0.880221
 ---------------------------------------------------------------------
                    Distance matrix (angstroms):
                    1          2          3          4          5
     1  C    0.000000
     2  C    5.479921   0.000000
     3  C    7.334524   2.865977   0.000000
     4  O    6.766833   1.410943   2.421147   0.000000
     5  O    2.853858   4.163814   5.068836   5.179230   0.000000
     6  C    2.500574   5.282790   6.356396   6.267134   1.418968
     7  O    3.716536   2.398376   3.739763   3.639963   2.255581
     8  C    1.529355   6.068957   7.440362   7.232811   2.420333
     9  C    6.042362   2.499020   1.530884   2.863599   3.855865
    10  C    2.500494   3.227573   4.837367   4.457171   1.408547
    11  C    7.640798   2.360911   1.520552   1.416692   5.770507
    12  C    4.877513   1.524659   2.497720   2.413494   2.958871
    13  C    1.531115   4.268681   6.100799   5.626311   2.406924
    14  H    1.085244   6.314682   8.218356   7.652100   3.820173
    15  H    1.088102   5.432338   7.535192   6.649691   3.302266
    16  H    5.718711   1.087694   3.253379   2.053275   4.712127
    17  H    5.047279   1.081408   3.841459   2.012479   4.143095
    18  H    7.470342   3.311099   1.087077   2.718963   5.010866
    19  H    8.189405   3.828816   1.085808   3.347104   5.876269
    20  H    2.797931   5.164033   6.465876   6.049099   2.050635
    21  H    3.452983   5.999613   6.655098   6.862010   2.007976
    22  H    2.157703   6.526011   7.633707   7.715230   2.713154
    23  H    2.168757   6.955152   8.377257   8.073660   3.347049
    24  H    6.235226   2.780796   2.157167   3.298088   4.388871
    25  H    6.034168   3.441988   2.170076   3.831346   3.576256
    26  H    2.783257   2.985192   4.956823   4.111491   2.030520
    27  H    8.584022   3.260751   2.163779   2.009333   6.652894
    28  H    7.865352   2.623807   2.158648   2.047076   6.224289
    29  H    4.876807   2.141415   2.789019   2.690675   2.653369
    30  H    2.163168   4.743228   6.212012   6.098479   2.683107
    31  H    2.170526   4.070110   6.258816   5.466583   3.331162
                    6          7          8          9         10
     6  C    0.000000
     7  O    3.551697   0.000000
     8  C    1.520176   4.125270   0.000000
     9  C    5.234911   2.397987   6.165506   0.000000
    10  C    2.365019   1.388197   2.874250   3.598635   0.000000
    11  C    7.001814   4.134418   8.001114   2.508760   5.208140
    12  C    4.238852   1.418821   5.151948   1.520921   2.389874
    13  C    2.869298   2.372346   2.512700   4.752924   1.515964
    14  H    3.447202   4.512720   2.165357   6.868331   3.441280
    15  H    2.804750   4.084833   2.150977   6.381597   2.802759
    16  H    5.888851   2.614142   6.474785   2.769529   3.629781
    17  H    5.037346   2.704648   5.751911   3.447340   3.082550
    18  H    6.172132   4.125458   7.410952   2.158797   4.994304
    19  H    7.198540   4.539433   8.253616   2.164142   5.717406
    20  H    1.087634   3.875625   2.158918   5.517219   2.627592
    21  H    1.080932   4.263047   2.167350   5.597920   3.260199
    22  H    2.138394   4.342016   1.087300   6.265586   3.312866
    23  H    2.139596   5.147736   1.086296   7.162195   3.839352
    24  H    5.802403   2.575073   6.521426   1.087716   3.936885
    25  H    4.930587   2.693710   5.907923   1.085302   3.705675
    26  H    2.605800   2.035617   3.257931   3.971242   1.086501
    27  H    7.824011   5.157801   8.903784   3.457258   6.155899
    28  H    7.516123   4.310295   8.364397   2.807763   5.513961
    29  H    3.764315   2.052234   4.919301   2.142917   2.458214
    30  H    3.294672   2.557864   2.817957   4.747054   2.124139
    31  H    3.835832   2.649968   3.460669   4.992585   2.132576
                   11         12         13         14         15
    11  C    0.000000
    12  C    2.866367   0.000000
    13  C    6.379048   3.671292   0.000000
    14  H    8.499677   5.772233   2.158384   0.000000
    15  H    7.681615   5.053062   2.152735   1.746668   0.000000
    16  H    2.622152   2.150038   4.364534   6.417385   5.757400
    17  H    3.267517   2.164250   4.026129   5.889476   4.806215
    18  H    2.138710   2.807739   6.393270   8.428763   7.607433
    19  H    2.140806   3.443585   6.907040   9.029955   8.471462
    20  H    6.946406   4.340815   3.275731   3.806954   2.665581
    21  H    7.474518   4.810698   3.836194   4.291109   3.810616
    22  H    8.329684   5.468047   2.822073   2.459129   3.046749
    23  H    8.914087   6.099239   3.461130   2.548788   2.447456
    24  H    2.809928   2.134460   4.812265   6.936450   6.654835
    25  H    3.455592   2.148862   4.856669   6.857518   6.490635
    26  H    5.104121   2.527906   2.155266   3.789341   2.648110
    27  H    1.081341   3.831058   7.378344   9.473859   8.557943
    28  H    1.087646   3.278914   6.495248   8.629624   7.962896
    29  H    3.282136   1.083886   3.939979   5.876188   4.949968
    30  H    6.644746   3.968141   1.086888   2.464101   3.051793
    31  H    6.292292   3.856229   1.085167   2.536856   2.451770
                   16         17         18         19         20
    16  H    0.000000
    17  H    1.762008   0.000000
    18  H    3.961403   4.109805   0.000000
    19  H    4.022422   4.851273   1.751279   0.000000
    20  H    5.883361   4.740902   6.192565   7.398613   0.000000
    21  H    6.656953   5.855966   6.355782   7.421665   1.757526
    22  H    6.837226   6.360617   7.664666   8.341838   3.044926
    23  H    7.413273   6.538685   8.269595   9.217769   2.455485
    24  H    2.609025   3.776852   3.051742   2.455433   6.172736
    25  H    3.773017   4.278550   2.462736   2.546585   5.359087
    26  H    3.576062   2.520520   5.001778   5.945949   2.395547
    27  H    3.578571   4.017642   2.439197   2.524144   7.686993
    28  H    2.413319   3.575392   3.044392   2.454165   7.539047
    29  H    3.038710   2.456928   2.663562   3.796203   3.719475
    30  H    4.701439   4.717435   6.590060   6.887291   3.963592
    31  H    3.981243   3.730962   6.662145   7.075649   4.053134
                   21         22         23         24         25
    21  H    0.000000
    22  H    2.445685   0.000000
    23  H    2.525556   1.752983   0.000000
    24  H    6.240848   6.527034   7.569161   0.000000
    25  H    5.107561   5.878692   6.893021   1.753324   0.000000
    26  H    3.552324   3.959947   4.030497   4.434598   4.240078
    27  H    8.245902   9.273860   9.775608   3.816288   4.294298
    28  H    8.056770   8.629075   9.326549   2.673433   3.816520
    29  H    4.227148   5.340637   5.764453   3.028685   2.441434
    30  H    4.078464   2.694668   3.828866   4.654353   4.714872
    31  H    4.849771   3.828806   4.297774   4.915403   5.306759
                   26         27         28         29         30
    26  H    0.000000
    27  H    5.954940   0.000000
    28  H    5.512717   1.759366   0.000000
    29  H    2.359900   4.061488   3.957499   0.000000
    30  H    3.034830   7.688877   6.668956   4.365758   0.000000
    31  H    2.460210   7.288154   6.284931   4.290733   1.756578
                   31
    31  H    0.000000
 Stoichiometry    C10H18O3
 Framework group  C1[X(C10H18O3)]
 Deg. of freedom    87
 Full point group                 C1      NOp   1
 Largest Abelian subgroup         C1      NOp   1
 Largest concise Abelian subgroup C1      NOp   1
                         Standard orientation:                         
 ---------------------------------------------------------------------
 Center     Atomic      Atomic             Coordinates (Angstroms)
 Number     Number       Type             X           Y           Z
 ---------------------------------------------------------------------
      1          6           0       -3.593136   -1.003357    0.086265
      2          6           0        1.864143   -1.183089   -0.377783
      3          6           0        3.418460    1.143280    0.243448
      4          8           0        3.080001   -0.887935   -1.029958
      5          8           0       -1.635246    1.060713   -0.139094
      6          6           0       -2.836809    1.173000   -0.885490
      7          8           0       -0.020573   -0.232064    0.760463
      8          6           0       -3.977282    0.451832   -0.185367
      9          6           0        2.066849    0.935710    0.931684
     10          6           0       -1.203550   -0.268700    0.034988
     11          6           0        3.998216   -0.187447   -0.209462
     12          6           0        1.157593    0.100667    0.043339
     13          6           0       -2.238429   -1.073405    0.796318
     14          1           0       -4.352461   -1.494550    0.686189
     15          1           0       -3.535047   -1.543294   -0.856635
     16          1           0        2.054901   -1.799592    0.497782
     17          1           0        1.261786   -1.749417   -1.074835
     18          1           0        3.298592    1.791218   -0.621158
     19          1           0        4.117150    1.628242    0.918446
     20          1           0       -2.676867    0.763432   -1.880287
     21          1           0       -3.031619    2.231839   -0.982050
     22          1           0       -4.196098    0.958738    0.751322
     23          1           0       -4.868819    0.508112   -0.803455
     24          1           0        2.210348    0.411545    1.873908
     25          1           0        1.594789    1.887235    1.154484
     26          1           0       -1.026348   -0.700160   -0.946300
     27          1           0        4.890988   -0.047471   -0.803316
     28          1           0        4.249676   -0.807385    0.648104
     29          1           0        0.893279    0.668464   -0.841282
     30          1           0       -2.317486   -0.663747    1.799939
     31          1           0       -1.896537   -2.099883    0.880221
 ---------------------------------------------------------------------
 Rotational constants (GHZ):           2.1670018           0.3565207           0.3383601
 Standard basis: 6-311++G(2d,2p) (5D, 7F)
 There are   557 symmetry adapted cartesian basis functions of A   symmetry.
 There are   531 symmetry adapted basis functions of A   symmetry.
   531 basis functions,   762 primitive gaussians,   557 cartesian basis functions
    51 alpha electrons       51 beta electrons
       nuclear repulsion energy       877.4958349343 Hartrees.
 NAtoms=   31 NActive=   31 NUniq=   31 SFac= 1.00D+00 NAtFMM=   60 NAOKFM=F Big=F
 Integral buffers will be    131072 words long.
 Raffenetti 2 integral format.
 Two-electron integral symmetry is turned on.
 ------------------------------------------------------------------------------
 Polarizable Continuum Model (PCM)
 =================================
 Model                : PCM.
 Atomic radii         : SMD-Coulomb.
 Polarization charges : Total charges.
 Charge compensation  : None.
 Solution method      : On-the-fly selection.
 Cavity type          : VdW (van der Waals Surface) (Alpha=1.000).
 Cavity algorithm     : GePol (No added spheres)
                        Default sphere list used, NSphG=   31.
                        Lebedev-Laikov grids with approx.  5.0 points / Ang**2.
                        Smoothing algorithm: York/Karplus (Gamma=1.0000).
                        Polarization charges: spherical gaussians, with
                                              point-specific exponents (IZeta= 3).
                        Self-potential: point-specific (ISelfS= 7).
                        Self-field    : sphere-specific E.n sum rule (ISelfD= 2).
 1st derivatives      : Analytical E(r).r(x)/FMM algorithm (CHGder, D1EAlg=3).
                        Cavity 1st derivative terms included.
 Solvent              : Water, Eps=  78.355300 Eps(inf)=   1.777849
 ------------------------------------------------------------------------------
 ------------------------------------------------------------------------------
 Atomic radii for non-electrostatic terms: SMD-CDS.
 ------------------------------------------------------------------------------
 Nuclear repulsion after PCM non-electrostatic terms =      877.5022495895 Hartrees.
 One-electron integrals computed using PRISM.
 NBasis=   531 RedAO= T EigKep=  5.75D-06  NBF=   531
 NBsUse=   531 1.00D-06 EigRej= -1.00D+00 NBFU=   531
 ExpMin= 3.60D-02 ExpMax= 8.59D+03 ExpMxC= 1.30D+03 IAcc=3 IRadAn=         5 AccDes= 0.00D+00
 Harris functional with IExCor= 1009 and IRadAn=       5 diagonalized for initial guess.
 HarFok:  IExCor= 1009 AccDes= 0.00D+00 IRadAn=         5 IDoV= 1 UseB2=F ITyADJ=14
 ICtDFT=  3500011 ScaDFX=  1.000000  1.000000  1.000000  1.000000
 FoFCou: FMM=F IPFlag=           0 FMFlag=      100000 FMFlg1=           0
         NFxFlg=           0 DoJE=T BraDBF=F KetDBF=T FulRan=T
         wScrn=  0.000000 ICntrl=       500 IOpCl=  0 I1Cent=   200000004 NGrid=           0
         NMat0=    1 NMatS0=      1 NMatT0=    0 NMatD0=    1 NMtDS0=    0 NMtDT0=    0
 Petite list used in FoFCou.
 Requested convergence on RMS density matrix=1.00D-08 within 128 cycles.
 Requested convergence on MAX density matrix=1.00D-06.
 Requested convergence on             energy=1.00D-06.
 No special actions if energy rises.
 Inv3:  Mode=1 IEnd=    12204867.
 Iteration    1 A*A^-1 deviation from unit magnitude is 6.22D-15 for    238.
 Iteration    1 A*A^-1 deviation from orthogonality  is 4.32D-15 for   1664    233.
 Iteration    1 A^-1*A deviation from unit magnitude is 5.22D-15 for    211.
 Iteration    1 A^-1*A deviation from orthogonality  is 8.97D-15 for   1741   1685.
 Error on total polarization charges =  0.06358
 SCF Done:  E(RM062X) =  -617.506886903     A.U. after   12 cycles
            NFock= 12  Conv=0.45D-08     -V/T= 2.0035
 SMD-CDS (non-electrostatic) energy       (kcal/mol) =       4.03
 (included in total energy above)

 **********************************************************************

            Population analysis using the SCF Density.

 **********************************************************************

 Orbital symmetries:
       Occupied  (A) (A) (A) (A) (A) (A) (A) (A) (A) (A) (A) (A)
                 (A) (A) (A) (A) (A) (A) (A) (A) (A) (A) (A) (A)
                 (A) (A) (A) (A) (A) (A) (A) (A) (A) (A) (A) (A)
                 (A) (A) (A) (A) (A) (A) (A) (A) (A) (A) (A) (A)
                 (A) (A) (A)
       Virtual   (A) (A) (A) (A) (A) (A) (A) (A) (A) (A) (A) (A)
                 (A) (A) (A) (A) (A) (A) (A) (A) (A) (A) (A) (A)
                 (A) (A) (A) (A) (A) (A) (A) (A) (A) (A) (A) (A)
                 (A) (A) (A) (A) (A) (A) (A) (A) (A) (A) (A) (A)
                 (A) (A) (A) (A) (A) (A) (A) (A) (A) (A) (A) (A)
                 (A) (A) (A) (A) (A) (A) (A) (A) (A) (A) (A) (A)
                 (A) (A) (A) (A) (A) (A) (A) (A) (A) (A) (A) (A)
                 (A) (A) (A) (A) (A) (A) (A) (A) (A) (A) (A) (A)
                 (A) (A) (A) (A) (A) (A) (A) (A) (A) (A) (A) (A)
                 (A) (A) (A) (A) (A) (A) (A) (A) (A) (A) (A) (A)
                 (A) (A) (A) (A) (A) (A) (A) (A) (A) (A) (A) (A)
                 (A) (A) (A) (A) (A) (A) (A) (A) (A) (A) (A) (A)
                 (A) (A) (A) (A) (A) (A) (A) (A) (A) (A) (A) (A)
                 (A) (A) (A) (A) (A) (A) (A) (A) (A) (A) (A) (A)
                 (A) (A) (A) (A) (A) (A) (A) (A) (A) (A) (A) (A)
                 (A) (A) (A) (A) (A) (A) (A) (A) (A) (A) (A) (A)
                 (A) (A) (A) (A) (A) (A) (A) (A) (A) (A) (A) (A)
                 (A) (A) (A) (A) (A) (A) (A) (A) (A) (A) (A) (A)
                 (A) (A) (A) (A) (A) (A) (A) (A) (A) (A) (A) (A)
                 (A) (A) (A) (A) (A) (A) (A) (A) (A) (A) (A) (A)
                 (A) (A) (A) (A) (A) (A) (A) (A) (A) (A) (A) (A)
                 (A) (A) (A) (A) (A) (A) (A) (A) (A) (A) (A) (A)
                 (A) (A) (A) (A) (A) (A) (A) (A) (A) (A) (A) (A)
                 (A) (A) (A) (A) (A) (A) (A) (A) (A) (A) (A) (A)
                 (A) (A) (A) (A) (A) (A) (A) (A) (A) (A) (A) (A)
                 (A) (A) (A) (A) (A) (A) (A) (A) (A) (A) (A) (A)
                 (A) (A) (A) (A) (A) (A) (A) (A) (A) (A) (A) (A)
                 (A) (A) (A) (A) (A) (A) (A) (A) (A) (A) (A) (A)
                 (A) (A) (A) (A) (A) (A) (A) (A) (A) (A) (A) (A)
                 (A) (A) (A) (A) (A) (A) (A) (A) (A) (A) (A) (A)
                 (A) (A) (A) (A) (A) (A) (A) (A) (A) (A) (A) (A)
                 (A) (A) (A) (A) (A) (A) (A) (A) (A) (A) (A) (A)
                 (A) (A) (A) (A) (A) (A) (A) (A) (A) (A) (A) (A)
                 (A) (A) (A) (A) (A) (A) (A) (A) (A) (A) (A) (A)
                 (A) (A) (A) (A) (A) (A) (A) (A) (A) (A) (A) (A)
                 (A) (A) (A) (A) (A) (A) (A) (A) (A) (A) (A) (A)
                 (A) (A) (A) (A) (A) (A) (A) (A) (A) (A) (A) (A)
                 (A) (A) (A) (A) (A) (A) (A) (A) (A) (A) (A) (A)
                 (A) (A) (A) (A) (A) (A) (A) (A) (A) (A) (A) (A)
                 (A) (A) (A) (A) (A) (A) (A) (A) (A) (A) (A) (A)
 The electronic state is 1-A.
 Alpha  occ. eigenvalues --  -19.63666 -19.62935 -19.62829 -10.63182 -10.58236
 Alpha  occ. eigenvalues --  -10.57331 -10.57251 -10.57215 -10.52482 -10.52460
 Alpha  occ. eigenvalues --  -10.52416 -10.52328 -10.52123  -1.20649  -1.16723
 Alpha  occ. eigenvalues --   -1.14149  -0.90592  -0.89396  -0.86956  -0.83832
 Alpha  occ. eigenvalues --   -0.74614  -0.73559  -0.72897  -0.69920  -0.66043
 Alpha  occ. eigenvalues --   -0.64433  -0.60128  -0.57991  -0.57449  -0.55505
 Alpha  occ. eigenvalues --   -0.54799  -0.52723  -0.51720  -0.50808  -0.50213
 Alpha  occ. eigenvalues --   -0.48078  -0.45988  -0.45543  -0.45515  -0.44188
 Alpha  occ. eigenvalues --   -0.43788  -0.40355  -0.40306  -0.40078  -0.39144
 Alpha  occ. eigenvalues --   -0.38322  -0.38055  -0.37084  -0.35690  -0.32454
 Alpha  occ. eigenvalues --   -0.31687
 Alpha virt. eigenvalues --    0.00498   0.01277   0.01390   0.01485   0.02585
 Alpha virt. eigenvalues --    0.02850   0.03037   0.04092   0.04223   0.04705
 Alpha virt. eigenvalues --    0.04807   0.05093   0.05914   0.06147   0.06973
 Alpha virt. eigenvalues --    0.07504   0.07954   0.08525   0.09413   0.10231
 Alpha virt. eigenvalues --    0.10640   0.11009   0.11356   0.11811   0.11996
 Alpha virt. eigenvalues --    0.12656   0.12931   0.13269   0.13575   0.13745
 Alpha virt. eigenvalues --    0.14083   0.14340   0.14826   0.15101   0.15374
 Alpha virt. eigenvalues --    0.15582   0.15838   0.16118   0.16428   0.16621
 Alpha virt. eigenvalues --    0.16987   0.17246   0.17414   0.17892   0.18010
 Alpha virt. eigenvalues --    0.18320   0.18926   0.19207   0.19434   0.20129
 Alpha virt. eigenvalues --    0.20256   0.20719   0.20863   0.21098   0.21926
 Alpha virt. eigenvalues --    0.22254   0.23245   0.23402   0.24393   0.24706
 Alpha virt. eigenvalues --    0.25114   0.25769   0.26508   0.27461   0.27931
 Alpha virt. eigenvalues --    0.28396   0.28515   0.28827   0.29558   0.29826
 Alpha virt. eigenvalues --    0.29980   0.30490   0.31390   0.31883   0.32185
 Alpha virt. eigenvalues --    0.32493   0.32831   0.33213   0.34127   0.35062
 Alpha virt. eigenvalues --    0.35289   0.35654   0.35896   0.36178   0.36766
 Alpha virt. eigenvalues --    0.37108   0.37199   0.37498   0.37769   0.38252
 Alpha virt. eigenvalues --    0.38511   0.39037   0.39380   0.40589   0.41013
 Alpha virt. eigenvalues --    0.41921   0.42159   0.42488   0.43851   0.45547
 Alpha virt. eigenvalues --    0.46061   0.48638   0.49069   0.50881   0.51137
 Alpha virt. eigenvalues --    0.51803   0.52702   0.53206   0.54001   0.55351
 Alpha virt. eigenvalues --    0.56291   0.57001   0.58236   0.59161   0.59862
 Alpha virt. eigenvalues --    0.60165   0.60286   0.61072   0.61590   0.61901
 Alpha virt. eigenvalues --    0.62977   0.63161   0.63553   0.64114   0.64569
 Alpha virt. eigenvalues --    0.64648   0.65323   0.66253   0.66579   0.66613
 Alpha virt. eigenvalues --    0.67664   0.69081   0.69784   0.70085   0.70841
 Alpha virt. eigenvalues --    0.71489   0.71551   0.73039   0.73098   0.73739
 Alpha virt. eigenvalues --    0.74476   0.74768   0.74910   0.75509   0.76338
 Alpha virt. eigenvalues --    0.77086   0.77315   0.77568   0.77925   0.79098
 Alpha virt. eigenvalues --    0.82059   0.82666   0.83914   0.84690   0.85561
 Alpha virt. eigenvalues --    0.86932   0.87605   0.89190   0.89682   0.90181
 Alpha virt. eigenvalues --    0.90845   0.91849   0.92723   0.94388   0.95666
 Alpha virt. eigenvalues --    0.95849   0.98163   1.00416   1.00989   1.01621
 Alpha virt. eigenvalues --    1.03360   1.04410   1.05185   1.06583   1.06872
 Alpha virt. eigenvalues --    1.08302   1.09243   1.09339   1.10336   1.11983
 Alpha virt. eigenvalues --    1.12376   1.13811   1.14565   1.15923   1.16534
 Alpha virt. eigenvalues --    1.17079   1.18489   1.18700   1.19088   1.19647
 Alpha virt. eigenvalues --    1.20541   1.21937   1.23282   1.23981   1.24286
 Alpha virt. eigenvalues --    1.24573   1.25517   1.26144   1.26869   1.27161
 Alpha virt. eigenvalues --    1.28116   1.28229   1.29285   1.30348   1.31246
 Alpha virt. eigenvalues --    1.31888   1.32403   1.32817   1.33456   1.34099
 Alpha virt. eigenvalues --    1.34795   1.35832   1.36209   1.36385   1.37317
 Alpha virt. eigenvalues --    1.38178   1.39255   1.40058   1.40260   1.41557
 Alpha virt. eigenvalues --    1.41814   1.42842   1.43211   1.43891   1.44390
 Alpha virt. eigenvalues --    1.45235   1.45858   1.47073   1.47820   1.48373
 Alpha virt. eigenvalues --    1.48904   1.49743   1.49916   1.50334   1.51366
 Alpha virt. eigenvalues --    1.52554   1.53405   1.54730   1.55003   1.55812
 Alpha virt. eigenvalues --    1.56298   1.57315   1.57807   1.58609   1.58819
 Alpha virt. eigenvalues --    1.59777   1.60190   1.61537   1.61857   1.61893
 Alpha virt. eigenvalues --    1.64678   1.64860   1.65129   1.65975   1.66877
 Alpha virt. eigenvalues --    1.68120   1.69325   1.70174   1.71116   1.71681
 Alpha virt. eigenvalues --    1.73517   1.75153   1.75964   1.76862   1.78663
 Alpha virt. eigenvalues --    1.78879   1.79716   1.81131   1.82198   1.83946
 Alpha virt. eigenvalues --    1.87714   1.89771   1.90756   1.95549   1.96879
 Alpha virt. eigenvalues --    2.01365   2.06793   2.12205   2.13247   2.18529
 Alpha virt. eigenvalues --    2.24831   2.25782   2.31851   2.33639   2.35613
 Alpha virt. eigenvalues --    2.41401   2.43014   2.45299   2.49493   2.52069
 Alpha virt. eigenvalues --    2.56519   2.76381   2.76657   2.78856   2.81639
 Alpha virt. eigenvalues --    2.87891   2.90563   2.92457   2.93822   2.94418
 Alpha virt. eigenvalues --    2.96940   2.98037   3.00361   3.02185   3.04276
 Alpha virt. eigenvalues --    3.06770   3.07648   3.08850   3.09131   3.11025
 Alpha virt. eigenvalues --    3.13097   3.14811   3.17762   3.19234   3.23999
 Alpha virt. eigenvalues --    3.25934   3.29332   3.31458   3.33693   3.35593
 Alpha virt. eigenvalues --    3.36109   3.37106   3.39284   3.40771   3.41538
 Alpha virt. eigenvalues --    3.43490   3.43963   3.44938   3.46271   3.46288
 Alpha virt. eigenvalues --    3.47957   3.48903   3.50155   3.50848   3.52277
 Alpha virt. eigenvalues --    3.53041   3.53997   3.54774   3.55918   3.56773
 Alpha virt. eigenvalues --    3.57217   3.57986   3.58361   3.59635   3.60870
 Alpha virt. eigenvalues --    3.61900   3.62036   3.62476   3.63185   3.65444
 Alpha virt. eigenvalues --    3.66291   3.66878   3.68110   3.69040   3.70250
 Alpha virt. eigenvalues --    3.70458   3.71721   3.72720   3.73483   3.73969
 Alpha virt. eigenvalues --    3.74837   3.75214   3.76376   3.77156   3.78317
 Alpha virt. eigenvalues --    3.78597   3.78922   3.79530   3.81571   3.83897
 Alpha virt. eigenvalues --    3.85664   3.87444   3.89372   3.90585   3.91965
 Alpha virt. eigenvalues --    3.92930   3.94452   3.94980   3.96949   3.98745
 Alpha virt. eigenvalues --    4.00303   4.02731   4.03208   4.03975   4.04774
 Alpha virt. eigenvalues --    4.05125   4.05624   4.06812   4.07399   4.08416
 Alpha virt. eigenvalues --    4.08850   4.09162   4.10189   4.11824   4.12315
 Alpha virt. eigenvalues --    4.12818   4.13375   4.14171   4.14913   4.15549
 Alpha virt. eigenvalues --    4.17190   4.18562   4.19072   4.19451   4.20517
 Alpha virt. eigenvalues --    4.21802   4.22763   4.25378   4.26344   4.27111
 Alpha virt. eigenvalues --    4.28484   4.29063   4.30316   4.31479   4.32979
 Alpha virt. eigenvalues --    4.33634   4.34199   4.34913   4.37253   4.40414
 Alpha virt. eigenvalues --    4.42762   4.44708   4.45387   4.46132   4.55366
 Alpha virt. eigenvalues --    4.58911   4.61678   4.76687   4.77375   4.83560
 Alpha virt. eigenvalues --    4.89103   4.92440   4.93533   4.99685   5.00511
 Alpha virt. eigenvalues --    5.06624   5.07368   5.08428   5.09222   5.12394
 Alpha virt. eigenvalues --    5.12818   5.14552   5.15368   5.30020   5.35024
 Alpha virt. eigenvalues --    5.37723   5.56912   5.58812   5.62911   5.86737
 Alpha virt. eigenvalues --    5.88646   6.04115   7.02788   7.03944   7.05517
 Alpha virt. eigenvalues --    7.08829   7.10551   7.12477   7.13130   7.16152
 Alpha virt. eigenvalues --    7.23436   7.36038   7.39845   7.44554   7.53574
 Alpha virt. eigenvalues --    7.55027   7.62403  23.95946  23.97869  24.07443
 Alpha virt. eigenvalues --   24.08182  24.12063  24.13268  24.14572  24.16146
 Alpha virt. eigenvalues --   24.17095  24.18686  50.17480  50.19435  50.22954
          Condensed to atoms (all electrons):
               1          2          3          4          5          6
     1  C    5.685826   0.001700  -0.001557  -0.000333   0.018608  -0.081207
     2  C    0.001700   6.187079   0.160663   0.158422   0.032726   0.016921
     3  C   -0.001557   0.160663   5.559224  -0.026538  -0.005058   0.002066
     4  O   -0.000333   0.158422  -0.026538   8.397079   0.000235  -0.000619
     5  O    0.018608   0.032726  -0.005058   0.000235   8.404715  -0.001254
     6  C   -0.081207   0.016921   0.002066  -0.000619  -0.001254   5.527204
     7  O    0.018560  -0.199835  -0.001577   0.004923   0.020764  -0.005758
     8  C    0.032645  -0.004839   0.000284   0.000044  -0.061393   0.041433
     9  C    0.012615  -0.160701   0.092523  -0.006089  -0.090067   0.010042
    10  C    0.071690  -0.009869  -0.129294  -0.008841   0.293278  -0.180574
    11  C   -0.001461  -0.228949   0.080885   0.074349  -0.000574  -0.001618
    12  C   -0.116545  -0.416352  -0.112925   0.003828  -0.013372   0.013481
    13  C   -0.017064   0.173998   0.018431  -0.000204  -0.033750   0.021666
    14  H    0.427911   0.001021   0.000008  -0.000002  -0.003172   0.003344
    15  H    0.521712   0.001174   0.000062   0.000032   0.000906  -0.014605
    16  H   -0.002606   0.373131  -0.008183  -0.036639   0.000272  -0.001467
    17  H    0.005745   0.458217   0.013174  -0.070010  -0.000725  -0.000814
    18  H    0.000325   0.005906   0.494424   0.000381   0.000547  -0.000698
    19  H   -0.000047  -0.008074   0.429808   0.007304  -0.000398   0.000181
    20  H   -0.003374   0.003696   0.000849   0.000068  -0.025148   0.465326
    21  H    0.008445   0.000021  -0.000080  -0.000031  -0.072434   0.439162
    22  H   -0.014532   0.000041   0.000109   0.000006  -0.000740  -0.079782
    23  H   -0.059515  -0.000589  -0.000030  -0.000011   0.006044  -0.031034
    24  H    0.001248  -0.032613  -0.077213  -0.000893   0.000283  -0.001290
    25  H   -0.001721   0.015143   0.005302  -0.001983   0.000539   0.001188
    26  H   -0.043453  -0.049186  -0.007864   0.000798  -0.068727   0.013038
    27  H   -0.000086   0.013512  -0.046808  -0.070999  -0.000131  -0.000136
    28  H    0.000134  -0.044907  -0.045390  -0.040489   0.000035   0.000020
    29  H   -0.006039  -0.105493  -0.022922  -0.015670   0.003775   0.002247
    30  H   -0.018278   0.003374   0.000797   0.000060  -0.008640  -0.007995
    31  H   -0.028304   0.003329   0.000425   0.000374   0.005976   0.005064
               7          8          9         10         11         12
     1  C    0.018560   0.032645   0.012615   0.071690  -0.001461  -0.116545
     2  C   -0.199835  -0.004839  -0.160701  -0.009869  -0.228949  -0.416352
     3  C   -0.001577   0.000284   0.092523  -0.129294   0.080885  -0.112925
     4  O    0.004923   0.000044  -0.006089  -0.008841   0.074349   0.003828
     5  O    0.020764  -0.061393  -0.090067   0.293278  -0.000574  -0.013372
     6  C   -0.005758   0.041433   0.010042  -0.180574  -0.001618   0.013481
     7  O    8.383796   0.012394  -0.142248   0.170895   0.017540   0.330673
     8  C    0.012394   5.545152   0.004848   0.115648   0.000629  -0.039472
     9  C   -0.142248   0.004848   7.617148  -0.008641  -0.168234  -1.594123
    10  C    0.170895   0.115648  -0.008641   6.520009  -0.002706  -0.442332
    11  C    0.017540   0.000629  -0.168234  -0.002706   5.402571   0.187212
    12  C    0.330673  -0.039472  -1.594123  -0.442332   0.187212   7.984812
    13  C   -0.244856  -0.065080  -0.190943  -0.671788  -0.002101  -0.138484
    14  H   -0.002654  -0.025040  -0.000442   0.036785  -0.000025  -0.006856
    15  H   -0.000122  -0.064738  -0.000651  -0.022982   0.000046   0.005106
    16  H    0.008616   0.000640  -0.016978  -0.014067   0.015060   0.009698
    17  H   -0.005504  -0.000799   0.037327   0.023484   0.000397  -0.111267
    18  H   -0.000443   0.000216  -0.024406   0.003309  -0.079356  -0.021626
    19  H   -0.001656  -0.000063  -0.012592  -0.002098  -0.039229  -0.009681
    20  H    0.003640  -0.059163  -0.002173  -0.040880  -0.000029   0.015812
    21  H   -0.002378  -0.041770   0.002168   0.009086  -0.000065  -0.004470
    22  H    0.002584   0.480337  -0.002277  -0.015464   0.000095   0.008009
    23  H    0.000172   0.459857   0.001223   0.008130  -0.000035  -0.002528
    24  H   -0.007012  -0.000619   0.466046   0.021074  -0.013023   0.002447
    25  H    0.004519   0.000690   0.390704  -0.013529   0.003568  -0.011002
    26  H   -0.019326   0.019057   0.031456   0.456333   0.001107   0.079283
    27  H    0.000969  -0.000005   0.005668  -0.002242   0.433826   0.003900
    28  H   -0.000187   0.000085  -0.026965   0.001148   0.475219   0.048581
    29  H   -0.022898  -0.006427   0.030211   0.020252   0.015878   0.443485
    30  H    0.000285  -0.010528   0.003370  -0.117801  -0.000402   0.003478
    31  H    0.000806  -0.000794   0.003865  -0.023800  -0.000866   0.001098
              13         14         15         16         17         18
     1  C   -0.017064   0.427911   0.521712  -0.002606   0.005745   0.000325
     2  C    0.173998   0.001021   0.001174   0.373131   0.458217   0.005906
     3  C    0.018431   0.000008   0.000062  -0.008183   0.013174   0.494424
     4  O   -0.000204  -0.000002   0.000032  -0.036639  -0.070010   0.000381
     5  O   -0.033750  -0.003172   0.000906   0.000272  -0.000725   0.000547
     6  C    0.021666   0.003344  -0.014605  -0.001467  -0.000814  -0.000698
     7  O   -0.244856  -0.002654  -0.000122   0.008616  -0.005504  -0.000443
     8  C   -0.065080  -0.025040  -0.064738   0.000640  -0.000799   0.000216
     9  C   -0.190943  -0.000442  -0.000651  -0.016978   0.037327  -0.024406
    10  C   -0.671788   0.036785  -0.022982  -0.014067   0.023484   0.003309
    11  C   -0.002101  -0.000025   0.000046   0.015060   0.000397  -0.079356
    12  C   -0.138484  -0.006856   0.005106   0.009698  -0.111267  -0.021626
    13  C    6.652998  -0.060323  -0.041384   0.002152  -0.001979   0.001584
    14  H   -0.060323   0.456853   0.000433  -0.000046   0.000350   0.000011
    15  H   -0.041384   0.000433   0.448992   0.000195   0.000008   0.000008
    16  H    0.002152  -0.000046   0.000195   0.470743  -0.015540   0.002514
    17  H   -0.001979   0.000350   0.000008  -0.015540   0.471045  -0.002057
    18  H    0.001584   0.000011   0.000008   0.002514  -0.002057   0.469133
    19  H   -0.000911  -0.000000  -0.000006  -0.001509   0.001927  -0.007553
    20  H    0.018127  -0.001579   0.002860   0.000026   0.000987   0.000057
    21  H    0.004211   0.000562  -0.002231  -0.000054   0.000020  -0.000085
    22  H   -0.003719  -0.000226   0.002549   0.000076   0.000007   0.000012
    23  H   -0.000943  -0.009426  -0.006030  -0.000072  -0.000047  -0.000012
    24  H    0.001109   0.000051  -0.000004  -0.001062  -0.002708   0.003536
    25  H    0.001447  -0.000080   0.000071  -0.002394  -0.000011  -0.004053
    26  H   -0.094648  -0.002746  -0.008538   0.002564  -0.003919   0.000301
    27  H    0.000229  -0.000001   0.000005  -0.001306   0.002120  -0.002899
    28  H   -0.000013  -0.000001  -0.000007   0.007875  -0.004856   0.002058
    29  H   -0.019351   0.000007  -0.000437  -0.005095   0.000142  -0.009661
    30  H    0.518958  -0.002082   0.004418   0.000402   0.001079   0.000161
    31  H    0.414954  -0.011928  -0.006193  -0.002861  -0.000273  -0.000054
              19         20         21         22         23         24
     1  C   -0.000047  -0.003374   0.008445  -0.014532  -0.059515   0.001248
     2  C   -0.008074   0.003696   0.000021   0.000041  -0.000589  -0.032613
     3  C    0.429808   0.000849  -0.000080   0.000109  -0.000030  -0.077213
     4  O    0.007304   0.000068  -0.000031   0.000006  -0.000011  -0.000893
     5  O   -0.000398  -0.025148  -0.072434  -0.000740   0.006044   0.000283
     6  C    0.000181   0.465326   0.439162  -0.079782  -0.031034  -0.001290
     7  O   -0.001656   0.003640  -0.002378   0.002584   0.000172  -0.007012
     8  C   -0.000063  -0.059163  -0.041770   0.480337   0.459857  -0.000619
     9  C   -0.012592  -0.002173   0.002168  -0.002277   0.001223   0.466046
    10  C   -0.002098  -0.040880   0.009086  -0.015464   0.008130   0.021074
    11  C   -0.039229  -0.000029  -0.000065   0.000095  -0.000035  -0.013023
    12  C   -0.009681   0.015812  -0.004470   0.008009  -0.002528   0.002447
    13  C   -0.000911   0.018127   0.004211  -0.003719  -0.000943   0.001109
    14  H   -0.000000  -0.001579   0.000562  -0.000226  -0.009426   0.000051
    15  H   -0.000006   0.002860  -0.002231   0.002549  -0.006030  -0.000004
    16  H   -0.001509   0.000026  -0.000054   0.000076  -0.000072  -0.001062
    17  H    0.001927   0.000987   0.000020   0.000007  -0.000047  -0.002708
    18  H   -0.007553   0.000057  -0.000085   0.000012  -0.000012   0.003536
    19  H    0.476348  -0.000007   0.000030  -0.000014   0.000003  -0.005218
    20  H   -0.000007   0.476347  -0.006054   0.004816  -0.000789   0.000061
    21  H    0.000030  -0.006054   0.474055  -0.003301  -0.009933  -0.000048
    22  H   -0.000014   0.004816  -0.003301   0.471247  -0.011516  -0.000007
    23  H    0.000003  -0.000789  -0.009933  -0.011516   0.474623  -0.000009
    24  H   -0.005218   0.000061  -0.000048  -0.000007  -0.000009   0.456239
    25  H   -0.012130   0.000123  -0.000369   0.000042   0.000013  -0.016629
    26  H    0.000223  -0.006978  -0.001265  -0.001836   0.002107  -0.000852
    27  H   -0.009256   0.000015  -0.000005   0.000007  -0.000003  -0.000945
    28  H    0.003389  -0.000022   0.000003  -0.000006   0.000004  -0.003162
    29  H    0.001799  -0.002560   0.000705  -0.000503   0.000214   0.005756
    30  H   -0.000031   0.001235  -0.000890   0.001969  -0.003515  -0.000389
    31  H    0.000035  -0.000184   0.001240  -0.001480   0.001843   0.000170
              25         26         27         28         29         30
     1  C   -0.001721  -0.043453  -0.000086   0.000134  -0.006039  -0.018278
     2  C    0.015143  -0.049186   0.013512  -0.044907  -0.105493   0.003374
     3  C    0.005302  -0.007864  -0.046808  -0.045390  -0.022922   0.000797
     4  O   -0.001983   0.000798  -0.070999  -0.040489  -0.015670   0.000060
     5  O    0.000539  -0.068727  -0.000131   0.000035   0.003775  -0.008640
     6  C    0.001188   0.013038  -0.000136   0.000020   0.002247  -0.007995
     7  O    0.004519  -0.019326   0.000969  -0.000187  -0.022898   0.000285
     8  C    0.000690   0.019057  -0.000005   0.000085  -0.006427  -0.010528
     9  C    0.390704   0.031456   0.005668  -0.026965   0.030211   0.003370
    10  C   -0.013529   0.456333  -0.002242   0.001148   0.020252  -0.117801
    11  C    0.003568   0.001107   0.433826   0.475219   0.015878  -0.000402
    12  C   -0.011002   0.079283   0.003900   0.048581   0.443485   0.003478
    13  C    0.001447  -0.094648   0.000229  -0.000013  -0.019351   0.518958
    14  H   -0.000080  -0.002746  -0.000001  -0.000001   0.000007  -0.002082
    15  H    0.000071  -0.008538   0.000005  -0.000007  -0.000437   0.004418
    16  H   -0.002394   0.002564  -0.001306   0.007875  -0.005095   0.000402
    17  H   -0.000011  -0.003919   0.002120  -0.004856   0.000142   0.001079
    18  H   -0.004053   0.000301  -0.002899   0.002058  -0.009661   0.000161
    19  H   -0.012130   0.000223  -0.009256   0.003389   0.001799  -0.000031
    20  H    0.000123  -0.006978   0.000015  -0.000022  -0.002560   0.001235
    21  H   -0.000369  -0.001265  -0.000005   0.000003   0.000705  -0.000890
    22  H    0.000042  -0.001836   0.000007  -0.000006  -0.000503   0.001969
    23  H    0.000013   0.002107  -0.000003   0.000004   0.000214  -0.003515
    24  H   -0.016629  -0.000852  -0.000945  -0.003162   0.005756  -0.000389
    25  H    0.474190  -0.000085   0.001141  -0.000929  -0.008388   0.000269
    26  H   -0.000085   0.450964  -0.000183   0.000665  -0.008727  -0.006121
    27  H    0.001141  -0.000183   0.460138  -0.003478   0.000088  -0.000032
    28  H   -0.000929   0.000665  -0.003478   0.476368  -0.001870   0.000077
    29  H   -0.008388  -0.008727   0.000088  -0.001870   0.431745  -0.002114
    30  H    0.000269  -0.006121  -0.000032   0.000077  -0.002114   0.457928
    31  H   -0.000110   0.004359   0.000001  -0.000120   0.000305  -0.018614
              31
     1  C   -0.028304
     2  C    0.003329
     3  C    0.000425
     4  O    0.000374
     5  O    0.005976
     6  C    0.005064
     7  O    0.000806
     8  C   -0.000794
     9  C    0.003865
    10  C   -0.023800
    11  C   -0.000866
    12  C    0.001098
    13  C    0.414954
    14  H   -0.011928
    15  H   -0.006193
    16  H   -0.002861
    17  H   -0.000273
    18  H   -0.000054
    19  H    0.000035
    20  H   -0.000184
    21  H    0.001240
    22  H   -0.001480
    23  H    0.001843
    24  H    0.000170
    25  H   -0.000110
    26  H    0.004359
    27  H    0.000001
    28  H   -0.000120
    29  H    0.000305
    30  H   -0.018614
    31  H    0.477452
 Mulliken charges:
               1
     1  C   -0.411046
     2  C   -0.348664
     3  C   -0.373595
     4  O   -0.368554
     5  O   -0.403118
     6  C   -0.153529
     7  O   -0.324682
     8  C   -0.333229
     9  C   -0.261686
    10  C   -0.044214
    11  C   -0.169706
    12  C   -0.099869
    13  C   -0.242324
    14  H    0.199292
    15  H    0.179352
    16  H    0.215916
    17  H    0.204479
    18  H    0.168422
    19  H    0.189425
    20  H    0.154897
    21  H    0.205756
    22  H    0.163493
    23  H    0.181803
    24  H    0.205676
    25  H    0.174463
    26  H    0.262200
    27  H    0.216900
    28  H    0.156739
    29  H    0.281544
    30  H    0.199573
    31  H    0.174286
 Sum of Mulliken charges =  -0.00000
 Mulliken charges with hydrogens summed into heavy atoms:
               1
     1  C   -0.032402
     2  C    0.071731
     3  C   -0.015748
     4  O   -0.368554
     5  O   -0.403118
     6  C    0.207124
     7  O   -0.324682
     8  C    0.012068
     9  C    0.118453
    10  C    0.217986
    11  C    0.203933
    12  C    0.181675
    13  C    0.131535
 Electronic spatial extent (au):  <R**2>=           3398.9516
 Charge=             -0.0000 electrons
 Dipole moment (field-independent basis, Debye):
    X=             -1.5894    Y=             -0.4291    Z=             -0.5969  Tot=              1.7512
 Quadrupole moment (field-independent basis, Debye-Ang):
   XX=            -66.3276   YY=            -80.1064   ZZ=            -82.6801
   XY=              5.7170   XZ=              9.0571   YZ=             -2.3537
 Traceless Quadrupole moment (field-independent basis, Debye-Ang):
   XX=             10.0438   YY=             -3.7350   ZZ=             -6.3087
   XY=              5.7170   XZ=              9.0571   YZ=             -2.3537
 Octapole moment (field-independent basis, Debye-Ang**2):
  XXX=             -6.2179  YYY=             -0.0815  ZZZ=             -0.8559  XYY=             -3.0963
  XXY=             18.7015  XXZ=             14.6048  XZZ=            -10.1187  YZZ=              3.1557
  YYZ=             -0.4980  XYZ=             -2.8135
 Hexadecapole moment (field-independent basis, Debye-Ang**3):
 XXXX=          -3432.4461 YYYY=           -514.8878 ZZZZ=           -319.3023 XXXY=             29.4258
 XXXZ=             67.4716 YYYX=            -12.9395 YYYZ=             -4.4130 ZZZX=             10.9656
 ZZZY=             -1.7206 XXYY=           -703.9292 XXZZ=           -675.6325 YYZZ=           -139.4538
 XXYZ=            -35.5431 YYXZ=             11.8379 ZZXY=              4.7060
 N-N= 8.775022495895D+02 E-N=-3.197095622448D+03  KE= 6.153694614045D+02
 D1PCM: PCM CHGder 1st derivatives, ID1Alg=3 FixD1E=F DoIter=F DoCFld=F I1PDM=0.
 Calling FoFJK, ICntrl=      2127 FMM=F ISym2X=0 I1Cent= 0 IOpClX= 0 NMat=1 NMatS=1 NMatT=0.
 ***** Axes restored to original set *****
 -------------------------------------------------------------------
 Center     Atomic                   Forces (Hartrees/Bohr)
 Number     Number              X              Y              Z
 -------------------------------------------------------------------
      1        6           0.002226245    0.003525619    0.000712175
      2        6          -0.000701031    0.005596923    0.002511518
      3        6          -0.001029609   -0.002831939    0.001306735
      4        8           0.002619677   -0.003008844   -0.011739919
      5        8           0.005508258    0.011700849    0.004177309
      6        6          -0.004138300   -0.004693190    0.002538093
      7        8           0.000515406   -0.001820461    0.012715565
      8        6           0.002286502   -0.002005595   -0.001482092
      9        6           0.001486771   -0.001491135   -0.004184006
     10        6          -0.005418051   -0.005892750    0.000985681
     11        6          -0.004000031    0.005105856    0.003350523
     12        6           0.003763498   -0.000814239    0.001108986
     13        6          -0.001119920    0.000242715   -0.003446146
     14        1          -0.001763565   -0.001140772    0.001604028
     15        1           0.000813636   -0.001128289   -0.003066523
     16        1           0.000271720   -0.002263575    0.005756527
     17        1          -0.003679502   -0.002217576   -0.003152326
     18        1          -0.000727811    0.001358820   -0.002966536
     19        1           0.001756125    0.001230504    0.001913847
     20        1           0.000135532   -0.002837280   -0.004904584
     21        1          -0.001051595    0.004459976   -0.000372112
     22        1           0.000126071    0.001554474    0.002971659
     23        1          -0.002174836    0.000012032   -0.001701547
     24        1           0.000396808   -0.002871711    0.002742483
     25        1          -0.001802357    0.002676712    0.000273042
     26        1           0.000609425   -0.003653177   -0.007712827
     27        1           0.003624939    0.000834888   -0.002539595
     28        1           0.000813143   -0.002550090    0.005068589
     29        1          -0.000801383    0.003382433   -0.005485975
     30        1           0.000150198    0.002477559    0.003045870
     31        1           0.001304038   -0.002938737   -0.000028443
 -------------------------------------------------------------------
 Cartesian Forces:  Max     0.012715565 RMS     0.003583771

 GradGradGradGradGradGradGradGradGradGradGradGradGradGradGradGradGradGrad
 Berny optimization.
 FormGI is forming the generalized inverse of G from B-inverse, IUseBI=4.
 Internal  Forces:  Max     0.010634250 RMS     0.002145004
 Search for a local minimum.
 Step number   1 out of a maximum of  186
 All quantities printed in internal units (Hartrees-Bohrs-Radians)
 Mixed Optimization -- RFO/linear search
 Second derivative matrix not updated -- first step.
 ITU=  0
     Eigenvalues ---    0.00611   0.00650   0.00743   0.00759   0.01447
     Eigenvalues ---    0.01491   0.01848   0.02737   0.02775   0.03108
     Eigenvalues ---    0.03165   0.04168   0.04244   0.04652   0.04776
     Eigenvalues ---    0.04858   0.04924   0.05130   0.05149   0.05162
     Eigenvalues ---    0.05346   0.05704   0.05741   0.06155   0.06158
     Eigenvalues ---    0.06293   0.06350   0.06507   0.07693   0.07876
     Eigenvalues ---    0.07951   0.07965   0.07976   0.08010   0.08091
     Eigenvalues ---    0.08756   0.09304   0.09962   0.10859   0.11484
     Eigenvalues ---    0.11598   0.11709   0.11714   0.12330   0.12501
     Eigenvalues ---    0.14520   0.14596   0.16268   0.16723   0.17471
     Eigenvalues ---    0.19193   0.21162   0.21850   0.25000   0.28428
     Eigenvalues ---    0.28615   0.28700   0.28777   0.28999   0.29460
     Eigenvalues ---    0.30142   0.30574   0.35033   0.35078   0.35080
     Eigenvalues ---    0.35086   0.35087   0.35127   0.35153   0.35175
     Eigenvalues ---    0.35220   0.35244   0.35302   0.35361   0.35368
     Eigenvalues ---    0.35377   0.35529   0.35825   0.35833   0.35882
     Eigenvalues ---    0.41155   0.41389   0.42317   0.42630   0.42638
     Eigenvalues ---    0.476341000.000001000.000001000.000001000.00000
     Eigenvalues --- 1000.000001000.000001000.000001000.000001000.00000
     Eigenvalues --- 1000.000001000.000001000.000001000.000001000.00000
     Eigenvalues --- 1000.000001000.000001000.000001000.000001000.00000
     Eigenvalues --- 1000.000001000.000001000.000001000.000001000.00000
     Eigenvalues --- 1000.000001000.000001000.000001000.000001000.00000
     Eigenvalues --- 1000.000001000.000001000.000001000.000001000.00000
     Eigenvalues --- 1000.000001000.000001000.000001000.000001000.00000
     Eigenvalues --- 1000.000001000.000001000.000001000.000001000.00000
     Eigenvalues --- 1000.000001000.000001000.000001000.000001000.00000
     Eigenvalues --- 1000.000001000.000001000.000001000.000001000.00000
     Eigenvalues --- 1000.000001000.000001000.000001000.000001000.00000
     Eigenvalues --- 1000.000001000.000001000.000001000.000001000.00000
     Eigenvalues --- 1000.000001000.000001000.000001000.000001000.00000
     Eigenvalues --- 1000.000001000.000001000.000001000.000001000.00000
     Eigenvalues --- 1000.000001000.000001000.000001000.000001000.00000
     Eigenvalues --- 1000.000001000.000001000.000001000.000001000.00000
     Eigenvalues --- 1000.000001000.000001000.000001000.000001000.00000
     Eigenvalues --- 1000.000001000.000001000.000001000.000001000.00000
     Eigenvalues --- 1000.000001000.000001000.000001000.000001000.00000
 RFO step:  Lambda=-2.88667629D-03 EMin= 6.11079264D-03
 Linear search not attempted -- first point.
 Iteration  1 RMS(Cart)=  0.03286910 RMS(Int)=  0.00034823
 Iteration  2 RMS(Cart)=  0.00086953 RMS(Int)=  0.00002285
 Iteration  3 RMS(Cart)=  0.00000016 RMS(Int)=  0.00002285
 Iteration  1 RMS(Cart)=  0.00000592 RMS(Int)=  0.00000135
 Iteration  2 RMS(Cart)=  0.00000327 RMS(Int)=  0.00000151
 Iteration  3 RMS(Cart)=  0.00000180 RMS(Int)=  0.00000171
 Iteration  4 RMS(Cart)=  0.00000100 RMS(Int)=  0.00000184
 Variable       Old X    -DE/DX   Delta X   Delta X   Delta X     New X
                                 (Linear)    (Quad)   (Total)
    R1        2.89006  -0.00081   0.00000  -0.00389  -0.00391   2.88615
    R2        2.89339  -0.00104   0.00000  -0.00405  -0.00407   2.88931
    R3        2.05081   0.00263   0.00000   0.00739   0.00739   2.05820
    R4        2.05622   0.00326   0.00000   0.00924   0.00924   2.06545
    R5        2.66629   0.00621   0.00000   0.01448   0.01451   2.68081
    R6        2.88119  -0.00081   0.00000  -0.00259  -0.00259   2.87860
    R7        2.05544   0.00596   0.00000   0.01686   0.01686   2.07231
    R8        2.04356   0.00524   0.00000   0.01452   0.01452   2.05809
    R9        2.89295  -0.00099   0.00000  -0.00399  -0.00402   2.88893
   R10        2.87343  -0.00064   0.00000  -0.00209  -0.00209   2.87134
   R11        2.05428   0.00324   0.00000   0.00915   0.00915   2.06343
   R12        2.05188   0.00287   0.00000   0.00807   0.00807   2.05995
   R13        2.67716   0.00605   0.00000   0.01457   0.01461   2.69177
   R14        2.68146   0.00574   0.00000   0.01376   0.01379   2.69525
   R15        2.66177   0.00816   0.00000   0.01912   0.01915   2.68092
   R16        2.87272  -0.00072   0.00000  -0.00252  -0.00252   2.87020
   R17        2.05533   0.00557   0.00000   0.01575   0.01575   2.07108
   R18        2.04267   0.00460   0.00000   0.01270   0.01270   2.05537
   R19        2.62331   0.00565   0.00000   0.01179   0.01179   2.63511
   R20        2.68118   0.00518   0.00000   0.01207   0.01207   2.69325
   R21        2.05470   0.00326   0.00000   0.00920   0.00920   2.06390
   R22        2.05280   0.00275   0.00000   0.00775   0.00775   2.06055
   R23        2.87412  -0.00215   0.00000  -0.00785  -0.00788   2.86624
   R24        2.05549   0.00382   0.00000   0.01079   0.01079   2.06628
   R25        2.05092   0.00318   0.00000   0.00893   0.00893   2.05986
   R26        2.86476  -0.00155   0.00000  -0.00472  -0.00471   2.86004
   R27        2.05319   0.00852   0.00000   0.02399   0.02399   2.07717
   R28        2.04344   0.00449   0.00000   0.01244   0.01244   2.05588
   R29        2.05535   0.00564   0.00000   0.01595   0.01595   2.07130
   R30        2.04825   0.00644   0.00000   0.01799   0.01799   2.06624
   R31        2.05392   0.00373   0.00000   0.01052   0.01052   2.06444
   R32        2.05067   0.00319   0.00000   0.00894   0.00894   2.05960
    A1        1.92638   0.00203   0.00000  -0.00133  -0.00141   1.92497
    A2        1.93168  -0.00051   0.00000   0.00086   0.00089   1.93257
    A3        1.90885  -0.00075   0.00000  -0.00172  -0.00172   1.90714
    A4        1.91984  -0.00060   0.00000  -0.00030  -0.00027   1.91957
    A5        1.90914  -0.00082   0.00000  -0.00228  -0.00227   1.90687
    A6        1.86690   0.00059   0.00000   0.00490   0.00489   1.87178
    A7        1.92930   0.00122   0.00000   0.00641   0.00645   1.93575
    A8        1.91720   0.00113   0.00000   0.00765   0.00767   1.92487
    A9        1.86670  -0.00040   0.00000   0.00399   0.00399   1.87070
   A10        1.91365  -0.00196   0.00000  -0.01374  -0.01379   1.89986
   A11        1.93998  -0.00078   0.00000  -0.00755  -0.00760   1.93239
   A12        1.89624   0.00086   0.00000   0.00388   0.00377   1.90001
   A13        1.93037  -0.00033   0.00000  -0.00488  -0.00494   1.92543
   A14        1.91880   0.00062   0.00000   0.00138   0.00140   1.92020
   A15        1.92752  -0.00052   0.00000  -0.00089  -0.00088   1.92664
   A16        1.90368  -0.00026   0.00000  -0.00160  -0.00160   1.90208
   A17        1.90784   0.00032   0.00000   0.00126   0.00128   1.90913
   A18        1.87462   0.00019   0.00000   0.00501   0.00500   1.87962
   A19        1.97605  -0.00498   0.00000  -0.02810  -0.02802   1.94804
   A20        1.98147  -0.00495   0.00000  -0.02614  -0.02608   1.95539
   A21        1.93423   0.00093   0.00000   0.00341   0.00342   1.93765
   A22        1.90370   0.00077   0.00000   0.00466   0.00467   1.90838
   A23        1.85159  -0.00074   0.00000  -0.00035  -0.00035   1.85124
   A24        1.93149  -0.00130   0.00000  -0.00778  -0.00780   1.92369
   A25        1.95049  -0.00012   0.00000  -0.00208  -0.00208   1.94841
   A26        1.88985   0.00051   0.00000   0.00265   0.00263   1.89248
   A27        2.03720  -0.01063   0.00000  -0.04205  -0.04205   1.99514
   A28        1.92277   0.00009   0.00000  -0.00425  -0.00432   1.91844
   A29        1.91892   0.00053   0.00000   0.00197   0.00199   1.92092
   A30        1.93532  -0.00061   0.00000  -0.00099  -0.00098   1.93434
   A31        1.90347  -0.00038   0.00000  -0.00160  -0.00158   1.90189
   A32        1.90614   0.00009   0.00000  -0.00016  -0.00014   1.90600
   A33        1.87638   0.00027   0.00000   0.00522   0.00521   1.88159
   A34        1.91737   0.00175   0.00000  -0.00388  -0.00396   1.91342
   A35        1.91590  -0.00047   0.00000   0.00172   0.00170   1.91761
   A36        1.93632  -0.00016   0.00000   0.00402   0.00403   1.94034
   A37        1.89679  -0.00112   0.00000  -0.00645  -0.00645   1.89034
   A38        1.91903  -0.00071   0.00000  -0.00244  -0.00240   1.91663
   A39        1.87764   0.00064   0.00000   0.00704   0.00701   1.88465
   A40        1.87639  -0.00152   0.00000  -0.00789  -0.00788   1.86851
   A41        1.93247   0.00146   0.00000   0.00730   0.00729   1.93976
   A42        1.88932   0.00019   0.00000   0.00073   0.00074   1.89006
   A43        1.91059  -0.00015   0.00000  -0.00176  -0.00175   1.90884
   A44        1.92143   0.00069   0.00000   0.00507   0.00507   1.92650
   A45        1.93277  -0.00069   0.00000  -0.00347  -0.00347   1.92930
   A46        1.93704   0.00140   0.00000   0.00704   0.00703   1.94407
   A47        1.94452  -0.00033   0.00000  -0.00338  -0.00338   1.94113
   A48        1.93064  -0.00130   0.00000  -0.00795  -0.00796   1.92268
   A49        1.85569  -0.00096   0.00000  -0.00257  -0.00256   1.85313
   A50        1.90145   0.00061   0.00000   0.00409   0.00412   1.90558
   A51        1.89221   0.00062   0.00000   0.00312   0.00310   1.89531
   A52        1.90388  -0.00019   0.00000  -0.00166  -0.00164   1.90224
   A53        1.92471   0.00018   0.00000  -0.00047  -0.00052   1.92419
   A54        1.90568  -0.00036   0.00000  -0.00196  -0.00195   1.90373
   A55        1.90707  -0.00046   0.00000   0.00056   0.00057   1.90764
   A56        1.91014   0.00036   0.00000   0.00470   0.00469   1.91483
   A57        1.91227   0.00047   0.00000  -0.00112  -0.00111   1.91116
   A58        1.92497  -0.00053   0.00000  -0.00654  -0.00660   1.91838
   A59        1.92476   0.00083   0.00000   0.00435   0.00432   1.92909
   A60        1.93680  -0.00010   0.00000   0.00295   0.00294   1.93974
   A61        1.88948  -0.00053   0.00000  -0.00635  -0.00633   1.88315
   A62        1.90272   0.00010   0.00000  -0.00125  -0.00122   1.90151
   A63        1.88394   0.00024   0.00000   0.00683   0.00680   1.89074
    D1        0.89779  -0.00010   0.00000   0.01293   0.01291   0.91070
    D2       -1.20052  -0.00003   0.00000   0.01635   0.01635  -1.18417
    D3        3.01003  -0.00033   0.00000   0.00925   0.00923   3.01927
    D4        3.02730   0.00017   0.00000   0.01223   0.01222   3.03952
    D5        0.92899   0.00024   0.00000   0.01565   0.01565   0.94464
[...]
 6725,-0.00694312,-0.00002529,0.00000066,-0.00002774,-0.00000701,-0.000
 00006,-0.00000261,-0.00000196,0.00000047,-0.00000202,0.00017726,-0.000
 28213,0.00007141,0.00059051,-0.00106330,-0.00024536,-0.00071362,-0.000
 23862,0.00047083,-0.00044001,0.00040389,0.00046153,-0.00000425,-0.0000
 0064,-0.00000106,-0.00000605,0.00000363,-0.00000190,0.00000067,0.00000
 099,0.00000101,-0.00000174,0.00000101,-0.00000015,-0.01167234,0.022861
 52,0.00740932,-0.02989975,0.06095147,0.06615391,0.00131524,0.00052978,
 0.00062424,-0.00114427,0.00041530,-0.00048334,-0.00000862,-0.00005278,
 -0.00006310,0.00011149,-0.00002481,0.00011365,-0.00053206,0.01144290,0
 .00528969,0.00175007,0.00096389,0.00187745,-0.00902067,-0.01186441,-0.
 03740102,-0.00019011,-0.00018369,-0.00015828,-0.00036773,-0.00006141,0
 .00030937,-0.06358495,0.01504074,0.05051324,0.00000526,-0.00004401,-0.
 00001194,0.00258445,-0.00018322,-0.00334545,-0.00289345,0.00723700,0.0
 2151806,0.00007812,-0.00011782,-0.00017394,-0.00011696,-0.00017968,-0.
 00028879,0.00005892,-0.00004532,0.00000339,-0.00045671,0.00041890,0.00
 020862,-0.00001666,-0.00000622,0.00001671,-0.00004746,-0.00000213,0.00
 000756,-0.00002587,-0.00022246,-0.00028456,-0.00001012,-0.00000356,-0.
 00006467,0.00003593,0.00000309,-0.00004554,-0.00006495,0.00003829,-0.0
 0000768,-0.00002805,-0.00009930,0.00012964,0.00004411,0.00002761,0.000
 00578,0.07494168,0.00089555,0.00020481,0.00022466,0.00001768,0.0000232
 6,0.00015101,-0.00002123,-0.00001019,0.00000359,0.00005232,0.00002071,
 -0.00005604,0.01712816,-0.03709476,-0.02649695,-0.00384565,0.00024082,
 -0.00377855,-0.00134172,0.00452714,0.00015235,0.00036207,-0.00009054,0
 .00052235,-0.00004538,-0.00005314,0.00007598,0.01294680,-0.07987957,-0
 .07878036,-0.00002916,0.00001184,-0.00002358,-0.00019836,-0.00025618,-
 0.00101796,-0.00447127,0.00809114,0.01509719,0.00009021,-0.00009706,-0
 .00010564,0.00008359,-0.00010383,-0.00028183,0.00005425,0.00003450,0.0
 0004629,0.00029916,-0.00010088,0.00006586,-0.00000094,-0.00000066,-0.0
 0000072,0.00000547,0.00000452,0.00000177,0.00014221,0.00073105,0.00110
 433,0.00008099,0.00011101,0.00056248,-0.00004317,-0.00002172,-0.000051
 54,0.00018942,0.00019295,-0.00008144,0.00000376,0.00000288,0.00002778,
 0.00000721,0.00001291,0.00000855,-0.02008880,0.10400231,-0.00049956,-0
 .00015023,0.00035001,-0.00069678,-0.00063868,0.00036944,-0.00007034,-0
 .00010091,-0.00013812,-0.00036339,0.00031953,0.00026216,-0.00118791,-0
 .00054039,0.00655115,0.00055092,0.00126799,0.00200383,-0.01126466,-0.0
 0743617,-0.02275213,-0.00004719,-0.00016812,0.00002271,-0.00016452,-0.
 00018775,0.00055991,0.04388803,-0.08148996,-0.24992829,0.00010072,0.00
 001859,0.00001664,0.00306559,0.00225083,-0.00088250,0.00362804,-0.0057
 2320,-0.01406536,0.00006122,0.00019979,0.00027131,0.00035678,-0.000022
 26,0.00050249,0.00005679,0.00003884,0.00002675,0.00019257,0.00015187,0
 .00022229,-0.00001119,-0.00000542,0.00000715,-0.00006595,-0.00001056,0
 .00002326,0.00084748,-0.00028551,0.00000953,0.00021877,0.00001562,0.00
 032156,-0.00003347,-0.00000670,-0.00019074,0.00003226,-0.00008707,0.00
 001480,0.00013855,0.00011802,0.00005886,0.00002542,0.00001247,-0.00000
 223,-0.04018003,0.09131290,0.27596331,-0.00000432,-0.00001060,0.000019
 43,0.00028643,-0.00084596,-0.00468970,-0.00805472,-0.00064839,0.007282
 56,-0.02652926,-0.00962935,0.00929229,-0.00009694,0.00006817,-0.000040
 42,0.00003112,0.00000541,0.00002336,-0.00052772,0.00012379,0.00019139,
 -0.00000317,-0.00000239,-0.00000742,0.00056046,0.00222873,0.00025959,0
 .00027011,-0.00006582,0.00016817,-0.22317549,-0.02820373,0.12249042,0.
 00067161,-0.00049754,-0.00016523,-0.00003578,0.00001665,-0.00003276,-0
 .00001070,-0.00000067,-0.00000397,-0.00000085,-0.00000047,-0.00000193,
 0.00004761,-0.00009955,0.00027792,-0.00113158,-0.00021006,0.00062653,0
 .00029461,-0.00047244,-0.00042524,0.00018670,0.00032588,0.00017588,-0.
 00000359,-0.00000179,-0.00000461,-0.00000774,0.00000377,-0.00000481,-0
 .00000010,0.00000080,0.00000122,-0.00000463,0.00000022,0.00000015,-0.0
 0002645,-0.00011388,0.00011358,-0.00052302,-0.00022752,0.00033067,-0.0
 0000323,0.00000852,-0.00000359,0.24985560,0.00000517,0.00000414,-0.000
 00888,-0.00110882,-0.00088478,-0.00325145,0.02515129,0.00544777,-0.017
 29689,-0.02024735,-0.00563032,0.00854253,0.00000040,-0.00000432,0.0000
 0301,-0.00000427,0.00000144,-0.00000825,0.00006960,0.00033889,0.000226
 40,0.00000087,0.00000032,0.00000215,0.00139219,-0.00559632,-0.00103400
 ,0.00001353,0.00007260,-0.00002046,-0.02654766,-0.05469672,0.02120924,
 -0.00064681,-0.00088301,-0.00036917,0.00002186,-0.00000773,0.00001873,
 0.00000391,0.00000003,0.00000151,-0.00000037,0.00000031,0.00000048,0.0
 0017953,0.00006502,-0.00019272,-0.00110908,0.00002025,0.00031003,-0.00
 058242,0.00142303,0.00069277,-0.00095487,0.00092435,0.00038770,0.00000
 047,0.00000043,0.00000103,0.00000073,-0.00000035,0.00000063,-0.0000002
 9,0.00000007,0.00000012,0.00000098,-0.00000020,-0.00000001,-0.00012779
 ,0.00010681,-0.00011087,0.00174420,0.00023865,-0.00080642,0.00002107,-
 0.00000104,0.00000916,0.03733264,0.06050027,0.00000255,0.00000024,-0.0
 0000292,-0.00230209,-0.00142506,-0.00201920,0.00671306,0.00289421,-0.0
 0497730,-0.02415369,-0.00666927,0.01247925,-0.00001778,0.00001107,-0.0
 0000891,0.00000121,0.00000151,-0.00000309,-0.00005928,0.00028109,0.000
 24314,-0.00000023,0.00000011,-0.00000004,0.00020013,-0.00283751,0.0006
 1111,0.00004414,0.00003882,0.00001856,0.13425766,0.02564812,-0.1453030
 7,-0.00032634,-0.00065201,-0.00037296,0.00000739,-0.00000298,0.0000060
 4,0.00000095,0.00000009,0.00000030,-0.00000011,0.00000042,0.00000032,-
 0.00004412,-0.00020171,0.00037248,-0.00081377,-0.00028070,0.00049604,-
 0.00044328,-0.00032116,0.00080000,-0.00014366,0.00005049,0.00011338,-0
 .00000084,0.00000022,0.00000037,-0.00000059,0.00000014,-0.00000028,-0.
 00000034,0.00000003,0.00000021,0.00000018,-0.00000008,0.00000011,-0.00
 033747,-0.00009384,0.00023033,0.00094604,0.00016279,-0.00016645,0.0000
 1325,-0.00000221,0.00000478,-0.13272431,-0.01920628,0.14952357,-0.0000
 0212,-0.00000506,0.00000706,0.00228976,0.00235160,-0.00372075,-0.00182
 731,0.00907278,-0.00894704,-0.01501451,0.00410572,-0.02687309,-0.00002
 923,0.00001833,-0.00001512,0.00000865,0.00000289,0.00000518,-0.0003221
 9,0.00009590,0.00018636,-0.00000052,-0.00000062,-0.00000214,0.00044247
 ,-0.00007847,-0.00113185,0.00010298,-0.00002114,0.00008105,-0.06433648
 ,0.03177805,-0.03386335,-0.00015908,-0.00024744,0.00019031,-0.00001384
 ,0.00000470,-0.00001396,-0.00000387,-0.00000037,-0.00000128,-0.0000001
 7,0.00000003,-0.00000048,0.00041693,-0.00023029,0.00073276,0.00007634,
 -0.00014519,0.00017813,0.00013490,0.00209546,0.00048642,0.00044329,-0.
 00017337,0.00021183,-0.00000097,0.00000020,-0.00000074,-0.00000244,0.0
 0000103,-0.00000148,-0.00000021,0.00000015,0.00000074,-0.00000116,0.,-
 0.00000004,-0.00001295,-0.00000186,0.00010984,0.00011318,-0.00008545,0
 .00010199,0.00000451,-0.00000023,-0.00000962,0.00799503,-0.01467010,0.
 01917901,0.06967950,0.00000358,0.00000289,-0.00000677,0.00161351,0.001
 73296,-0.00273939,0.00633668,-0.01914760,0.02347463,-0.01094797,0.0101
 6100,-0.01861834,0.00001035,-0.00000570,0.00000276,-0.00000523,0.00000
 016,-0.00000641,0.00010250,0.00014497,0.00014749,0.00000003,0.00000089
 ,0.00000196,-0.00100755,0.00116574,0.00073996,-0.00000806,0.00003596,-
 0.00002597,0.03332385,-0.14042170,0.11854042,-0.00026989,-0.00032305,0
 .00004558,0.00001403,-0.00000506,0.00001451,0.00000303,0.00000040,0.00
 000073,-0.00000050,0.00000014,0.00000040,0.00099220,-0.00029532,0.0005
 3434,0.00015017,0.00002051,-0.00008150,0.00295447,-0.00455757,-0.00239
 319,-0.00050930,0.00096981,-0.00009602,0.00000014,-0.00000012,0.000000
 67,0.00000039,0.00000002,0.00000079,0.00000038,-0.00000017,-0.00000029
 ,0.00000093,-0.00000033,-0.00000013,0.00038909,0.00038676,-0.00047481,
 -0.00022206,0.00010150,-0.00033012,0.00000412,-0.00000102,0.00000210,0
 .00089448,-0.00151251,0.00257110,-0.03379500,0.15164145,-0.00000307,-0
 .00000769,0.00001283,0.00349503,0.00069654,0.00037733,0.00368044,-0.00
 612137,0.00853627,-0.01775890,0.00196499,-0.02464313,-0.00006304,0.000
 03956,-0.00002992,0.00001802,0.00000511,0.00001223,-0.00048309,0.00012
 446,0.00013231,-0.00000186,-0.00000177,-0.00000446,-0.00046214,-0.0003
 2331,0.00088653,0.00017866,-0.00002798,0.00013717,-0.03817638,0.116182
 86,-0.19662997,0.00013331,-0.00054234,-0.00009085,-0.00002380,0.000010
 25,-0.00002319,-0.00000720,-0.00000059,-0.00000259,-0.00000073,0.00000
 009,-0.00000128,-0.00080531,-0.00022954,0.00081923,-0.00006693,-0.0003
 5801,0.00034946,0.00138079,-0.00214873,0.00031839,-0.00039818,0.000991
 95,0.00040798,-0.00000200,-0.00000027,-0.00000194,-0.00000514,0.000002
 15,-0.00000333,-0.00000035,0.00000077,0.00000116,-0.00000274,0.0000001
 5,0.00000022,-0.00045058,0.00008128,-0.00005269,-0.00013813,0.00005236
 ,0.00006525,-0.00000070,0.00000014,-0.00001171,-0.00314550,0.01084647,
 -0.01206838,0.05309500,-0.12134809,0.22162016,0.00001574,-0.00001028,0
 .00002231,-0.00327661,0.00805582,-0.01158528,0.00089167,0.00054067,-0.
 00048075,0.00107984,-0.00045493,-0.00026447,-0.00042425,0.00008950,0.0
 0044902,0.00007974,0.00000375,-0.00010442,-0.00454464,-0.02003994,0.03
 109527,-0.00000873,-0.00002017,-0.00000593,-0.00540124,0.01044480,-0.0
 1617466,0.00162996,-0.00145861,0.00313028,0.00002380,-0.00012596,0.000
 00362,-0.07344400,0.04421327,-0.06659659,-0.00009431,0.00004712,-0.000
 19766,-0.00003101,0.00000394,-0.00000024,-0.00001215,0.00000059,-0.000
 00807,-0.00098917,0.00223067,0.00117349,0.00060180,-0.00042755,0.00048
 448,-0.00008705,-0.00018448,0.00020400,0.00006625,-0.00011128,0.000071
 88,0.00002011,-0.00000542,-0.00001717,0.00000834,0.00001206,-0.0000003
 7,0.00000411,0.00000318,-0.00000141,-0.00000449,0.00002484,-0.00000608
 ,-0.00203332,-0.00235304,-0.00226821,0.00082473,-0.00022754,0.00081466
 ,-0.00024236,-0.00017002,-0.00010214,-0.00005815,0.00006199,0.00000340
 ,0.00002160,-0.00002837,0.00001522,0.08539063,-0.00004350,-0.00003783,
 0.00004032,0.01002041,-0.01787849,0.02309903,0.00096424,0.00056309,0.0
 0002198,-0.00086932,0.00233452,-0.00077711,0.00049809,0.00053620,-0.00
 070169,-0.00019003,0.00012501,-0.00011409,-0.00548146,-0.00464644,0.00
 772322,0.00004861,0.00001483,0.00002372,-0.00612831,0.01001025,-0.0163
 0536,0.00128107,0.00006917,0.00246568,-0.00025562,-0.00023321,-0.00029
 849,0.04078984,-0.12404356,0.10813513,-0.00007868,-0.00014376,-0.00029
 533,-0.00001624,0.00000265,-0.00000722,-0.00000404,-0.00000384,-0.0000
 0168,0.00253630,-0.00392081,-0.00145443,-0.00080052,0.00140623,0.00006
 923,0.00013665,-0.00014276,0.00021863,0.00021400,-0.00009659,0.0000237
 8,-0.00001389,0.00000750,0.00000933,-0.00001440,-0.00001467,-0.0000166
 8,-0.00000405,-0.00000009,0.00000107,0.00001513,0.00000517,-0.00000338
 ,-0.00290721,-0.00124661,-0.00251666,0.00067932,0.00096981,0.00051760,
 -0.00029237,-0.00026702,-0.00028606,0.00002513,0.00007381,0.00003429,-
 0.00007074,-0.00009567,0.00011381,-0.04007571,0.13659169,0.00006159,0.
 00008973,-0.00009002,0.00370515,-0.00654110,0.00867219,0.00053005,0.00
 031885,0.00039773,-0.00175874,0.00015463,0.00071042,-0.00062992,-0.000
 70831,0.00079071,0.00012498,-0.00024716,0.00022938,0.00651614,0.012556
 99,-0.01844756,-0.00008360,0.00000123,-0.00005065,-0.00737332,0.009082
 54,-0.01627306,-0.00401453,0.00008491,-0.00126792,-0.00001194,-0.00006
 665,0.00003938,-0.05729293,0.10824605,-0.21035395,0.00014705,0.0001014
 4,0.00042168,0.00004990,-0.00000493,0.00001447,0.00000911,-0.00000201,
 0.00000601,0.00166007,-0.00199579,0.00000880,-0.00045781,0.00062213,0.
 00066026,-0.00026618,-0.00004359,0.00048509,0.00003929,-0.00027972,0.0
 0025058,0.00003487,-0.00001330,-0.00003941,0.00005006,0.00000377,0.000
 03085,0.00000837,-0.00000113,-0.00000353,-0.00001673,-0.00001903,0.000
 00933,-0.00215410,-0.00185550,-0.00124644,0.00066193,0.00026530,0.0007
 8012,0.00010535,-0.00006973,0.00080715,-0.00000579,0.00005339,0.000022
 90,0.00001526,0.00004483,-0.00011483,0.06045674,-0.11966928,0.23349524
 ,0.00224572,-0.01234500,-0.02826292,0.00005509,-0.00001529,0.00001712,
 0.00001138,0.00000670,0.00000999,-0.00001902,-0.00001056,-0.00001860,0
 .00139938,0.00074571,-0.00222399,-0.00039898,0.00004714,-0.00026793,0.
 00202474,0.00034286,-0.00008476,0.00143279,-0.00086581,0.00051827,-0.0
 0000494,0.00006321,-0.00009642,-0.00586906,0.01096498,0.02465718,-0.00
 000043,0.00000119,0.00000858,0.00015199,-0.00001499,0.00001876,-0.0488
 6455,0.01092756,0.02514810,0.00145034,-0.00015116,0.00090701,-0.004831
 20,0.00079569,-0.00335491,-0.00001239,0.00000658,-0.00000539,0.0000117
 0,-0.00002677,-0.00001403,-0.00000123,0.00000096,0.00000213,0.00000170
 ,-0.00000219,-0.00000023,-0.00008249,0.00007376,0.00003573,0.00009429,
 0.00003523,-0.00002041,-0.00003367,0.00031842,0.00038437,-0.00005622,-
 0.00013192,0.00033315,-0.00002356,-0.00002049,-0.00001513,0.00000254,-
 0.00000613,0.00000051,-0.00281642,-0.00297365,0.00176938,-0.00000264,-
 0.00000056,-0.00000128,-0.00000120,0.00000057,-0.00000070,-0.00003363,
 0.00006644,-0.00012142,0.05585592,-0.00066522,-0.00064657,0.00072399,0
 .00001103,-0.00000446,0.00002453,0.00001434,0.00000779,0.00001189,-0.0
 0000738,-0.00000900,-0.00001481,0.00005530,0.00207955,-0.00056706,-0.0
 0001322,0.00002987,0.00011901,0.00152105,0.00039967,-0.00042660,-0.000
 02390,0.00050822,0.00070055,0.00001296,0.00004819,-0.00008361,-0.00284
 203,0.00531465,0.01779526,-0.00000453,0.00000209,0.00000507,0.00010584
 ,-0.00007211,0.00014550,0.01215038,-0.09225098,-0.09701108,-0.00008572
 ,0.00004549,-0.00015650,-0.00014801,0.00103924,0.00024905,-0.00000430,
 0.00000350,-0.00000252,-0.00000877,-0.00002177,-0.00001357,-0.00000157
 ,0.00000021,0.00000230,0.00000270,-0.00000022,-0.00000150,0.00004115,-
 0.00008492,-0.00010352,0.00001191,-0.00000045,-0.00002135,0.00009179,0
 .00028610,-0.00004754,-0.00007637,0.00010370,0.00002871,-0.00001632,-0
 .00001888,-0.00000708,0.00000200,-0.00000248,-0.00000052,-0.00236814,-
 0.00094470,0.00134860,-0.00000209,-0.00000078,-0.00000125,0.00000007,-
 0.00000049,-0.00000081,-0.00006838,0.00003564,-0.00006831,-0.01058472,
 0.09437782,0.00088807,-0.00599406,-0.01382758,-0.00010770,-0.00005058,
 0.00003235,0.00001334,0.00001550,0.00002245,-0.00000216,0.00002695,0.0
 0001232,-0.00106245,-0.00027720,0.00174392,-0.00008306,0.00005911,0.00
 015667,-0.00088190,-0.00015061,0.00149671,0.00072894,-0.00022047,0.000
 32333,0.00008735,-0.00001824,-0.00005118,0.00278374,-0.00790087,-0.019
 65067,-0.00000346,0.00000146,-0.00000760,-0.00010059,0.00021600,0.0003
 7878,0.02615458,-0.09426433,-0.26407366,0.00002853,0.00009450,0.000860
 06,-0.00266583,0.00031588,-0.00046773,0.00001055,-0.00000077,0.0000045
 5,0.00000871,0.00001981,0.00002093,0.00000106,0.00000053,-0.00000216,0
 .00001168,0.00000356,-0.00000466,0.00004997,-0.00011920,-0.00002333,0.
 00002697,0.00004258,-0.00004182,-0.00004384,0.00047145,-0.00005496,-0.
 00012002,0.00008893,0.00022696,0.00000970,0.00000355,0.00000030,-0.000
 00422,0.00000546,-0.00000262,0.00232303,0.00205975,-0.00072972,0.00000
 235,-0.00000019,-0.00000010,0.00000044,-0.00000129,0.00000205,-0.00011
 479,-0.00004605,0.00004220,-0.02762865,0.10439271,0.28923820,-0.007964
 71,0.02839095,-0.00231038,-0.00000130,-0.00004516,-0.00000341,0.000010
 74,0.00000633,0.00001444,-0.00002108,0.00002249,0.00001711,-0.00233208
 ,-0.00621067,0.00383404,-0.00142092,-0.00000213,-0.00050797,0.00126314
 ,-0.00017382,0.00010357,-0.00506351,-0.00158310,-0.00356828,0.00005738
 ,-0.00000413,-0.00002826,0.00711086,-0.02075430,-0.00073360,0.00000340
 ,0.00000259,-0.00000137,0.00014839,0.00034096,0.00003898,-0.07210747,0
 .07929184,-0.00577775,0.00101460,-0.00025908,0.00094150,0.00135212,-0.
 00050918,0.00028916,0.00000368,0.00000936,-0.00001288,0.00002713,0.000
 02289,0.00000508,-0.00000068,0.00000047,-0.00000032,0.00000640,0.00000
 071,-0.00000305,0.00019685,-0.00000864,0.00003019,0.00030840,0.0000735
 4,0.00006674,0.00004612,-0.00023165,0.00016404,-0.00030914,0.00188226,
 -0.00066437,0.00000029,-0.00000178,0.00000245,-0.00000226,-0.00000008,
 -0.00000230,0.00064084,0.00086223,-0.00023216,0.00000081,-0.00000003,0
 .00000020,-0.00000090,-0.00000056,0.,0.00002677,-0.00002911,0.00001109
 ,-0.00168594,0.00290018,-0.00031033,0.07869208,-0.00025386,0.00177551,
 -0.00030225,-0.00005277,-0.00006519,0.00003722,0.00000632,0.00000059,0
 .00000068,-0.00003111,0.00002321,0.00000555,-0.00231114,-0.00348518,0.
 00376960,-0.00106288,0.00027033,-0.00102106,0.00036284,0.00108530,-0.0
 0032423,-0.00004144,0.00154402,0.00003497,0.00001020,0.00001014,-0.000
 00590,0.00794032,-0.01553940,-0.00113719,0.00000717,-0.00000189,0.0000
 0840,-0.00009932,0.00031233,0.00004449,0.07630285,-0.29060521,0.024317
 46,0.00046803,0.00025771,0.00013539,0.00024462,0.00044083,0.00030910,-
 0.00001304,-0.00000106,-0.00000346,-0.00003048,-0.00002678,-0.00000267
 ,-0.00000075,-0.00000046,0.00000067,-0.00000107,-0.00000169,0.00000034
 ,0.00012276,-0.00000441,0.00013188,0.00014997,-0.00005805,0.00008376,-
 0.00003620,0.00009363,-0.00004449,-0.00015906,-0.00012636,-0.00004604,
 -0.00000472,-0.00000297,-0.00000411,0.00000055,-0.00000197,-0.00000326
 ,-0.00030258,0.00071049,0.00007266,-0.00000194,-0.00000013,-0.00000071
 ,-0.00000160,0.00000111,-0.00000244,0.00002948,0.00002577,-0.00004024,
 0.00275224,-0.01022392,0.00122615,-0.08399338,0.31359370,-0.00475144,0
 .01568165,-0.00304648,0.00002173,0.00000132,0.00002046,-0.00000735,0.0
 0000009,-0.00000893,-0.00000280,-0.00000621,-0.00000890,0.00223205,0.0
 0401722,-0.00105148,0.00059524,-0.00048318,0.00069232,-0.00076605,-0.0
 0078167,0.00038917,-0.00291691,-0.00087213,-0.00079579,-0.00001985,0.0
 0000005,0.00001585,-0.00727691,0.01502754,-0.00206567,-0.00000014,-0.0
 0000106,0.00000326,0.00001388,-0.00014448,-0.00011867,-0.00430650,0.02
 166653,-0.05114468,0.00043529,-0.00047274,0.00041537,0.00076433,0.0001
 6504,0.00057241,-0.00000033,0.00000042,-0.00000042,-0.00000441,-0.0000
 0779,0.00000118,0.00000053,0.00000034,-0.00000005,-0.00000293,-0.00000
 060,0.00000184,-0.00001686,-0.00004400,-0.00010374,-0.00004570,0.00000
 979,-0.00005754,-0.00006170,0.00035850,0.00009659,-0.00027952,0.000816
 17,0.00001982,-0.00000179,0.00000084,-0.00000264,0.00000066,0.00000161
 ,0.00000163,-0.00054999,-0.00067044,0.00033173,-0.00000025,0.00000023,
 -0.00000017,-0.00000041,0.00000005,-0.00000031,0.00000386,-0.00000329,
 0.00001288,0.00830646,-0.02701954,0.00437600,0.00863783,-0.02724027,0.
 05145495\\-0.00001919,0.00000385,0.00002091,-0.00000418,-0.00000033,0.
 00000306,-0.00000303,0.00000922,0.00001563,0.00002771,0.00001369,-0.00
 005429,-0.00000706,0.00004861,-0.00001861,0.00003496,0.00000460,0.0000
 3807,0.00010607,-0.00058442,-0.00018687,-0.00002786,0.00000048,-0.0000
 0567,-0.00020855,0.00041633,-0.00015901,-0.00016476,0.00046059,0.00011
 640,0.00000032,-0.00001101,-0.00000805,0.00024742,-0.00036499,0.000265
 73,-0.00000364,0.00000671,-0.00002222,-0.00000186,0.00000142,-0.000023
 71,-0.00000117,0.00000818,-0.00001407,-0.00001254,-0.00000429,-0.00000
 417,0.00000121,0.00000566,0.00000418,0.00000246,-0.00000960,0.00000968
 ,0.00001674,-0.00001193,-0.00000144,-0.00001492,0.00001056,-0.00001143
 ,-0.00000460,0.00000112,-0.00000023,0.00000705,-0.00000202,0.00000446,
 0.00000565,0.00002272,0.00000160,0.00000019,-0.00001324,0.00000609,-0.
 00000081,-0.00002094,0.00001512,-0.00000522,0.00002307,0.00000836,-0.0
 0000546,-0.00000777,0.00000951,0.00000210,-0.00000103,0.00000617,0.000
 01709,0.00000154,0.00000147,0.00000397,-0.00000785,-0.00001305,0.00001
 192,0.00000107,-0.00000363\\\@


 ARTHROPOD AXIOM: A COMPUTER SYSTEM IS LIKE A SPIDER'S WEB.
 YOU CANNOT PULL ON ONE END WITHOUT MAKING THE OTHER END MOVE.
     -- GREG WETTSTEIN
 Job cpu time:       0 days 12 hours 18 minutes 26.1 seconds.
 Elapsed time:       0 days  1 hours  1 minutes 46.8 seconds.
 File lengths (MBytes):  RWF=    723 Int=      0 D2E=      0 Chk=     34 Scr=      1
 Normal termination of Gaussian 16 at Sun Mar 10 03:33:29 2019.
