 Entering Gaussian System, Link 0=g16
 Initial command:
 /apps/gaussian/g16a03/g16/l1.exe "/jobfs/local/2011910.r-man2/Gau-6214.inp" -scrdir="/jobfs/local/2011910.r-man2/"
 Entering Link 1 = /apps/gaussian/g16a03/g16/l1.exe PID=      6215.
  
 Copyright (c) 1988,1990,1992,1993,1995,1998,2003,2009,2016,
            Gaussian, Inc.  All Rights Reserved.
  
 This is part of the Gaussian(R) 16 program.  It is based on
 the Gaussian(R) 09 system (copyright 2009, Gaussian, Inc.),
 the Gaussian(R) 03 system (copyright 2003, Gaussian, Inc.),
 the Gaussian(R) 98 system (copyright 1998, Gaussian, Inc.),
 the Gaussian(R) 94 system (copyright 1995, Gaussian, Inc.),
 the Gaussian 92(TM) system (copyright 1992, Gaussian, Inc.),
 the Gaussian 90(TM) system (copyright 1990, Gaussian, Inc.),
 the Gaussian 88(TM) system (copyright 1988, Gaussian, Inc.),
 the Gaussian 86(TM) system (copyright 1986, Carnegie Mellon
 University), and the Gaussian 82(TM) system (copyright 1983,
 Carnegie Mellon University). Gaussian is a federally registered
 trademark of Gaussian, Inc.
  
 This software contains proprietary and confidential information,
 including trade secrets, belonging to Gaussian, Inc.
  
 This software is provided under written license and may be
 used, copied, transmitted, or stored only in accord with that
 written license.
  
 The following legend is applicable only to US Government
 contracts under FAR:
  
                    RESTRICTED RIGHTS LEGEND
  
 Use, reproduction and disclosure by the US Government is
 subject to restrictions as set forth in subparagraphs (a)
 and (c) of the Commercial Computer Software - Restricted
 Rights clause in FAR 52.227-19.
  
 Gaussian, Inc.
 340 Quinnipiac St., Bldg. 40, Wallingford CT 06492
  
  
 ---------------------------------------------------------------
 Warning -- This program may not be used in any manner that
 competes with the business of Gaussian, Inc. or will provide
 assistance to any competitor of Gaussian, Inc.  The licensee
 of this program is prohibited from giving any competitor of
 Gaussian, Inc. access to this program.  By using this program,
 the user acknowledges that Gaussian, Inc. is engaged in the
 business of creating and licensing software in the field of
 computational chemistry and represents and warrants to the
 licensee that it is not a competitor of Gaussian, Inc. and that
 it will not use this program in any manner prohibited above.
 ---------------------------------------------------------------
  

 Cite this work as:
 Gaussian 16, Revision A.03,
 M. J. Frisch, G. W. Trucks, H. B. Schlegel, G. E. Scuseria, 
 M. A. Robb, J. R. Cheeseman, G. Scalmani, V. Barone, 
 G. A. Petersson, H. Nakatsuji, X. Li, M. Caricato, A. V. Marenich, 
 J. Bloino, B. G. Janesko, R. Gomperts, B. Mennucci, H. P. Hratchian, 
 J. V. Ortiz, A. F. Izmaylov, J. L. Sonnenberg, D. Williams-Young, 
 F. Ding, F. Lipparini, F. Egidi, J. Goings, B. Peng, A. Petrone, 
 T. Henderson, D. Ranasinghe, V. G. Zakrzewski, J. Gao, N. Rega, 
 G. Zheng, W. Liang, M. Hada, M. Ehara, K. Toyota, R. Fukuda, 
 J. Hasegawa, M. Ishida, T. Nakajima, Y. Honda, O. Kitao, H. Nakai, 
 T. Vreven, K. Throssell, J. A. Montgomery, Jr., J. E. Peralta, 
 F. Ogliaro, M. J. Bearpark, J. J. Heyd, E. N. Brothers, K. N. Kudin, 
 V. N. Staroverov, T. A. Keith, R. Kobayashi, J. Normand, 
 K. Raghavachari, A. P. Rendell, J. C. Burant, S. S. Iyengar, 
 J. Tomasi, M. Cossi, J. M. Millam, M. Klene, C. Adamo, R. Cammi, 
 J. W. Ochterski, R. L. Martin, K. Morokuma, O. Farkas, 
 J. B. Foresman, and D. J. Fox, Gaussian, Inc., Wallingford CT, 2016.
 
 ******************************************
 Gaussian 16:  ES64L-G16RevA.03 25-Dec-2016
                 5-Nov-2018 
 ******************************************
 %mem=6000mb
 %nproc=24
 Will use up to   24 processors via shared memory.
 %chk=D_1a_4a_L_PSI.inp_extract_1.chk
 ----------------------------------------------------------------------
 #M062X/6-311++G(2d,2p) opt=ModRedundant freq=noraman SCRF=(Solvent=Wat
 er)
 ----------------------------------------------------------------------
 1/18=120,19=15,26=3,38=1/1,3;
 2/9=110,12=2,17=6,18=5,40=1/2;
 3/5=4,6=6,7=1212,11=2,25=1,30=1,70=2201,71=1,72=1,74=-55/1,2,3;
 4//1;
 5/5=2,38=5,53=1/2;
 6/7=2,8=2,9=2,10=2,28=1/1;
 7//1,2,3,16;
 1/18=20,19=15,26=3/3(2);
 2/9=110/2;
 99//99;
 2/9=110/2;
 3/5=4,6=6,7=1212,11=2,25=1,30=1,70=2205,71=1,72=1,74=-55/1,2,3;
 4/5=5,16=3,69=1/1;
 5/5=2,38=5,53=1/2;
 7//1,2,3,16;
 1/18=20,19=15,26=3/3(-5);
 2/9=110/2;
 6/7=2,8=2,9=2,10=2,19=2,28=1/1;
 99/9=1/99;
 ---------------------------
 D_1a_4a_L_PSI.inp_extract_1
 ---------------------------
 Symbolic Z-matrix:
 Charge =  0 Multiplicity = 1
 C                     3.31432   0.16124  -0.76347 
 C                     1.11732  -0.15204   1.14442 
 C                    -1.37493   1.17794  -0.62168 
 C                     2.31285   1.3055   -0.60695 
 C                    -3.54667   0.15849   0.09677 
 O                    -2.90287  -1.10049   0.17275 
 C                     2.65718  -1.16643  -0.42719 
 C                    -0.761    -0.22268  -0.57314 
 C                    -2.56162   1.29225   0.33788 
 C                    -1.8621   -1.25389  -0.76782 
 O                     2.07466  -1.14639   0.86893 
 O                    -0.14427  -0.54943   0.66853 
 C                     1.6583    1.22755   0.77396 
 H                     4.15834   0.31816  -0.09594 
 H                     3.70362   0.11849  -1.77664 
 H                    -1.72365   1.32964  -1.64097 
 H                     2.81369   2.26318  -0.71039 
 H                     1.56997   1.25431  -1.39608 
 H                     1.90226  -1.42296  -1.16219 
 H                     3.3825   -1.96805  -0.40381 
 H                    -2.2185    1.25779   1.36791 
 H                    -3.07022   2.24191   0.19864 
 H                    -2.26344  -1.15888  -1.77383 
 H                    -1.47252  -2.25407  -0.64247 
 H                     2.42198   1.4328    1.51953 
 H                     0.89023   1.97621   0.91003 
 H                     0.99782  -0.19537   2.21496 
 H                    -4.01003   0.25909  -0.88256 
 H                    -4.32857   0.146     0.84383 
 H                    -0.64327   1.94715  -0.42734 
 H                    -0.0522   -0.34255  -1.38105 
 
 The following ModRedundant input section has been read:
 D       3       8      12       2 F                                           
 

 GradGradGradGradGradGradGradGradGradGradGradGradGradGradGradGradGradGrad
 Berny optimization.
 Initialization pass.
                           ----------------------------
                           !    Initial Parameters    !
                           ! (Angstroms and Degrees)  !
 --------------------------                            --------------------------
 ! Name  Definition              Value          Derivative Info.                !
 --------------------------------------------------------------------------------
 ! R1    R(1,4)                  1.5287         estimate D2E/DX2                !
 ! R2    R(1,7)                  1.5191         estimate D2E/DX2                !
 ! R3    R(1,14)                 1.0875         estimate D2E/DX2                !
 ! R4    R(1,15)                 1.0862         estimate D2E/DX2                !
 ! R5    R(2,11)                 1.4075         estimate D2E/DX2                !
 ! R6    R(2,12)                 1.4057         estimate D2E/DX2                !
 ! R7    R(2,13)                 1.5275         estimate D2E/DX2                !
 ! R8    R(2,27)                 1.0781         estimate D2E/DX2                !
 ! R9    R(3,8)                  1.53           estimate D2E/DX2                !
 ! R10   R(3,9)                  1.5304         estimate D2E/DX2                !
 ! R11   R(3,16)                 1.0879         estimate D2E/DX2                !
 ! R12   R(3,30)                 1.0792         estimate D2E/DX2                !
 ! R13   R(4,13)                 1.5302         estimate D2E/DX2                !
 ! R14   R(4,17)                 1.0857         estimate D2E/DX2                !
 ! R15   R(4,18)                 1.085          estimate D2E/DX2                !
 ! R16   R(5,6)                  1.4161         estimate D2E/DX2                !
 ! R17   R(5,9)                  1.5211         estimate D2E/DX2                !
 ! R18   R(5,28)                 1.0881         estimate D2E/DX2                !
 ! R19   R(5,29)                 1.0815         estimate D2E/DX2                !
 ! R20   R(6,10)                 1.4112         estimate D2E/DX2                !
 ! R21   R(7,11)                 1.4211         estimate D2E/DX2                !
 ! R22   R(7,19)                 1.0844         estimate D2E/DX2                !
 ! R23   R(7,20)                 1.0813         estimate D2E/DX2                !
 ! R24   R(8,10)                 1.5211         estimate D2E/DX2                !
 ! R25   R(8,12)                 1.4244         estimate D2E/DX2                !
 ! R26   R(8,31)                 1.0814         estimate D2E/DX2                !
 ! R27   R(9,21)                 1.0862         estimate D2E/DX2                !
 ! R28   R(9,22)                 1.0862         estimate D2E/DX2                !
 ! R29   R(10,23)                1.0873         estimate D2E/DX2                !
 ! R30   R(10,24)                1.0807         estimate D2E/DX2                !
 ! R31   R(13,25)                1.0868         estimate D2E/DX2                !
 ! R32   R(13,26)                1.0812         estimate D2E/DX2                !
 ! A1    A(4,1,7)              110.3739         estimate D2E/DX2                !
 ! A2    A(4,1,14)             109.7309         estimate D2E/DX2                !
 ! A3    A(4,1,15)             111.0856         estimate D2E/DX2                !
 ! A4    A(7,1,14)             109.0246         estimate D2E/DX2                !
 ! A5    A(7,1,15)             109.0947         estimate D2E/DX2                !
 ! A6    A(14,1,15)            107.4617         estimate D2E/DX2                !
 ! A7    A(11,2,12)            110.1484         estimate D2E/DX2                !
 ! A8    A(11,2,13)            110.4688         estimate D2E/DX2                !
 ! A9    A(11,2,27)            103.9672         estimate D2E/DX2                !
 ! A10   A(12,2,13)            119.4112         estimate D2E/DX2                !
 ! A11   A(12,2,27)            103.0228         estimate D2E/DX2                !
 ! A12   A(13,2,27)            108.4454         estimate D2E/DX2                !
 ! A13   A(8,3,9)              111.0775         estimate D2E/DX2                !
 ! A14   A(8,3,16)             106.6175         estimate D2E/DX2                !
 ! A15   A(8,3,30)             112.0062         estimate D2E/DX2                !
 ! A16   A(9,3,16)             109.1767         estimate D2E/DX2                !
 ! A17   A(9,3,30)             111.0723         estimate D2E/DX2                !
 ! A18   A(16,3,30)            106.6564         estimate D2E/DX2                !
 ! A19   A(1,4,13)             109.5434         estimate D2E/DX2                !
 ! A20   A(1,4,17)             110.3841         estimate D2E/DX2                !
 ! A21   A(1,4,18)             109.8022         estimate D2E/DX2                !
 ! A22   A(13,4,17)            109.1632         estimate D2E/DX2                !
 ! A23   A(13,4,18)            111.1663         estimate D2E/DX2                !
 ! A24   A(17,4,18)            106.7483         estimate D2E/DX2                !
 ! A25   A(6,5,9)              111.0842         estimate D2E/DX2                !
 ! A26   A(6,5,28)             108.9107         estimate D2E/DX2                !
 ! A27   A(6,5,29)             106.3412         estimate D2E/DX2                !
 ! A28   A(9,5,28)             110.4585         estimate D2E/DX2                !
 ! A29   A(9,5,29)             111.5498         estimate D2E/DX2                !
 ! A30   A(28,5,29)            108.3551         estimate D2E/DX2                !
 ! A31   A(5,6,10)             113.3398         estimate D2E/DX2                !
 ! A32   A(1,7,11)             111.5239         estimate D2E/DX2                !
 ! A33   A(1,7,19)             110.9689         estimate D2E/DX2                !
 ! A34   A(1,7,20)             111.2561         estimate D2E/DX2                !
 ! A35   A(11,7,19)            109.6421         estimate D2E/DX2                !
 ! A36   A(11,7,20)            105.4075         estimate D2E/DX2                !
 ! A37   A(19,7,20)            107.8336         estimate D2E/DX2                !
 ! A38   A(3,8,10)             109.0307         estimate D2E/DX2                !
 ! A39   A(3,8,12)             114.2916         estimate D2E/DX2                !
 ! A40   A(3,8,31)             109.9232         estimate D2E/DX2                !
 ! A41   A(10,8,12)            105.6336         estimate D2E/DX2                !
 ! A42   A(10,8,31)            107.68           estimate D2E/DX2                !
 ! A43   A(12,8,31)            110.0006         estimate D2E/DX2                !
 ! A44   A(3,9,5)              110.3093         estimate D2E/DX2                !
 ! A45   A(3,9,21)             110.3196         estimate D2E/DX2                !
 ! A46   A(3,9,22)             110.365          estimate D2E/DX2                !
 ! A47   A(5,9,21)             109.3422         estimate D2E/DX2                !
 ! A48   A(5,9,22)             109.1536         estimate D2E/DX2                !
 ! A49   A(21,9,22)            107.2891         estimate D2E/DX2                !
 ! A50   A(6,10,8)             112.017          estimate D2E/DX2                !
 ! A51   A(6,10,23)            109.5703         estimate D2E/DX2                !
 ! A52   A(6,10,24)            106.8082         estimate D2E/DX2                !
 ! A53   A(8,10,23)            109.0496         estimate D2E/DX2                !
 ! A54   A(8,10,24)            110.5875         estimate D2E/DX2                !
 ! A55   A(23,10,24)           108.7404         estimate D2E/DX2                !
 ! A56   A(2,11,7)             117.8569         estimate D2E/DX2                !
 ! A57   A(2,12,8)             128.233          estimate D2E/DX2                !
 ! A58   A(2,13,4)             114.6066         estimate D2E/DX2                !
 ! A59   A(2,13,25)            104.6579         estimate D2E/DX2                !
 ! A60   A(2,13,26)            110.0771         estimate D2E/DX2                !
 ! A61   A(4,13,25)            107.9921         estimate D2E/DX2                !
 ! A62   A(4,13,26)            112.4699         estimate D2E/DX2                !
 ! A63   A(25,13,26)           106.3834         estimate D2E/DX2                !
 ! D1    D(7,1,4,13)            51.8424         estimate D2E/DX2                !
 ! D2    D(7,1,4,17)           172.0741         estimate D2E/DX2                !
 ! D3    D(7,1,4,18)           -70.5045         estimate D2E/DX2                !
 ! D4    D(14,1,4,13)          -68.3308         estimate D2E/DX2                !
 ! D5    D(14,1,4,17)           51.9009         estimate D2E/DX2                !
 ! D6    D(14,1,4,18)          169.3224         estimate D2E/DX2                !
 ! D7    D(15,1,4,13)          172.9869         estimate D2E/DX2                !
 ! D8    D(15,1,4,17)          -66.7814         estimate D2E/DX2                !
 ! D9    D(15,1,4,18)           50.6401         estimate D2E/DX2                !
 ! D10   D(4,1,7,11)           -54.9992         estimate D2E/DX2                !
 ! D11   D(4,1,7,19)            67.5564         estimate D2E/DX2                !
 ! D12   D(4,1,7,20)          -172.3776         estimate D2E/DX2                !
 ! D13   D(14,1,7,11)           65.5977         estimate D2E/DX2                !
 ! D14   D(14,1,7,19)         -171.8467         estimate D2E/DX2                !
 ! D15   D(14,1,7,20)          -51.7808         estimate D2E/DX2                !
 ! D16   D(15,1,7,11)         -177.3213         estimate D2E/DX2                !
 ! D17   D(15,1,7,19)          -54.7657         estimate D2E/DX2                !
 ! D18   D(15,1,7,20)           65.3003         estimate D2E/DX2                !
 ! D19   D(12,2,11,7)           82.6748         estimate D2E/DX2                !
 ! D20   D(13,2,11,7)          -51.3755         estimate D2E/DX2                !
 ! D21   D(27,2,11,7)         -167.5338         estimate D2E/DX2                !
 ! D22   D(11,2,12,8)          -95.6626         estimate D2E/DX2                !
 ! D23   D(13,2,12,8)           33.7158         estimate D2E/DX2                !
 ! D24   D(27,2,12,8)          153.9267         estimate D2E/DX2                !
 ! D25   D(11,2,13,4)           47.3401         estimate D2E/DX2                !
 ! D26   D(11,2,13,25)         -70.7563         estimate D2E/DX2                !
 ! D27   D(11,2,13,26)         175.289          estimate D2E/DX2                !
 ! D28   D(12,2,13,4)          -81.8935         estimate D2E/DX2                !
 ! D29   D(12,2,13,25)         160.0102         estimate D2E/DX2                !
 ! D30   D(12,2,13,26)          46.0555         estimate D2E/DX2                !
 ! D31   D(27,2,13,4)          160.6735         estimate D2E/DX2                !
 ! D32   D(27,2,13,25)          42.5772         estimate D2E/DX2                !
 ! D33   D(27,2,13,26)         -71.3775         estimate D2E/DX2                !
 ! D34   D(9,3,8,10)            51.6174         estimate D2E/DX2                !
 ! D35   D(9,3,8,12)           -66.3153         estimate D2E/DX2                !
 ! D36   D(9,3,8,31)           169.4398         estimate D2E/DX2                !
 ! D37   D(16,3,8,10)          -67.2252         estimate D2E/DX2                !
 ! D38   D(16,3,8,12)          174.8421         estimate D2E/DX2                !
 ! D39   D(16,3,8,31)           50.5971         estimate D2E/DX2                !
 ! D40   D(30,3,8,10)          176.4635         estimate D2E/DX2                !
 ! D41   D(30,3,8,12)           58.5307         estimate D2E/DX2                !
 ! D42   D(30,3,8,31)          -65.7142         estimate D2E/DX2                !
 ! D43   D(8,3,9,5)            -51.7092         estimate D2E/DX2                !
 ! D44   D(8,3,9,21)            69.1979         estimate D2E/DX2                !
 ! D45   D(8,3,9,22)          -172.4101         estimate D2E/DX2                !
 ! D46   D(16,3,9,5)            65.5834         estimate D2E/DX2                !
 ! D47   D(16,3,9,21)         -173.5095         estimate D2E/DX2                !
 ! D48   D(16,3,9,22)          -55.1175         estimate D2E/DX2                !
 ! D49   D(30,3,9,5)          -177.0795         estimate D2E/DX2                !
 ! D50   D(30,3,9,21)          -56.1724         estimate D2E/DX2                !
 ! D51   D(30,3,9,22)           62.2196         estimate D2E/DX2                !
 ! D52   D(1,4,13,2)           -49.3196         estimate D2E/DX2                !
 ! D53   D(1,4,13,25)           66.8715         estimate D2E/DX2                !
 ! D54   D(1,4,13,26)         -176.0472         estimate D2E/DX2                !
 ! D55   D(17,4,13,2)         -170.2934         estimate D2E/DX2                !
 ! D56   D(17,4,13,25)         -54.1023         estimate D2E/DX2                !
 ! D57   D(17,4,13,26)          62.979          estimate D2E/DX2                !
 ! D58   D(18,4,13,2)           72.2097         estimate D2E/DX2                !
 ! D59   D(18,4,13,25)        -171.5992         estimate D2E/DX2                !
 ! D60   D(18,4,13,26)         -54.5179         estimate D2E/DX2                !
 ! D61   D(9,5,6,10)           -59.6052         estimate D2E/DX2                !
 ! D62   D(28,5,6,10)           62.2696         estimate D2E/DX2                !
 ! D63   D(29,5,6,10)          178.8422         estimate D2E/DX2                !
 ! D64   D(6,5,9,3)             54.3374         estimate D2E/DX2                !
 ! D65   D(6,5,9,21)           -67.1518         estimate D2E/DX2                !
 ! D66   D(6,5,9,22)           175.7609         estimate D2E/DX2                !
 ! D67   D(28,5,9,3)           -66.631          estimate D2E/DX2                !
 ! D68   D(28,5,9,21)          171.8798         estimate D2E/DX2                !
 ! D69   D(28,5,9,22)           54.7924         estimate D2E/DX2                !
 ! D70   D(29,5,9,3)           172.7923         estimate D2E/DX2                !
 ! D71   D(29,5,9,21)           51.3031         estimate D2E/DX2                !
 ! D72   D(29,5,9,22)          -65.7843         estimate D2E/DX2                !
 ! D73   D(5,6,10,8)            60.7992         estimate D2E/DX2                !
 ! D74   D(5,6,10,23)          -60.3588         estimate D2E/DX2                !
 ! D75   D(5,6,10,24)         -177.9774         estimate D2E/DX2                !
 ! D76   D(1,7,11,2)            56.7204         estimate D2E/DX2                !
 ! D77   D(19,7,11,2)          -66.5931         estimate D2E/DX2                !
 ! D78   D(20,7,11,2)          177.5797         estimate D2E/DX2                !
 ! D79   D(3,8,10,6)           -55.4889         estimate D2E/DX2                !
 ! D80   D(3,8,10,23)           65.9691         estimate D2E/DX2                !
 ! D81   D(3,8,10,24)         -174.5071         estimate D2E/DX2                !
 ! D82   D(12,8,10,6)           67.7688         estimate D2E/DX2                !
 ! D83   D(12,8,10,23)        -170.7732         estimate D2E/DX2                !
 ! D84   D(12,8,10,24)         -51.2494         estimate D2E/DX2                !
 ! D85   D(31,8,10,6)         -174.7165         estimate D2E/DX2                !
 ! D86   D(31,8,10,23)         -53.2585         estimate D2E/DX2                !
 ! D87   D(31,8,10,24)          66.2653         estimate D2E/DX2                !
 ! D88   D(3,8,12,2)           -78.5181         Frozen                          !
 ! D89   D(10,8,12,2)          161.6278         estimate D2E/DX2                !
 ! D90   D(31,8,12,2)           45.6856         estimate D2E/DX2                !
 --------------------------------------------------------------------------------
 Trust Radius=3.00D-01 FncErr=1.00D-07 GrdErr=1.00D-06 EigMax=2.50D+02 EigMin=1.00D-04
 Number of steps in this run=    186 maximum allowed number of steps=    186.
 GradGradGradGradGradGradGradGradGradGradGradGradGradGradGradGradGradGrad

                          Input orientation:                          
 ---------------------------------------------------------------------
 Center     Atomic      Atomic             Coordinates (Angstroms)
 Number     Number       Type             X           Y           Z
 ---------------------------------------------------------------------
      1          6           0        3.314321    0.161238   -0.763471
      2          6           0        1.117319   -0.152039    1.144422
      3          6           0       -1.374932    1.177940   -0.621675
      4          6           0        2.312848    1.305497   -0.606945
      5          6           0       -3.546666    0.158493    0.096772
      6          8           0       -2.902871   -1.100489    0.172752
      7          6           0        2.657178   -1.166428   -0.427187
      8          6           0       -0.761000   -0.222681   -0.573141
      9          6           0       -2.561621    1.292252    0.337876
     10          6           0       -1.862102   -1.253890   -0.767822
     11          8           0        2.074662   -1.146389    0.868927
     12          8           0       -0.144270   -0.549428    0.668528
     13          6           0        1.658295    1.227551    0.773955
     14          1           0        4.158340    0.318158   -0.095937
     15          1           0        3.703624    0.118494   -1.776641
     16          1           0       -1.723654    1.329640   -1.640974
     17          1           0        2.813686    2.263178   -0.710394
     18          1           0        1.569965    1.254310   -1.396079
     19          1           0        1.902257   -1.422957   -1.162186
     20          1           0        3.382502   -1.968049   -0.403807
     21          1           0       -2.218502    1.257787    1.367912
     22          1           0       -3.070217    2.241914    0.198638
     23          1           0       -2.263444   -1.158875   -1.773825
     24          1           0       -1.472520   -2.254073   -0.642465
     25          1           0        2.421982    1.432803    1.519530
     26          1           0        0.890229    1.976207    0.910034
     27          1           0        0.997820   -0.195366    2.214955
     28          1           0       -4.010033    0.259085   -0.882557
     29          1           0       -4.328571    0.145996    0.843831
     30          1           0       -0.643272    1.947148   -0.427335
     31          1           0       -0.052199   -0.342546   -1.381050
 ---------------------------------------------------------------------
                    Distance matrix (angstroms):
                    1          2          3          4          5
     1  C    0.000000
     2  C    2.926605   0.000000
     3  C    4.800300   3.331555   0.000000
     4  C    1.528652   2.573128   3.690015   0.000000
     5  C    6.914707   4.790277   2.504370   6.012050   0.000000
     6  O    6.412639   4.243304   2.856038   5.796587   1.416079
     7  C    1.519086   2.422830   4.668169   2.502257   6.365346
     8  C    4.097787   2.546192   1.530035   3.432931   2.890331
     9  C    6.084312   4.033744   1.530371   4.965210   1.521136
    10  C    5.366373   3.707789   2.484450   4.899648   2.362224
    11  O    2.431330   1.407528   4.418608   2.871703   5.822222
    12  O    3.810186   1.405703   2.482530   3.332418   3.521982
    13  C    2.498624   1.527472   3.339268   1.530163   5.356592
    14  H    1.087471   3.317738   5.624298   2.154486   7.709069
    15  H    1.086231   3.910853   5.314894   2.170581   7.488523
    16  H    5.245605   4.245578   1.087929   4.166911   2.777538
    17  H    2.161389   3.485868   4.327832   1.085676   6.747984
    18  H    2.153550   2.938852   3.045973   1.085001   5.441446
    19  H    2.159299   2.748054   4.218624   2.814487   5.811774
    20  H    2.160525   3.290283   5.707705   3.449859   7.265406
    21  H    6.029705   3.628396   2.162508   4.943225   2.142023
    22  H    6.783597   4.915382   2.163087   5.522973   2.139632
    23  H    5.820221   4.578148   2.752745   5.327024   2.623214
    24  H    5.363042   3.784016   3.433463   5.196230   3.266348
    25  H    2.761384   2.086762   4.366494   2.133076   6.266807
    26  H    3.459907   2.153123   2.848564   2.185159   4.863282
    27  H    3.790035   1.078053   3.944920   3.456155   5.026357
    28  H    7.325976   5.528780   2.802876   6.414808   1.088078
    29  H    7.810086   5.462316   3.454938   6.896205   1.081494
    30  H    4.354883   3.158589   1.079248   3.030284   3.450170
    31  H    3.459575   2.789637   2.153637   2.984750   3.827048
                    6          7          8          9         10
     6  O    0.000000
     7  C    5.592711   0.000000
     8  C    2.431978   3.549071   0.000000
     9  C    2.422587   5.819475   2.523333   0.000000
    10  C    1.411174   4.532943   1.521091   2.862645   0.000000
    11  O    5.026192   1.421140   3.312669   5.265368   4.264811
    12  O    2.856456   3.070731   1.424381   3.056911   2.347406
    13  C    5.156108   2.858609   3.125832   4.242881   4.574694
    14  H    7.207319   2.137103   4.971935   6.804038   6.258473
    15  H    6.995129   2.137077   4.636559   6.715816   5.820521
    16  H    3.253564   5.186070   2.115814   2.149287   2.730602
    17  H    6.691280   3.444836   4.356227   5.561968   5.851159
    18  H    5.292690   2.825023   2.879605   4.480853   4.297076
    19  H    4.997529   1.084406   2.980029   5.435876   3.788734
    20  H    6.371106   1.081313   4.499288   6.819989   5.305507
    21  H    2.730977   5.733363   2.843200   1.086229   3.316158
    22  H    3.346690   6.694140   3.464441   1.086239   3.822857
    23  H    2.049741   5.101570   2.139028   3.249033   1.087265
    24  H    2.010283   4.275947   2.153513   3.837138   1.080673
    25  H    6.048590   3.255922   4.153465   5.123706   5.550106
    26  H    4.939357   3.845312   3.124336   3.565169   4.563338
    27  H    4.495023   3.267621   3.296615   4.290228   4.265746
    28  H    2.046442   6.833092   3.299099   2.157496   2.629803
    29  H    2.009152   7.220709   3.856332   2.166104   3.261990
    30  H    3.841091   4.537326   2.177907   2.166679   3.442110
    31  H    3.333933   2.988203   1.081427   3.453183   2.117155
                   11         12         13         14         15
    11  O    0.000000
    12  O    2.306552   0.000000
    13  C    2.412047   2.533379   0.000000
    14  H    2.723522   4.455285   2.798916   0.000000
    15  H    3.354471   4.607739   3.452379   1.752541   0.000000
    16  H    5.182425   3.370334   4.156908   6.165070   5.562430
    17  H    3.829564   4.308327   2.147264   2.443103   2.555101
    18  H    3.338911   3.233369   2.171996   3.044082   2.446918
    19  H    2.057093   2.881465   3.291406   3.042742   2.449194
    20  H    2.001355   3.949748   3.817312   2.433814   2.518224
    21  H    4.945736   2.838592   3.922149   6.609831   6.801307
    22  H    6.196746   4.071063   4.870190   7.485963   7.368552
    23  H    5.079710   3.290503   5.250357   6.799724   6.102260
    24  H    4.011704   2.527601   4.891825   6.214632   5.805850
    25  H    2.682563   3.352476   1.086843   2.620516   3.772898
    26  H    3.339937   2.739954   1.081170   3.800218   4.310976
    27  H    1.968711   1.954780   2.130118   3.948774   4.832465
    28  H    6.485874   4.243075   5.984305   8.206374   7.766573
    29  H    6.532402   4.245317   6.084177   8.540519   8.448893
    30  H    4.317109   2.771788   2.694091   5.081231   4.905110
    31  H    3.198765   2.062049   3.167813   4.451593   3.804636
                   16         17         18         19         20
    16  H    0.000000
    17  H    4.724926   0.000000
    18  H    3.303570   1.742074   0.000000
    19  H    4.577473   3.823926   2.707930   0.000000
    20  H    6.203077   4.280284   3.827988   1.750254   0.000000
    21  H    3.050153   5.536523   4.689578   5.528873   6.701959
    22  H    2.455534   5.953747   5.004975   6.325237   7.728151
    23  H    2.549849   6.214385   4.545457   4.218638   5.865869
    24  H    3.728684   6.227498   4.704615   3.514254   4.869292
    25  H    5.213993   2.411538   3.042790   3.951845   4.023384
    26  H    3.709188   2.531368   2.510246   4.107629   4.847139
    27  H    4.959864   4.230777   3.932998   3.705411   3.960685
    28  H    2.636060   7.114012   5.691270   6.153262   7.735561
    29  H    3.789573   7.609856   6.406113   6.731191   8.092369
    30  H    1.738235   3.482895   2.513346   4.286879   5.615708
    31  H    2.378556   3.931014   2.276311   2.243900   3.923574
                   21         22         23         24         25
    21  H    0.000000
    22  H    1.749607   0.000000
    23  H    3.963936   4.013335   0.000000
    24  H    4.114762   4.844996   1.762100   0.000000
    25  H    4.646258   5.706458   6.286191   5.782251   0.000000
    26  H    3.223350   4.032594   5.193986   5.088035   1.735811
    27  H    3.629582   5.153134   5.241618   4.301826   2.272177
    28  H    3.044930   2.446190   2.419823   3.579466   6.965519
    29  H    2.441952   2.528359   3.580441   4.015773   6.905245
    30  H    2.485856   2.523646   3.753048   4.287679   3.667508
    31  H    3.848471   4.275895   2.389617   2.493342   4.205568
                   26         27         28         29         30
    26  H    0.000000
    27  H    2.535769   0.000000
    28  H    5.493128   5.905904   0.000000
    29  H    5.530816   5.510622   1.759168   0.000000
    30  H    2.034951   3.776936   3.793661   4.294350   0.000000
    31  H    3.393207   3.749060   4.034217   4.845217   2.549831
                   31
    31  H    0.000000
 Stoichiometry    C10H18O3
 Framework group  C1[X(C10H18O3)]
 Deg. of freedom    87
 Full point group                 C1      NOp   1
 Largest Abelian subgroup         C1      NOp   1
 Largest concise Abelian subgroup C1      NOp   1
                         Standard orientation:                         
 ---------------------------------------------------------------------
 Center     Atomic      Atomic             Coordinates (Angstroms)
 Number     Number       Type             X           Y           Z
 ---------------------------------------------------------------------
      1          6           0        3.314321    0.161238   -0.763471
      2          6           0        1.117319   -0.152039    1.144422
      3          6           0       -1.374932    1.177940   -0.621675
      4          6           0        2.312848    1.305497   -0.606945
      5          6           0       -3.546666    0.158493    0.096772
      6          8           0       -2.902871   -1.100489    0.172752
      7          6           0        2.657178   -1.166428   -0.427187
      8          6           0       -0.761000   -0.222681   -0.573141
      9          6           0       -2.561621    1.292252    0.337876
     10          6           0       -1.862102   -1.253890   -0.767822
     11          8           0        2.074662   -1.146389    0.868927
     12          8           0       -0.144270   -0.549428    0.668528
     13          6           0        1.658295    1.227551    0.773955
     14          1           0        4.158340    0.318158   -0.095937
     15          1           0        3.703624    0.118494   -1.776641
     16          1           0       -1.723654    1.329640   -1.640974
     17          1           0        2.813686    2.263178   -0.710394
     18          1           0        1.569965    1.254310   -1.396079
     19          1           0        1.902257   -1.422957   -1.162186
     20          1           0        3.382502   -1.968049   -0.403807
     21          1           0       -2.218502    1.257787    1.367912
     22          1           0       -3.070217    2.241914    0.198638
     23          1           0       -2.263444   -1.158875   -1.773825
     24          1           0       -1.472520   -2.254073   -0.642465
     25          1           0        2.421982    1.432803    1.519530
     26          1           0        0.890229    1.976207    0.910034
     27          1           0        0.997820   -0.195366    2.214955
     28          1           0       -4.010033    0.259085   -0.882557
     29          1           0       -4.328571    0.145996    0.843831
     30          1           0       -0.643272    1.947148   -0.427335
     31          1           0       -0.052199   -0.342546   -1.381050
 ---------------------------------------------------------------------
 Rotational constants (GHZ):           1.7134253           0.4774172           0.4381452
 Standard basis: 6-311++G(2d,2p) (5D, 7F)
 There are   557 symmetry adapted cartesian basis functions of A   symmetry.
 There are   531 symmetry adapted basis functions of A   symmetry.
   531 basis functions,   762 primitive gaussians,   557 cartesian basis functions
    51 alpha electrons       51 beta electrons
       nuclear repulsion energy       909.3656225070 Hartrees.
 NAtoms=   31 NActive=   31 NUniq=   31 SFac= 1.00D+00 NAtFMM=   60 NAOKFM=F Big=F
 Integral buffers will be    131072 words long.
 Raffenetti 2 integral format.
 Two-electron integral symmetry is turned on.
 ------------------------------------------------------------------------------
 Polarizable Continuum Model (PCM)
 =================================
 Model                : PCM.
 Atomic radii         : UFF (Universal Force Field).
 Polarization charges : Total charges.
 Charge compensation  : None.
 Solution method      : On-the-fly selection.
 Cavity type          : Scaled VdW (van der Waals Surface) (Alpha=1.100).
 Cavity algorithm     : GePol (No added spheres)
                        Default sphere list used, NSphG=   31.
                        Lebedev-Laikov grids with approx.  5.0 points / Ang**2.
                        Smoothing algorithm: York/Karplus (Gamma=1.0000).
                        Polarization charges: spherical gaussians, with
                                              point-specific exponents (IZeta= 3).
                        Self-potential: point-specific (ISelfS= 7).
                        Self-field    : sphere-specific E.n sum rule (ISelfD= 2).
 1st derivatives      : Analytical E(r).r(x)/FMM algorithm (CHGder, D1EAlg=3).
                        Cavity 1st derivative terms included.
 Solvent              : Water, Eps=  78.355300 Eps(inf)=   1.777849
 ------------------------------------------------------------------------------
 One-electron integrals computed using PRISM.
 NBasis=   531 RedAO= T EigKep=  4.45D-06  NBF=   531
 NBsUse=   531 1.00D-06 EigRej= -1.00D+00 NBFU=   531
 ExpMin= 3.60D-02 ExpMax= 8.59D+03 ExpMxC= 1.30D+03 IAcc=3 IRadAn=         5 AccDes= 0.00D+00
 Harris functional with IExCor= 1009 and IRadAn=       5 diagonalized for initial guess.
 HarFok:  IExCor= 1009 AccDes= 0.00D+00 IRadAn=         5 IDoV= 1 UseB2=F ITyADJ=14
 ICtDFT=  3500011 ScaDFX=  1.000000  1.000000  1.000000  1.000000
 FoFCou: FMM=F IPFlag=           0 FMFlag=      100000 FMFlg1=           0
         NFxFlg=           0 DoJE=T BraDBF=F KetDBF=T FulRan=T
         wScrn=  0.000000 ICntrl=       500 IOpCl=  0 I1Cent=   200000004 NGrid=           0
         NMat0=    1 NMatS0=      1 NMatT0=    0 NMatD0=    1 NMtDS0=    0 NMtDT0=    0
 Petite list used in FoFCou.
 Requested convergence on RMS density matrix=1.00D-08 within 128 cycles.
 Requested convergence on MAX density matrix=1.00D-06.
 Requested convergence on             energy=1.00D-06.
 No special actions if energy rises.
 Inv3:  Mode=1 IEnd=    11964027.
 Iteration    1 A*A^-1 deviation from unit magnitude is 3.55D-15 for   1991.
 Iteration    1 A*A^-1 deviation from orthogonality  is 1.97D-15 for   1977    828.
 Iteration    1 A^-1*A deviation from unit magnitude is 3.55D-15 for   1991.
 Iteration    1 A^-1*A deviation from orthogonality  is 2.90D-15 for   1979   1071.
 Error on total polarization charges =  0.01469
 SCF Done:  E(RM062X) =  -617.488110600     A.U. after   12 cycles
            NFock= 12  Conv=0.77D-08     -V/T= 2.0035

 **********************************************************************

            Population analysis using the SCF density.

 **********************************************************************

 Orbital symmetries:
       Occupied  (A) (A) (A) (A) (A) (A) (A) (A) (A) (A) (A) (A)
                 (A) (A) (A) (A) (A) (A) (A) (A) (A) (A) (A) (A)
                 (A) (A) (A) (A) (A) (A) (A) (A) (A) (A) (A) (A)
                 (A) (A) (A) (A) (A) (A) (A) (A) (A) (A) (A) (A)
                 (A) (A) (A)
       Virtual   (A) (A) (A) (A) (A) (A) (A) (A) (A) (A) (A) (A)
                 (A) (A) (A) (A) (A) (A) (A) (A) (A) (A) (A) (A)
                 (A) (A) (A) (A) (A) (A) (A) (A) (A) (A) (A) (A)
                 (A) (A) (A) (A) (A) (A) (A) (A) (A) (A) (A) (A)
                 (A) (A) (A) (A) (A) (A) (A) (A) (A) (A) (A) (A)
                 (A) (A) (A) (A) (A) (A) (A) (A) (A) (A) (A) (A)
                 (A) (A) (A) (A) (A) (A) (A) (A) (A) (A) (A) (A)
                 (A) (A) (A) (A) (A) (A) (A) (A) (A) (A) (A) (A)
                 (A) (A) (A) (A) (A) (A) (A) (A) (A) (A) (A) (A)
                 (A) (A) (A) (A) (A) (A) (A) (A) (A) (A) (A) (A)
                 (A) (A) (A) (A) (A) (A) (A) (A) (A) (A) (A) (A)
                 (A) (A) (A) (A) (A) (A) (A) (A) (A) (A) (A) (A)
                 (A) (A) (A) (A) (A) (A) (A) (A) (A) (A) (A) (A)
                 (A) (A) (A) (A) (A) (A) (A) (A) (A) (A) (A) (A)
                 (A) (A) (A) (A) (A) (A) (A) (A) (A) (A) (A) (A)
                 (A) (A) (A) (A) (A) (A) (A) (A) (A) (A) (A) (A)
                 (A) (A) (A) (A) (A) (A) (A) (A) (A) (A) (A) (A)
                 (A) (A) (A) (A) (A) (A) (A) (A) (A) (A) (A) (A)
                 (A) (A) (A) (A) (A) (A) (A) (A) (A) (A) (A) (A)
                 (A) (A) (A) (A) (A) (A) (A) (A) (A) (A) (A) (A)
                 (A) (A) (A) (A) (A) (A) (A) (A) (A) (A) (A) (A)
                 (A) (A) (A) (A) (A) (A) (A) (A) (A) (A) (A) (A)
                 (A) (A) (A) (A) (A) (A) (A) (A) (A) (A) (A) (A)
                 (A) (A) (A) (A) (A) (A) (A) (A) (A) (A) (A) (A)
                 (A) (A) (A) (A) (A) (A) (A) (A) (A) (A) (A) (A)
                 (A) (A) (A) (A) (A) (A) (A) (A) (A) (A) (A) (A)
                 (A) (A) (A) (A) (A) (A) (A) (A) (A) (A) (A) (A)
                 (A) (A) (A) (A) (A) (A) (A) (A) (A) (A) (A) (A)
                 (A) (A) (A) (A) (A) (A) (A) (A) (A) (A) (A) (A)
                 (A) (A) (A) (A) (A) (A) (A) (A) (A) (A) (A) (A)
                 (A) (A) (A) (A) (A) (A) (A) (A) (A) (A) (A) (A)
                 (A) (A) (A) (A) (A) (A) (A) (A) (A) (A) (A) (A)
                 (A) (A) (A) (A) (A) (A) (A) (A) (A) (A) (A) (A)
                 (A) (A) (A) (A) (A) (A) (A) (A) (A) (A) (A) (A)
                 (A) (A) (A) (A) (A) (A) (A) (A) (A) (A) (A) (A)
                 (A) (A) (A) (A) (A) (A) (A) (A) (A) (A) (A) (A)
                 (A) (A) (A) (A) (A) (A) (A) (A) (A) (A) (A) (A)
                 (A) (A) (A) (A) (A) (A) (A) (A) (A) (A) (A) (A)
                 (A) (A) (A) (A) (A) (A) (A) (A) (A) (A) (A) (A)
                 (A) (A) (A) (A) (A) (A) (A) (A) (A) (A) (A) (A)
 The electronic state is 1-A.
 Alpha  occ. eigenvalues --  -19.62660 -19.62540 -19.62530 -10.63734 -10.59095
 Alpha  occ. eigenvalues --  -10.57930 -10.57839 -10.57738 -10.53392 -10.53346
 Alpha  occ. eigenvalues --  -10.53219 -10.52955 -10.52894  -1.19401  -1.16574
 Alpha  occ. eigenvalues --   -1.13009  -0.90586  -0.90349  -0.87827  -0.85030
 Alpha  occ. eigenvalues --   -0.75286  -0.74295  -0.73595  -0.71381  -0.66842
 Alpha  occ. eigenvalues --   -0.62497  -0.59807  -0.58110  -0.57261  -0.55584
 Alpha  occ. eigenvalues --   -0.54763  -0.53728  -0.52964  -0.51048  -0.50406
 Alpha  occ. eigenvalues --   -0.48973  -0.47210  -0.46330  -0.45903  -0.45118
 Alpha  occ. eigenvalues --   -0.43879  -0.42258  -0.40871  -0.40344  -0.39116
 Alpha  occ. eigenvalues --   -0.38702  -0.37560  -0.36411  -0.34308  -0.32867
 Alpha  occ. eigenvalues --   -0.32026
 Alpha virt. eigenvalues --   -0.00230   0.00713   0.00878   0.01207   0.02293
 Alpha virt. eigenvalues --    0.02530   0.02783   0.03200   0.03567   0.04628
 Alpha virt. eigenvalues --    0.04813   0.04956   0.05692   0.06103   0.07290
 Alpha virt. eigenvalues --    0.07440   0.07935   0.08227   0.08757   0.09975
 Alpha virt. eigenvalues --    0.10603   0.10959   0.11209   0.11298   0.11606
 Alpha virt. eigenvalues --    0.11931   0.12072   0.12914   0.13216   0.13422
 Alpha virt. eigenvalues --    0.13833   0.14176   0.14359   0.14415   0.14639
 Alpha virt. eigenvalues --    0.14852   0.15401   0.15837   0.15863   0.16078
 Alpha virt. eigenvalues --    0.16689   0.17129   0.17459   0.17528   0.17892
 Alpha virt. eigenvalues --    0.17984   0.18329   0.18374   0.18834   0.19516
 Alpha virt. eigenvalues --    0.20156   0.20329   0.20635   0.21122   0.22085
 Alpha virt. eigenvalues --    0.22588   0.22839   0.23380   0.23787   0.24173
 Alpha virt. eigenvalues --    0.24902   0.25592   0.26349   0.26639   0.27236
 Alpha virt. eigenvalues --    0.27641   0.28399   0.28518   0.28996   0.29763
 Alpha virt. eigenvalues --    0.30207   0.30600   0.30950   0.31896   0.32469
 Alpha virt. eigenvalues --    0.32902   0.33604   0.33993   0.34078   0.34366
 Alpha virt. eigenvalues --    0.34705   0.35296   0.35821   0.35931   0.36218
 Alpha virt. eigenvalues --    0.36678   0.37196   0.37476   0.37821   0.38806
 Alpha virt. eigenvalues --    0.38903   0.39380   0.39555   0.39754   0.40223
 Alpha virt. eigenvalues --    0.41089   0.41619   0.41745   0.44062   0.46653
 Alpha virt. eigenvalues --    0.47562   0.47966   0.48942   0.49571   0.50199
 Alpha virt. eigenvalues --    0.51414   0.52534   0.53802   0.54813   0.55434
 Alpha virt. eigenvalues --    0.56816   0.57211   0.57932   0.59274   0.59715
 Alpha virt. eigenvalues --    0.59969   0.60324   0.61281   0.61510   0.61742
 Alpha virt. eigenvalues --    0.62244   0.63131   0.63262   0.64140   0.64863
 Alpha virt. eigenvalues --    0.65277   0.65765   0.66769   0.66897   0.67326
 Alpha virt. eigenvalues --    0.67992   0.68749   0.69029   0.69717   0.70160
 Alpha virt. eigenvalues --    0.71079   0.71496   0.71660   0.71794   0.73164
 Alpha virt. eigenvalues --    0.73445   0.74143   0.74749   0.76114   0.76218
 Alpha virt. eigenvalues --    0.76818   0.77565   0.78304   0.79449   0.79651
 Alpha virt. eigenvalues --    0.80845   0.82315   0.83096   0.84166   0.85164
 Alpha virt. eigenvalues --    0.86226   0.87581   0.88624   0.89007   0.90445
 Alpha virt. eigenvalues --    0.90788   0.93004   0.94412   0.95172   0.95592
 Alpha virt. eigenvalues --    0.96866   0.97270   0.99831   1.00646   1.01566
 Alpha virt. eigenvalues --    1.02868   1.03288   1.04289   1.04947   1.06256
 Alpha virt. eigenvalues --    1.06384   1.07808   1.09228   1.10795   1.11390
 Alpha virt. eigenvalues --    1.13291   1.14042   1.15765   1.15984   1.17010
 Alpha virt. eigenvalues --    1.18003   1.18301   1.18904   1.19710   1.20621
 Alpha virt. eigenvalues --    1.21456   1.22656   1.23184   1.23704   1.25256
 Alpha virt. eigenvalues --    1.25545   1.26545   1.26727   1.27189   1.28370
 Alpha virt. eigenvalues --    1.28734   1.29694   1.30843   1.31608   1.32129
 Alpha virt. eigenvalues --    1.32719   1.33157   1.33868   1.34550   1.35164
 Alpha virt. eigenvalues --    1.35604   1.36630   1.37870   1.38300   1.38993
 Alpha virt. eigenvalues --    1.40020   1.40419   1.40848   1.41224   1.41989
 Alpha virt. eigenvalues --    1.42619   1.43295   1.44076   1.44641   1.45206
 Alpha virt. eigenvalues --    1.45915   1.46953   1.47263   1.47947   1.49081
 Alpha virt. eigenvalues --    1.49955   1.51020   1.51436   1.52055   1.53094
 Alpha virt. eigenvalues --    1.53551   1.53886   1.54417   1.55099   1.55576
 Alpha virt. eigenvalues --    1.56847   1.57356   1.57561   1.58807   1.59452
 Alpha virt. eigenvalues --    1.59660   1.60683   1.60940   1.63129   1.63768
 Alpha virt. eigenvalues --    1.64569   1.64900   1.65486   1.66365   1.66872
 Alpha virt. eigenvalues --    1.68151   1.69396   1.69462   1.71421   1.72686
 Alpha virt. eigenvalues --    1.72892   1.74311   1.75445   1.76130   1.77855
 Alpha virt. eigenvalues --    1.79071   1.79613   1.81010   1.83273   1.85501
 Alpha virt. eigenvalues --    1.87740   1.90284   1.92712   2.00095   2.01374
 Alpha virt. eigenvalues --    2.04234   2.05156   2.12081   2.18461   2.19926
 Alpha virt. eigenvalues --    2.25239   2.25317   2.27383   2.29505   2.39940
 Alpha virt. eigenvalues --    2.40163   2.43923   2.44896   2.48450   2.54151
 Alpha virt. eigenvalues --    2.56364   2.74796   2.76329   2.78602   2.81494
 Alpha virt. eigenvalues --    2.84982   2.88991   2.91969   2.93404   2.94316
 Alpha virt. eigenvalues --    2.97100   2.97535   3.00643   3.01964   3.03423
 Alpha virt. eigenvalues --    3.06754   3.07164   3.08665   3.10064   3.11587
 Alpha virt. eigenvalues --    3.13919   3.14615   3.17114   3.20048   3.24133
 Alpha virt. eigenvalues --    3.24260   3.30117   3.31422   3.32967   3.34336
 Alpha virt. eigenvalues --    3.34941   3.36958   3.38135   3.40280   3.41761
 Alpha virt. eigenvalues --    3.42762   3.43276   3.45236   3.46260   3.46598
 Alpha virt. eigenvalues --    3.47627   3.49263   3.49744   3.50679   3.52928
 Alpha virt. eigenvalues --    3.53210   3.53833   3.53943   3.55210   3.56787
 Alpha virt. eigenvalues --    3.57533   3.58259   3.58572   3.59031   3.59692
 Alpha virt. eigenvalues --    3.61016   3.63266   3.64575   3.65215   3.66376
 Alpha virt. eigenvalues --    3.66686   3.67238   3.68111   3.69051   3.69542
 Alpha virt. eigenvalues --    3.70217   3.70863   3.71940   3.73362   3.74260
 Alpha virt. eigenvalues --    3.74991   3.76001   3.76410   3.77087   3.77570
 Alpha virt. eigenvalues --    3.78272   3.79508   3.80726   3.82659   3.85421
 Alpha virt. eigenvalues --    3.86057   3.88603   3.89114   3.90181   3.92484
 Alpha virt. eigenvalues --    3.92601   3.94633   3.95331   3.97206   3.98182
 Alpha virt. eigenvalues --    4.00308   4.01013   4.02610   4.03468   4.03868
 Alpha virt. eigenvalues --    4.05008   4.05577   4.06270   4.07406   4.07900
 Alpha virt. eigenvalues --    4.08264   4.08420   4.09922   4.10855   4.11747
 Alpha virt. eigenvalues --    4.12693   4.13326   4.14051   4.15097   4.15402
 Alpha virt. eigenvalues --    4.16674   4.17304   4.18638   4.19418   4.21129
 Alpha virt. eigenvalues --    4.22396   4.24240   4.24827   4.26616   4.28365
 Alpha virt. eigenvalues --    4.29467   4.30166   4.30669   4.31136   4.32621
 Alpha virt. eigenvalues --    4.35193   4.35954   4.37636   4.40002   4.41266
 Alpha virt. eigenvalues --    4.41786   4.44604   4.46277   4.51262   4.53393
 Alpha virt. eigenvalues --    4.59488   4.60160   4.73531   4.75240   4.83241
 Alpha virt. eigenvalues --    4.85401   4.93834   4.94894   4.99622   5.04062
 Alpha virt. eigenvalues --    5.07199   5.07495   5.07885   5.09122   5.11336
 Alpha virt. eigenvalues --    5.12878   5.14805   5.18004   5.31933   5.34895
 Alpha virt. eigenvalues --    5.40695   5.56958   5.59007   5.61082   5.86443
 Alpha virt. eigenvalues --    5.88365   6.01616   7.03257   7.05764   7.06696
 Alpha virt. eigenvalues --    7.08028   7.09733   7.10405   7.12392   7.13633
 Alpha virt. eigenvalues --    7.31468   7.37247   7.42039   7.51021   7.52363
 Alpha virt. eigenvalues --    7.57034   7.59165  23.95730  23.96048  24.05195
 Alpha virt. eigenvalues --   24.07802  24.10551  24.12560  24.14073  24.14911
 Alpha virt. eigenvalues --   24.16971  24.20478  50.16757  50.18344  50.24751
          Condensed to atoms (all electrons):
               1          2          3          4          5          6
     1  C    6.627775   0.088021   0.073615  -0.496205   0.000001   0.000401
     2  C    0.088021   7.202520   0.180083   0.382312   0.024084   0.002651
     3  C    0.073615   0.180083   6.671244  -0.038271  -0.214735  -0.008166
     4  C   -0.496205   0.382312  -0.038271   6.063307   0.001001   0.002332
     5  C    0.000001   0.024084  -0.214735   0.001001   5.526878   0.106789
     6  O    0.000401   0.002651  -0.008166   0.002332   0.106789   8.296624
     7  C   -0.372770  -0.363285  -0.073648   0.185943   0.002146  -0.000349
     8  C    0.090240  -0.981307  -1.050823  -0.114358   0.321261  -0.019812
     9  C   -0.010523   0.139345  -0.194738   0.004634   0.067195  -0.008951
    10  C   -0.039308   0.069846   0.177686  -0.031335  -0.288542   0.144783
    11  O   -0.131729   0.221546  -0.003290  -0.028819   0.001409   0.000399
    12  O   -0.014218   0.232009   0.072961   0.022744  -0.009905   0.030636
    13  C   -0.023477  -1.428327  -0.107396  -0.503280  -0.003992  -0.001893
    14  H    0.441825   0.038900   0.001868   0.006334   0.000018   0.000011
    15  H    0.453838   0.012575   0.002068  -0.051278  -0.000118   0.000003
    16  H   -0.005472  -0.008791   0.493392  -0.000062  -0.011206   0.001587
    17  H   -0.033111   0.013887  -0.006930   0.416903  -0.000151   0.000048
    18  H   -0.164528  -0.042139  -0.041688   0.513777   0.003559  -0.001068
    19  H   -0.236732   0.064260  -0.027030   0.061247   0.002697  -0.000412
    20  H   -0.016636  -0.012769  -0.000282   0.012025   0.000233  -0.000004
    21  H    0.001901  -0.004588   0.035561   0.000643  -0.107980  -0.009888
    22  H   -0.000472   0.005505  -0.050481  -0.000769  -0.016083   0.009706
    23  H   -0.004454   0.002086  -0.075953   0.001945   0.009427  -0.064944
    24  H    0.009118  -0.024766   0.020798  -0.009991   0.002722  -0.074311
    25  H   -0.029642  -0.069048  -0.003185   0.008942   0.001230  -0.000054
    26  H   -0.018944  -0.103892   0.004551  -0.065099   0.000226  -0.000712
    27  H    0.005395   0.495333  -0.007129   0.000733   0.002005   0.001238
    28  H    0.000312  -0.003500  -0.010476   0.000682   0.442995  -0.059137
    29  H   -0.000353   0.002499   0.002300   0.000135   0.441214  -0.063625
    30  H    0.012476   0.008789   0.451335   0.044953  -0.029434  -0.000875
    31  H    0.110028  -0.035918   0.090639  -0.035543  -0.032828   0.017997
               7          8          9         10         11         12
     1  C   -0.372770   0.090240  -0.010523  -0.039308  -0.131729  -0.014218
     2  C   -0.363285  -0.981307   0.139345   0.069846   0.221546   0.232009
     3  C   -0.073648  -1.050823  -0.194738   0.177686  -0.003290   0.072961
     4  C    0.185943  -0.114358   0.004634  -0.031335  -0.028819   0.022744
     5  C    0.002146   0.321261   0.067195  -0.288542   0.001409  -0.009905
     6  O   -0.000349  -0.019812  -0.008951   0.144783   0.000399   0.030636
     7  C    5.602956   0.002925  -0.005698   0.044101   0.203460   0.017418
     8  C    0.002925   7.744166  -0.296986  -0.679498   0.027604   0.075670
     9  C   -0.005698  -0.296986   5.806849   0.154883  -0.008456  -0.064651
    10  C    0.044101  -0.679498   0.154883   6.261693  -0.002796  -0.135123
    11  O    0.203460   0.027604  -0.008456  -0.002796   8.167693  -0.030514
    12  O    0.017418   0.075670  -0.064651  -0.135123  -0.030514   8.300109
    13  C    0.183027   0.518593  -0.028029  -0.023434   0.005866  -0.060194
    14  H   -0.060089  -0.007122   0.000934  -0.000610  -0.007825   0.001267
    15  H   -0.048874  -0.001371   0.000003  -0.001545   0.006027  -0.000504
    16  H    0.006005  -0.066300  -0.048577  -0.000518  -0.000066   0.005898
    17  H    0.012593   0.008817   0.002084  -0.001228  -0.000816  -0.001355
    18  H    0.043511   0.024300   0.011452   0.010235  -0.000279  -0.000421
    19  H    0.519763  -0.028352   0.013020   0.010902  -0.047432   0.003988
    20  H    0.426985   0.005640  -0.001556   0.001004  -0.052326  -0.003123
    21  H   -0.001412  -0.053513   0.478459   0.012803   0.000486   0.008104
    22  H    0.000279  -0.014728   0.443259   0.001105  -0.000157  -0.000151
    23  H    0.001790  -0.034408   0.029094   0.462378   0.000374   0.013783
    24  H   -0.004128  -0.014454   0.007783   0.417507  -0.001989   0.002253
    25  H    0.019692   0.005947  -0.002913  -0.001971  -0.017336   0.000741
    26  H    0.016219   0.043263  -0.023112   0.010873   0.015902  -0.009391
    27  H   -0.020396  -0.010309   0.016289  -0.005729  -0.059711  -0.096035
    28  H   -0.000387   0.037589  -0.032906  -0.041169   0.000066   0.000115
    29  H    0.000157   0.000351  -0.053477   0.014446  -0.000038   0.000551
    30  H   -0.017466  -0.051175  -0.002300  -0.018487  -0.002479  -0.009499
    31  H   -0.059322   0.387483  -0.090710   0.001035   0.007873  -0.026114
              13         14         15         16         17         18
     1  C   -0.023477   0.441825   0.453838  -0.005472  -0.033111  -0.164528
     2  C   -1.428327   0.038900   0.012575  -0.008791   0.013887  -0.042139
     3  C   -0.107396   0.001868   0.002068   0.493392  -0.006930  -0.041688
     4  C   -0.503280   0.006334  -0.051278  -0.000062   0.416903   0.513777
     5  C   -0.003992   0.000018  -0.000118  -0.011206  -0.000151   0.003559
     6  O   -0.001893   0.000011   0.000003   0.001587   0.000048  -0.001068
     7  C    0.183027  -0.060089  -0.048874   0.006005   0.012593   0.043511
     8  C    0.518593  -0.007122  -0.001371  -0.066300   0.008817   0.024300
     9  C   -0.028029   0.000934   0.000003  -0.048577   0.002084   0.011452
    10  C   -0.023434  -0.000610  -0.001545  -0.000518  -0.001228   0.010235
    11  O    0.005866  -0.007825   0.006027  -0.000066  -0.000816  -0.000279
    12  O   -0.060194   0.001267  -0.000504   0.005898  -0.001355  -0.000421
    13  C    7.012774  -0.048993   0.001435   0.004547  -0.044151   0.011178
    14  H   -0.048993   0.463697  -0.002982  -0.000098   0.001312   0.000631
    15  H    0.001435  -0.002982   0.477870  -0.000265  -0.007517  -0.005338
    16  H    0.004547  -0.000098  -0.000265   0.416593  -0.000255  -0.001692
    17  H   -0.044151   0.001312  -0.007517  -0.000255   0.449297  -0.007928
    18  H    0.011178   0.000631  -0.005338  -0.001692  -0.007928   0.491134
    19  H   -0.006207   0.004140   0.000429   0.000985   0.002020   0.017048
    20  H    0.005170  -0.003126  -0.010459   0.000199   0.001538  -0.003400
    21  H   -0.003911  -0.000034  -0.000002   0.003292  -0.000253  -0.001724
    22  H   -0.001187   0.000032  -0.000054  -0.008239   0.000016   0.000402
    23  H    0.006195  -0.000017  -0.000250  -0.003969   0.000208   0.002193
    24  H    0.004469   0.000108   0.000179  -0.002462  -0.000106  -0.000496
    25  H    0.452506  -0.004056  -0.000905   0.000088  -0.008071   0.003145
    26  H    0.496827  -0.001689  -0.000038   0.005397  -0.007125   0.002665
    27  H   -0.034678   0.001687   0.001341  -0.001558   0.003250  -0.001417
    28  H    0.000826  -0.000008   0.000021  -0.005094   0.000099  -0.000277
    29  H    0.000028   0.000005  -0.000011  -0.001583   0.000010   0.000154
    30  H   -0.033197  -0.000201   0.000887  -0.008655   0.001548  -0.005635
    31  H   -0.024707  -0.001416   0.001125  -0.004086  -0.000552  -0.048267
              19         20         21         22         23         24
     1  C   -0.236732  -0.016636   0.001901  -0.000472  -0.004454   0.009118
     2  C    0.064260  -0.012769  -0.004588   0.005505   0.002086  -0.024766
     3  C   -0.027030  -0.000282   0.035561  -0.050481  -0.075953   0.020798
     4  C    0.061247   0.012025   0.000643  -0.000769   0.001945  -0.009991
     5  C    0.002697   0.000233  -0.107980  -0.016083   0.009427   0.002722
     6  O   -0.000412  -0.000004  -0.009888   0.009706  -0.064944  -0.074311
     7  C    0.519763   0.426985  -0.001412   0.000279   0.001790  -0.004128
     8  C   -0.028352   0.005640  -0.053513  -0.014728  -0.034408  -0.014454
     9  C    0.013020  -0.001556   0.478459   0.443259   0.029094   0.007783
    10  C    0.010902   0.001004   0.012803   0.001105   0.462378   0.417507
    11  O   -0.047432  -0.052326   0.000486  -0.000157   0.000374  -0.001989
    12  O    0.003988  -0.003123   0.008104  -0.000151   0.013783   0.002253
    13  C   -0.006207   0.005170  -0.003911  -0.001187   0.006195   0.004469
    14  H    0.004140  -0.003126  -0.000034   0.000032  -0.000017   0.000108
    15  H    0.000429  -0.010459  -0.000002  -0.000054  -0.000250   0.000179
    16  H    0.000985   0.000199   0.003292  -0.008239  -0.003969  -0.002462
    17  H    0.002020   0.001538  -0.000253   0.000016   0.000208  -0.000106
    18  H    0.017048  -0.003400  -0.001724   0.000402   0.002193  -0.000496
    19  H    0.585761  -0.019477  -0.000806   0.000069   0.005461  -0.006266
    20  H   -0.019477   0.451244   0.000022  -0.000003   0.000007  -0.000450
    21  H   -0.000806   0.000022   0.489790  -0.013639  -0.001747  -0.001325
    22  H    0.000069  -0.000003  -0.013639   0.480086   0.000222   0.001377
    23  H    0.005461   0.000007  -0.001747   0.000222   0.474876  -0.007437
    24  H   -0.006266  -0.000450  -0.001325   0.001377  -0.007437   0.484356
    25  H   -0.000937   0.000800  -0.000001  -0.000299   0.000148  -0.000637
    26  H    0.005186  -0.000102  -0.002598  -0.000116   0.000032   0.000336
    27  H    0.002649   0.000158  -0.004645   0.000532   0.000843  -0.001170
    28  H   -0.000428   0.000005   0.002988   0.003515   0.007687  -0.002598
    29  H    0.000378  -0.000012  -0.005399  -0.009090  -0.000242   0.001224
    30  H   -0.006669   0.000046   0.007560  -0.009439  -0.002096   0.000432
    31  H   -0.059451   0.003382   0.005473  -0.001298  -0.024514  -0.004141
              25         26         27         28         29         30
     1  C   -0.029642  -0.018944   0.005395   0.000312  -0.000353   0.012476
     2  C   -0.069048  -0.103892   0.495333  -0.003500   0.002499   0.008789
     3  C   -0.003185   0.004551  -0.007129  -0.010476   0.002300   0.451335
     4  C    0.008942  -0.065099   0.000733   0.000682   0.000135   0.044953
     5  C    0.001230   0.000226   0.002005   0.442995   0.441214  -0.029434
     6  O   -0.000054  -0.000712   0.001238  -0.059137  -0.063625  -0.000875
     7  C    0.019692   0.016219  -0.020396  -0.000387   0.000157  -0.017466
     8  C    0.005947   0.043263  -0.010309   0.037589   0.000351  -0.051175
     9  C   -0.002913  -0.023112   0.016289  -0.032906  -0.053477  -0.002300
    10  C   -0.001971   0.010873  -0.005729  -0.041169   0.014446  -0.018487
    11  O   -0.017336   0.015902  -0.059711   0.000066  -0.000038  -0.002479
    12  O    0.000741  -0.009391  -0.096035   0.000115   0.000551  -0.009499
    13  C    0.452506   0.496827  -0.034678   0.000826   0.000028  -0.033197
    14  H   -0.004056  -0.001689   0.001687  -0.000008   0.000005  -0.000201
    15  H   -0.000905  -0.000038   0.001341   0.000021  -0.000011   0.000887
    16  H    0.000088   0.005397  -0.001558  -0.005094  -0.001583  -0.008655
    17  H   -0.008071  -0.007125   0.003250   0.000099   0.000010   0.001548
    18  H    0.003145   0.002665  -0.001417  -0.000277   0.000154  -0.005635
    19  H   -0.000937   0.005186   0.002649  -0.000428   0.000378  -0.006669
    20  H    0.000800  -0.000102   0.000158   0.000005  -0.000012   0.000046
    21  H   -0.000001  -0.002598  -0.004645   0.002988  -0.005399   0.007560
    22  H   -0.000299  -0.000116   0.000532   0.003515  -0.009090  -0.009439
    23  H    0.000148   0.000032   0.000843   0.007687  -0.000242  -0.002096
    24  H   -0.000637   0.000336  -0.001170  -0.002598   0.001224   0.000432
    25  H    0.428527  -0.011279  -0.007555  -0.000039   0.000019   0.003839
    26  H   -0.011279   0.490916  -0.013088  -0.000634   0.000268  -0.036560
    27  H   -0.007555  -0.013088   0.477628   0.000358   0.000243   0.003712
    28  H   -0.000039  -0.000634   0.000358   0.507337  -0.005542   0.003611
    29  H    0.000019   0.000268   0.000243  -0.005542   0.476892  -0.000808
    30  H    0.003839  -0.036560   0.003712   0.003611  -0.000808   0.519531
    31  H   -0.000478  -0.007222  -0.006058   0.003980  -0.001208   0.013668
              31
     1  C    0.110028
     2  C   -0.035918
     3  C    0.090639
     4  C   -0.035543
     5  C   -0.032828
     6  O    0.017997
     7  C   -0.059322
     8  C    0.387483
     9  C   -0.090710
    10  C    0.001035
    11  O    0.007873
    12  O   -0.026114
    13  C   -0.024707
    14  H   -0.001416
    15  H    0.001125
    16  H   -0.004086
    17  H   -0.000552
    18  H   -0.048267
    19  H   -0.059451
    20  H    0.003382
    21  H    0.005473
    22  H   -0.001298
    23  H   -0.024514
    24  H   -0.004141
    25  H   -0.000478
    26  H   -0.007222
    27  H   -0.006058
    28  H    0.003980
    29  H   -0.001208
    30  H    0.013668
    31  H    0.567213
 Mulliken charges:
               1
     1  C   -0.316371
     2  C   -0.107923
     3  C   -0.363879
     4  C   -0.355582
     5  C   -0.242118
     6  O   -0.301002
     7  C   -0.261148
     8  C    0.130667
     9  C   -0.301703
    10  C   -0.523988
    11  O   -0.262650
    12  O   -0.327050
    13  C   -0.326388
    14  H    0.175496
    15  H    0.173708
    16  H    0.240964
    17  H    0.205918
    18  H    0.190910
    19  H    0.140195
    20  H    0.215267
    21  H    0.166382
    22  H    0.180100
    23  H    0.201284
    24  H    0.204064
    25  H    0.232781
    26  H    0.208939
    27  H    0.256086
    28  H    0.150007
    29  H    0.200514
    30  H    0.162585
    31  H    0.253936
 Sum of Mulliken charges =  -0.00000
 Mulliken charges with hydrogens summed into heavy atoms:
               1
     1  C    0.032832
     2  C    0.148163
     3  C    0.039670
     4  C    0.041246
     5  C    0.108403
     6  O   -0.301002
     7  C    0.094314
     8  C    0.384603
     9  C    0.044778
    10  C   -0.118639
    11  O   -0.262650
    12  O   -0.327050
    13  C    0.115332
 Electronic spatial extent (au):  <R**2>=           2750.0138
 Charge=             -0.0000 electrons
 Dipole moment (field-independent basis, Debye):
    X=              1.1110    Y=              4.1054    Z=             -3.5435  Tot=              5.5358
 Quadrupole moment (field-independent basis, Debye-Ang):
   XX=            -77.4289   YY=            -82.2547   ZZ=            -78.6911
   XY=             -3.5302   XZ=             -0.0099   YZ=              5.8742
 Traceless Quadrupole moment (field-independent basis, Debye-Ang):
   XX=              2.0293   YY=             -2.7964   ZZ=              0.7671
   XY=             -3.5302   XZ=             -0.0099   YZ=              5.8742
 Octapole moment (field-independent basis, Debye-Ang**2):
  XXX=              5.3093  YYY=             -2.0818  ZZZ=              4.6561  XYY=              4.4966
  XXY=             22.2093  XXZ=            -13.2849  XZZ=             -3.0862  YZZ=              0.0243
  YYZ=             -5.5751  XYZ=              2.6740
 Hexadecapole moment (field-independent basis, Debye-Ang**3):
 XXXX=          -2566.1725 YYYY=           -622.3754 ZZZZ=           -364.6435 XXXY=            -66.8492
 XXXZ=            -18.5796 YYYX=             -5.3392 YYYZ=              7.7115 ZZZX=              6.0053
 ZZZY=              1.0925 XXYY=           -559.1524 XXZZ=           -497.6214 YYZZ=           -175.2015
 XXYZ=             24.9029 YYXZ=             -0.6569 ZZXY=              6.6347
 N-N= 9.093656225070D+02 E-N=-3.260524837050D+03  KE= 6.153079767024D+02
 D1PCM: PCM CHGder 1st derivatives, ID1Alg=3 FixD1E=F DoIter=F DoCFld=F I1PDM=0.
 Calling FoFJK, ICntrl=      2127 FMM=F ISym2X=0 I1Cent= 0 IOpClX= 0 NMat=1 NMatS=1 NMatT=0.
 ***** Axes restored to original set *****
 -------------------------------------------------------------------
 Center     Atomic                   Forces (Hartrees/Bohr)
 Number     Number              X              Y              Z
 -------------------------------------------------------------------
      1        6          -0.002695367   -0.000445388   -0.001003870
      2        6           0.003543010    0.000503334   -0.013212722
      3        6          -0.004768585   -0.004693331    0.002384681
      4        6           0.000144134   -0.003348473    0.003696489
      5        6           0.007140970    0.000704171   -0.000229170
      6        8          -0.001522849   -0.006184315    0.005487259
      7        6          -0.001314402    0.007757872    0.002531058
      8        6           0.006259137    0.003171071    0.001796486
      9        6           0.000017418   -0.000676799   -0.002256647
     10        6          -0.001465502    0.005611622    0.002669775
     11        8           0.004203510   -0.005558543    0.007368266
     12        8          -0.010491945    0.000154852    0.007172544
     13        6          -0.000509447   -0.002062600   -0.003031104
     14        1           0.001975227    0.000360963    0.002543907
     15        1           0.001048066    0.000339734   -0.002572209
     16        1          -0.001412287    0.000663377   -0.003525709
     17        1           0.001041752    0.002283493   -0.000510902
     18        1          -0.003966091   -0.000761478   -0.003161640
     19        1          -0.004612550   -0.000859699   -0.005039209
     20        1           0.002970091   -0.003251179   -0.000228531
     21        1           0.001732176   -0.001151280    0.002874328
     22        1          -0.000944666    0.002654944   -0.000450461
     23        1          -0.001407535    0.001229650   -0.006146580
     24        1           0.002515645   -0.003975405    0.001160007
     25        1           0.002761441    0.000716535    0.002256151
     26        1          -0.003472456    0.002825391    0.000427015
     27        1          -0.000451111   -0.000408203    0.007032286
     28        1          -0.002140010    0.001673875   -0.005704964
     29        1          -0.003040633    0.000066556    0.003076621
     30        1           0.004185605    0.002870150    0.000842311
     31        1           0.004677254   -0.000210897   -0.006245466
 -------------------------------------------------------------------
 Cartesian Forces:  Max     0.013212722 RMS     0.003719085

 GradGradGradGradGradGradGradGradGradGradGradGradGradGradGradGradGradGrad
 Berny optimization.
 FormGI is forming the generalized inverse of G from B-inverse, IUseBI=4.
 Internal  Forces:  Max     0.024083559 RMS     0.002746549
 Search for a local minimum.
 Step number   1 out of a maximum of  186
 All quantities printed in internal units (Hartrees-Bohrs-Radians)
 Mixed Optimization -- RFO/linear search
 Second derivative matrix not updated -- first step.
 ITU=  0
     Eigenvalues ---    0.00578   0.00608   0.00696   0.00731   0.01356
     Eigenvalues ---    0.01434   0.01616   0.02553   0.02799   0.03047
     Eigenvalues ---    0.03064   0.03870   0.04333   0.04486   0.04679
     Eigenvalues ---    0.04798   0.04897   0.05003   0.05042   0.05181
     Eigenvalues ---    0.05237   0.05500   0.05721   0.05837   0.06177
     Eigenvalues ---    0.06195   0.06331   0.06888   0.07628   0.07845
     Eigenvalues ---    0.07906   0.07972   0.07994   0.08195   0.08613
     Eigenvalues ---    0.09220   0.09238   0.09662   0.10695   0.11702
     Eigenvalues ---    0.11704   0.11722   0.11915   0.12502   0.12515
     Eigenvalues ---    0.14544   0.15221   0.15843   0.16972   0.17305
     Eigenvalues ---    0.19995   0.21416   0.22144   0.25000   0.28438
     Eigenvalues ---    0.28499   0.28754   0.28807   0.28830   0.28925
     Eigenvalues ---    0.30125   0.30258   0.35036   0.35053   0.35107
     Eigenvalues ---    0.35131   0.35180   0.35251   0.35252   0.35252
     Eigenvalues ---    0.35317   0.35397   0.35467   0.35814   0.35823
     Eigenvalues ---    0.35836   0.35853   0.35913   0.36085   0.36231
     Eigenvalues ---    0.40893   0.41447   0.41807   0.42290   0.43006
     Eigenvalues ---    0.446881000.000001000.000001000.000001000.00000
     Eigenvalues --- 1000.000001000.000001000.000001000.000001000.00000
     Eigenvalues --- 1000.000001000.000001000.000001000.000001000.00000
     Eigenvalues --- 1000.000001000.000001000.000001000.000001000.00000
     Eigenvalues --- 1000.000001000.000001000.000001000.000001000.00000
     Eigenvalues --- 1000.000001000.000001000.000001000.000001000.00000
     Eigenvalues --- 1000.000001000.000001000.000001000.000001000.00000
     Eigenvalues --- 1000.000001000.000001000.000001000.000001000.00000
     Eigenvalues --- 1000.000001000.000001000.000001000.000001000.00000
     Eigenvalues --- 1000.000001000.000001000.000001000.000001000.00000
     Eigenvalues --- 1000.000001000.000001000.000001000.000001000.00000
     Eigenvalues --- 1000.000001000.000001000.000001000.000001000.00000
     Eigenvalues --- 1000.000001000.000001000.000001000.000001000.00000
     Eigenvalues --- 1000.000001000.000001000.000001000.000001000.00000
     Eigenvalues --- 1000.000001000.000001000.000001000.000001000.00000
     Eigenvalues --- 1000.000001000.000001000.000001000.000001000.00000
     Eigenvalues --- 1000.000001000.000001000.000001000.000001000.00000
     Eigenvalues --- 1000.000001000.000001000.000001000.000001000.00000
     Eigenvalues --- 1000.000001000.000001000.000001000.000001000.00000
     Eigenvalues --- 1000.000001000.000001000.000001000.000001000.00000
 RFO step:  Lambda=-6.77715202D-03 EMin= 5.78215483D-03
 Linear search not attempted -- first point.
 Iteration  1 RMS(Cart)=  0.14744135 RMS(Int)=  0.00406676
 Iteration  2 RMS(Cart)=  0.01168540 RMS(Int)=  0.00010185
 Iteration  3 RMS(Cart)=  0.00004334 RMS(Int)=  0.00010003
 Iteration  4 RMS(Cart)=  0.00000000 RMS(Int)=  0.00010003
 Iteration  1 RMS(Cart)=  0.00000246 RMS(Int)=  0.00000049
 Iteration  2 RMS(Cart)=  0.00000135 RMS(Int)=  0.00000054
 Iteration  3 RMS(Cart)=  0.00000075 RMS(Int)=  0.00000061
 Variable       Old X    -DE/DX   Delta X   Delta X   Delta X     New X
                                 (Linear)    (Quad)   (Total)
    R1        2.88873  -0.00105   0.00000  -0.00324  -0.00331   2.88543
    R2        2.87066  -0.00012   0.00000   0.00041   0.00042   2.87108
    R3        2.05502   0.00315   0.00000   0.00879   0.00879   2.06381
    R4        2.05268   0.00276   0.00000   0.00769   0.00769   2.06037
    R5        2.65984   0.00260   0.00000   0.00565   0.00572   2.66556
    R6        2.65639  -0.00093   0.00000  -0.00205  -0.00205   2.65435
    R7        2.88650  -0.00090   0.00000  -0.00377  -0.00377   2.88273
    R8        2.03722   0.00705   0.00000   0.01910   0.01910   2.05632
    R9        2.89135  -0.00136   0.00000  -0.00505  -0.00507   2.88627
   R10        2.89198  -0.00150   0.00000  -0.00587  -0.00589   2.88609
   R11        2.05589   0.00385   0.00000   0.01077   0.01077   2.06666
   R12        2.03948   0.00504   0.00000   0.01370   0.01370   2.05318
   R13        2.89159  -0.00191   0.00000  -0.00661  -0.00665   2.88494
   R14        2.05163   0.00254   0.00000   0.00707   0.00707   2.05870
   R15        2.05036   0.00505   0.00000   0.01400   0.01400   2.06436
   R16        2.67600   0.00299   0.00000   0.00723   0.00726   2.68326
   R17        2.87453   0.00023   0.00000   0.00046   0.00044   2.87497
   R18        2.05617   0.00620   0.00000   0.01736   0.01736   2.07353
   R19        2.04373   0.00432   0.00000   0.01185   0.01185   2.05557
   R20        2.66673   0.00208   0.00000   0.00526   0.00528   2.67201
   R21        2.68556   0.00300   0.00000   0.00711   0.00715   2.69271
   R22        2.04923   0.00683   0.00000   0.01890   0.01890   2.06813
   R23        2.04339   0.00440   0.00000   0.01204   0.01204   2.05543
   R24        2.87445   0.00044   0.00000   0.00178   0.00180   2.87624
   R25        2.69169  -0.00014   0.00000  -0.00033  -0.00033   2.69136
   R26        2.04360   0.00775   0.00000   0.02125   0.02125   2.06485
   R27        2.05267   0.00331   0.00000   0.00922   0.00922   2.06189
   R28        2.05269   0.00282   0.00000   0.00785   0.00785   2.06054
   R29        2.05463   0.00631   0.00000   0.01763   0.01763   2.07227
   R30        2.04218   0.00472   0.00000   0.01290   0.01290   2.05508
   R31        2.05384   0.00362   0.00000   0.01011   0.01011   2.06394
   R32        2.04312   0.00448   0.00000   0.01225   0.01225   2.05537
    A1        1.92639  -0.00139   0.00000  -0.00456  -0.00485   1.92154
    A2        1.91517   0.00105   0.00000  -0.00018  -0.00010   1.91507
    A3        1.93881  -0.00053   0.00000  -0.00144  -0.00136   1.93745
    A4        1.90284   0.00025   0.00000  -0.00135  -0.00125   1.90159
    A5        1.90406   0.00073   0.00000   0.00431   0.00437   1.90843
    A6        1.87556  -0.00004   0.00000   0.00346   0.00341   1.87897
    A7        1.92245   0.00287   0.00000   0.00232   0.00189   1.92434
    A8        1.92804   0.00436   0.00000   0.01116   0.01053   1.93857
    A9        1.81457  -0.00175   0.00000   0.00999   0.00977   1.82434
   A10        2.08412  -0.00947   0.00000  -0.05297  -0.05294   2.03118
   A11        1.79809   0.00420   0.00000   0.03018   0.03030   1.82839
   A12        1.89273   0.00052   0.00000   0.00922   0.00939   1.90212
   A13        1.93867   0.00062   0.00000  -0.00783  -0.00793   1.93073
   A14        1.86083   0.00014   0.00000   0.00862   0.00864   1.86947
   A15        1.95488  -0.00101   0.00000  -0.01056  -0.01053   1.94435
   A16        1.90549  -0.00024   0.00000   0.00551   0.00555   1.91104
   A17        1.93858   0.00031   0.00000   0.00259   0.00249   1.94107
   A18        1.86151   0.00017   0.00000   0.00285   0.00285   1.86436
   A19        1.91189   0.00173   0.00000  -0.00397  -0.00411   1.90778
   A20        1.92657  -0.00012   0.00000   0.00185   0.00197   1.92853
   A21        1.91641  -0.00076   0.00000   0.00137   0.00131   1.91772
   A22        1.90526  -0.00042   0.00000   0.00279   0.00280   1.90806
   A23        1.94022  -0.00089   0.00000  -0.00449  -0.00442   1.93580
   A24        1.86311   0.00041   0.00000   0.00268   0.00266   1.86576
   A25        1.93878   0.00145   0.00000   0.00778   0.00773   1.94652
   A26        1.90085   0.00101   0.00000   0.00852   0.00857   1.90942
   A27        1.85600  -0.00116   0.00000  -0.00465  -0.00462   1.85138
   A28        1.92786  -0.00142   0.00000  -0.00883  -0.00884   1.91902
   A29        1.94691  -0.00039   0.00000  -0.00391  -0.00391   1.94300
   A30        1.89115   0.00055   0.00000   0.00149   0.00145   1.89261
   A31        1.97815  -0.00359   0.00000  -0.02168  -0.02163   1.95652
   A32        1.94646   0.00336   0.00000   0.01194   0.01199   1.95845
   A33        1.93677  -0.00219   0.00000  -0.00868  -0.00878   1.92800
   A34        1.94178  -0.00017   0.00000  -0.00334  -0.00331   1.93847
   A35        1.91362   0.00004   0.00000   0.00165   0.00168   1.91529
   A36        1.83971  -0.00165   0.00000  -0.00096  -0.00098   1.83873
   A37        1.88205   0.00057   0.00000  -0.00049  -0.00052   1.88153
   A38        1.90295   0.00011   0.00000  -0.00244  -0.00254   1.90041
   A39        1.99476  -0.00083   0.00000  -0.01126  -0.01126   1.98350
   A40        1.91852  -0.00042   0.00000  -0.00176  -0.00172   1.91681
   A41        1.84365   0.00017   0.00000  -0.00101  -0.00104   1.84262
   A42        1.87937   0.00002   0.00000   0.00360   0.00359   1.88296
   A43        1.91987   0.00101   0.00000   0.01354   0.01352   1.93340
   A44        1.92526  -0.00056   0.00000  -0.00826  -0.00833   1.91693
   A45        1.92544   0.00040   0.00000  -0.00204  -0.00203   1.92341
   A46        1.92623  -0.00061   0.00000  -0.00109  -0.00107   1.92516
   A47        1.90838  -0.00016   0.00000  -0.00012  -0.00017   1.90821
   A48        1.90509   0.00073   0.00000   0.00555   0.00559   1.91068
   A49        1.87255   0.00024   0.00000   0.00647   0.00645   1.87900
   A50        1.95507   0.00104   0.00000   0.00441   0.00444   1.95951
   A51        1.91236   0.00120   0.00000   0.01097   0.01096   1.92332
   A52        1.86415  -0.00072   0.00000  -0.00356  -0.00356   1.86059
   A53        1.90327  -0.00147   0.00000  -0.00617  -0.00622   1.89705
   A54        1.93012  -0.00081   0.00000  -0.01015  -0.01017   1.91994
   A55        1.89788   0.00081   0.00000   0.00487   0.00483   1.90271
   A56        2.05699  -0.00677   0.00000  -0.04110  -0.04096   2.01603
   A57        2.23809  -0.02408   0.00000  -0.09379  -0.09379   2.14430
   A58        2.00026  -0.00189   0.00000  -0.01858  -0.01880   1.98146
   A59        1.82662   0.00050   0.00000   0.01510   0.01517   1.84179
   A60        1.92121   0.00073   0.00000  -0.00641  -0.00665   1.91456
   A61        1.88482   0.00156   0.00000   0.01631   0.01648   1.90130
   A62        1.96297  -0.00051   0.00000  -0.00783  -0.00816   1.95481
   A63        1.85674  -0.00016   0.00000   0.00583   0.00587   1.86261
    D1        0.90482   0.00000   0.00000   0.00691   0.00695   0.91177
    D2        3.00326   0.00051   0.00000   0.00899   0.00903   3.01229
    D3       -1.23053   0.00047   0.00000   0.01420   0.01426  -1.21627
    D4       -1.19260  -0.00009   0.00000   0.01158   0.01160  -1.18099
    D5        0.90584   0.00041   0.00000   0.01366   0.01368   0.91952
    D6        2.95523   0.00038   0.00000   0.01887   0.01892   2.97415
    D7        3.01919  -0.00037   0.00000   0.00831   0.00829   3.02748
    D8       -1.16556   0.00013   0.00000   0.01039   0.01036  -1.15519
    D9        0.88384   0.00010   0.00000   0.01560   0.01560   0.89944
   D10       -0.95992  -0.00147   0.00000  -0.00972  -0.00973  -0.96965
[...]
 9725,0.00027800,-0.00021612,0.00020037,0.00178464,0.00243263,0.0013936
 7,-0.12635694,-0.03640089,-0.15496653,0.00071682,-0.00044213,0.0001687
 6,0.00029028,0.00035149,0.00028925,0.00002516,0.00000763,0.00001289,-0
 .00017088,0.00024227,0.00147962,0.00324222,0.00019934,-0.00502406,0.00
 003173,0.00010209,-0.00000779,-0.00002957,-0.00008247,0.00004680,-0.00
 001426,0.00000086,0.00001548,-0.00000242,0.00000312,0.00001000,0.00005
 086,0.00000783,0.00001393,-0.00001613,-0.00002894,-0.00000099,0.133660
 67,0.03486967,0.17441501,0.00028485,-0.00113198,0.00275929,0.00774519,
 -0.00785149,-0.00285301,-0.00121980,0.00056444,-0.00190458,-0.00786792
 ,0.00648501,0.00037617,-0.00002702,-0.00013537,0.00006402,0.00003555,0
 .00003336,-0.00001359,-0.00037986,-0.00043854,0.00042612,0.00011442,-0
 .00001578,-0.00015734,0.00016255,0.00015809,-0.00018779,-0.00008055,0.
 00002994,0.00000327,0.00147125,-0.00356900,0.00030452,0.00096707,0.000
 91027,0.00016343,-0.19152701,0.13446447,0.03265609,0.00026950,-0.00026
 893,-0.00010105,-0.00033183,0.00091279,0.00016731,-0.00030004,-0.00024
 679,0.00000881,-0.00000577,-0.00020220,-0.00016136,0.00030979,-0.00021
 853,0.00001359,0.00005482,0.00004326,-0.00003684,0.00004124,0.00010392
 ,-0.00011934,0.00008384,0.00000876,0.00023673,0.00001992,0.00000271,-0
 .00000084,0.00002658,0.00001111,0.00001016,0.00002322,0.00000506,0.000
 01095,-0.01687912,0.01574000,0.00338450,0.20948643,-0.00053969,0.00095
 061,0.00091425,0.02503925,-0.01649194,-0.00591634,-0.00013082,-0.00056
 332,0.00061577,-0.00354996,0.00287848,-0.00048784,0.00004109,-0.000106
 09,-0.00007413,0.00003672,0.00004520,0.00000468,-0.00079637,0.00043739
 ,0.00205723,0.00000163,-0.00080243,-0.00032595,-0.00021173,0.00006624,
 0.00013074,-0.00017758,0.00002978,-0.00008750,-0.00007056,-0.00892740,
 0.00094200,-0.00039046,0.00275111,-0.00015435,0.13033030,-0.17162099,-
 0.02785316,0.00015990,-0.00011800,0.00004424,-0.00010906,0.00031638,0.
 00026974,0.00032387,0.00031889,0.00013029,0.00002105,0.00030202,-0.000
 58571,0.00032047,0.00006694,-0.00025534,0.00002988,0.00000217,-0.00027
 573,0.00010765,0.00002703,-0.00021572,-0.00011979,-0.00002068,0.000028
 27,0.00006267,-0.00003692,0.00001894,-0.00000397,-0.00001894,0.0000040
 6,0.00003003,0.00005957,-0.00001307,-0.00519982,0.00515593,0.00192192,
 -0.14551132,0.18313764,0.00128799,0.00179389,-0.00624425,-0.00644538,0
 .00176909,-0.00011782,-0.00083210,-0.00043991,-0.00025385,0.02218443,-
 0.02188217,-0.00274502,0.00004018,-0.00012100,-0.00014332,0.00006335,0
 .00003257,-0.00000241,0.00045083,0.00063413,-0.00081559,0.00030607,-0.
 00037745,-0.00010819,-0.00001278,0.00019551,0.00025821,-0.00022095,0.0
 0010406,-0.00000303,-0.00008496,0.00328908,0.00135569,-0.00003007,-0.0
 0017825,0.00027408,0.03188881,-0.02655519,-0.05351336,0.00018326,0.000
 00687,0.00013041,0.00128003,-0.00149725,-0.00019959,0.00024093,0.00017
 428,0.00010067,-0.00046559,0.00041172,0.00124512,-0.00091612,-0.000198
 14,0.00117936,-0.00009197,-0.00005340,0.00011531,-0.00009363,-0.000074
 72,0.00019255,-0.00002769,-0.00000501,-0.00004068,0.00003019,-0.000034
 34,-0.00001367,0.00001172,-0.00000445,0.00000440,0.00005753,0.00006364
 ,-0.00000276,-0.01413663,0.01475634,0.00297186,-0.03207061,0.02856815,
 0.05851315,0.00021703,0.00018869,-0.00010476,-0.04185340,-0.00267230,0
 .03050103,0.00008723,-0.00026609,-0.00002200,0.00056557,-0.00155368,-0
 .00011935,0.00018065,-0.00018257,0.00007685,-0.00039873,0.00010055,0.0
 0027906,-0.00015798,0.00381515,-0.00119874,-0.00026251,-0.00503862,0.0
 0002953,0.00005551,0.00010366,-0.00013773,0.00002720,0.00059159,-0.001
 58956,-0.01277741,0.00812427,0.02983529,-0.01858753,-0.00042663,-0.042
 00454,-0.00012923,-0.00324185,0.00921374,-0.00007175,-0.00005891,-0.00
 006866,-0.00002872,-0.00012537,-0.00000141,-0.00009520,0.00015837,-0.0
 0002539,-0.00014026,-0.00007022,0.00032104,-0.00003953,-0.00001817,0.0
 0026724,-0.00004711,0.00003208,0.00060788,-0.00046258,0.00009691,0.000
 95074,0.00005372,-0.00004044,0.00006562,-0.00006894,0.00004102,0.00004
 140,-0.00053609,-0.00030244,-0.00007920,0.00002294,-0.00001052,0.00003
 305,0.00011047,-0.00005030,0.00082388,0.00004147,-0.00040952,-0.000133
 23,0.07463848,0.00049066,-0.00039400,-0.00051604,-0.00477084,-0.053302
 95,0.02756456,-0.00016275,-0.00005204,-0.00028131,-0.00093313,-0.00568
 109,-0.00067303,0.00003672,-0.00001244,-0.00001000,-0.00000046,0.00001
 542,0.00006467,0.00209013,-0.00315596,0.00116280,-0.00070914,-0.000050
 52,0.00025660,0.00001506,0.00003670,0.00004236,-0.00004446,0.00011693,
 -0.00038971,0.01559629,-0.00427296,-0.03295342,-0.00565422,0.00412969,
 -0.01363060,-0.00705024,-0.00275880,0.03089653,-0.00007059,0.00011767,
 -0.00000565,-0.00002767,0.00036011,-0.00000737,-0.00003361,0.00011391,
 0.00001398,-0.00095614,-0.00015637,0.00166183,0.00013476,0.00002560,0.
 00008686,-0.00001987,-0.00007212,-0.00024363,0.00061820,0.00000563,-0.
 00117981,-0.00003497,0.00000317,-0.00003145,-0.00001412,0.00000335,0.0
 0000216,-0.00011729,-0.00007353,-0.00001723,0.00000684,-0.00000460,0.0
 0000518,0.00001735,0.00103220,0.00000593,0.00079257,0.00059891,-0.0006
 0387,0.00095986,0.06337706,-0.00024736,-0.00006099,-0.00000277,0.03011
 484,0.01588286,-0.31160302,0.00001557,-0.00007757,-0.00010735,0.000282
 15,0.00150719,0.00153632,0.00014273,-0.00011622,0.00004289,-0.00036487
 ,0.00004788,0.00012494,0.00011083,-0.00131939,0.00366666,0.00038651,-0
 .00293304,0.00340004,0.00000785,0.00004982,-0.00002359,0.00009008,0.00
 045319,-0.00090429,0.00886484,-0.00471328,-0.01048456,-0.01410187,0.00
 007160,-0.01703849,0.00123571,0.00189914,-0.00686399,0.00004700,0.0000
 0515,0.00001067,0.00000784,0.00003374,-0.00006743,-0.00008282,0.000096
 94,-0.00004578,0.00023616,-0.00008149,-0.00051218,-0.00009252,-0.00005
 165,0.00016649,-0.00012471,0.00004775,0.00001368,0.00030408,0.00002447
 ,-0.00059927,-0.00005515,-0.00000284,-0.00007535,-0.00005370,0.0000311
 1,0.00001428,-0.00030217,-0.00018074,-0.00006662,0.00002396,-0.0000032
 1,0.00002655,0.00029452,0.00000422,0.00096608,0.00000695,0.00041607,-0
 .00010694,-0.02679259,-0.01108856,0.33860474,0.00000407,-0.00000047,0.
 00000385,0.00011951,-0.00001297,0.00008329,0.00102950,0.00089867,-0.00
 125864,-0.00000490,-0.00000012,0.00000212,-0.08764808,0.00513163,-0.07
 942555,-0.00831729,0.01352843,-0.01276269,0.00000829,0.00000613,-0.000
 00934,-0.00046865,0.00005164,0.00009695,-0.00890351,-0.00054503,-0.021
 89904,0.00124464,-0.00026664,-0.00374687,-0.00005135,0.00001492,0.0000
 0297,-0.00002560,0.00002752,0.00018844,0.00000579,0.00000298,0.0000051
 3,-0.00000105,-0.00000104,-0.00000119,-0.00000188,0.00000055,0.0000019
 0,-0.00019740,-0.00010476,0.00056395,-0.00000304,-0.00000206,0.0000001
 7,-0.00000045,0.00000498,-0.00000200,0.00000240,-0.00000481,-0.0000028
 1,-0.00000424,0.00000020,-0.00000026,-0.00220950,-0.00323908,-0.000717
 60,0.00072124,0.00001874,0.00032728,0.00004916,-0.00020183,0.00065212,
 0.00008916,-0.00002984,0.00033578,-0.00000332,-0.00000855,0.00000130,0
 .00003364,0.00000632,-0.00000037,0.00000066,0.00000099,-0.00000921,0.0
 9366065,-0.00000282,-0.00000240,0.00000405,-0.00005742,-0.00002482,-0.
 00008481,0.00125857,0.00050764,-0.00062603,-0.00001192,0.00002414,-0.0
 0001013,0.00592444,-0.04771313,0.01392983,0.02372053,-0.02156778,0.030
 94942,-0.00001072,-0.00000874,0.00000029,0.00020272,-0.00031188,-0.000
 50197,-0.01091049,0.00227895,-0.02351841,-0.00351589,0.00127896,0.0049
 0505,0.00004027,-0.00000694,-0.00000283,0.00008891,0.00028684,0.000109
 90,0.00004282,-0.00001723,0.00001171,0.00000256,-0.00000002,-0.0000000
 3,-0.00000028,0.00000165,-0.00000122,0.00002215,0.00000024,0.00058650,
 0.00000830,0.00000173,0.00000342,0.00000828,-0.00000223,0.00001396,0.0
 0000060,0.00000622,0.00000425,0.00000499,0.00000011,0.00000221,-0.0041
 6683,-0.00303583,-0.00048514,0.00089763,0.00082049,0.00040502,-0.00038
 640,0.00038507,-0.00126638,-0.00016341,-0.00003844,-0.00037915,0.00000
 330,0.00001128,0.00000137,0.00003158,0.00001466,0.00000191,0.00001558,
 -0.00000284,0.00001086,-0.01265840,0.06573985,0.00000352,-0.00000609,-
 0.00000207,0.00039587,0.00002086,0.00009719,0.00070965,0.00033392,0.00
 092922,0.00000901,-0.00000654,0.00001477,-0.08204175,0.01649094,-0.259
 84009,-0.00380944,0.00931718,0.00059771,0.00002485,0.00001782,-0.00001
 960,-0.00003357,0.00015951,0.00005085,-0.00180401,-0.00030059,-0.00711
 150,0.00199611,-0.00105668,0.00221178,-0.00012659,0.00005133,0.0000204
 4,-0.00047474,-0.00006976,-0.00017730,-0.00001080,0.00001820,0.0000036
 6,-0.00000742,0.00000148,-0.00000241,-0.00000531,0.00000015,0.00000558
 ,-0.00057135,0.00012920,0.00045543,-0.00001563,-0.00000712,0.00000020,
 0.00000836,0.00000918,-0.00002792,0.00000472,-0.00001473,-0.00000824,-
 0.00001459,0.00000191,-0.00000081,-0.00068254,-0.00128011,0.00114874,-
 0.00024162,-0.00049278,0.00013585,-0.00153846,0.00045665,0.00041079,-0
 .00011558,0.00011761,0.00038774,-0.00001434,-0.00001328,-0.00000298,0.
 00003782,0.00000612,0.00001609,-0.00003898,-0.00000894,-0.00003868,0.0
 9634475,-0.02466054,0.27901771,-0.00000689,-0.00001969,-0.00001495,0.0
 0042409,-0.00002417,0.00015333,-0.00142996,-0.00390660,-0.00198600,0.0
 0002921,0.00001680,0.00003256,-0.19366386,0.00047384,0.13093332,-0.014
 11095,0.00765481,0.01118900,0.00002697,0.00001524,-0.00002077,0.000596
 79,-0.00018890,0.00029532,-0.01526628,-0.00079514,0.01494620,0.0013003
 6,0.00214345,-0.00254297,-0.00015974,0.00008123,0.00001931,-0.00040877
 ,0.00005706,-0.00029771,-0.00002445,-0.00002296,-0.00002500,-0.0000167
 3,0.00001036,-0.00000267,-0.00000814,0.00000359,0.00001004,0.00011711,
 0.00000749,0.00016033,-0.00002795,-0.00001332,-0.00000374,0.00002416,0
 .00000893,-0.00007361,0.00000886,-0.00002220,-0.00000930,-0.00001878,0
 .00000522,-0.00000321,0.00069493,0.00085417,-0.00017139,0.00044682,-0.
 00021078,-0.00002716,-0.00002887,-0.00005266,0.00033381,-0.00057068,0.
 00009315,0.00061309,-0.00004631,0.00000472,-0.00000656,0.00001664,0.00
 004398,0.00005674,-0.00004200,-0.00000143,-0.00003828,0.01067886,-0.00
 077704,-0.00785474,0.21252925,-0.00002268,-0.00002204,-0.00001880,-0.0
 0001061,-0.00005518,0.00003207,-0.00333744,-0.00398403,-0.00212829,0.0
 0001561,0.00005904,0.00002069,-0.00674365,-0.04705690,0.00627377,0.032
 62863,-0.00976460,-0.02622354,-0.00001412,-0.00001692,-0.00000363,0.00
 041850,-0.00094307,-0.00031995,-0.01761629,0.00248013,0.01770149,0.000
 84302,-0.00528941,0.00248121,-0.00000244,0.00003118,-0.00000134,-0.000
 00444,0.00025898,-0.00003269,0.00001014,-0.00005175,-0.00002174,-0.000
 01146,0.00001489,0.00000052,-0.00000407,0.00000534,0.00000469,0.000336
 65,-0.00004193,-0.00019595,-0.00000965,-0.00000716,-0.00000182,0.00001
 990,-0.00001033,-0.00005912,-0.00000369,-0.00000186,0.00000217,0.00000
 051,0.00000525,0.00000033,0.00079357,0.00085208,-0.00038771,0.00102265
 ,0.00054760,0.00004637,-0.00014207,0.00004683,-0.00020901,0.00150828,-
 0.00027544,-0.00101546,-0.00003357,0.00003277,-0.00000836,0.00000136,0
 .00005132,0.00005715,0.00001170,0.00000562,0.00000421,-0.00251493,0.00
 126007,0.00087183,-0.00572769,0.06118880,-0.00000272,0.00000134,-0.000
 00485,-0.00012795,0.00000659,-0.00003013,-0.00074431,-0.00085532,0.000
 55567,-0.00000638,0.00001107,0.00000480,0.13673518,-0.00165150,-0.1793
 6996,-0.00271759,-0.00125819,0.00372744,-0.00001111,-0.00000368,0.0000
 0965,-0.00022278,0.00004334,-0.00009699,-0.00708159,0.00007846,0.00542
 005,-0.00109379,0.00020768,0.00140988,0.00004656,-0.00002112,-0.000007
 14,0.00020431,0.00003310,0.00007596,0.00001543,0.00001349,0.00001892,0
 .00000099,0.00000058,0.00000052,0.00000169,-0.00000069,-0.00000189,-0.
 00021846,-0.00008263,0.00034917,0.00000548,0.00000188,-0.00000076,0.00
 000264,-0.00000272,0.00000618,-0.00000011,0.00000285,0.00000253,0.0000
 0416,-0.00000098,-0.00000092,0.00029075,0.00057835,0.00077853,0.000592
 37,0.00043488,0.00008027,-0.00019525,0.00011827,0.00041430,0.00023918,
 0.00003074,0.00021456,0.00001285,-0.00000013,-0.00000230,0.00000739,-0
 .00001482,-0.00000587,0.00001318,0.00000330,0.00001231,0.02092245,0.00
 039907,-0.01843870,-0.14654674,0.00208210,0.18459579,-0.00015127,0.000
 15053,-0.00006262,0.00016402,0.00018684,-0.00009749,-0.18133134,-0.137
 15590,-0.03171794,-0.00099928,0.00018510,-0.00032091,-0.00328415,0.002
 99375,0.00480456,0.00078415,-0.00082573,-0.00057604,0.00000204,-0.0000
 0268,0.00002042,0.01187836,0.00997262,0.00298220,-0.01740300,-0.016864
 98,-0.00552530,-0.00149379,0.00322946,0.00032304,0.00013825,-0.0002365
 4,-0.00003205,0.00070581,-0.00155132,0.00069548,-0.00275875,-0.0002429
 0,-0.00201940,0.00004540,0.00000520,0.00006955,0.00006060,-0.00003598,
 -0.00002602,-0.00745091,-0.00676684,-0.00199820,-0.00000833,-0.0001128
 4,0.00000836,-0.00103854,0.00060483,0.00046680,0.00001916,0.00000315,0
 .00000077,0.00000211,-0.00003565,0.00000642,0.00111989,0.00007459,-0.0
 0006469,0.00065058,0.00031438,-0.00072809,-0.00001651,0.00007265,-0.00
 001285,0.00065624,0.00070344,0.00002364,-0.00030668,0.00017956,0.00021
 245,-0.00256104,0.00064071,-0.00248377,-0.00001784,-0.00006780,0.00003
 624,0.00028818,0.00025639,-0.00000076,-0.00095288,-0.00150716,-0.00012
 151,0.20299645,-0.00023606,-0.00017616,-0.00014755,-0.00026998,-0.0010
 4286,0.00052842,-0.13459497,-0.18481708,-0.03101477,0.00036062,0.00037
 712,0.00006820,0.00164817,0.00043260,-0.00080787,-0.00076730,0.0009495
 6,0.00033003,-0.00007469,-0.00018355,-0.00007629,-0.02358945,-0.021202
 08,-0.00732458,0.00371313,0.00427113,0.00208162,0.00591408,-0.00475788
 ,0.00028878,0.00007637,0.00029353,0.00000021,0.00053079,0.00274968,-0.
 00004859,-0.00023570,-0.00043445,-0.00051531,-0.00010565,0.00014494,0.
 00000965,-0.00003473,0.00005167,0.00004734,0.00360869,0.00336249,0.000
 01087,-0.00019710,-0.00015276,-0.00002952,0.00031948,-0.00002647,-0.00
 072328,0.00002732,0.00001125,0.00004176,0.00000199,0.00004859,0.000001
 83,-0.00043433,0.00012107,0.00014737,-0.00033228,0.00040429,0.00054764
 ,0.00002470,0.00023410,-0.00011772,-0.00157182,-0.00126524,0.00001328,
 -0.00044791,0.00042312,-0.00008004,-0.00066278,0.00147506,0.00015869,0
 .00014964,0.00012155,0.00000214,-0.00009713,-0.00009666,-0.00013578,0.
 00029873,0.00033336,-0.00013643,0.14687166,0.19723989,-0.00002666,0.00
 001570,-0.00025658,-0.00019573,0.00043827,-0.00012756,-0.03211111,-0.0
 3352328,-0.05437861,0.00038573,-0.00010293,0.00039027,0.00324124,-0.00
 232815,-0.00317539,-0.00083667,0.00010475,0.00024376,-0.00007621,0.000
 02364,0.00015358,0.00136369,0.00388439,-0.00123563,0.01651401,0.016806
 87,0.00407315,-0.00007485,-0.00033807,0.00030924,0.00018914,-0.0003711
 3,-0.00008569,0.00083884,-0.00082793,0.00060485,-0.00186524,0.00019471
 ,-0.00060979,-0.00003457,0.00005009,0.00001191,0.00005159,-0.00003722,
 -0.00001658,-0.02058392,-0.02155731,-0.00478203,-0.00002136,0.00002266
 ,-0.00007158,0.00074039,-0.00039096,-0.00027691,0.00001266,-0.00000995
 ,-0.00002321,0.00000930,-0.00000519,-0.00002804,-0.00095750,0.00029390
 ,0.00067806,-0.00092729,-0.00029617,0.00073610,0.00035799,0.00025453,0
 .00033741,-0.00006286,-0.00009285,0.00036704,0.00005064,-0.00000573,-0
 .00004174,-0.00302513,0.00011641,-0.00209903,0.00005668,-0.00000170,0.
 00005556,0.00029671,0.00017101,0.00020922,0.00091750,0.00095180,0.0003
 5208,0.03605764,0.03681019,0.05885190,-0.00006745,-0.00000615,0.000083
 44,0.00209189,-0.00078822,-0.00021953,-0.00741557,0.00178178,0.0072849
 8,-0.00055801,-0.00158887,0.00034188,0.00119924,-0.00113521,0.00011292
 ,-0.00517701,-0.00384857,0.00002518,-0.00153026,0.00107707,0.00032991,
 -0.17605683,0.02439701,0.13055375,0.00073714,0.00229814,-0.00117432,-0
 .01536255,0.00651316,0.01734016,0.00113055,0.00009264,0.00042453,0.011
 49635,0.00033367,-0.01758208,0.00016878,0.00000825,0.00032919,0.000039
 46,0.00005237,0.00000274,-0.00000533,0.00001938,0.00000733,0.00002752,
 0.00020201,-0.00010027,-0.00032590,0.00006217,-0.00014306,-0.00138201,
 -0.00188009,-0.00064816,-0.00278181,0.00159506,-0.00091855,-0.00027156
 ,-0.00010117,0.00001717,-0.00001857,-0.00001157,0.00010833,-0.00051385
 ,-0.00001216,0.00046830,0.00012992,0.00036102,-0.00045917,0.00104882,-
 0.00020295,-0.00002279,-0.00002183,-0.00001523,0.00004748,-0.00000800,
 0.00002510,-0.00003621,-0.00028411,-0.00009068,0.00005737,-0.00009549,
 0.00013201,-0.00013244,-0.00011081,0.00009548,-0.00000433,0.00026307,0
 .00010653,-0.00028464,0.19365421,-0.00015358,0.00008467,-0.00000241,-0
 .00044686,0.00067550,-0.00077752,0.02413934,-0.00419130,-0.02177576,-0
 .00070377,-0.00007629,-0.00047297,-0.00003277,-0.00177967,0.00001272,-
 0.00586750,-0.00216413,0.00056816,0.00062454,0.00006914,0.00008688,0.0
 2689487,-0.05628784,-0.02818960,0.00130591,-0.00611857,0.00193715,-0.0
 1433147,0.00466867,0.01570186,-0.00019603,-0.00037561,-0.00014157,-0.0
 0450618,0.00222253,0.00823029,0.00031686,-0.00006508,-0.00012150,0.000
 08017,-0.00014544,0.00002403,0.00002219,-0.00001931,-0.00002294,-0.000
 33885,0.00111965,0.00042177,0.00021990,0.00004323,0.00014200,-0.001405
 06,-0.00172001,0.00006067,0.00173348,-0.00020044,0.00040759,0.00005833
 ,-0.00004258,-0.00000791,-0.00021677,0.00004294,-0.00012462,0.00165258
 ,-0.00014472,-0.00127279,0.00065296,0.00076180,-0.00045491,0.00101076,
 0.00051539,0.00034627,-0.00001887,0.00004420,0.00013757,-0.00004600,0.
 00002137,0.00000808,0.00007858,-0.00007332,0.00004065,-0.00000603,0.00
 021105,0.00004907,-0.00001021,0.00034739,-0.00001886,-0.00103853,0.001
 11019,-0.00025037,-0.02947199,0.06146660,-0.00015268,-0.00005678,0.000
 24310,0.00555877,0.00035009,0.00152807,-0.00000015,-0.00004408,0.00262
 379,-0.00020844,0.00050865,-0.00068630,0.00010379,-0.00038891,-0.00011
 016,-0.00192918,-0.00117987,0.00133717,-0.00008212,-0.00083558,-0.0020
 1217,0.12518098,-0.02959345,-0.17664345,-0.00007129,0.00055847,0.00113
 315,-0.00137283,0.00193987,0.00370226,-0.00214223,0.00081073,0.0010346
 6,0.01010121,0.00164750,-0.03892931,-0.00058966,-0.00025776,-0.0004262
 4,0.00013206,0.00007328,0.00000141,-0.00000365,-0.00002429,-0.00002542
 ,0.00017580,-0.00057228,0.00044750,0.00026201,0.00006437,0.00036382,0.
 00044816,0.00007021,0.00092050,0.00061104,0.00047097,0.00133698,0.0003
 9567,0.00012963,0.00045322,-0.00019398,0.00010224,0.00011619,-0.000025
 01,0.00017539,0.00002240,0.00016800,0.00058518,0.00038523,0.00031017,0
 .00003503,-0.00003364,-0.00011226,-0.00016741,0.00015420,-0.00000566,0
 .00007079,0.00005850,-0.00080008,-0.00012445,-0.00010091,0.00000639,0.
 00002682,-0.00004265,-0.00003576,0.00009700,-0.00006908,0.00008007,0.0
 0006972,-0.00016578,-0.13580912,0.02545895,0.20338295\\-0.00000444,-0.
 00000804,0.00000046,-0.00097202,0.00193497,0.00092057,0.00172356,0.000
 66942,-0.00056330,-0.00000014,-0.00000459,-0.00000571,0.00000408,-0.00
 000417,-0.00000408,-0.00000122,0.00000285,0.00000552,-0.00000165,0.000
 00552,-0.00001678,-0.00304911,0.00013687,0.00132614,0.00000499,0.00000
 631,-0.00000461,-0.00000514,0.00000243,0.00000059,-0.00000312,-0.00000
 191,0.00001141,0.00229153,-0.00273782,-0.00167279,0.00000476,-0.000001
 21,0.00000003,0.00000151,-0.00000051,0.00000025,-0.00000022,0.00000039
 ,-0.00000140,-0.00000010,-0.00000208,-0.00000649,0.00000722,-0.0000024
 9,-0.00000482,0.00000484,-0.00000121,0.00000089,-0.00000218,-0.0000075
 8,0.00000176,0.,0.00000082,0.00000380,0.00000133,0.00000145,0.00000169
 ,0.00000164,0.00000230,0.00000012,-0.00000180,-0.00000059,0.00000298,-
 0.00000168,0.00000161,0.00000606,-0.00000006,0.00000250,-0.00000438,-0
 .00000331,-0.00000075,-0.00000214,-0.00000072,-0.00000165,0.00000200,-
 0.00000065,0.00000274,-0.00000004,0.00000236,0.00000212,0.00000209,-0.
 00000126,0.00000218,-0.00000530,0.00000098,0.00000011,0.00000548\\\@


 SCIENCE IS LONG AND LIFE IS SHORT.

                     DON MOSER IN THE FEBRUARY 1979 SMITHSONIAN
 Job cpu time:       0 days 15 hours 15 minutes  6.3 seconds.
 Elapsed time:       0 days  0 hours 57 minutes 13.6 seconds.
 File lengths (MBytes):  RWF=    683 Int=      0 D2E=      0 Chk=     33 Scr=      1
 Normal termination of Gaussian 16 at Mon Nov  5 05:36:07 2018.
