 Entering Gaussian System, Link 0=g16
 Initial command:
 /apps/gaussian/g16a03/g16/l1.exe "/jobfs/local/2011920.r-man2/Gau-25215.inp" -scrdir="/jobfs/local/2011920.r-man2/"
 Entering Link 1 = /apps/gaussian/g16a03/g16/l1.exe PID=     25216.
  
 Copyright (c) 1988,1990,1992,1993,1995,1998,2003,2009,2016,
            Gaussian, Inc.  All Rights Reserved.
  
 This is part of the Gaussian(R) 16 program.  It is based on
 the Gaussian(R) 09 system (copyright 2009, Gaussian, Inc.),
 the Gaussian(R) 03 system (copyright 2003, Gaussian, Inc.),
 the Gaussian(R) 98 system (copyright 1998, Gaussian, Inc.),
 the Gaussian(R) 94 system (copyright 1995, Gaussian, Inc.),
 the Gaussian 92(TM) system (copyright 1992, Gaussian, Inc.),
 the Gaussian 90(TM) system (copyright 1990, Gaussian, Inc.),
 the Gaussian 88(TM) system (copyright 1988, Gaussian, Inc.),
 the Gaussian 86(TM) system (copyright 1986, Carnegie Mellon
 University), and the Gaussian 82(TM) system (copyright 1983,
 Carnegie Mellon University). Gaussian is a federally registered
 trademark of Gaussian, Inc.
  
 This software contains proprietary and confidential information,
 including trade secrets, belonging to Gaussian, Inc.
  
 This software is provided under written license and may be
 used, copied, transmitted, or stored only in accord with that
 written license.
  
 The following legend is applicable only to US Government
 contracts under FAR:
  
                    RESTRICTED RIGHTS LEGEND
  
 Use, reproduction and disclosure by the US Government is
 subject to restrictions as set forth in subparagraphs (a)
 and (c) of the Commercial Computer Software - Restricted
 Rights clause in FAR 52.227-19.
  
 Gaussian, Inc.
 340 Quinnipiac St., Bldg. 40, Wallingford CT 06492
  
  
 ---------------------------------------------------------------
 Warning -- This program may not be used in any manner that
 competes with the business of Gaussian, Inc. or will provide
 assistance to any competitor of Gaussian, Inc.  The licensee
 of this program is prohibited from giving any competitor of
 Gaussian, Inc. access to this program.  By using this program,
 the user acknowledges that Gaussian, Inc. is engaged in the
 business of creating and licensing software in the field of
 computational chemistry and represents and warrants to the
 licensee that it is not a competitor of Gaussian, Inc. and that
 it will not use this program in any manner prohibited above.
 ---------------------------------------------------------------
  

 Cite this work as:
 Gaussian 16, Revision A.03,
 M. J. Frisch, G. W. Trucks, H. B. Schlegel, G. E. Scuseria, 
 M. A. Robb, J. R. Cheeseman, G. Scalmani, V. Barone, 
 G. A. Petersson, H. Nakatsuji, X. Li, M. Caricato, A. V. Marenich, 
 J. Bloino, B. G. Janesko, R. Gomperts, B. Mennucci, H. P. Hratchian, 
 J. V. Ortiz, A. F. Izmaylov, J. L. Sonnenberg, D. Williams-Young, 
 F. Ding, F. Lipparini, F. Egidi, J. Goings, B. Peng, A. Petrone, 
 T. Henderson, D. Ranasinghe, V. G. Zakrzewski, J. Gao, N. Rega, 
 G. Zheng, W. Liang, M. Hada, M. Ehara, K. Toyota, R. Fukuda, 
 J. Hasegawa, M. Ishida, T. Nakajima, Y. Honda, O. Kitao, H. Nakai, 
 T. Vreven, K. Throssell, J. A. Montgomery, Jr., J. E. Peralta, 
 F. Ogliaro, M. J. Bearpark, J. J. Heyd, E. N. Brothers, K. N. Kudin, 
 V. N. Staroverov, T. A. Keith, R. Kobayashi, J. Normand, 
 K. Raghavachari, A. P. Rendell, J. C. Burant, S. S. Iyengar, 
 J. Tomasi, M. Cossi, J. M. Millam, M. Klene, C. Adamo, R. Cammi, 
 J. W. Ochterski, R. L. Martin, K. Morokuma, O. Farkas, 
 J. B. Foresman, and D. J. Fox, Gaussian, Inc., Wallingford CT, 2016.
 
 ******************************************
 Gaussian 16:  ES64L-G16RevA.03 25-Dec-2016
                 4-Nov-2018 
 ******************************************
 %mem=6000mb
 %nproc=24
 Will use up to   24 processors via shared memory.
 %chk=D_1a_4a_L_PSI.inp_extract_3.chk
 ----------------------------------------------------------------------
 #M062X/6-311++G(2d,2p) opt=ModRedundant freq=noraman SCRF=(Solvent=Wat
 er)
 ----------------------------------------------------------------------
 1/18=120,19=15,26=3,38=1/1,3;
 2/9=110,12=2,17=6,18=5,40=1/2;
 3/5=4,6=6,7=1212,11=2,25=1,30=1,70=2201,71=1,72=1,74=-55/1,2,3;
 4//1;
 5/5=2,38=5,53=1/2;
 6/7=2,8=2,9=2,10=2,28=1/1;
 7//1,2,3,16;
 1/18=20,19=15,26=3/3(2);
 2/9=110/2;
 99//99;
 2/9=110/2;
 3/5=4,6=6,7=1212,11=2,25=1,30=1,70=2205,71=1,72=1,74=-55/1,2,3;
 4/5=5,16=3,69=1/1;
 5/5=2,38=5,53=1/2;
 7//1,2,3,16;
 1/18=20,19=15,26=3/3(-5);
 2/9=110/2;
 6/7=2,8=2,9=2,10=2,19=2,28=1/1;
 99/9=1/99;
 ---------------------------
 D_1a_4a_L_PSI.inp_extract_3
 ---------------------------
 Symbolic Z-matrix:
 Charge =  0 Multiplicity = 1
 C                     3.05172  -0.97817  -0.67617 
 C                     1.12058   0.56008   0.83962 
 C                    -1.75625   0.0227    1.37404 
 C                     2.96677   0.53256  -0.89178 
 C                    -2.99463  -0.92472  -0.59031 
 O                    -2.35342   0.0274   -1.41976 
 C                     1.71015  -1.51271  -0.2037 
 C                    -1.21889   1.10911   0.43922 
 C                    -2.13365  -1.25494   0.61866 
 C                    -2.1242    1.2583   -0.76994 
 O                     1.25761  -0.83099   0.95878 
 O                     0.10142   0.90157  -0.05347 
 C                     2.42198   1.19868   0.37215 
 H                     3.81044  -1.20185   0.07031 
 H                     3.33397  -1.48983  -1.592 
 H                    -2.64842   0.43654   1.83838 
 H                     3.94365   0.94104  -1.13189 
 H                     2.31726   0.74547  -1.73682 
 H                     0.9668   -1.42091  -0.98783 
 H                     1.77538  -2.55452   0.07831 
 H                    -1.24387  -1.77786   0.28613 
 H                    -2.67949  -1.92889   1.27291 
 H                    -3.07288   1.68211  -0.4504 
 H                    -1.67795   1.92085  -1.49816 
 H                     3.14455   1.08939   1.17661 
 H                     2.25699   2.26055   0.22446 
 H                     0.87039   0.90869   1.83106 
 H                    -3.95943  -0.52901  -0.27999 
 H                    -3.16656  -1.79841  -1.20403 
 H                    -1.05983  -0.1882    2.17506 
 H                    -1.21732   2.05571   0.97266 
 
 The following ModRedundant input section has been read:
 D       3       8      12       2 F                                           
 

 GradGradGradGradGradGradGradGradGradGradGradGradGradGradGradGradGradGrad
 Berny optimization.
 Initialization pass.
                           ----------------------------
                           !    Initial Parameters    !
                           ! (Angstroms and Degrees)  !
 --------------------------                            --------------------------
 ! Name  Definition              Value          Derivative Info.                !
 --------------------------------------------------------------------------------
 ! R1    R(1,4)                  1.5284         estimate D2E/DX2                !
 ! R2    R(1,7)                  1.5195         estimate D2E/DX2                !
 ! R3    R(1,14)                 1.0876         estimate D2E/DX2                !
 ! R4    R(1,15)                 1.0864         estimate D2E/DX2                !
 ! R5    R(2,11)                 1.4029         estimate D2E/DX2                !
 ! R6    R(2,12)                 1.3975         estimate D2E/DX2                !
 ! R7    R(2,13)                 1.5231         estimate D2E/DX2                !
 ! R8    R(2,27)                 1.0803         estimate D2E/DX2                !
 ! R9    R(3,8)                  1.5307         estimate D2E/DX2                !
 ! R10   R(3,9)                  1.5315         estimate D2E/DX2                !
 ! R11   R(3,16)                 1.0876         estimate D2E/DX2                !
 ! R12   R(3,30)                 1.0822         estimate D2E/DX2                !
 ! R13   R(4,13)                 1.5291         estimate D2E/DX2                !
 ! R14   R(4,17)                 1.0857         estimate D2E/DX2                !
 ! R15   R(4,18)                 1.0869         estimate D2E/DX2                !
 ! R16   R(5,6)                  1.4162         estimate D2E/DX2                !
 ! R17   R(5,9)                  1.5205         estimate D2E/DX2                !
 ! R18   R(5,28)                 1.088          estimate D2E/DX2                !
 ! R19   R(5,29)                 1.0815         estimate D2E/DX2                !
 ! R20   R(6,10)                 1.4106         estimate D2E/DX2                !
 ! R21   R(7,11)                 1.4216         estimate D2E/DX2                !
 ! R22   R(7,19)                 1.0844         estimate D2E/DX2                !
 ! R23   R(7,20)                 1.0813         estimate D2E/DX2                !
 ! R24   R(8,10)                 1.5179         estimate D2E/DX2                !
 ! R25   R(8,12)                 1.4244         estimate D2E/DX2                !
 ! R26   R(8,31)                 1.0866         estimate D2E/DX2                !
 ! R27   R(9,21)                 1.0843         estimate D2E/DX2                !
 ! R28   R(9,22)                 1.0864         estimate D2E/DX2                !
 ! R29   R(10,23)                1.0871         estimate D2E/DX2                !
 ! R30   R(10,24)                1.0809         estimate D2E/DX2                !
 ! R31   R(13,25)                1.0868         estimate D2E/DX2                !
 ! R32   R(13,26)                1.0847         estimate D2E/DX2                !
 ! A1    A(4,1,7)              110.0305         estimate D2E/DX2                !
 ! A2    A(4,1,14)             109.8087         estimate D2E/DX2                !
 ! A3    A(4,1,15)             111.1641         estimate D2E/DX2                !
 ! A4    A(7,1,14)             109.2787         estimate D2E/DX2                !
 ! A5    A(7,1,15)             109.0164         estimate D2E/DX2                !
 ! A6    A(14,1,15)            107.4871         estimate D2E/DX2                !
 ! A7    A(11,2,12)            111.5817         estimate D2E/DX2                !
 ! A8    A(11,2,13)            110.9986         estimate D2E/DX2                !
 ! A9    A(11,2,27)            105.3464         estimate D2E/DX2                !
 ! A10   A(12,2,13)            108.9366         estimate D2E/DX2                !
 ! A11   A(12,2,27)            109.8005         estimate D2E/DX2                !
 ! A12   A(13,2,27)            110.1358         estimate D2E/DX2                !
 ! A13   A(8,3,9)              112.1726         estimate D2E/DX2                !
 ! A14   A(8,3,16)             106.1798         estimate D2E/DX2                !
 ! A15   A(8,3,30)             111.3745         estimate D2E/DX2                !
 ! A16   A(9,3,16)             109.0187         estimate D2E/DX2                !
 ! A17   A(9,3,30)             111.1676         estimate D2E/DX2                !
 ! A18   A(16,3,30)            106.6214         estimate D2E/DX2                !
 ! A19   A(1,4,13)             109.4989         estimate D2E/DX2                !
 ! A20   A(1,4,17)             110.6752         estimate D2E/DX2                !
 ! A21   A(1,4,18)             109.6654         estimate D2E/DX2                !
 ! A22   A(13,4,17)            109.8449         estimate D2E/DX2                !
 ! A23   A(13,4,18)            110.1469         estimate D2E/DX2                !
 ! A24   A(17,4,18)            106.9803         estimate D2E/DX2                !
 ! A25   A(6,5,9)              110.8126         estimate D2E/DX2                !
 ! A26   A(6,5,28)             108.9063         estimate D2E/DX2                !
 ! A27   A(6,5,29)             106.424          estimate D2E/DX2                !
 ! A28   A(9,5,28)             110.7529         estimate D2E/DX2                !
 ! A29   A(9,5,29)             111.4561         estimate D2E/DX2                !
 ! A30   A(28,5,29)            108.3442         estimate D2E/DX2                !
 ! A31   A(5,6,10)             112.9795         estimate D2E/DX2                !
 ! A32   A(1,7,11)             111.5078         estimate D2E/DX2                !
 ! A33   A(1,7,19)             110.5254         estimate D2E/DX2                !
 ! A34   A(1,7,20)             111.5177         estimate D2E/DX2                !
 ! A35   A(11,7,19)            109.4209         estimate D2E/DX2                !
 ! A36   A(11,7,20)            105.5444         estimate D2E/DX2                !
 ! A37   A(19,7,20)            108.1508         estimate D2E/DX2                !
 ! A38   A(3,8,10)             110.2978         estimate D2E/DX2                !
 ! A39   A(3,8,12)             115.6725         estimate D2E/DX2                !
 ! A40   A(3,8,31)             108.6035         estimate D2E/DX2                !
 ! A41   A(10,8,12)            106.9549         estimate D2E/DX2                !
 ! A42   A(10,8,31)            107.8381         estimate D2E/DX2                !
 ! A43   A(12,8,31)            107.181          estimate D2E/DX2                !
 ! A44   A(3,9,5)              110.5207         estimate D2E/DX2                !
 ! A45   A(3,9,21)             110.5711         estimate D2E/DX2                !
 ! A46   A(3,9,22)             110.1402         estimate D2E/DX2                !
 ! A47   A(5,9,21)             108.9997         estimate D2E/DX2                !
 ! A48   A(5,9,22)             109.2122         estimate D2E/DX2                !
 ! A49   A(21,9,22)            107.3258         estimate D2E/DX2                !
 ! A50   A(6,10,8)             112.2174         estimate D2E/DX2                !
 ! A51   A(6,10,23)            109.4987         estimate D2E/DX2                !
 ! A52   A(6,10,24)            106.9523         estimate D2E/DX2                !
 ! A53   A(8,10,23)            108.9451         estimate D2E/DX2                !
 ! A54   A(8,10,24)            110.5301         estimate D2E/DX2                !
 ! A55   A(23,10,24)           108.6236         estimate D2E/DX2                !
 ! A56   A(2,11,7)             115.923          estimate D2E/DX2                !
 ! A57   A(2,12,8)             119.3759         estimate D2E/DX2                !
 ! A58   A(2,13,4)             112.0532         estimate D2E/DX2                !
 ! A59   A(2,13,25)            107.3805         estimate D2E/DX2                !
 ! A60   A(2,13,26)            108.7997         estimate D2E/DX2                !
 ! A61   A(4,13,25)            109.3393         estimate D2E/DX2                !
 ! A62   A(4,13,26)            111.599          estimate D2E/DX2                !
 ! A63   A(25,13,26)           107.4784         estimate D2E/DX2                !
 ! D1    D(7,1,4,13)            53.0247         estimate D2E/DX2                !
 ! D2    D(7,1,4,17)           174.2596         estimate D2E/DX2                !
 ! D3    D(7,1,4,18)           -67.9433         estimate D2E/DX2                !
 ! D4    D(14,1,4,13)          -67.2959         estimate D2E/DX2                !
 ! D5    D(14,1,4,17)           53.9389         estimate D2E/DX2                !
 ! D6    D(14,1,4,18)          171.7361         estimate D2E/DX2                !
 ! D7    D(15,1,4,13)          173.8918         estimate D2E/DX2                !
 ! D8    D(15,1,4,17)          -64.8734         estimate D2E/DX2                !
 ! D9    D(15,1,4,18)           52.9238         estimate D2E/DX2                !
 ! D10   D(4,1,7,11)           -54.9549         estimate D2E/DX2                !
 ! D11   D(4,1,7,19)            66.9932         estimate D2E/DX2                !
 ! D12   D(4,1,7,20)          -172.6644         estimate D2E/DX2                !
 ! D13   D(14,1,7,11)           65.6854         estimate D2E/DX2                !
 ! D14   D(14,1,7,19)         -172.3665         estimate D2E/DX2                !
 ! D15   D(14,1,7,20)          -52.0241         estimate D2E/DX2                !
 ! D16   D(15,1,7,11)         -177.1036         estimate D2E/DX2                !
 ! D17   D(15,1,7,19)          -55.1555         estimate D2E/DX2                !
 ! D18   D(15,1,7,20)           65.1869         estimate D2E/DX2                !
 ! D19   D(12,2,11,7)           66.4578         estimate D2E/DX2                !
 ! D20   D(13,2,11,7)          -55.2537         estimate D2E/DX2                !
 ! D21   D(27,2,11,7)         -174.4438         estimate D2E/DX2                !
 ! D22   D(11,2,12,8)           91.7821         estimate D2E/DX2                !
 ! D23   D(13,2,12,8)         -145.3214         estimate D2E/DX2                !
 ! D24   D(27,2,12,8)          -24.6351         estimate D2E/DX2                !
 ! D25   D(11,2,13,4)           52.1351         estimate D2E/DX2                !
 ! D26   D(11,2,13,25)         -67.9443         estimate D2E/DX2                !
 ! D27   D(11,2,13,26)         176.0153         estimate D2E/DX2                !
 ! D28   D(12,2,13,4)          -71.1104         estimate D2E/DX2                !
 ! D29   D(12,2,13,25)         168.8103         estimate D2E/DX2                !
 ! D30   D(12,2,13,26)          52.7698         estimate D2E/DX2                !
 ! D31   D(27,2,13,4)          168.4095         estimate D2E/DX2                !
 ! D32   D(27,2,13,25)          48.3301         estimate D2E/DX2                !
 ! D33   D(27,2,13,26)         -67.7103         estimate D2E/DX2                !
 ! D34   D(9,3,8,10)            47.3165         estimate D2E/DX2                !
 ! D35   D(9,3,8,12)           -74.2016         estimate D2E/DX2                !
 ! D36   D(9,3,8,31)           165.2935         estimate D2E/DX2                !
 ! D37   D(16,3,8,10)          -71.6735         estimate D2E/DX2                !
 ! D38   D(16,3,8,12)          166.8084         estimate D2E/DX2                !
 ! D39   D(16,3,8,31)           46.3035         estimate D2E/DX2                !
 ! D40   D(30,3,8,10)          172.643          estimate D2E/DX2                !
 ! D41   D(30,3,8,12)           51.125          estimate D2E/DX2                !
 ! D42   D(30,3,8,31)          -69.38           estimate D2E/DX2                !
 ! D43   D(8,3,9,5)            -48.6265         estimate D2E/DX2                !
 ! D44   D(8,3,9,21)            72.1552         estimate D2E/DX2                !
 ! D45   D(8,3,9,22)          -169.3915         estimate D2E/DX2                !
 ! D46   D(16,3,9,5)            68.6801         estimate D2E/DX2                !
 ! D47   D(16,3,9,21)         -170.5382         estimate D2E/DX2                !
 ! D48   D(16,3,9,22)          -52.0849         estimate D2E/DX2                !
 ! D49   D(30,3,9,5)          -174.0665         estimate D2E/DX2                !
 ! D50   D(30,3,9,21)          -53.2848         estimate D2E/DX2                !
 ! D51   D(30,3,9,22)           65.1685         estimate D2E/DX2                !
 ! D52   D(1,4,13,2)           -52.1944         estimate D2E/DX2                !
 ! D53   D(1,4,13,25)           66.736          estimate D2E/DX2                !
 ! D54   D(1,4,13,26)         -174.4939         estimate D2E/DX2                !
 ! D55   D(17,4,13,2)         -173.9296         estimate D2E/DX2                !
 ! D56   D(17,4,13,25)         -54.9991         estimate D2E/DX2                !
 ! D57   D(17,4,13,26)          63.7709         estimate D2E/DX2                !
 ! D58   D(18,4,13,2)           68.4813         estimate D2E/DX2                !
 ! D59   D(18,4,13,25)        -172.5882         estimate D2E/DX2                !
 ! D60   D(18,4,13,26)         -53.8181         estimate D2E/DX2                !
 ! D61   D(9,5,6,10)           -61.7368         estimate D2E/DX2                !
 ! D62   D(28,5,6,10)           60.3282         estimate D2E/DX2                !
 ! D63   D(29,5,6,10)          176.9298         estimate D2E/DX2                !
 ! D64   D(6,5,9,3)             54.5206         estimate D2E/DX2                !
 ! D65   D(6,5,9,21)           -67.1928         estimate D2E/DX2                !
 ! D66   D(6,5,9,22)           175.8369         estimate D2E/DX2                !
 ! D67   D(28,5,9,3)           -66.4586         estimate D2E/DX2                !
 ! D68   D(28,5,9,21)          171.828          estimate D2E/DX2                !
 ! D69   D(28,5,9,22)           54.8577         estimate D2E/DX2                !
 ! D70   D(29,5,9,3)           172.8409         estimate D2E/DX2                !
 ! D71   D(29,5,9,21)           51.1275         estimate D2E/DX2                !
 ! D72   D(29,5,9,22)          -65.8428         estimate D2E/DX2                !
 ! D73   D(5,6,10,8)            61.2283         estimate D2E/DX2                !
 ! D74   D(5,6,10,23)          -59.8804         estimate D2E/DX2                !
 ! D75   D(5,6,10,24)         -177.4034         estimate D2E/DX2                !
 ! D76   D(1,7,11,2)            57.5253         estimate D2E/DX2                !
 ! D77   D(19,7,11,2)          -65.0588         estimate D2E/DX2                !
 ! D78   D(20,7,11,2)          178.7785         estimate D2E/DX2                !
 ! D79   D(3,8,10,6)           -52.6966         estimate D2E/DX2                !
 ! D80   D(3,8,10,23)           68.73           estimate D2E/DX2                !
 ! D81   D(3,8,10,24)         -171.9897         estimate D2E/DX2                !
 ! D82   D(12,8,10,6)           73.8631         estimate D2E/DX2                !
 ! D83   D(12,8,10,23)        -164.7103         estimate D2E/DX2                !
 ! D84   D(12,8,10,24)         -45.43           estimate D2E/DX2                !
 ! D85   D(31,8,10,6)         -171.1433         estimate D2E/DX2                !
 ! D86   D(31,8,10,23)         -49.7167         estimate D2E/DX2                !
 ! D87   D(31,8,10,24)          69.5636         estimate D2E/DX2                !
 ! D88   D(3,8,12,2)           -48.518          Frozen                          !
 ! D89   D(10,8,12,2)         -171.8115         estimate D2E/DX2                !
 ! D90   D(31,8,12,2)           72.7546         estimate D2E/DX2                !
 --------------------------------------------------------------------------------
 Trust Radius=3.00D-01 FncErr=1.00D-07 GrdErr=1.00D-06 EigMax=2.50D+02 EigMin=1.00D-04
 Number of steps in this run=    186 maximum allowed number of steps=    186.
 GradGradGradGradGradGradGradGradGradGradGradGradGradGradGradGradGradGrad

                          Input orientation:                          
 ---------------------------------------------------------------------
 Center     Atomic      Atomic             Coordinates (Angstroms)
 Number     Number       Type             X           Y           Z
 ---------------------------------------------------------------------
      1          6           0        3.051719   -0.978172   -0.676165
      2          6           0        1.120582    0.560075    0.839624
      3          6           0       -1.756247    0.022701    1.374043
      4          6           0        2.966770    0.532561   -0.891783
      5          6           0       -2.994634   -0.924722   -0.590305
      6          8           0       -2.353424    0.027402   -1.419764
      7          6           0        1.710148   -1.512712   -0.203699
      8          6           0       -1.218894    1.109107    0.439223
      9          6           0       -2.133652   -1.254936    0.618656
     10          6           0       -2.124199    1.258299   -0.769937
     11          8           0        1.257612   -0.830985    0.958775
     12          8           0        0.101421    0.901570   -0.053466
     13          6           0        2.421981    1.198676    0.372153
     14          1           0        3.810439   -1.201853    0.070310
     15          1           0        3.333973   -1.489827   -1.592002
     16          1           0       -2.648417    0.436542    1.838376
     17          1           0        3.943645    0.941041   -1.131891
     18          1           0        2.317256    0.745471   -1.736823
     19          1           0        0.966803   -1.420914   -0.987829
     20          1           0        1.775378   -2.554520    0.078307
     21          1           0       -1.243867   -1.777859    0.286131
     22          1           0       -2.679489   -1.928894    1.272912
     23          1           0       -3.072880    1.682107   -0.450395
     24          1           0       -1.677951    1.920847   -1.498161
     25          1           0        3.144546    1.089386    1.176608
     26          1           0        2.256990    2.260552    0.224464
     27          1           0        0.870387    0.908685    1.831063
     28          1           0       -3.959425   -0.529008   -0.279986
     29          1           0       -3.166560   -1.798413   -1.204026
     30          1           0       -1.059828   -0.188201    2.175063
     31          1           0       -1.217317    2.055711    0.972660
 ---------------------------------------------------------------------
                    Distance matrix (angstroms):
                    1          2          3          4          5
     1  C    0.000000
     2  C    2.897087   0.000000
     3  C    5.321808   2.974982   0.000000
     4  C    1.528405   2.531193   5.263156   0.000000
     5  C    6.047199   4.602643   2.507962   6.144339   0.000000
     6  O    5.547945   4.178192   2.856921   5.370141   1.416225
     7  C    1.519464   2.394276   4.106417   2.497138   4.757118
     8  C    4.882516   2.436166   1.530658   4.429872   2.889575
     9  C    5.351750   3.732711   1.531470   5.611673   1.520499
    10  C    5.639213   3.688741   2.501748   5.143881   2.357012
    11  O    2.431772   1.402862   3.159838   2.864445   4.526592
    12  O    3.553230   1.397468   2.502224   3.008183   3.634432
    13  C    2.496840   1.523148   4.454693   1.529065   5.897021
    14  H    1.087619   3.306292   5.846986   2.155364   6.842677
    15  H    1.086377   3.874791   6.082393   2.171451   6.432263
    16  H    6.388731   3.901041   1.087583   6.244463   2.805601
    17  H    2.164855   3.464346   6.293792   1.085722   7.205144
    18  H    2.152992   2.846837   5.176226   1.086872   5.685088
    19  H    2.154073   2.699546   3.882971   2.797348   4.012133
    20  H    2.164058   3.272471   4.559975   3.448269   5.084909
    21  H    4.474100   3.370891   2.165203   4.945198   2.135689
    22  H    6.127766   4.563249   2.161325   6.528775   2.139919
    23  H    6.681225   4.528601   2.795662   6.163899   2.611753
    24  H    5.608009   3.892136   3.443638   4.885536   3.264218
    25  H    2.777801   2.118999   5.019419   2.149395   6.698369
    26  H    3.454281   2.135759   4.736621   2.176177   6.195916
    27  H    3.821601   1.080314   2.809456   3.456903   4.915566
    28  H    7.036679   5.314706   2.809660   7.033733   1.087984
    29  H    6.294317   5.302693   3.457149   6.568765   1.081456
    30  H    5.065410   2.664114   1.082179   5.112586   3.454446
    31  H    5.490696   2.778560   2.141187   4.827289   3.805877
                    6          7          8          9         10
     6  O    0.000000
     7  C    4.512580   0.000000
     8  C    2.431682   3.983286   0.000000
     9  C    2.418232   3.939228   2.541196   0.000000
    10  C    1.410648   4.764593   1.517861   2.871346   0.000000
    11  O    4.408385   1.421579   3.188569   3.434543   4.334766
    12  O    2.942313   2.905053   1.424446   3.177706   2.365158
    13  C    5.233292   2.861807   3.642594   5.180229   4.687822
    14  H    6.459458   2.140779   5.547146   5.969566   6.479066
    15  H    5.888814   2.136520   5.622182   5.902297   6.166006
    16  H    3.296952   5.192952   2.110334   2.147975   2.784490
    17  H    6.369512   3.445425   5.398931   6.694794   6.086903
    18  H    4.736180   2.796147   4.167945   5.418532   4.574318
    19  H    3.648026   1.084365   3.635210   3.495878   4.096334
    20  H    5.094855   1.081271   4.745323   4.154685   5.519403
    21  H    2.720324   3.006067   2.891130   1.084315   3.332945
    22  H    3.344236   4.650000   3.472438   1.086374   3.826196
    23  H    2.048253   5.757177   2.134716   3.263624   1.087068
    24  H    2.011851   4.994414   2.150142   3.843719   1.080934
    25  H    6.172247   3.276226   4.425351   5.802287   5.619363
    26  H    5.380182   3.836650   3.667931   5.638420   4.603060
    27  H    4.662348   3.272403   2.518429   3.895566   3.981831
    28  H    2.046442   5.754785   3.272796   2.160550   2.608174
    29  H    2.010307   4.986438   3.866179   2.164356   3.258594
    30  H    3.826572   3.884019   2.172890   2.171042   3.449387
    31  H    3.335936   4.763141   1.086562   3.453313   2.120129
                   11         12         13         14         15
    11  O    0.000000
    12  O    2.315849   0.000000
    13  C    2.412344   2.377903   0.000000
    14  H    2.728340   4.265738   2.789528   0.000000
    15  H    3.354372   4.305260   3.452200   1.753063   0.000000
    16  H    4.199689   3.370004   5.332879   6.893999   7.160124
    17  H    3.837412   3.990895   2.154991   2.460696   2.548043
    18  H    3.297621   2.787110   2.159662   3.047523   2.459928
    19  H    2.054715   2.648745   3.290797   3.042024   2.444027
    20  H    2.003467   3.842402   3.819806   2.443613   2.520461
    21  H    2.757973   3.017361   4.722881   5.091598   4.956507
    22  H    4.099372   4.183810   6.051286   6.640332   6.675495
    23  H    5.201399   3.292868   5.577077   7.481206   7.239627
    24  H    4.714514   2.508433   4.563885   6.506442   6.063076
    25  H    2.701073   3.287699   1.086827   2.630035   3.788591
    26  H    3.331001   2.563309   1.084719   3.798054   4.304043
    27  H    1.984258   2.035389   2.149409   4.024739   4.851751
    28  H    5.370586   4.311419   6.643231   7.806806   7.472497
    29  H    5.018657   4.392425   6.534422   7.117467   6.519408
    30  H    2.695006   2.739059   4.158955   5.401572   5.932158
    31  H    3.802431   2.030775   3.786767   6.058406   6.313681
                   16         17         18         19         20
    16  H    0.000000
    17  H    7.247916   0.000000
    18  H    6.126614   1.746234   0.000000
    19  H    4.950494   3.802785   2.660440   0.000000
    20  H    5.622656   4.287763   3.805032   1.753711   0.000000
    21  H    3.047261   6.026067   4.810523   2.576324   3.124457
    22  H    2.432283   7.608253   6.417024   4.320236   4.654496
    23  H    2.640090   7.088388   5.620120   5.122169   6.460197
    24  H    3.778551   5.718087   4.171348   4.292147   5.868530
    25  H    5.867074   2.447393   3.048076   3.965975   4.044618
    26  H    5.476746   2.534879   2.479062   4.085025   4.841305
    27  H    3.550346   4.269082   3.853554   3.658207   3.985593
    28  H    2.671795   8.083644   6.568363   5.056111   6.092540
    29  H    3.810473   7.620028   6.068563   4.156193   5.161282
    30  H    1.739907   6.102940   5.251599   3.953568   4.246675
    31  H    2.327922   5.683938   4.642331   4.549815   5.568691
                   21         22         23         24         25
    21  H    0.000000
    22  H    1.748588   0.000000
    23  H    3.982352   4.020432   0.000000
    24  H    4.129474   4.847930   1.760863   0.000000
    25  H    5.317162   6.560387   6.454056   5.576934   0.000000
    26  H    5.344957   6.558927   5.403476   4.308897   1.750989
    27  H    3.751587   4.578756   4.620886   4.313030   2.373344
    28  H    3.042100   2.451410   2.388311   3.562424   7.430159
    29  H    2.432640   2.527743   3.562409   4.016885   7.337361
    30  H    2.475671   2.543067   3.800455   4.280506   4.506207
    31  H    3.894648   4.255018   2.368075   2.517008   4.472273
                   26         27         28         29         30
    26  H    0.000000
    27  H    2.516222   0.000000
    28  H    6.832271   5.463568   0.000000
    29  H    6.923198   5.730365   1.758941   0.000000
    30  H    4.560977   2.246603   3.814587   4.295270   0.000000
    31  H    3.559855   2.532002   3.971026   4.836505   2.550631
                   31
    31  H    0.000000
 Stoichiometry    C10H18O3
 Framework group  C1[X(C10H18O3)]
 Deg. of freedom    87
 Full point group                 C1      NOp   1
 Largest Abelian subgroup         C1      NOp   1
 Largest concise Abelian subgroup C1      NOp   1
                         Standard orientation:                         
 ---------------------------------------------------------------------
 Center     Atomic      Atomic             Coordinates (Angstroms)
 Number     Number       Type             X           Y           Z
 ---------------------------------------------------------------------
      1          6           0       -3.051719    0.978172   -0.676165
      2          6           0       -1.120582   -0.560075    0.839624
      3          6           0        1.756247   -0.022701    1.374043
      4          6           0       -2.966770   -0.532561   -0.891783
      5          6           0        2.994634    0.924722   -0.590305
      6          8           0        2.353424   -0.027402   -1.419764
      7          6           0       -1.710148    1.512712   -0.203699
      8          6           0        1.218894   -1.109107    0.439223
      9          6           0        2.133652    1.254936    0.618656
     10          6           0        2.124199   -1.258299   -0.769937
     11          8           0       -1.257612    0.830985    0.958775
     12          8           0       -0.101421   -0.901570   -0.053466
     13          6           0       -2.421981   -1.198676    0.372153
     14          1           0       -3.810439    1.201853    0.070310
     15          1           0       -3.333973    1.489827   -1.592002
     16          1           0        2.648417   -0.436542    1.838376
     17          1           0       -3.943645   -0.941041   -1.131891
     18          1           0       -2.317256   -0.745471   -1.736823
     19          1           0       -0.966803    1.420914   -0.987829
     20          1           0       -1.775378    2.554520    0.078307
     21          1           0        1.243867    1.777859    0.286131
     22          1           0        2.679489    1.928894    1.272912
     23          1           0        3.072880   -1.682107   -0.450395
     24          1           0        1.677951   -1.920847   -1.498161
     25          1           0       -3.144546   -1.089386    1.176608
     26          1           0       -2.256990   -2.260552    0.224464
     27          1           0       -0.870387   -0.908685    1.831063
     28          1           0        3.959425    0.529008   -0.279986
     29          1           0        3.166560    1.798413   -1.204026
     30          1           0        1.059828    0.188201    2.175063
     31          1           0        1.217317   -2.055711    0.972660
 ---------------------------------------------------------------------
 Rotational constants (GHZ):           1.5147269           0.5116320           0.4859510
 Standard basis: 6-311++G(2d,2p) (5D, 7F)
 There are   557 symmetry adapted cartesian basis functions of A   symmetry.
 There are   531 symmetry adapted basis functions of A   symmetry.
   531 basis functions,   762 primitive gaussians,   557 cartesian basis functions
    51 alpha electrons       51 beta electrons
       nuclear repulsion energy       916.3200905240 Hartrees.
 NAtoms=   31 NActive=   31 NUniq=   31 SFac= 1.00D+00 NAtFMM=   60 NAOKFM=F Big=F
 Integral buffers will be    131072 words long.
 Raffenetti 2 integral format.
 Two-electron integral symmetry is turned on.
 ------------------------------------------------------------------------------
 Polarizable Continuum Model (PCM)
 =================================
 Model                : PCM.
 Atomic radii         : UFF (Universal Force Field).
 Polarization charges : Total charges.
 Charge compensation  : None.
 Solution method      : On-the-fly selection.
 Cavity type          : Scaled VdW (van der Waals Surface) (Alpha=1.100).
 Cavity algorithm     : GePol (No added spheres)
                        Default sphere list used, NSphG=   31.
                        Lebedev-Laikov grids with approx.  5.0 points / Ang**2.
                        Smoothing algorithm: York/Karplus (Gamma=1.0000).
                        Polarization charges: spherical gaussians, with
                                              point-specific exponents (IZeta= 3).
                        Self-potential: point-specific (ISelfS= 7).
                        Self-field    : sphere-specific E.n sum rule (ISelfD= 2).
 1st derivatives      : Analytical E(r).r(x)/FMM algorithm (CHGder, D1EAlg=3).
                        Cavity 1st derivative terms included.
 Solvent              : Water, Eps=  78.355300 Eps(inf)=   1.777849
 ------------------------------------------------------------------------------
 One-electron integrals computed using PRISM.
 NBasis=   531 RedAO= T EigKep=  4.06D-06  NBF=   531
 NBsUse=   531 1.00D-06 EigRej= -1.00D+00 NBFU=   531
 ExpMin= 3.60D-02 ExpMax= 8.59D+03 ExpMxC= 1.30D+03 IAcc=3 IRadAn=         5 AccDes= 0.00D+00
 Harris functional with IExCor= 1009 and IRadAn=       5 diagonalized for initial guess.
 HarFok:  IExCor= 1009 AccDes= 0.00D+00 IRadAn=         5 IDoV= 1 UseB2=F ITyADJ=14
 ICtDFT=  3500011 ScaDFX=  1.000000  1.000000  1.000000  1.000000
 FoFCou: FMM=F IPFlag=           0 FMFlag=      100000 FMFlg1=           0
         NFxFlg=           0 DoJE=T BraDBF=F KetDBF=T FulRan=T
         wScrn=  0.000000 ICntrl=       500 IOpCl=  0 I1Cent=   200000004 NGrid=           0
         NMat0=    1 NMatS0=      1 NMatT0=    0 NMatD0=    1 NMtDS0=    0 NMtDT0=    0
 Petite list used in FoFCou.
 Requested convergence on RMS density matrix=1.00D-08 within 128 cycles.
 Requested convergence on MAX density matrix=1.00D-06.
 Requested convergence on             energy=1.00D-06.
 No special actions if energy rises.
 Inv3:  Mode=1 IEnd=    12265452.
 Iteration    1 A*A^-1 deviation from unit magnitude is 4.00D-15 for   2022.
 Iteration    1 A*A^-1 deviation from orthogonality  is 2.01D-15 for   1979    886.
 Iteration    1 A^-1*A deviation from unit magnitude is 3.89D-15 for   2022.
 Iteration    1 A^-1*A deviation from orthogonality  is 9.28D-13 for   1897   1866.
 Error on total polarization charges =  0.01457
 SCF Done:  E(RM062X) =  -617.500314232     A.U. after   13 cycles
            NFock= 13  Conv=0.21D-08     -V/T= 2.0035

 **********************************************************************

            Population analysis using the SCF density.

 **********************************************************************

 Orbital symmetries:
       Occupied  (A) (A) (A) (A) (A) (A) (A) (A) (A) (A) (A) (A)
                 (A) (A) (A) (A) (A) (A) (A) (A) (A) (A) (A) (A)
                 (A) (A) (A) (A) (A) (A) (A) (A) (A) (A) (A) (A)
                 (A) (A) (A) (A) (A) (A) (A) (A) (A) (A) (A) (A)
                 (A) (A) (A)
       Virtual   (A) (A) (A) (A) (A) (A) (A) (A) (A) (A) (A) (A)
                 (A) (A) (A) (A) (A) (A) (A) (A) (A) (A) (A) (A)
                 (A) (A) (A) (A) (A) (A) (A) (A) (A) (A) (A) (A)
                 (A) (A) (A) (A) (A) (A) (A) (A) (A) (A) (A) (A)
                 (A) (A) (A) (A) (A) (A) (A) (A) (A) (A) (A) (A)
                 (A) (A) (A) (A) (A) (A) (A) (A) (A) (A) (A) (A)
                 (A) (A) (A) (A) (A) (A) (A) (A) (A) (A) (A) (A)
                 (A) (A) (A) (A) (A) (A) (A) (A) (A) (A) (A) (A)
                 (A) (A) (A) (A) (A) (A) (A) (A) (A) (A) (A) (A)
                 (A) (A) (A) (A) (A) (A) (A) (A) (A) (A) (A) (A)
                 (A) (A) (A) (A) (A) (A) (A) (A) (A) (A) (A) (A)
                 (A) (A) (A) (A) (A) (A) (A) (A) (A) (A) (A) (A)
                 (A) (A) (A) (A) (A) (A) (A) (A) (A) (A) (A) (A)
                 (A) (A) (A) (A) (A) (A) (A) (A) (A) (A) (A) (A)
                 (A) (A) (A) (A) (A) (A) (A) (A) (A) (A) (A) (A)
                 (A) (A) (A) (A) (A) (A) (A) (A) (A) (A) (A) (A)
                 (A) (A) (A) (A) (A) (A) (A) (A) (A) (A) (A) (A)
                 (A) (A) (A) (A) (A) (A) (A) (A) (A) (A) (A) (A)
                 (A) (A) (A) (A) (A) (A) (A) (A) (A) (A) (A) (A)
                 (A) (A) (A) (A) (A) (A) (A) (A) (A) (A) (A) (A)
                 (A) (A) (A) (A) (A) (A) (A) (A) (A) (A) (A) (A)
                 (A) (A) (A) (A) (A) (A) (A) (A) (A) (A) (A) (A)
                 (A) (A) (A) (A) (A) (A) (A) (A) (A) (A) (A) (A)
                 (A) (A) (A) (A) (A) (A) (A) (A) (A) (A) (A) (A)
                 (A) (A) (A) (A) (A) (A) (A) (A) (A) (A) (A) (A)
                 (A) (A) (A) (A) (A) (A) (A) (A) (A) (A) (A) (A)
                 (A) (A) (A) (A) (A) (A) (A) (A) (A) (A) (A) (A)
                 (A) (A) (A) (A) (A) (A) (A) (A) (A) (A) (A) (A)
                 (A) (A) (A) (A) (A) (A) (A) (A) (A) (A) (A) (A)
                 (A) (A) (A) (A) (A) (A) (A) (A) (A) (A) (A) (A)
                 (A) (A) (A) (A) (A) (A) (A) (A) (A) (A) (A) (A)
                 (A) (A) (A) (A) (A) (A) (A) (A) (A) (A) (A) (A)
                 (A) (A) (A) (A) (A) (A) (A) (A) (A) (A) (A) (A)
                 (A) (A) (A) (A) (A) (A) (A) (A) (A) (A) (A) (A)
                 (A) (A) (A) (A) (A) (A) (A) (A) (A) (A) (A) (A)
                 (A) (A) (A) (A) (A) (A) (A) (A) (A) (A) (A) (A)
                 (A) (A) (A) (A) (A) (A) (A) (A) (A) (A) (A) (A)
                 (A) (A) (A) (A) (A) (A) (A) (A) (A) (A) (A) (A)
                 (A) (A) (A) (A) (A) (A) (A) (A) (A) (A) (A) (A)
                 (A) (A) (A) (A) (A) (A) (A) (A) (A) (A) (A) (A)
 The electronic state is 1-A.
 Alpha  occ. eigenvalues --  -19.62678 -19.62677 -19.62530 -10.63246 -10.58845
 Alpha  occ. eigenvalues --  -10.57941 -10.57668 -10.57524 -10.53197 -10.52887
 Alpha  occ. eigenvalues --  -10.52805 -10.52682 -10.52681  -1.19854  -1.16578
 Alpha  occ. eigenvalues --   -1.13260  -0.90736  -0.89485  -0.87604  -0.84732
 Alpha  occ. eigenvalues --   -0.74980  -0.73941  -0.72937  -0.71783  -0.66379
 Alpha  occ. eigenvalues --   -0.62202  -0.60128  -0.58048  -0.57736  -0.55431
 Alpha  occ. eigenvalues --   -0.54022  -0.53400  -0.52986  -0.51310  -0.49895
 Alpha  occ. eigenvalues --   -0.47463  -0.46789  -0.46529  -0.45652  -0.45126
 Alpha  occ. eigenvalues --   -0.43498  -0.42860  -0.41072  -0.40077  -0.39528
 Alpha  occ. eigenvalues --   -0.38325  -0.37564  -0.35973  -0.33755  -0.33230
 Alpha  occ. eigenvalues --   -0.32192
 Alpha virt. eigenvalues --   -0.00179   0.00819   0.00912   0.01038   0.02291
 Alpha virt. eigenvalues --    0.02574   0.02756   0.03206   0.03290   0.04729
 Alpha virt. eigenvalues --    0.04863   0.04994   0.05444   0.05884   0.07109
 Alpha virt. eigenvalues --    0.07430   0.07955   0.08155   0.08791   0.09578
 Alpha virt. eigenvalues --    0.10058   0.10567   0.11228   0.11458   0.12096
 Alpha virt. eigenvalues --    0.12399   0.12835   0.13141   0.13302   0.13578
 Alpha virt. eigenvalues --    0.13800   0.13913   0.14086   0.14236   0.14961
 Alpha virt. eigenvalues --    0.15046   0.15310   0.15640   0.15792   0.16247
 Alpha virt. eigenvalues --    0.16660   0.17175   0.17490   0.17826   0.18097
 Alpha virt. eigenvalues --    0.18226   0.18448   0.19078   0.19605   0.19799
 Alpha virt. eigenvalues --    0.19927   0.20121   0.20992   0.21525   0.21596
 Alpha virt. eigenvalues --    0.22069   0.22266   0.23320   0.23439   0.24438
 Alpha virt. eigenvalues --    0.24717   0.26181   0.26423   0.26546   0.27342
 Alpha virt. eigenvalues --    0.27728   0.28030   0.28566   0.28828   0.29319
 Alpha virt. eigenvalues --    0.29846   0.30011   0.30844   0.31572   0.31845
 Alpha virt. eigenvalues --    0.32811   0.33444   0.34270   0.34566   0.34679
 Alpha virt. eigenvalues --    0.34813   0.35204   0.35633   0.35715   0.36164
 Alpha virt. eigenvalues --    0.36657   0.37021   0.37337   0.38009   0.38545
 Alpha virt. eigenvalues --    0.38680   0.38954   0.39618   0.40318   0.40430
 Alpha virt. eigenvalues --    0.41203   0.41868   0.43685   0.44419   0.45362
 Alpha virt. eigenvalues --    0.46674   0.48084   0.49444   0.50378   0.51250
 Alpha virt. eigenvalues --    0.52084   0.52647   0.53714   0.54818   0.56640
 Alpha virt. eigenvalues --    0.56769   0.57873   0.59058   0.59243   0.60002
 Alpha virt. eigenvalues --    0.60247   0.60940   0.61207   0.61637   0.62237
 Alpha virt. eigenvalues --    0.62766   0.63260   0.63771   0.64455   0.64669
 Alpha virt. eigenvalues --    0.65088   0.65966   0.66418   0.67213   0.67533
 Alpha virt. eigenvalues --    0.68071   0.68594   0.69105   0.70047   0.70376
 Alpha virt. eigenvalues --    0.70732   0.71108   0.72225   0.72669   0.72819
 Alpha virt. eigenvalues --    0.73669   0.74466   0.75025   0.75798   0.76265
 Alpha virt. eigenvalues --    0.77060   0.77661   0.78587   0.79255   0.79327
 Alpha virt. eigenvalues --    0.80129   0.82410   0.83653   0.84594   0.85427
 Alpha virt. eigenvalues --    0.86268   0.87905   0.88969   0.89295   0.89656
 Alpha virt. eigenvalues --    0.90602   0.93137   0.94988   0.95194   0.97956
 Alpha virt. eigenvalues --    0.98304   0.98994   1.00158   1.01279   1.02055
 Alpha virt. eigenvalues --    1.03752   1.03847   1.04577   1.05226   1.06117
 Alpha virt. eigenvalues --    1.07838   1.08745   1.10595   1.11133   1.11387
 Alpha virt. eigenvalues --    1.12594   1.14162   1.15687   1.16545   1.17144
 Alpha virt. eigenvalues --    1.17352   1.18285   1.18860   1.19696   1.20835
 Alpha virt. eigenvalues --    1.21591   1.22056   1.23201   1.23683   1.24292
 Alpha virt. eigenvalues --    1.24996   1.25519   1.26306   1.27691   1.28526
 Alpha virt. eigenvalues --    1.29099   1.29889   1.31058   1.31876   1.32172
 Alpha virt. eigenvalues --    1.32622   1.33373   1.34187   1.35806   1.36297
 Alpha virt. eigenvalues --    1.36705   1.37007   1.37588   1.38017   1.38791
 Alpha virt. eigenvalues --    1.39576   1.40020   1.40363   1.41788   1.41869
 Alpha virt. eigenvalues --    1.42842   1.43607   1.44292   1.44729   1.46012
 Alpha virt. eigenvalues --    1.46779   1.46791   1.47915   1.48144   1.48428
 Alpha virt. eigenvalues --    1.48982   1.49953   1.50850   1.51249   1.51846
 Alpha virt. eigenvalues --    1.53341   1.53973   1.54188   1.54957   1.55772
 Alpha virt. eigenvalues --    1.56027   1.56252   1.57858   1.58629   1.59646
 Alpha virt. eigenvalues --    1.59908   1.60466   1.61090   1.61885   1.62425
 Alpha virt. eigenvalues --    1.63939   1.65161   1.66296   1.67514   1.68238
 Alpha virt. eigenvalues --    1.68638   1.69410   1.70068   1.70697   1.73141
 Alpha virt. eigenvalues --    1.73909   1.75319   1.76330   1.77195   1.77284
 Alpha virt. eigenvalues --    1.78445   1.80640   1.81689   1.82662   1.84080
 Alpha virt. eigenvalues --    1.88113   1.89724   1.93195   1.96908   2.02121
 Alpha virt. eigenvalues --    2.05495   2.09154   2.15551   2.19285   2.22631
 Alpha virt. eigenvalues --    2.25152   2.25486   2.32150   2.35774   2.40303
 Alpha virt. eigenvalues --    2.42393   2.43566   2.44949   2.47486   2.52200
 Alpha virt. eigenvalues --    2.59896   2.77100   2.77616   2.79475   2.82091
 Alpha virt. eigenvalues --    2.84245   2.86846   2.92816   2.93397   2.95109
 Alpha virt. eigenvalues --    2.95734   2.97838   2.99023   3.02070   3.04203
 Alpha virt. eigenvalues --    3.06372   3.08649   3.09265   3.10469   3.12381
 Alpha virt. eigenvalues --    3.13298   3.14660   3.16711   3.21297   3.22719
 Alpha virt. eigenvalues --    3.26362   3.28208   3.32026   3.33586   3.34546
 Alpha virt. eigenvalues --    3.35899   3.37146   3.38858   3.40310   3.41994
 Alpha virt. eigenvalues --    3.42365   3.44804   3.45797   3.46864   3.47204
 Alpha virt. eigenvalues --    3.49312   3.49931   3.49967   3.52229   3.52921
 Alpha virt. eigenvalues --    3.53897   3.54302   3.54576   3.55398   3.55829
 Alpha virt. eigenvalues --    3.56523   3.57825   3.58146   3.59402   3.60492
 Alpha virt. eigenvalues --    3.60967   3.63077   3.63524   3.65354   3.66050
 Alpha virt. eigenvalues --    3.67350   3.67843   3.68195   3.69858   3.70070
 Alpha virt. eigenvalues --    3.70947   3.71594   3.72721   3.73151   3.74406
 Alpha virt. eigenvalues --    3.74771   3.75838   3.76536   3.77295   3.78603
 Alpha virt. eigenvalues --    3.79021   3.79509   3.81216   3.82565   3.84497
 Alpha virt. eigenvalues --    3.85724   3.88854   3.89983   3.90644   3.92454
 Alpha virt. eigenvalues --    3.93133   3.93768   3.94715   3.96616   3.99032
 Alpha virt. eigenvalues --    3.99825   4.01323   4.02632   4.03157   4.03472
 Alpha virt. eigenvalues --    4.05169   4.06420   4.07235   4.07449   4.08087
 Alpha virt. eigenvalues --    4.08627   4.09364   4.09811   4.11000   4.11249
 Alpha virt. eigenvalues --    4.12209   4.13519   4.14487   4.15087   4.16086
 Alpha virt. eigenvalues --    4.16825   4.18017   4.20032   4.20831   4.21449
 Alpha virt. eigenvalues --    4.22877   4.23102   4.24071   4.25716   4.27755
 Alpha virt. eigenvalues --    4.28664   4.29705   4.30478   4.31643   4.32338
 Alpha virt. eigenvalues --    4.33067   4.34471   4.35912   4.36926   4.37829
 Alpha virt. eigenvalues --    4.42258   4.43405   4.45023   4.46436   4.47948
 Alpha virt. eigenvalues --    4.58390   4.61046   4.73468   4.75344   4.81947
 Alpha virt. eigenvalues --    4.85422   4.94405   4.95770   4.99920   5.03545
 Alpha virt. eigenvalues --    5.06653   5.07618   5.08118   5.09241   5.11558
 Alpha virt. eigenvalues --    5.12564   5.14278   5.15415   5.32532   5.41845
 Alpha virt. eigenvalues --    5.44152   5.58049   5.60043   5.67969   5.87157
 Alpha virt. eigenvalues --    5.87781   6.05594   7.02608   7.05419   7.07006
 Alpha virt. eigenvalues --    7.09234   7.11073   7.12786   7.15645   7.20748
 Alpha virt. eigenvalues --    7.27818   7.36535   7.41487   7.45846   7.53923
 Alpha virt. eigenvalues --    7.55049   7.63860  23.96350  23.97256  24.06099
 Alpha virt. eigenvalues --   24.09266  24.11602  24.11845  24.14542  24.16072
 Alpha virt. eigenvalues --   24.16841  24.20821  50.16809  50.18161  50.28975
          Condensed to atoms (all electrons):
               1          2          3          4          5          6
     1  C    6.010152   0.184308  -0.051196  -0.045653   0.030209   0.000218
     2  C    0.184308   6.811453  -0.005467  -0.101804   0.051948   0.003085
     3  C   -0.051196  -0.005467   7.337101   0.082021  -0.137808   0.040336
     4  C   -0.045653  -0.101804   0.082021   5.702245  -0.010243  -0.000733
     5  C    0.030209   0.051948  -0.137808  -0.010243   5.691798   0.096109
     6  O    0.000218   0.003085   0.040336  -0.000733   0.096109   8.281977
     7  C   -0.211065  -0.409810   0.109081  -0.001234  -0.039674  -0.003323
     8  C    0.069736  -0.510140  -1.823036  -0.045098   0.311966  -0.065712
     9  C   -0.000020   0.069441  -0.499706  -0.013142  -0.051843   0.027677
    10  C   -0.018659   0.079398   0.738497  -0.005115  -0.354802   0.175613
    11  O   -0.102998   0.269621   0.031871   0.016030  -0.002993  -0.001968
    12  O   -0.015631   0.183068   0.083724  -0.012671  -0.029842   0.014849
    13  C   -0.107303  -0.863533  -0.230569  -0.150763   0.019557  -0.005039
    14  H    0.466914   0.018272  -0.000794  -0.008052   0.000006   0.000109
    15  H    0.446209   0.002229   0.002276  -0.050066  -0.000008  -0.000063
    16  H   -0.001736  -0.016002   0.509922   0.002795  -0.027754   0.003043
    17  H   -0.017681   0.018217   0.000485   0.414606   0.000386  -0.000114
    18  H   -0.069153  -0.020001  -0.000147   0.525751  -0.000385   0.000958
    19  H   -0.093211   0.012744  -0.004813   0.010581  -0.008832  -0.000963
    20  H    0.000565  -0.003194  -0.006578   0.003328   0.002514   0.000345
    21  H   -0.029220  -0.040177  -0.013573   0.003615  -0.143789  -0.014486
    22  H   -0.000383   0.010189  -0.056702   0.000686  -0.027642   0.010692
    23  H    0.000790  -0.002269  -0.084843  -0.001333   0.002462  -0.066998
    24  H   -0.001333  -0.000299   0.014715   0.005030   0.003502  -0.073795
    25  H   -0.006465  -0.150258  -0.003145  -0.016496   0.000233  -0.000096
    26  H   -0.011027  -0.014235  -0.002001  -0.040170  -0.000691   0.000339
    27  H    0.005680   0.494006   0.008585   0.004772   0.011635   0.000352
    28  H    0.000353   0.000295  -0.086862  -0.000506   0.451588  -0.065918
    29  H    0.001623   0.000810   0.012269  -0.000012   0.456840  -0.067243
    30  H    0.006099  -0.005718   0.350534  -0.005907  -0.003202  -0.003304
    31  H    0.004860  -0.003321  -0.042839  -0.004483  -0.009998   0.006373
               7          8          9         10         11         12
     1  C   -0.211065   0.069736  -0.000020  -0.018659  -0.102998  -0.015631
     2  C   -0.409810  -0.510140   0.069441   0.079398   0.269621   0.183068
     3  C    0.109081  -1.823036  -0.499706   0.738497   0.031871   0.083724
     4  C   -0.001234  -0.045098  -0.013142  -0.005115   0.016030  -0.012671
     5  C   -0.039674   0.311966  -0.051843  -0.354802  -0.002993  -0.029842
     6  O   -0.003323  -0.065712   0.027677   0.175613  -0.001968   0.014849
     7  C    5.584205  -0.068930  -0.006854   0.051061   0.134712   0.020880
     8  C   -0.068930   8.492620   0.162838  -1.199548  -0.057806  -0.072921
     9  C   -0.006854   0.162838   5.765411  -0.003552   0.000984   0.008048
    10  C    0.051061  -1.199548  -0.003552   6.273989  -0.003044  -0.081644
    11  O    0.134712  -0.057806   0.000984  -0.003044   8.229205  -0.020599
    12  O    0.020880  -0.072921   0.008048  -0.081644  -0.020599   8.311930
    13  C    0.153221   0.333921   0.035314  -0.120937  -0.083458  -0.052615
    14  H   -0.081832  -0.004083   0.001963  -0.001183   0.000153   0.000019
    15  H   -0.039998   0.000386  -0.002190   0.002132   0.011103  -0.000159
    16  H    0.005284  -0.090248  -0.036641   0.003396   0.002908   0.005525
    17  H    0.005543   0.005318  -0.000899  -0.003278  -0.005520   0.000612
    18  H    0.005412   0.002238   0.001601  -0.002192   0.001640  -0.001259
    19  H    0.463474  -0.013718   0.016582  -0.009306  -0.027513   0.002847
    20  H    0.422448   0.002779   0.001715   0.002913  -0.071688  -0.000070
    21  H    0.035921  -0.019775   0.514167   0.028529   0.000375   0.005133
    22  H   -0.001363   0.004450   0.447817  -0.006690   0.003224   0.000832
    23  H   -0.001200   0.016875   0.038068   0.428154  -0.000400   0.008855
    24  H   -0.002725  -0.038686   0.006381   0.426477   0.001386   0.001569
    25  H    0.010108   0.005305   0.001498  -0.000473  -0.009439   0.011058
    26  H    0.012237  -0.006196   0.000215   0.005370   0.010841  -0.008821
    27  H   -0.031743   0.004898  -0.014124  -0.007553  -0.051737  -0.027410
    28  H   -0.000541   0.093882  -0.004569  -0.044210  -0.000622  -0.001519
    29  H   -0.003548   0.010246  -0.065528  -0.003886   0.000757   0.001141
    30  H    0.001098   0.047906  -0.014526   0.004577  -0.017043  -0.013094
    31  H   -0.003214   0.462720  -0.004442  -0.029325  -0.001736  -0.039108
              13         14         15         16         17         18
     1  C   -0.107303   0.466914   0.446209  -0.001736  -0.017681  -0.069153
     2  C   -0.863533   0.018272   0.002229  -0.016002   0.018217  -0.020001
     3  C   -0.230569  -0.000794   0.002276   0.509922   0.000485  -0.000147
     4  C   -0.150763  -0.008052  -0.050066   0.002795   0.414606   0.525751
     5  C    0.019557   0.000006  -0.000008  -0.027754   0.000386  -0.000385
     6  O   -0.005039   0.000109  -0.000063   0.003043  -0.000114   0.000958
     7  C    0.153221  -0.081832  -0.039998   0.005284   0.005543   0.005412
     8  C    0.333921  -0.004083   0.000386  -0.090248   0.005318   0.002238
     9  C    0.035314   0.001963  -0.002190  -0.036641  -0.000899   0.001601
    10  C   -0.120937  -0.001183   0.002132   0.003396  -0.003278  -0.002192
    11  O   -0.083458   0.000153   0.011103   0.002908  -0.005520   0.001640
    12  O   -0.052615   0.000019  -0.000159   0.005525   0.000612  -0.001259
    13  C    6.810767  -0.024661  -0.001918   0.001443  -0.048551  -0.055691
    14  H   -0.024661   0.486596  -0.012148  -0.000084  -0.001191   0.001633
    15  H   -0.001918  -0.012148   0.487338   0.000037  -0.008024  -0.003260
    16  H    0.001443  -0.000084   0.000037   0.418201   0.000097  -0.000098
    17  H   -0.048551  -0.001191  -0.008024   0.000097   0.468327  -0.004072
    18  H   -0.055691   0.001633  -0.003260  -0.000098  -0.004072   0.457093
    19  H    0.009574   0.006453  -0.001751  -0.000338  -0.002263  -0.002239
    20  H   -0.002769  -0.009271  -0.008417   0.000112   0.000960  -0.002525
    21  H   -0.007597   0.000150   0.000961   0.005563   0.000077   0.000088
    22  H    0.000562   0.000233  -0.000203  -0.008056  -0.000020   0.000197
    23  H    0.005992   0.000031  -0.000069  -0.005329   0.000005   0.000118
    24  H   -0.008180  -0.000047   0.000033   0.000185   0.000204  -0.000975
    25  H    0.533443  -0.003808  -0.001997   0.000003   0.000169   0.000738
    26  H    0.420306  -0.001899   0.001529  -0.000021  -0.011036  -0.001470
    27  H   -0.063646   0.001576   0.000911  -0.002472   0.001990  -0.002887
    28  H   -0.001513  -0.000011   0.000070  -0.005795  -0.000033   0.000075
    29  H    0.001964   0.000047  -0.000245  -0.001476   0.000051   0.000027
    30  H   -0.007461  -0.000839   0.000465   0.002879  -0.000013  -0.000169
    31  H    0.007674   0.000091  -0.000122  -0.009641  -0.000202   0.000689
              19         20         21         22         23         24
     1  C   -0.093211   0.000565  -0.029220  -0.000383   0.000790  -0.001333
     2  C    0.012744  -0.003194  -0.040177   0.010189  -0.002269  -0.000299
     3  C   -0.004813  -0.006578  -0.013573  -0.056702  -0.084843   0.014715
     4  C    0.010581   0.003328   0.003615   0.000686  -0.001333   0.005030
     5  C   -0.008832   0.002514  -0.143789  -0.027642   0.002462   0.003502
     6  O   -0.000963   0.000345  -0.014486   0.010692  -0.066998  -0.073795
     7  C    0.463474   0.422448   0.035921  -0.001363  -0.001200  -0.002725
     8  C   -0.013718   0.002779  -0.019775   0.004450   0.016875  -0.038686
     9  C    0.016582   0.001715   0.514167   0.447817   0.038068   0.006381
    10  C   -0.009306   0.002913   0.028529  -0.006690   0.428154   0.426477
    11  O   -0.027513  -0.071688   0.000375   0.003224  -0.000400   0.001386
    12  O    0.002847  -0.000070   0.005133   0.000832   0.008855   0.001569
    13  C    0.009574  -0.002769  -0.007597   0.000562   0.005992  -0.008180
    14  H    0.006453  -0.009271   0.000150   0.000233   0.000031  -0.000047
    15  H   -0.001751  -0.008417   0.000961  -0.000203  -0.000069   0.000033
    16  H   -0.000338   0.000112   0.005563  -0.008056  -0.005329   0.000185
    17  H   -0.002263   0.000960   0.000077  -0.000020   0.000005   0.000204
    18  H   -0.002239  -0.002525   0.000088   0.000197   0.000118  -0.000975
    19  H    0.511677  -0.020095  -0.012998   0.002693   0.000539   0.001305
    20  H   -0.020095   0.482316  -0.003028  -0.000923   0.000024  -0.000115
    21  H   -0.012998  -0.003028   0.543038  -0.024065  -0.003393  -0.000152
    22  H    0.002693  -0.000923  -0.024065   0.483353   0.001822   0.001133
    23  H    0.000539   0.000024  -0.003393   0.001822   0.472890  -0.003148
    24  H    0.001305  -0.000115  -0.000152   0.001133  -0.003148   0.478434
    25  H   -0.001831   0.000674   0.000119  -0.000069   0.000123  -0.000100
    26  H   -0.000150   0.001309  -0.000092   0.000016  -0.000054  -0.000371
    27  H    0.003544  -0.001387  -0.002624  -0.000524  -0.000826   0.002034
    28  H   -0.000991   0.000051   0.003890   0.005379   0.004621  -0.002106
    29  H    0.001345  -0.000336  -0.009957  -0.008029   0.000723   0.001321
    30  H   -0.002474   0.000851   0.000285  -0.010653  -0.000099  -0.000293
    31  H   -0.000635  -0.000276   0.001431   0.000465  -0.000450  -0.015018
              25         26         27         28         29         30
     1  C   -0.006465  -0.011027   0.005680   0.000353   0.001623   0.006099
     2  C   -0.150258  -0.014235   0.494006   0.000295   0.000810  -0.005718
     3  C   -0.003145  -0.002001   0.008585  -0.086862   0.012269   0.350534
     4  C   -0.016496  -0.040170   0.004772  -0.000506  -0.000012  -0.005907
     5  C    0.000233  -0.000691   0.011635   0.451588   0.456840  -0.003202
     6  O   -0.000096   0.000339   0.000352  -0.065918  -0.067243  -0.003304
     7  C    0.010108   0.012237  -0.031743  -0.000541  -0.003548   0.001098
     8  C    0.005305  -0.006196   0.004898   0.093882   0.010246   0.047906
     9  C    0.001498   0.000215  -0.014124  -0.004569  -0.065528  -0.014526
    10  C   -0.000473   0.005370  -0.007553  -0.044210  -0.003886   0.004577
    11  O   -0.009439   0.010841  -0.051737  -0.000622   0.000757  -0.017043
    12  O    0.011058  -0.008821  -0.027410  -0.001519   0.001141  -0.013094
    13  C    0.533443   0.420306  -0.063646  -0.001513   0.001964  -0.007461
    14  H   -0.003808  -0.001899   0.001576  -0.000011   0.000047  -0.000839
    15  H   -0.001997   0.001529   0.000911   0.000070  -0.000245   0.000465
    16  H    0.000003  -0.000021  -0.002472  -0.005795  -0.001476   0.002879
    17  H    0.000169  -0.011036   0.001990  -0.000033   0.000051  -0.000013
    18  H    0.000738  -0.001470  -0.002887   0.000075   0.000027  -0.000169
    19  H   -0.001831  -0.000150   0.003544  -0.000991   0.001345  -0.002474
    20  H    0.000674   0.001309  -0.001387   0.000051  -0.000336   0.000851
    21  H    0.000119  -0.000092  -0.002624   0.003890  -0.009957   0.000285
    22  H   -0.000069   0.000016  -0.000524   0.005379  -0.008029  -0.010653
    23  H    0.000123  -0.000054  -0.000826   0.004621   0.000723  -0.000099
    24  H   -0.000100  -0.000371   0.002034  -0.002106   0.001321  -0.000293
    25  H    0.449319  -0.004335  -0.013513   0.000003   0.000019   0.001092
    26  H   -0.004335   0.479462  -0.010206  -0.000026  -0.000031  -0.000294
    27  H   -0.013513  -0.010206   0.464238  -0.000741   0.000202  -0.010638
    28  H    0.000003  -0.000026  -0.000741   0.497712  -0.004117   0.000585
    29  H    0.000019  -0.000031   0.000202  -0.004117   0.479551  -0.000035
    30  H    0.001092  -0.000294  -0.010638   0.000585  -0.000035   0.484706
    31  H    0.000644  -0.002134  -0.004433   0.004030   0.000551  -0.004200
              31
     1  C    0.004860
     2  C   -0.003321
     3  C   -0.042839
     4  C   -0.004483
     5  C   -0.009998
     6  O    0.006373
     7  C   -0.003214
     8  C    0.462720
     9  C   -0.004442
    10  C   -0.029325
    11  O   -0.001736
    12  O   -0.039108
    13  C    0.007674
    14  H    0.000091
    15  H   -0.000122
    16  H   -0.009641
    17  H   -0.000202
    18  H    0.000689
    19  H   -0.000635
    20  H   -0.000276
    21  H    0.001431
    22  H    0.000465
    23  H   -0.000450
    24  H   -0.015018
    25  H    0.000644
    26  H   -0.002134
    27  H   -0.004433
    28  H    0.004030
    29  H    0.000551
    30  H   -0.004200
    31  H    0.439832
 Mulliken charges:
               1
     1  C   -0.444984
     2  C   -0.062856
     3  C   -0.271338
     4  C   -0.257977
     5  C   -0.281247
     6  O   -0.292323
     7  C   -0.107633
     8  C   -0.012185
     9  C   -0.381685
    10  C   -0.324707
    11  O   -0.256247
    12  O   -0.282727
    13  C   -0.497532
    14  H    0.165656
    15  H    0.174959
    16  H    0.244302
    17  H    0.185852
    18  H    0.168264
    19  H    0.160764
    20  H    0.207769
    21  H    0.181586
    22  H    0.171579
    23  H    0.188317
    24  H    0.203634
    25  H    0.197476
    26  H    0.183639
    27  H    0.242042
    28  H    0.157545
    29  H    0.194955
    30  H    0.198884
    31  H    0.246219
 Sum of Mulliken charges =  -0.00000
 Mulliken charges with hydrogens summed into heavy atoms:
               1
     1  C   -0.104370
     2  C    0.179186
     3  C    0.171847
     4  C    0.096139
     5  C    0.071253
     6  O   -0.292323
     7  C    0.260900
     8  C    0.234034
     9  C   -0.028520
    10  C    0.067244
    11  O   -0.256247
    12  O   -0.282727
    13  C   -0.116417
 Electronic spatial extent (au):  <R**2>=           2620.7354
 Charge=             -0.0000 electrons
 Dipole moment (field-independent basis, Debye):
    X=              0.1855    Y=             -0.7880    Z=              1.7941  Tot=              1.9683
 Quadrupole moment (field-independent basis, Debye-Ang):
   XX=            -71.6114   YY=            -75.5153   ZZ=            -84.1702
   XY=             -0.0845   XZ=              6.3123   YZ=             -3.4477
 Traceless Quadrupole moment (field-independent basis, Debye-Ang):
   XX=              5.4875   YY=              1.5836   ZZ=             -7.0712
   XY=             -0.0845   XZ=              6.3123   YZ=             -3.4477
 Octapole moment (field-independent basis, Debye-Ang**2):
  XXX=              6.4674  YYY=              1.2761  ZZZ=              6.3627  XYY=              6.5884
  XXY=              0.8012  XXZ=              7.3573  XZZ=             -5.6505  YZZ=             -4.3515
  YYZ=             -3.9485  XYZ=              3.7220
 Hexadecapole moment (field-independent basis, Debye-Ang**3):
 XXXX=          -2318.5622 YYYY=           -617.0079 ZZZZ=           -486.7783 XXXY=              8.1903
 XXXZ=             14.6805 YYYX=            -11.3530 YYYZ=              0.0657 ZZZX=              8.5944
 ZZZY=             -3.7356 XXYY=           -479.0172 XXZZ=           -500.4492 YYZZ=           -180.7615
 XXYZ=             -7.6693 YYXZ=             -8.5522 ZZXY=              2.7581
 N-N= 9.163200905240D+02 E-N=-3.274837773673D+03  KE= 6.153256742547D+02
 D1PCM: PCM CHGder 1st derivatives, ID1Alg=3 FixD1E=F DoIter=F DoCFld=F I1PDM=0.
 Calling FoFJK, ICntrl=      2127 FMM=F ISym2X=0 I1Cent= 0 IOpClX= 0 NMat=1 NMatS=1 NMatT=0.
 ***** Axes restored to original set *****
 -------------------------------------------------------------------
 Center     Atomic                   Forces (Hartrees/Bohr)
 Number     Number              X              Y              Z
 -------------------------------------------------------------------
      1        6          -0.002201337    0.001343451   -0.001024465
      2        6           0.002315211    0.001695589   -0.006030904
      3        6          -0.001880182   -0.002557946   -0.007858298
      4        6          -0.001481440   -0.001928075    0.003155372
      5        6           0.005311948    0.002960425    0.003391899
      6        8           0.002794277   -0.001149049   -0.008035042
      7        6           0.003627434    0.005780567    0.000396460
      8        6           0.003483744   -0.000248206    0.005249419
      9        6          -0.001481613    0.002590021    0.000568586
     10        6           0.000821031   -0.005980198    0.003559938
     11        8          -0.003237717   -0.005707322    0.010067410
     12        8          -0.000519076   -0.004250977   -0.013130124
     13        6          -0.000739461   -0.000810900   -0.002263775
     14        1           0.001823530   -0.000434450    0.002751126
     15        1           0.000987664   -0.001076683   -0.002441170
     16        1          -0.003322606    0.001364836    0.001513740
     17        1           0.002345692    0.000929631   -0.000469394
     18        1          -0.003011167    0.000510967   -0.002050150
     19        1          -0.004377567    0.001534704   -0.005108895
     20        1           0.000325315   -0.004324220    0.001264636
     21        1           0.004768467   -0.000668539   -0.001362758
     22        1          -0.001225536   -0.001787502    0.001999865
     23        1          -0.005061313    0.002807701    0.002868632
     24        1           0.002943113    0.002697766   -0.002837163
     25        1           0.002176072   -0.000968925    0.002477131
     26        1          -0.000736104    0.003000731   -0.000706662
     27        1          -0.001625767    0.001890722    0.007652402
     28        1          -0.005269120    0.001981085    0.002824365
     29        1          -0.000596736   -0.003583208   -0.002438907
     30        1           0.003957752   -0.000837276    0.002418092
     31        1          -0.000914511    0.005225281    0.003598633
 -------------------------------------------------------------------
 Cartesian Forces:  Max     0.013130124 RMS     0.003560833

 GradGradGradGradGradGradGradGradGradGradGradGradGradGradGradGradGradGrad
 Berny optimization.
 FormGI is forming the generalized inverse of G from B-inverse, IUseBI=4.
 Internal  Forces:  Max     0.016167893 RMS     0.002305546
 Search for a local minimum.
 Step number   1 out of a maximum of  186
 All quantities printed in internal units (Hartrees-Bohrs-Radians)
 Mixed Optimization -- RFO/linear search
 Second derivative matrix not updated -- first step.
 ITU=  0
     Eigenvalues ---    0.00569   0.00627   0.00722   0.00737   0.01411
     Eigenvalues ---    0.01462   0.01725   0.02702   0.02807   0.03017
     Eigenvalues ---    0.03087   0.04094   0.04264   0.04431   0.04751
     Eigenvalues ---    0.04894   0.04909   0.04955   0.05113   0.05140
     Eigenvalues ---    0.05293   0.05617   0.05698   0.06178   0.06184
     Eigenvalues ---    0.06363   0.06793   0.07001   0.07584   0.07831
     Eigenvalues ---    0.07937   0.08004   0.08031   0.08246   0.08336
     Eigenvalues ---    0.08822   0.09210   0.09499   0.10719   0.11605
     Eigenvalues ---    0.11699   0.11726   0.11762   0.12399   0.12594
     Eigenvalues ---    0.14695   0.14793   0.16115   0.16482   0.17589
     Eigenvalues ---    0.19146   0.21433   0.21968   0.25000   0.28469
     Eigenvalues ---    0.28614   0.28688   0.28847   0.28953   0.28983
     Eigenvalues ---    0.30255   0.30454   0.35047   0.35089   0.35093
     Eigenvalues ---    0.35154   0.35177   0.35182   0.35213   0.35235
     Eigenvalues ---    0.35235   0.35312   0.35430   0.35472   0.35478
     Eigenvalues ---    0.35732   0.35819   0.35841   0.35882   0.35956
     Eigenvalues ---    0.40847   0.41391   0.41798   0.42343   0.43608
     Eigenvalues ---    0.460431000.000001000.000001000.000001000.00000
     Eigenvalues --- 1000.000001000.000001000.000001000.000001000.00000
     Eigenvalues --- 1000.000001000.000001000.000001000.000001000.00000
     Eigenvalues --- 1000.000001000.000001000.000001000.000001000.00000
     Eigenvalues --- 1000.000001000.000001000.000001000.000001000.00000
     Eigenvalues --- 1000.000001000.000001000.000001000.000001000.00000
     Eigenvalues --- 1000.000001000.000001000.000001000.000001000.00000
     Eigenvalues --- 1000.000001000.000001000.000001000.000001000.00000
     Eigenvalues --- 1000.000001000.000001000.000001000.000001000.00000
     Eigenvalues --- 1000.000001000.000001000.000001000.000001000.00000
     Eigenvalues --- 1000.000001000.000001000.000001000.000001000.00000
     Eigenvalues --- 1000.000001000.000001000.000001000.000001000.00000
     Eigenvalues --- 1000.000001000.000001000.000001000.000001000.00000
     Eigenvalues --- 1000.000001000.000001000.000001000.000001000.00000
     Eigenvalues --- 1000.000001000.000001000.000001000.000001000.00000
     Eigenvalues --- 1000.000001000.000001000.000001000.000001000.00000
     Eigenvalues --- 1000.000001000.000001000.000001000.000001000.00000
     Eigenvalues --- 1000.000001000.000001000.000001000.000001000.00000
     Eigenvalues --- 1000.000001000.000001000.000001000.000001000.00000
     Eigenvalues --- 1000.000001000.000001000.000001000.000001000.00000
 RFO step:  Lambda=-5.79383166D-03 EMin= 5.68743985D-03
 Linear search not attempted -- first point.
 Iteration  1 RMS(Cart)=  0.14864742 RMS(Int)=  0.00404006
 Iteration  2 RMS(Cart)=  0.00991352 RMS(Int)=  0.00010617
 Iteration  3 RMS(Cart)=  0.00002630 RMS(Int)=  0.00010547
 Iteration  4 RMS(Cart)=  0.00000000 RMS(Int)=  0.00010547
 Iteration  1 RMS(Cart)=  0.00011616 RMS(Int)=  0.00002507
 Iteration  2 RMS(Cart)=  0.00006412 RMS(Int)=  0.00002800
 Iteration  3 RMS(Cart)=  0.00003539 RMS(Int)=  0.00003167
 Iteration  4 RMS(Cart)=  0.00001954 RMS(Int)=  0.00003412
 Iteration  5 RMS(Cart)=  0.00001078 RMS(Int)=  0.00003558
 Iteration  6 RMS(Cart)=  0.00000595 RMS(Int)=  0.00003641
 Iteration  7 RMS(Cart)=  0.00000329 RMS(Int)=  0.00003687
 Iteration  8 RMS(Cart)=  0.00000181 RMS(Int)=  0.00003713
 Iteration  9 RMS(Cart)=  0.00000100 RMS(Int)=  0.00003727
 Iteration 10 RMS(Cart)=  0.00000055 RMS(Int)=  0.00003735
 Variable       Old X    -DE/DX   Delta X   Delta X   Delta X     New X
                                 (Linear)    (Quad)   (Total)
    R1        2.88827  -0.00063   0.00000  -0.00115  -0.00116   2.88710
    R2        2.87137   0.00042   0.00000   0.00155   0.00156   2.87293
    R3        2.05530   0.00325   0.00000   0.00912   0.00912   2.06442
    R4        2.05296   0.00282   0.00000   0.00787   0.00787   2.06083
    R5        2.65103   0.00369   0.00000   0.00746   0.00747   2.65850
    R6        2.64083   0.00179   0.00000   0.00384   0.00384   2.64468
    R7        2.87833  -0.00065   0.00000  -0.00238  -0.00239   2.87594
    R8        2.04150   0.00801   0.00000   0.02192   0.02192   2.06342
    R9        2.89252  -0.00182   0.00000  -0.00732  -0.00723   2.88529
   R10        2.89406  -0.00205   0.00000  -0.00823  -0.00828   2.88578
   R11        2.05523   0.00389   0.00000   0.01091   0.01091   2.06614
   R12        2.04502   0.00450   0.00000   0.01239   0.01239   2.05741
   R13        2.88951  -0.00137   0.00000  -0.00424  -0.00424   2.88528
   R14        2.05172   0.00256   0.00000   0.00714   0.00714   2.05886
   R15        2.05389   0.00349   0.00000   0.00977   0.00977   2.06366
   R16        2.67628   0.00273   0.00000   0.00716   0.00708   2.68336
   R17        2.87333   0.00043   0.00000   0.00110   0.00099   2.87431
   R18        2.05599   0.00620   0.00000   0.01739   0.01739   2.07339
   R19        2.04366   0.00438   0.00000   0.01202   0.01202   2.05568
   R20        2.66574   0.00230   0.00000   0.00605   0.00610   2.67183
   R21        2.68639   0.00241   0.00000   0.00539   0.00539   2.69178
   R22        2.04915   0.00682   0.00000   0.01892   0.01892   2.06808
   R23        2.04331   0.00452   0.00000   0.01240   0.01240   2.05571
   R24        2.86834  -0.00033   0.00000  -0.00059  -0.00048   2.86787
   R25        2.69181  -0.00172   0.00000  -0.00406  -0.00406   2.68775
   R26        2.05330   0.00632   0.00000   0.01765   0.01765   2.07095
   R27        2.04906   0.00465   0.00000   0.01291   0.01291   2.06196
   R28        2.05295   0.00293   0.00000   0.00818   0.00818   2.06113
   R29        2.05426   0.00635   0.00000   0.01778   0.01778   2.07204
   R30        2.04267   0.00478   0.00000   0.01311   0.01311   2.05578
   R31        2.05380   0.00338   0.00000   0.00944   0.00944   2.06325
   R32        2.04982   0.00315   0.00000   0.00874   0.00874   2.05856
    A1        1.92039  -0.00100   0.00000  -0.00306  -0.00330   1.91710
    A2        1.91652   0.00095   0.00000   0.00143   0.00153   1.91806
    A3        1.94018  -0.00055   0.00000  -0.00246  -0.00243   1.93775
    A4        1.90727   0.00007   0.00000  -0.00206  -0.00199   1.90528
    A5        1.90270   0.00056   0.00000   0.00316   0.00322   1.90592
    A6        1.87600   0.00000   0.00000   0.00313   0.00310   1.87910
    A7        1.94747  -0.00115   0.00000  -0.01278  -0.01261   1.93486
    A8        1.93729   0.00403   0.00000   0.01592   0.01568   1.95297
    A9        1.83864  -0.00266   0.00000  -0.01538  -0.01543   1.82321
   A10        1.90130  -0.00228   0.00000  -0.01071  -0.01060   1.89070
   A11        1.91638   0.00179   0.00000   0.01340   0.01334   1.92972
   A12        1.92223   0.00035   0.00000   0.01019   0.01025   1.93248
   A13        1.95778   0.00053   0.00000  -0.01300  -0.01309   1.94470
   A14        1.85319   0.00007   0.00000   0.01432   0.01440   1.86759
   A15        1.94385  -0.00077   0.00000  -0.01337  -0.01369   1.93016
   A16        1.90274   0.00019   0.00000   0.01418   0.01420   1.91693
   A17        1.94024  -0.00043   0.00000  -0.00828  -0.00862   1.93162
   A18        1.86089   0.00045   0.00000   0.00925   0.00937   1.87026
   A19        1.91112   0.00221   0.00000   0.00085   0.00089   1.91200
   A20        1.93165  -0.00019   0.00000   0.00188   0.00194   1.93359
   A21        1.91402  -0.00109   0.00000  -0.00249  -0.00259   1.91143
   A22        1.91716  -0.00068   0.00000   0.00141   0.00138   1.91853
   A23        1.92243  -0.00101   0.00000  -0.00690  -0.00691   1.91552
   A24        1.86716   0.00068   0.00000   0.00523   0.00524   1.87240
   A25        1.93404   0.00070   0.00000   0.00694   0.00684   1.94089
   A26        1.90077   0.00133   0.00000   0.00870   0.00874   1.90951
   A27        1.85745  -0.00109   0.00000  -0.00529  -0.00523   1.85222
   A28        1.93300  -0.00118   0.00000  -0.00841  -0.00843   1.92457
   A29        1.94528  -0.00015   0.00000  -0.00290  -0.00287   1.94241
   A30        1.89096   0.00044   0.00000   0.00132   0.00129   1.89225
   A31        1.97186  -0.00262   0.00000  -0.01862  -0.01857   1.95329
   A32        1.94618   0.00224   0.00000   0.00515   0.00510   1.95127
   A33        1.92903  -0.00135   0.00000  -0.00476  -0.00481   1.92422
   A34        1.94635  -0.00016   0.00000  -0.00119  -0.00111   1.94525
   A35        1.90975  -0.00007   0.00000  -0.00076  -0.00069   1.90906
   A36        1.84210  -0.00134   0.00000  -0.00248  -0.00250   1.83959
   A37        1.88759   0.00066   0.00000   0.00419   0.00418   1.89177
   A38        1.92506   0.00081   0.00000  -0.00103  -0.00153   1.92353
   A39        2.01887  -0.00389   0.00000  -0.04030  -0.04043   1.97844
   A40        1.89549   0.00064   0.00000   0.00824   0.00853   1.90402
   A41        1.86671   0.00047   0.00000  -0.00732  -0.00805   1.85867
   A42        1.88213  -0.00044   0.00000   0.01182   0.01171   1.89385
   A43        1.87066   0.00261   0.00000   0.03248   0.03268   1.90334
   A44        1.92895  -0.00039   0.00000  -0.00828  -0.00845   1.92050
   A45        1.92983  -0.00024   0.00000  -0.00886  -0.00883   1.92100
   A46        1.92231  -0.00052   0.00000   0.00040   0.00049   1.92280
   A47        1.90240   0.00030   0.00000   0.00470   0.00469   1.90709
   A48        1.90611   0.00058   0.00000   0.00556   0.00557   1.91168
   A49        1.87319   0.00031   0.00000   0.00713   0.00708   1.88027
   A50        1.95856   0.00047   0.00000   0.00246   0.00260   1.96117
   A51        1.91111   0.00184   0.00000   0.01551   0.01547   1.92659
   A52        1.86667  -0.00102   0.00000  -0.00734  -0.00745   1.85922
   A53        1.90145  -0.00153   0.00000  -0.00435  -0.00441   1.89704
   A54        1.92911  -0.00042   0.00000  -0.01077  -0.01088   1.91823
   A55        1.89584   0.00073   0.00000   0.00490   0.00489   1.90073
   A56        2.02324  -0.00594   0.00000  -0.03829  -0.03816   1.98508
   A57        2.08350  -0.01617   0.00000  -0.06321  -0.06321   2.02029
   A58        1.95570  -0.00236   0.00000  -0.01778  -0.01788   1.93781
   A59        1.87414   0.00016   0.00000   0.00487   0.00485   1.87900
   A60        1.89891   0.00117   0.00000   0.00059   0.00058   1.89949
   A61        1.90833   0.00150   0.00000   0.00830   0.00839   1.91672
   A62        1.94777  -0.00027   0.00000  -0.00190  -0.00203   1.94574
   A63        1.87585  -0.00010   0.00000   0.00720   0.00717   1.88302
    D1        0.92546  -0.00006   0.00000   0.00417   0.00417   0.92963
    D2        3.04140   0.00042   0.00000   0.00769   0.00773   3.04914
    D3       -1.18583   0.00048   0.00000   0.01371   0.01374  -1.17209
    D4       -1.17453  -0.00012   0.00000   0.00775   0.00774  -1.16679
[...]
 87,0.02555816,-0.18571742,0.00017612,-0.00069665,0.00041193,0.00040516
 ,0.00008726,0.00022447,0.00000816,0.00000863,-0.00001743,0.00013776,0.
 00059139,0.00112699,0.00232609,-0.00325083,-0.00381273,0.00007993,0.00
 004199,-0.00002909,-0.00008980,-0.00003415,0.00005449,0.00000052,-0.00
 000323,0.00000195,0.00000188,0.00000573,0.00000095,0.00005472,-0.00000
 369,0.00004232,-0.00000928,-0.00000210,-0.00000443,0.13868790,-0.02600
 834,0.20529600,-0.00004653,0.00085342,0.00267208,0.00432021,-0.0273376
 5,0.00231598,0.00007908,-0.00003225,0.00002012,-0.00171049,0.01015091,
 -0.00314441,-0.00002016,-0.00001431,0.00002788,0.00000112,0.00002431,0
 .00000007,-0.00079126,0.00092598,0.00152132,0.00012479,0.00028219,0.00
 009209,0.00001995,-0.00000675,-0.00004440,0.00003017,-0.00001386,-0.00
 004731,-0.00504135,-0.00670424,0.00197517,0.00139561,-0.00020704,0.000
 30406,-0.05270670,0.03351858,-0.00564879,0.00005032,-0.00047134,0.0001
 1769,0.00036172,0.00093717,0.00005747,-0.00001167,0.00002456,-0.000027
 12,0.00003173,-0.00012589,-0.00056142,0.00042203,-0.00050776,0.0000476
 8,0.00004694,-0.00005189,-0.00018584,0.00016310,-0.00007029,-0.0002056
 6,0.00003269,0.00003960,0.00003159,-0.00001323,0.00000387,0.00000674,0
 .00001100,-0.00000524,0.00001571,-0.00000528,0.00000173,-0.00000270,-0
 .00205215,0.02139497,-0.00252555,0.05452680,0.00103123,0.00053062,-0.0
 0344650,0.00433881,-0.01305076,0.00137125,0.00010230,-0.00006966,-0.00
 000983,0.00127950,-0.01249730,0.00240040,-0.00001124,-0.00001301,0.000
 03279,-0.00000330,0.00001131,-0.00001669,0.00034614,0.00104078,0.00083
 528,-0.00025023,0.00034401,0.00003031,-0.00000232,-0.00002092,-0.00002
 792,-0.00002945,-0.00000306,0.00002669,-0.00316049,-0.00172627,0.00120
 000,0.00121276,0.00176802,-0.00014428,0.02885243,-0.30683564,0.0415983
 5,0.00005417,0.00015344,0.00008881,-0.00015569,-0.00094090,0.00027692,
 -0.00002376,0.00003010,-0.00003534,0.00026540,0.00045241,-0.00004067,-
 0.00029968,0.00047240,-0.00004498,-0.00004827,-0.00005132,-0.00013202,
 -0.00002163,-0.00008572,0.00000037,0.00003349,0.00004688,0.00002843,-0
 .00002303,-0.00000022,0.00000616,-0.00001062,-0.00000056,-0.00000732,-
 0.00000484,0.00000357,-0.00000627,0.00058331,-0.00241765,0.00080173,-0
 .03354588,0.33260709,0.00198807,-0.00169408,-0.00531645,-0.00435725,0.
 00918369,-0.00258565,-0.00001759,0.00001342,-0.00001755,0.00248563,-0.
 02922933,0.00547810,0.00000473,-0.00000137,-0.00001313,0.00001048,0.00
 000504,0.00000333,0.00074469,-0.00028037,-0.00109315,-0.00003368,-0.00
 006473,0.00001715,0.00000372,0.00000532,0.00002009,0.00000794,-0.00002
 055,-0.00000874,0.00291350,0.00313819,0.00046721,-0.00078061,-0.000657
 06,0.00025388,-0.00393485,0.04283124,-0.05452744,0.00014545,-0.0001116
 6,0.00014483,0.00001212,-0.00178315,0.00025072,0.00001927,-0.00000508,
 0.00000886,-0.00012119,0.00091051,0.00108662,-0.00070392,0.00065845,0.
 00118359,-0.00006006,0.00005803,0.00015327,-0.00012317,0.00007965,0.00
 019918,-0.00001139,-0.00002312,-0.00001953,0.00000738,0.00000267,-0.00
 000308,0.00001156,0.00000401,0.00000426,-0.00000078,0.00000177,-0.0000
 0180,-0.00105277,0.02223113,-0.00361776,0.00323504,-0.04483880,0.05790
 473,0.00029126,-0.00042830,-0.00020094,-0.07034130,0.02334848,0.064180
 18,-0.00110505,-0.00059241,-0.00022903,-0.00411562,-0.00374668,0.00016
 713,-0.00002729,0.00010333,-0.00010200,-0.00014941,0.00005891,0.000184
 53,0.00107183,-0.00041289,-0.00056246,0.00265408,-0.00196368,-0.002829
 23,0.00001716,0.00000044,-0.00003055,0.00000887,0.00013824,0.00004252,
 0.00212400,0.00273337,0.00134812,-0.00300115,-0.00486630,-0.03336715,-
 0.00727278,0.00995947,0.02591816,-0.00005353,0.00008969,-0.00009107,0.
 00002811,0.00013385,-0.00002129,0.00003270,-0.00000670,0.00009170,-0.0
 0064019,0.00083164,0.00141724,0.00010765,-0.00003230,0.00017751,-0.000
 07335,0.00015317,0.00021262,0.00004435,0.00008291,0.00002334,-0.000005
 96,0.00003305,-0.00001980,0.00000970,0.00003548,0.00001992,-0.00007327
 ,-0.00003254,0.00000113,0.00001876,-0.00005172,0.00013386,0.00076145,0
 .00053809,-0.00038866,0.00079204,-0.00045353,-0.00039074,0.07973753,-0
 .00017195,-0.00053176,-0.00023402,0.01796819,-0.07742612,-0.07630043,-
 0.00014654,-0.00002380,-0.00038603,-0.00248764,-0.00099181,0.00030625,
 -0.00004617,0.00007027,0.00006128,0.00012606,0.00001590,-0.00003130,-0
 .00141460,-0.00387630,0.00473470,-0.00114699,0.00141950,0.00105283,0.0
 0013839,-0.00017540,0.00005924,-0.00010310,-0.00016264,0.00002765,0.01
 272123,-0.03213936,-0.03531095,0.00262819,0.00616671,0.00961833,-0.003
 64750,0.00746449,0.01154710,0.00007943,0.00008320,0.00002262,0.0002607
 0,0.00026090,-0.00011299,0.00017279,0.00004388,0.00011301,-0.00035008,
 0.00045631,0.00070683,0.00012369,-0.00008490,-0.00004410,-0.00007203,-
 0.00014926,-0.00042515,0.00054330,-0.00104751,-0.00150579,0.00005523,0
 .00006594,0.00003174,-0.00002889,0.00001945,0.00000085,0.00001652,0.00
 000188,-0.00000629,0.00001912,0.00000357,0.00001971,0.00050287,0.00031
 828,-0.00046903,0.00090054,0.00033280,-0.00041144,-0.02515717,0.100900
 83,-0.00011492,0.00013669,-0.00003840,0.05736193,-0.08481695,-0.257907
 85,0.00008214,0.00052563,0.00009475,0.00129015,0.00125543,0.00110450,0
 .00012014,0.00023930,0.00002595,-0.00019013,-0.00001671,0.00006871,0.0
 0001108,0.00157820,0.00234696,0.00448412,0.00073345,-0.00070233,0.0002
 7921,-0.00021014,0.00011816,-0.00008044,0.00019982,0.00031309,0.000417
 61,-0.00102968,0.00502773,-0.01001195,-0.00291766,-0.03057712,0.003332
 48,-0.00308438,-0.00695296,0.00000743,-0.00003913,0.00001089,-0.000027
 44,-0.00005105,-0.00005056,0.00008535,-0.00012951,0.00022874,0.0001060
 7,-0.00033993,-0.00048837,-0.00015130,0.00004800,0.00012330,-0.0000353
 4,0.00019577,0.00011993,0.00001706,0.00004176,0.00000238,-0.00000814,0
 .00006514,0.00001511,-0.00002651,-0.00001264,0.00000458,-0.00019505,-0
 .00004777,-0.00009438,0.00006147,-0.00005873,0.00011793,0.00024869,0.0
 0009107,0.00072131,-0.00001105,0.00015575,0.00001302,-0.05632975,0.087
 04741,0.28543309,-0.00000600,0.00000627,-0.00004098,0.00019697,0.00012
 323,0.00017871,0.00068506,0.00023902,0.00129600,-0.00001331,0.00000005
 ,-0.00000920,-0.24000675,0.07543312,0.06170917,-0.01592241,-0.00835021
 ,0.01443666,0.00011472,-0.00010196,-0.00000207,-0.00020028,-0.00035053
 ,-0.00009963,-0.01831152,0.00945730,0.00521211,0.00086645,0.00292041,0
 .00097388,-0.00026084,-0.00008560,-0.00003239,-0.00014497,-0.00009384,
 -0.00019818,-0.00000019,0.00000248,-0.00000132,-0.00002688,-0.00001019
 ,0.00000197,-0.00000736,0.00000242,0.00001069,-0.00007763,-0.00060018,
 -0.00051061,-0.00001089,-0.00000583,0.00000788,0.00000526,0.00000238,-
 0.00000488,-0.00003091,0.00003472,-0.00009479,0.00000971,0.00000705,0.
 00000264,-0.00107471,0.00077039,-0.00340936,0.00053202,0.00016903,-0.0
 0025779,-0.00014026,-0.00106703,-0.00061028,0.00036911,-0.00035184,-0.
 00018089,-0.00001738,-0.00000151,0.00000125,-0.00000630,-0.00000993,0.
 00000569,0.00001009,-0.00000610,-0.00003440,0.26820669,0.00000407,-0.0
 0000242,0.00002345,-0.00003602,-0.00018435,-0.00010031,-0.00097622,0.0
 0021784,0.00002309,0.00001047,-0.00000281,0.00000803,0.07844287,-0.083
 93717,-0.03175894,-0.02883827,-0.00039009,0.01496199,-0.00007250,0.000
 05907,0.00000809,0.00001062,-0.00041111,-0.00016900,0.00753443,-0.0024
 5349,-0.00320040,-0.00318041,0.00466056,0.00311416,0.00016833,0.000099
 76,0.00003154,0.00019554,0.00001371,-0.00003921,-0.00000377,0.00000401
 ,-0.00000471,0.00001561,0.00000581,-0.00000118,0.00000479,-0.00000127,
 -0.00000630,0.00001126,0.00045328,0.00018534,0.00000495,0.00000445,-0.
 00000449,-0.00000147,-0.00000030,0.00000075,-0.00001490,-0.00002095,0.
 00005016,-0.00000895,0.00000115,-0.00000581,0.00077059,0.00084972,0.00
 192781,-0.00014563,0.00020182,-0.00006586,0.00143823,0.00040430,-0.000
 27604,0.00022627,0.00009433,-0.00000930,0.00000653,0.00000061,-0.00000
 029,0.00000524,0.00000751,-0.00000295,-0.00002672,0.00000942,0.0000054
 7,-0.07783401,0.08720032,-0.00001019,0.00000338,-0.00003794,-0.0001451
 4,0.00037331,-0.00011921,0.00012719,0.00095742,0.00161535,-0.00000676,
 0.00001420,-0.00000587,0.06238794,-0.02902473,-0.07203510,0.02628028,0
 .00542641,-0.01338451,0.00007584,-0.00008120,-0.00003422,-0.00025517,0
 .00032504,-0.00004766,-0.02493058,0.00923827,0.00781212,-0.00154246,-0
 .00336145,-0.00075030,-0.00033862,-0.00026850,0.00000144,0.00036645,-0
 .00013263,0.00020424,0.00002144,-0.00004887,0.00002515,-0.00001867,-0.
 00000900,0.00000530,-0.00000309,-0.00000179,0.00000673,0.00049053,-0.0
 0012279,-0.00013771,0.00000135,-0.00000948,0.00000040,0.00000051,-0.00
 000151,0.00000391,0.00001778,0.00003092,-0.00006466,0.00002406,-0.0000
 0624,0.00000816,-0.00341104,0.00070505,-0.00377339,0.00114364,-0.00026
 359,0.00103406,-0.00040561,0.00068743,0.00062780,-0.00027490,0.0002104
 3,0.00003820,0.00001688,0.00000275,-0.00000344,-0.00000960,-0.00001035
 ,0.00000484,0.00001656,-0.00002708,0.00000808,-0.07654483,0.02225648,0
 .08346223,0.00000054,0.00000237,0.00001197,0.00017552,-0.00007694,0.00
 008897,-0.00154950,0.00205248,-0.00271101,-0.00001104,-0.00000954,-0.0
 0000626,-0.05573854,-0.02065875,-0.01658841,-0.00307150,-0.01805467,-0
 .00668353,0.00001652,-0.00004030,-0.00005457,0.00028419,0.00003985,0.0
 0002918,-0.00276608,-0.01608805,-0.01326856,-0.00084990,-0.00020321,0.
 00220120,-0.00006798,0.00008980,0.00002045,-0.00019895,-0.00002996,0.0
 0000632,-0.00000551,0.00002900,0.00000061,-0.00000249,0.00000002,-0.00
 000197,-0.00000565,0.00000155,0.00000475,0.00012878,-0.00025884,-0.000
 25951,-0.00000677,0.00000298,0.00000645,0.00000177,0.00000079,-0.00000
 249,0.00000073,-0.00000192,0.00000384,-0.00000502,0.00000937,0.0000018
 7,0.00073100,-0.00052733,0.00089291,0.00054020,0.00025397,0.00033474,0
 .00030494,-0.00040389,-0.00026451,0.00018564,-0.00063108,-0.00035446,-
 0.00001591,-0.00000161,0.00000171,0.00000014,-0.00000192,0.00000113,0.
 00001198,0.00001490,0.00000957,0.00510754,0.02232225,0.01649405,0.0569
 4229,0.00000080,0.00000008,-0.00000471,0.00017466,-0.00010183,0.000203
 05,0.00126530,0.00026958,0.00155935,-0.00000242,-0.00000634,-0.0000046
 8,-0.02546686,-0.21507501,-0.12552551,-0.00689849,-0.03021788,-0.01015
 320,0.00003110,-0.00003261,-0.00001771,0.00042216,-0.00038046,0.000328
 29,0.00157663,0.00906812,0.00448169,-0.00220476,0.00016021,0.00510173,
 -0.00008440,0.00008355,-0.00002148,-0.00032756,0.00008110,-0.00025198,
 -0.00001783,0.00001875,-0.00003158,-0.00000531,-0.00000115,-0.00000059
 ,-0.00000352,0.00000238,0.00000339,-0.00002141,-0.00002754,0.00006406,
 -0.00000632,0.00000095,0.00000429,0.00000225,0.00000077,-0.00000427,-0
 .00002420,0.00000148,-0.00002053,-0.00000374,0.00000645,0.00000029,-0.
 00041826,0.00035472,-0.00032494,-0.00062643,0.00009065,-0.00086454,0.0
 0015364,0.00017460,-0.00000521,-0.00049743,-0.00127559,-0.00075137,-0.
 00002178,-0.00000323,0.00000385,0.00000145,-0.00000109,0.00000164,-0.0
 0000390,-0.00000338,-0.00003452,-0.00018351,-0.00695804,-0.00692564,0.
 03310277,0.24326436,-0.00000049,0.00000809,0.00000351,0.00018212,0.000
 00261,-0.00002134,-0.00387444,0.00309560,-0.00336183,-0.00002222,-0.00
 001224,-0.00001030,-0.02062950,-0.13601008,-0.14914876,0.00482774,0.02
 420567,0.01337632,0.00003868,-0.00008866,-0.00005323,0.00043463,0.0009
 6496,-0.00027936,-0.00195477,-0.02105008,-0.01394844,0.00178168,0.0026
 5506,-0.00216280,-0.00015233,0.00004668,0.00006665,-0.00025812,-0.0001
 6490,0.00013320,0.00000903,0.00003603,0.00002843,-0.00000916,-0.000003
 31,-0.00000101,-0.00000974,0.00000136,0.00000878,0.00020763,0.00028716
 ,0.00024401,-0.00000927,0.00000197,0.00001107,0.00000319,0.00000090,-0
 .00000115,-0.00002135,0.00000570,-0.00002540,-0.00000108,0.00001250,0.
 00000471,0.00013498,0.00037224,0.00131748,0.00057809,0.00028373,0.0004
 5600,-0.00018225,0.00010844,0.00002584,0.00021191,0.00096671,0.0004892
 5,-0.00001360,-0.00000059,0.00000047,-0.00000384,-0.00000634,0.0000034
 7,0.00000555,0.00003727,0.00004616,-0.00155790,-0.00690244,-0.00463869
 ,0.02073469,0.13302719,0.15800545,-0.00005510,-0.00002152,-0.00000473,
 -0.00174874,-0.00095519,0.00121949,-0.16514342,0.03245264,-0.13421088,
 0.00000625,0.00005677,0.00004396,0.00067785,-0.00194024,0.00007271,-0.
 00007166,0.00059636,-0.00036463,-0.00024833,0.00024089,0.00023410,0.00
 852354,-0.00233817,0.01038045,-0.00365630,0.00107859,-0.00290455,-0.00
 080942,-0.00218386,0.00141924,-0.00165213,0.00039746,0.00068520,0.0008
 8375,0.00133043,-0.00112724,0.00003480,-0.00001940,-0.00009889,0.00000
 948,0.00000441,0.00000408,0.00002723,-0.00000506,-0.00001170,-0.017433
 82,0.00489321,-0.01940355,0.00002074,-0.00000051,-0.00002732,-0.000002
 59,-0.00000306,0.00000631,-0.00000992,-0.00004815,-0.00005776,0.000009
 58,-0.00004019,-0.00002714,0.00035431,-0.00022755,0.00016246,-0.000132
 15,-0.00006112,0.00005937,0.00017910,-0.00010676,0.00013484,0.00042556
 ,-0.00017677,0.00053822,0.00003099,0.00000510,-0.00000267,0.00001716,0
 .00002449,-0.00001216,-0.00133026,-0.00088126,0.00056198,0.00029179,-0
 .00001992,0.00031761,-0.00003543,0.00019430,-0.00055422,0.18070060,0.0
 0000905,-0.00000141,-0.00000602,-0.00055791,0.00048859,0.00142359,0.03
 176640,-0.05638162,0.03775811,0.00008949,0.00006187,-0.00000040,-0.000
 63311,-0.00686743,-0.00180114,0.00067755,0.00173680,0.00002407,0.00014
 248,-0.00006308,-0.00000886,0.01948787,-0.00426636,0.01766462,-0.01999
 935,0.00627581,-0.02168691,-0.00353563,-0.00483478,0.00181825,0.000465
 78,-0.00048015,-0.00060417,-0.00014287,0.00121743,-0.00186680,-0.00004
 726,-0.00022215,-0.00023941,0.00000293,-0.00000127,0.00000228,0.000005
 99,-0.00000531,-0.00000489,0.00578929,-0.00257086,0.00697965,0.0000141
 5,-0.00001685,-0.00003600,-0.00000430,-0.00000170,-0.00000539,-0.00000
 333,0.00000193,0.00002111,0.00000590,-0.00001823,-0.00002114,0.0006046
 8,0.00114724,0.00057734,0.00009448,0.00104747,0.00100730,-0.00022466,0
 .00011056,-0.00026937,0.00078887,0.00011898,0.00153580,-0.00000953,-0.
 00001032,0.00001462,-0.00001472,0.00000214,0.00000731,-0.00106371,-0.0
 0059085,-0.00007847,-0.00000423,0.00000009,0.00010761,-0.00094692,0.00
 043844,-0.00167468,-0.03297681,0.06293752,-0.00001493,0.00007879,0.000
 22509,0.00051618,0.00078874,-0.00128666,-0.13051284,0.03605734,-0.1924
 1937,-0.00015794,-0.00006016,-0.00004845,0.00039125,-0.00413482,0.0001
 3253,0.00004246,-0.00009393,0.00051343,-0.00002509,-0.00059612,-0.0006
 7950,-0.01330079,0.00423160,-0.01638842,-0.01064938,0.00237390,-0.0123
 5217,0.00304707,0.00357727,-0.00014790,-0.00072563,-0.00028343,0.00113
 911,-0.00043430,-0.00075292,0.00154165,0.00017891,0.00015039,0.0003608
 9,-0.00000537,-0.00000043,-0.00001987,-0.00008309,-0.00000647,0.000056
 17,0.00901468,-0.00263141,0.01137765,-0.00004605,0.00001992,0.00006684
 ,0.00001604,0.00000190,0.00001325,0.00003598,0.00001734,0.00010903,-0.
 00001781,0.00007344,0.00004402,0.00013505,0.00040742,0.00033044,0.0001
 7553,-0.00005669,0.00061789,-0.00026549,0.00001741,0.00010861,-0.00076
 919,0.00000944,-0.00089098,0.00000245,0.00000754,-0.00001528,-0.000045
 71,-0.00006369,0.00002878,0.00008840,0.00029290,0.00062317,-0.00017983
 ,0.00011334,0.00001301,-0.00060219,0.00038708,-0.00077807,0.14362846,-
 0.03982435,0.20716344,0.00006277,-0.00002826,0.00001668,0.00492671,-0.
 00014370,0.00685602,0.00043045,-0.00786987,-0.00414186,-0.00001599,-0.
 00009040,0.00002229,0.00080967,0.00120322,-0.00047373,-0.00282975,-0.0
 0115417,-0.00546736,0.00027129,-0.00021975,-0.00025206,-0.04610043,-0.
 00327629,-0.00945559,0.00060902,-0.00105167,0.00173743,0.00159322,-0.0
 1796976,-0.00660470,-0.00063401,0.00138428,-0.00118508,-0.02397478,0.0
 3092267,0.02423618,0.00011025,-0.00000438,-0.00000991,-0.00002696,0.00
 000268,-0.00001429,-0.00002727,0.00001463,0.00002442,0.00027496,-0.000
 31764,-0.00024760,-0.00009512,0.00003047,-0.00001177,-0.00001092,0.000
 01224,-0.00012864,-0.00009381,-0.00007663,-0.00008005,-0.00007694,0.00
 005544,-0.00006453,-0.00006121,-0.00024455,-0.00011989,-0.00005466,-0.
 00043402,-0.00016659,0.00008144,-0.00042149,0.00057313,0.00053578,0.00
 063773,0.00021463,-0.00008519,-0.00005131,-0.00002382,-0.00002150,-0.0
 0006823,0.00000374,0.00046759,-0.00061113,-0.00126006,-0.00013683,-0.0
 0001326,0.00011457,-0.00010149,-0.00010695,0.00010433,0.00013656,0.000
 21945,0.00056318,0.06403713,-0.00000562,-0.00000068,-0.00000599,-0.001
 70917,0.00097148,-0.00160268,-0.00320605,-0.02278808,-0.01269314,-0.00
 005331,-0.00000739,0.00002452,0.00060436,-0.00008431,0.00070886,0.0003
 3265,0.00154019,0.00097286,-0.00019370,0.00016732,0.00009075,-0.004342
 51,-0.23468043,-0.10659497,-0.00183833,-0.00169364,0.00493571,-0.00016
 927,0.00205507,0.00174269,0.00038350,-0.00043627,0.00015565,0.01009378
 ,0.00083041,-0.00441308,0.00021096,0.00002197,0.00035139,0.00002518,0.
 00000340,0.00000978,0.00001956,-0.00001019,-0.00002022,-0.00029603,0.0
 0075812,0.00005241,0.00002779,0.00000507,0.00000029,-0.00000550,-0.000
 00714,0.00004068,0.00005533,-0.00001490,0.00006114,0.00001562,-0.00002
 766,0.00000309,0.00016851,0.00013739,0.00000207,-0.00041645,-0.0013511
 6,-0.00100778,-0.00047002,0.00037911,-0.00058960,-0.00033787,0.0001546
 5,-0.00044815,0.00016059,-0.00002053,-0.00003626,0.00004460,-0.0000890
 0,-0.00000839,0.00059845,-0.00043026,0.00054837,-0.00011139,0.00007422
 ,-0.00004383,0.00001280,0.00006799,-0.00020656,0.00073088,0.00074750,-
 0.00010134,-0.00032934,0.25372776,-0.00003031,0.00001103,-0.00003143,-
 0.00227727,0.00202194,-0.00093842,0.00179209,0.01937238,0.01104144,-0.
 00003006,0.00004620,-0.00001047,0.00063156,0.00137246,-0.00127904,-0.0
 0474135,-0.00161406,-0.00536613,-0.00022248,0.00010147,0.00018380,-0.0
 0678434,-0.10581486,-0.11428713,0.00121722,0.00280848,-0.00262684,0.00
 043904,-0.02376717,-0.01054282,0.00053737,-0.00088693,0.00002914,0.013
 17848,-0.01107462,-0.00670028,0.00010109,-0.00005230,0.00025161,0.0000
 2362,0.00000082,0.00001487,0.00002563,-0.00001314,-0.00002002,-0.00028
 186,-0.00074691,0.00091372,0.00005130,-0.00001002,-0.00000872,0.000008
 02,-0.00002056,0.00005085,0.00007377,0.00001407,0.00001697,0.00003498,
 -0.00005208,-0.00000726,-0.00007391,0.00006551,0.00000482,0.00036995,0
 .00107705,0.00058095,-0.00011039,0.00035458,0.00102955,0.00089264,0.00
 037262,0.00047900,0.00015264,-0.00000084,-0.00003352,0.00002272,-0.000
 02225,-0.00002165,0.00053420,-0.00041510,0.00024442,-0.00006732,-0.000
 16249,0.00016166,-0.00004695,-0.00022342,0.00020959,-0.00066104,-0.000
 81363,0.00056168,-0.00475905,0.11807174,0.12609970\\-0.00000081,0.0000
 0112,0.00000093,-0.00054397,-0.00297569,-0.00044669,0.00103175,0.00132
 859,0.00220334,0.00001091,0.00000369,-0.00000344,-0.00000071,-0.000007
 83,-0.00000989,-0.00000123,-0.00000551,0.00000643,0.00000069,-0.000013
 93,-0.00000271,-0.00172015,-0.00322899,-0.00342270,-0.00000362,-0.0000
 0424,0.00000424,0.00000252,0.00000618,-0.00000604,-0.00001674,0.000024
 92,-0.00001124,0.00125237,0.00485939,0.00169185,-0.00000517,0.00001274
 ,-0.00000729,-0.00000066,0.00000225,0.00000040,-0.00000028,-0.00000348
 ,0.00000460,0.00000150,0.00000140,-0.00000127,-0.00000226,-0.00000052,
 -0.00000176,0.00000163,-0.00000173,0.00000334,0.00000171,-0.00000097,0
 .00000633,0.00000180,0.00000254,0.00000382,0.00000325,0.00000017,0.000
 00159,0.00000110,0.00000091,-0.00000069,0.00000623,-0.00000214,-0.0000
 0060,-0.00000267,-0.00000141,-0.00000194,-0.00000399,0.00000119,-0.000
 00215,-0.00000098,-0.00000081,0.00000042,-0.00000327,0.00000484,-0.000
 00742,0.00000345,-0.00000314,-0.00000075,-0.00000093,-0.00000411,0.000
 00428,-0.00000379,0.00000115,-0.00000197,-0.00000769,0.00000342,-0.000
 00302\\\@


     "IF I COULD JUST GET IT ON PAPER"
 LIFE AND INK, THEY RUN OUT AT THE SAME TIME,
 OR SO SAID MY OLD FRIEND THE SQUID.
     -- JIMMY BUFFETT, 1981
 Job cpu time:       0 days 15 hours  3 minutes  3.9 seconds.
 Elapsed time:       0 days  0 hours 56 minutes 28.0 seconds.
 File lengths (MBytes):  RWF=    689 Int=      0 D2E=      0 Chk=     33 Scr=      1
 Normal termination of Gaussian 16 at Sun Nov  4 23:02:53 2018.
