 Entering Gaussian System, Link 0=g16
 Initial command:
 /apps/gaussian/g16a03/g16/l1.exe "/jobfs/local/2011912.r-man2/Gau-24854.inp" -scrdir="/jobfs/local/2011912.r-man2/"
 Entering Link 1 = /apps/gaussian/g16a03/g16/l1.exe PID=     24855.
  
 Copyright (c) 1988,1990,1992,1993,1995,1998,2003,2009,2016,
            Gaussian, Inc.  All Rights Reserved.
  
 This is part of the Gaussian(R) 16 program.  It is based on
 the Gaussian(R) 09 system (copyright 2009, Gaussian, Inc.),
 the Gaussian(R) 03 system (copyright 2003, Gaussian, Inc.),
 the Gaussian(R) 98 system (copyright 1998, Gaussian, Inc.),
 the Gaussian(R) 94 system (copyright 1995, Gaussian, Inc.),
 the Gaussian 92(TM) system (copyright 1992, Gaussian, Inc.),
 the Gaussian 90(TM) system (copyright 1990, Gaussian, Inc.),
 the Gaussian 88(TM) system (copyright 1988, Gaussian, Inc.),
 the Gaussian 86(TM) system (copyright 1986, Carnegie Mellon
 University), and the Gaussian 82(TM) system (copyright 1983,
 Carnegie Mellon University). Gaussian is a federally registered
 trademark of Gaussian, Inc.
  
 This software contains proprietary and confidential information,
 including trade secrets, belonging to Gaussian, Inc.
  
 This software is provided under written license and may be
 used, copied, transmitted, or stored only in accord with that
 written license.
  
 The following legend is applicable only to US Government
 contracts under FAR:
  
                    RESTRICTED RIGHTS LEGEND
  
 Use, reproduction and disclosure by the US Government is
 subject to restrictions as set forth in subparagraphs (a)
 and (c) of the Commercial Computer Software - Restricted
 Rights clause in FAR 52.227-19.
  
 Gaussian, Inc.
 340 Quinnipiac St., Bldg. 40, Wallingford CT 06492
  
  
 ---------------------------------------------------------------
 Warning -- This program may not be used in any manner that
 competes with the business of Gaussian, Inc. or will provide
 assistance to any competitor of Gaussian, Inc.  The licensee
 of this program is prohibited from giving any competitor of
 Gaussian, Inc. access to this program.  By using this program,
 the user acknowledges that Gaussian, Inc. is engaged in the
 business of creating and licensing software in the field of
 computational chemistry and represents and warrants to the
 licensee that it is not a competitor of Gaussian, Inc. and that
 it will not use this program in any manner prohibited above.
 ---------------------------------------------------------------
  

 Cite this work as:
 Gaussian 16, Revision A.03,
 M. J. Frisch, G. W. Trucks, H. B. Schlegel, G. E. Scuseria, 
 M. A. Robb, J. R. Cheeseman, G. Scalmani, V. Barone, 
 G. A. Petersson, H. Nakatsuji, X. Li, M. Caricato, A. V. Marenich, 
 J. Bloino, B. G. Janesko, R. Gomperts, B. Mennucci, H. P. Hratchian, 
 J. V. Ortiz, A. F. Izmaylov, J. L. Sonnenberg, D. Williams-Young, 
 F. Ding, F. Lipparini, F. Egidi, J. Goings, B. Peng, A. Petrone, 
 T. Henderson, D. Ranasinghe, V. G. Zakrzewski, J. Gao, N. Rega, 
 G. Zheng, W. Liang, M. Hada, M. Ehara, K. Toyota, R. Fukuda, 
 J. Hasegawa, M. Ishida, T. Nakajima, Y. Honda, O. Kitao, H. Nakai, 
 T. Vreven, K. Throssell, J. A. Montgomery, Jr., J. E. Peralta, 
 F. Ogliaro, M. J. Bearpark, J. J. Heyd, E. N. Brothers, K. N. Kudin, 
 V. N. Staroverov, T. A. Keith, R. Kobayashi, J. Normand, 
 K. Raghavachari, A. P. Rendell, J. C. Burant, S. S. Iyengar, 
 J. Tomasi, M. Cossi, J. M. Millam, M. Klene, C. Adamo, R. Cammi, 
 J. W. Ochterski, R. L. Martin, K. Morokuma, O. Farkas, 
 J. B. Foresman, and D. J. Fox, Gaussian, Inc., Wallingford CT, 2016.
 
 ******************************************
 Gaussian 16:  ES64L-G16RevA.03 25-Dec-2016
                 4-Nov-2018 
 ******************************************
 %mem=6000mb
 %nproc=24
 Will use up to   24 processors via shared memory.
 %chk=D_1a_4a_L_PSI.inp_extract_21.chk
 ----------------------------------------------------------------------
 #M062X/6-311++G(2d,2p) opt=ModRedundant freq=noraman SCRF=(Solvent=Wat
 er)
 ----------------------------------------------------------------------
 1/18=120,19=15,26=3,38=1/1,3;
 2/9=110,12=2,17=6,18=5,40=1/2;
 3/5=4,6=6,7=1212,11=2,25=1,30=1,70=2201,71=1,72=1,74=-55/1,2,3;
 4//1;
 5/5=2,38=5,53=1/2;
 6/7=2,8=2,9=2,10=2,28=1/1;
 7//1,2,3,16;
 1/18=20,19=15,26=3/3(2);
 2/9=110/2;
 99//99;
 2/9=110/2;
 3/5=4,6=6,7=1212,11=2,25=1,30=1,70=2205,71=1,72=1,74=-55/1,2,3;
 4/5=5,16=3,69=1/1;
 5/5=2,38=5,53=1/2;
 7//1,2,3,16;
 1/18=20,19=15,26=3/3(-5);
 2/9=110/2;
 6/7=2,8=2,9=2,10=2,19=2,28=1/1;
 99/9=1/99;
 ----------------------------
 D_1a_4a_L_PSI.inp_extract_21
 ----------------------------
 Symbolic Z-matrix:
 Charge =  0 Multiplicity = 1
 C                     3.39756   0.58514   0.59114 
 C                     1.14729  -0.73108  -0.66512 
 C                    -1.68384   1.43189  -0.31659 
 C                     2.66896  -0.52812   1.34368 
 C                    -3.42576   0.01342   0.78778 
 O                    -2.7536   -1.14309   0.32245 
 C                     2.45239   1.26061  -0.38809 
 C                    -1.07154   0.1465   -0.86424 
 C                    -2.45491   1.16837   0.97902 
 C                    -2.11719  -0.95647  -0.92377 
 O                     1.85777   0.3181   -1.27165 
 O                     0.00167  -0.25785  -0.02254 
 C                     2.00789  -1.47686   0.34284 
 H                     4.24174   0.1697    0.04554 
 H                     3.78819   1.33091   1.27768 
 H                    -2.36606   1.82258  -1.06774 
 H                     3.36045  -1.08077   1.97225 
 H                     1.91914  -0.09563   2.00071 
 H                     1.67387   1.79858   0.14138 
 H                     2.97478   1.96277  -1.02309 
 H                    -1.76829   0.92776   1.78542 
 H                    -3.00695   2.05468   1.27814 
 H                    -2.8597   -0.70854  -1.67883 
 H                    -1.66194  -1.90188  -1.18521 
 H                     2.77597  -2.00528  -0.2153 
 H                     1.39739  -2.22149   0.84206 
 H                     0.86334  -1.38095  -1.48142 
 H                    -4.20272   0.28125   0.0747 
 H                    -3.89985  -0.26396   1.71939 
 H                    -0.90703   2.17375  -0.16702 
 H                    -0.69406   0.3188   -1.86458 
 
 The following ModRedundant input section has been read:
 D       3       8      12       2 F                                           
 

 GradGradGradGradGradGradGradGradGradGradGradGradGradGradGradGradGradGrad
 Berny optimization.
 Initialization pass.
                           ----------------------------
                           !    Initial Parameters    !
                           ! (Angstroms and Degrees)  !
 --------------------------                            --------------------------
 ! Name  Definition              Value          Derivative Info.                !
 --------------------------------------------------------------------------------
 ! R1    R(1,4)                  1.5286         estimate D2E/DX2                !
 ! R2    R(1,7)                  1.5194         estimate D2E/DX2                !
 ! R3    R(1,14)                 1.0876         estimate D2E/DX2                !
 ! R4    R(1,15)                 1.0863         estimate D2E/DX2                !
 ! R5    R(2,11)                 1.4048         estimate D2E/DX2                !
 ! R6    R(2,12)                 1.3962         estimate D2E/DX2                !
 ! R7    R(2,13)                 1.5208         estimate D2E/DX2                !
 ! R8    R(2,27)                 1.0813         estimate D2E/DX2                !
 ! R9    R(3,8)                  1.5255         estimate D2E/DX2                !
 ! R10   R(3,9)                  1.5306         estimate D2E/DX2                !
 ! R11   R(3,16)                 1.0873         estimate D2E/DX2                !
 ! R12   R(3,30)                 1.0845         estimate D2E/DX2                !
 ! R13   R(4,13)                 1.5293         estimate D2E/DX2                !
 ! R14   R(4,17)                 1.0857         estimate D2E/DX2                !
 ! R15   R(4,18)                 1.0867         estimate D2E/DX2                !
 ! R16   R(5,6)                  1.4163         estimate D2E/DX2                !
 ! R17   R(5,9)                  1.5209         estimate D2E/DX2                !
 ! R18   R(5,28)                 1.0881         estimate D2E/DX2                !
 ! R19   R(5,29)                 1.0815         estimate D2E/DX2                !
 ! R20   R(6,10)                 1.4117         estimate D2E/DX2                !
 ! R21   R(7,11)                 1.4222         estimate D2E/DX2                !
 ! R22   R(7,19)                 1.0844         estimate D2E/DX2                !
 ! R23   R(7,20)                 1.0813         estimate D2E/DX2                !
 ! R24   R(8,10)                 1.521          estimate D2E/DX2                !
 ! R25   R(8,12)                 1.4226         estimate D2E/DX2                !
 ! R26   R(8,31)                 1.083          estimate D2E/DX2                !
 ! R27   R(9,21)                 1.0861         estimate D2E/DX2                !
 ! R28   R(9,22)                 1.0862         estimate D2E/DX2                !
 ! R29   R(10,23)                1.0876         estimate D2E/DX2                !
 ! R30   R(10,24)                1.0814         estimate D2E/DX2                !
 ! R31   R(13,25)                1.0866         estimate D2E/DX2                !
 ! R32   R(13,26)                1.0846         estimate D2E/DX2                !
 ! A1    A(4,1,7)              110.1548         estimate D2E/DX2                !
 ! A2    A(4,1,14)             109.8005         estimate D2E/DX2                !
 ! A3    A(4,1,15)             111.115          estimate D2E/DX2                !
 ! A4    A(7,1,14)             109.2292         estimate D2E/DX2                !
 ! A5    A(7,1,15)             109.0144         estimate D2E/DX2                !
 ! A6    A(14,1,15)            107.4674         estimate D2E/DX2                !
 ! A7    A(11,2,12)            111.1348         estimate D2E/DX2                !
 ! A8    A(11,2,13)            111.4823         estimate D2E/DX2                !
 ! A9    A(11,2,27)            104.8166         estimate D2E/DX2                !
 ! A10   A(12,2,13)            108.9961         estimate D2E/DX2                !
 ! A11   A(12,2,27)            109.6134         estimate D2E/DX2                !
 ! A12   A(13,2,27)            110.7454         estimate D2E/DX2                !
 ! A13   A(8,3,9)              111.1635         estimate D2E/DX2                !
 ! A14   A(8,3,16)             107.8544         estimate D2E/DX2                !
 ! A15   A(8,3,30)             109.78           estimate D2E/DX2                !
 ! A16   A(9,3,16)             109.3021         estimate D2E/DX2                !
 ! A17   A(9,3,30)             111.2153         estimate D2E/DX2                !
 ! A18   A(16,3,30)            107.3915         estimate D2E/DX2                !
 ! A19   A(1,4,13)             109.6132         estimate D2E/DX2                !
 ! A20   A(1,4,17)             110.6205         estimate D2E/DX2                !
 ! A21   A(1,4,18)             109.6756         estimate D2E/DX2                !
 ! A22   A(13,4,17)            109.7806         estimate D2E/DX2                !
 ! A23   A(13,4,18)            110.1396         estimate D2E/DX2                !
 ! A24   A(17,4,18)            106.9784         estimate D2E/DX2                !
 ! A25   A(6,5,9)              111.0062         estimate D2E/DX2                !
 ! A26   A(6,5,28)             108.9401         estimate D2E/DX2                !
 ! A27   A(6,5,29)             106.3581         estimate D2E/DX2                !
 ! A28   A(9,5,28)             110.5674         estimate D2E/DX2                !
 ! A29   A(9,5,29)             111.4867         estimate D2E/DX2                !
 ! A30   A(28,5,29)            108.34           estimate D2E/DX2                !
 ! A31   A(5,6,10)             113.3313         estimate D2E/DX2                !
 ! A32   A(1,7,11)             111.4617         estimate D2E/DX2                !
 ! A33   A(1,7,19)             110.6402         estimate D2E/DX2                !
 ! A34   A(1,7,20)             111.5095         estimate D2E/DX2                !
 ! A35   A(11,7,19)            109.3871         estimate D2E/DX2                !
 ! A36   A(11,7,20)            105.5152         estimate D2E/DX2                !
 ! A37   A(19,7,20)            108.1464         estimate D2E/DX2                !
 ! A38   A(3,8,10)             110.4346         estimate D2E/DX2                !
 ! A39   A(3,8,12)             109.2627         estimate D2E/DX2                !
 ! A40   A(3,8,31)             109.7218         estimate D2E/DX2                !
 ! A41   A(10,8,12)            109.6135         estimate D2E/DX2                !
 ! A42   A(10,8,31)            108.5931         estimate D2E/DX2                !
 ! A43   A(12,8,31)            109.1952         estimate D2E/DX2                !
 ! A44   A(3,9,5)              110.2367         estimate D2E/DX2                !
 ! A45   A(3,9,21)             110.3745         estimate D2E/DX2                !
 ! A46   A(3,9,22)             110.4059         estimate D2E/DX2                !
 ! A47   A(5,9,21)             109.189          estimate D2E/DX2                !
 ! A48   A(5,9,22)             109.2604         estimate D2E/DX2                !
 ! A49   A(21,9,22)            107.3138         estimate D2E/DX2                !
 ! A50   A(6,10,8)             111.7917         estimate D2E/DX2                !
 ! A51   A(6,10,23)            109.5865         estimate D2E/DX2                !
 ! A52   A(6,10,24)            106.7165         estimate D2E/DX2                !
 ! A53   A(8,10,23)            109.3417         estimate D2E/DX2                !
 ! A54   A(8,10,24)            110.7327         estimate D2E/DX2                !
 ! A55   A(23,10,24)           108.5937         estimate D2E/DX2                !
 ! A56   A(2,11,7)             115.9878         estimate D2E/DX2                !
 ! A57   A(2,12,8)             116.2986         estimate D2E/DX2                !
 ! A58   A(2,13,4)             111.9714         estimate D2E/DX2                !
 ! A59   A(2,13,25)            107.3401         estimate D2E/DX2                !
 ! A60   A(2,13,26)            108.8571         estimate D2E/DX2                !
 ! A61   A(4,13,25)            109.4079         estimate D2E/DX2                !
 ! A62   A(4,13,26)            111.5922         estimate D2E/DX2                !
 ! A63   A(25,13,26)           107.4833         estimate D2E/DX2                !
 ! D1    D(7,1,4,13)            53.1332         estimate D2E/DX2                !
 ! D2    D(7,1,4,17)           174.3275         estimate D2E/DX2                !
 ! D3    D(7,1,4,18)           -67.9043         estimate D2E/DX2                !
 ! D4    D(14,1,4,13)          -67.1994         estimate D2E/DX2                !
 ! D5    D(14,1,4,17)           53.9949         estimate D2E/DX2                !
 ! D6    D(14,1,4,18)          171.7631         estimate D2E/DX2                !
 ! D7    D(15,1,4,13)          174.0486         estimate D2E/DX2                !
 ! D8    D(15,1,4,17)          -64.7571         estimate D2E/DX2                !
 ! D9    D(15,1,4,18)           53.0111         estimate D2E/DX2                !
 ! D10   D(4,1,7,11)           -54.9168         estimate D2E/DX2                !
 ! D11   D(4,1,7,19)            67.0367         estimate D2E/DX2                !
 ! D12   D(4,1,7,20)          -172.5542         estimate D2E/DX2                !
 ! D13   D(14,1,7,11)           65.7595         estimate D2E/DX2                !
 ! D14   D(14,1,7,19)         -172.287          estimate D2E/DX2                !
 ! D15   D(14,1,7,20)          -51.878          estimate D2E/DX2                !
 ! D16   D(15,1,7,11)         -177.0824         estimate D2E/DX2                !
 ! D17   D(15,1,7,19)          -55.1289         estimate D2E/DX2                !
 ! D18   D(15,1,7,20)           65.2802         estimate D2E/DX2                !
 ! D19   D(12,2,11,7)           67.157          estimate D2E/DX2                !
 ! D20   D(13,2,11,7)          -54.6571         estimate D2E/DX2                !
 ! D21   D(27,2,11,7)         -174.5154         estimate D2E/DX2                !
 ! D22   D(11,2,12,8)           72.8948         estimate D2E/DX2                !
 ! D23   D(13,2,12,8)         -163.8538         estimate D2E/DX2                !
 ! D24   D(27,2,12,8)          -42.4971         estimate D2E/DX2                !
 ! D25   D(11,2,13,4)           51.5669         estimate D2E/DX2                !
 ! D26   D(11,2,13,25)         -68.5221         estimate D2E/DX2                !
 ! D27   D(11,2,13,26)         175.4236         estimate D2E/DX2                !
 ! D28   D(12,2,13,4)          -71.477          estimate D2E/DX2                !
 ! D29   D(12,2,13,25)         168.434          estimate D2E/DX2                !
 ! D30   D(12,2,13,26)          52.3798         estimate D2E/DX2                !
 ! D31   D(27,2,13,4)          167.8584         estimate D2E/DX2                !
 ! D32   D(27,2,13,25)          47.7694         estimate D2E/DX2                !
 ! D33   D(27,2,13,26)         -68.2849         estimate D2E/DX2                !
 ! D34   D(9,3,8,10)            49.7942         estimate D2E/DX2                !
 ! D35   D(9,3,8,12)           -70.8472         estimate D2E/DX2                !
 ! D36   D(9,3,8,31)           169.4655         estimate D2E/DX2                !
 ! D37   D(16,3,8,10)          -70.0136         estimate D2E/DX2                !
 ! D38   D(16,3,8,12)          169.3449         estimate D2E/DX2                !
 ! D39   D(16,3,8,31)           49.6577         estimate D2E/DX2                !
 ! D40   D(30,3,8,10)          173.2714         estimate D2E/DX2                !
 ! D41   D(30,3,8,12)           52.6299         estimate D2E/DX2                !
 ! D42   D(30,3,8,31)          -67.0573         estimate D2E/DX2                !
 ! D43   D(8,3,9,5)            -50.7435         estimate D2E/DX2                !
 ! D44   D(8,3,9,21)            69.9606         estimate D2E/DX2                !
 ! D45   D(8,3,9,22)          -171.5573         estimate D2E/DX2                !
 ! D46   D(16,3,9,5)            68.1999         estimate D2E/DX2                !
 ! D47   D(16,3,9,21)         -171.0961         estimate D2E/DX2                !
 ! D48   D(16,3,9,22)          -52.6139         estimate D2E/DX2                !
 ! D49   D(30,3,9,5)          -173.3964         estimate D2E/DX2                !
 ! D50   D(30,3,9,21)          -52.6923         estimate D2E/DX2                !
 ! D51   D(30,3,9,22)           65.7899         estimate D2E/DX2                !
 ! D52   D(1,4,13,2)           -51.8764         estimate D2E/DX2                !
 ! D53   D(1,4,13,25)           66.9977         estimate D2E/DX2                !
 ! D54   D(1,4,13,26)         -174.1861         estimate D2E/DX2                !
 ! D55   D(17,4,13,2)         -173.5761         estimate D2E/DX2                !
 ! D56   D(17,4,13,25)         -54.702          estimate D2E/DX2                !
 ! D57   D(17,4,13,26)          64.1142         estimate D2E/DX2                !
 ! D58   D(18,4,13,2)           68.8803         estimate D2E/DX2                !
 ! D59   D(18,4,13,25)        -172.2456         estimate D2E/DX2                !
 ! D60   D(18,4,13,26)         -53.4295         estimate D2E/DX2                !
 ! D61   D(9,5,6,10)           -60.7285         estimate D2E/DX2                !
 ! D62   D(28,5,6,10)           61.2518         estimate D2E/DX2                !
 ! D63   D(29,5,6,10)          177.8304         estimate D2E/DX2                !
 ! D64   D(6,5,9,3)             55.1425         estimate D2E/DX2                !
 ! D65   D(6,5,9,21)           -66.2696         estimate D2E/DX2                !
 ! D66   D(6,5,9,22)           176.6397         estimate D2E/DX2                !
 ! D67   D(28,5,9,3)           -65.8842         estimate D2E/DX2                !
 ! D68   D(28,5,9,21)          172.7036         estimate D2E/DX2                !
 ! D69   D(28,5,9,22)           55.6129         estimate D2E/DX2                !
 ! D70   D(29,5,9,3)           173.5264         estimate D2E/DX2                !
 ! D71   D(29,5,9,21)           52.1143         estimate D2E/DX2                !
 ! D72   D(29,5,9,22)          -64.9765         estimate D2E/DX2                !
 ! D73   D(5,6,10,8)            60.0425         estimate D2E/DX2                !
 ! D74   D(5,6,10,23)          -61.3471         estimate D2E/DX2                !
 ! D75   D(5,6,10,24)         -178.7494         estimate D2E/DX2                !
 ! D76   D(1,7,11,2)            56.9694         estimate D2E/DX2                !
 ! D77   D(19,7,11,2)          -65.7057         estimate D2E/DX2                !
 ! D78   D(20,7,11,2)          178.1683         estimate D2E/DX2                !
 ! D79   D(3,8,10,6)           -53.6204         estimate D2E/DX2                !
 ! D80   D(3,8,10,23)           67.9106         estimate D2E/DX2                !
 ! D81   D(3,8,10,24)         -172.4729         estimate D2E/DX2                !
 ! D82   D(12,8,10,6)           66.8112         estimate D2E/DX2                !
 ! D83   D(12,8,10,23)        -171.6578         estimate D2E/DX2                !
 ! D84   D(12,8,10,24)         -52.0413         estimate D2E/DX2                !
 ! D85   D(31,8,10,6)         -173.9706         estimate D2E/DX2                !
 ! D86   D(31,8,10,23)         -52.4396         estimate D2E/DX2                !
 ! D87   D(31,8,10,24)          67.1769         estimate D2E/DX2                !
 ! D88   D(3,8,12,2)          -138.518          Frozen                          !
 ! D89   D(10,8,12,2)          100.3404         estimate D2E/DX2                !
 ! D90   D(31,8,12,2)          -18.5065         estimate D2E/DX2                !
 --------------------------------------------------------------------------------
 Trust Radius=3.00D-01 FncErr=1.00D-07 GrdErr=1.00D-06 EigMax=2.50D+02 EigMin=1.00D-04
 Number of steps in this run=    186 maximum allowed number of steps=    186.
 GradGradGradGradGradGradGradGradGradGradGradGradGradGradGradGradGradGrad

                          Input orientation:                          
 ---------------------------------------------------------------------
 Center     Atomic      Atomic             Coordinates (Angstroms)
 Number     Number       Type             X           Y           Z
 ---------------------------------------------------------------------
      1          6           0        3.397562    0.585143    0.591137
      2          6           0        1.147286   -0.731079   -0.665122
      3          6           0       -1.683840    1.431888   -0.316593
      4          6           0        2.668955   -0.528117    1.343680
      5          6           0       -3.425758    0.013415    0.787775
      6          8           0       -2.753599   -1.143085    0.322450
      7          6           0        2.452393    1.260611   -0.388086
      8          6           0       -1.071541    0.146500   -0.864242
      9          6           0       -2.454911    1.168366    0.979016
     10          6           0       -2.117193   -0.956465   -0.923767
     11          8           0        1.857766    0.318103   -1.271651
     12          8           0        0.001669   -0.257854   -0.022538
     13          6           0        2.007887   -1.476859    0.342842
     14          1           0        4.241738    0.169700    0.045536
     15          1           0        3.788189    1.330906    1.277681
     16          1           0       -2.366060    1.822579   -1.067736
     17          1           0        3.360446   -1.080773    1.972247
     18          1           0        1.919135   -0.095627    2.000712
     19          1           0        1.673866    1.798575    0.141375
     20          1           0        2.974775    1.962766   -1.023093
     21          1           0       -1.768285    0.927755    1.785424
     22          1           0       -3.006953    2.054684    1.278140
     23          1           0       -2.859697   -0.708541   -1.678829
     24          1           0       -1.661935   -1.901876   -1.185207
     25          1           0        2.775972   -2.005280   -0.215298
     26          1           0        1.397385   -2.221494    0.842062
     27          1           0        0.863337   -1.380947   -1.481419
     28          1           0       -4.202715    0.281247    0.074695
     29          1           0       -3.899845   -0.263962    1.719388
     30          1           0       -0.907032    2.173753   -0.167015
     31          1           0       -0.694060    0.318800   -1.864579
 ---------------------------------------------------------------------
                    Distance matrix (angstroms):
                    1          2          3          4          5
     1  C    0.000000
     2  C    2.893850   0.000000
     3  C    5.230831   3.579829   0.000000
     4  C    1.528574   2.528232   5.054201   0.000000
     5  C    6.850054   4.855709   2.503192   6.143925   0.000000
     6  O    6.394978   4.044991   2.860637   5.552044   1.416269
     7  C    1.519368   2.397266   4.140395   2.499092   6.122974
     8  C    4.720531   2.394366   1.525468   4.395604   2.879099
     9  C    5.894238   4.391686   1.530554   5.409717   1.520865
    10  C    5.923176   3.282456   2.502136   5.313380   2.362707
    11  O    2.431514   1.404793   3.833487   2.866020   5.678882
    12  O    3.552370   1.396171   2.404711   3.008988   3.532343
    13  C    2.498940   1.520794   4.746000   1.529313   5.651847
    14  H    1.087615   3.300314   6.069327   2.155405   7.704923
    15  H    1.086322   3.873065   5.700439   2.170946   7.349614
    16  H    6.123924   4.361980   1.087327   6.057398   2.799813
    17  H    2.164282   3.460647   6.082522   1.085673   6.975155
    18  H    2.153160   2.847143   4.548036   1.086724   5.481878
    19  H    2.155419   2.706820   3.408575   2.801649   5.441580
    20  H    2.163870   3.274853   4.741695   3.449585   6.931525
    21  H    5.313161   4.154210   2.163274   4.690821   2.139752
    22  H    6.606764   5.366046   2.163718   6.236272   2.140709
    23  H    6.780830   4.133282   2.796384   6.303500   2.631688
    24  H    5.910937   3.087552   3.445135   5.199913   3.266813
    25  H    2.783344   2.116258   5.631546   2.150320   6.598692
    26  H    3.455558   2.134359   4.917685   2.176244   5.316058
    27  H    3.818808   1.081340   3.969505   3.459590   5.048745
    28  H    7.623862   5.494965   2.796750   7.034575   1.088062
    29  H    7.432771   5.601573   3.454244   6.584836   1.081480
    30  H    4.650592   3.592545   1.084513   4.729692   3.452921
    31  H    4.779419   2.435467   2.148230   4.724412   3.819740
                    6          7          8          9         10
     6  O    0.000000
     7  C    5.777973   0.000000
     8  C    2.429112   3.726403   0.000000
     9  C    2.421384   5.095008   2.521016   0.000000
    10  C    1.411700   5.107200   1.521007   2.872202   0.000000
    11  O    5.093223   1.422178   2.962477   4.938384   4.188776
    12  O    2.914473   2.906099   1.422585   3.011976   2.406210
    13  C    4.773214   2.868028   3.684457   5.226710   4.346423
    14  H    7.122838   2.140063   5.390656   6.834751   6.530222
    15  H    7.058901   2.136369   5.441289   6.252353   6.704623
    16  H    3.298176   4.898492   2.127541   2.150601   2.793877
    17  H    6.333029   3.446420   5.403182   6.313756   6.197328
    18  H    5.074266   2.798232   4.148582   4.666243   5.058217
    19  H    5.318703   1.084361   3.358255   4.259766   4.805924
    20  H    6.653651   1.081267   4.438100   5.841319   5.870257
    21  H    2.720205   4.759103   2.848954   1.086114   3.318394
    22  H    3.347127   5.762926   3.460749   1.086179   3.834982
    23  H    2.050659   5.810497   2.142930   3.278837   1.087611
    24  H    2.010105   5.250183   2.155789   3.839148   1.081394
    25  H    5.622162   3.286427   4.455855   6.233823   5.054207
    26  H    4.320142   3.840750   3.822887   5.133234   4.131671
    27  H    4.048796   3.270826   2.541211   4.854226   3.061816
    28  H    2.046959   6.742684   3.271698   2.158610   2.622644
    29  H    2.009521   6.864160   3.852652   2.165075   3.262465
    30  H    3.827636   3.488329   2.150103   2.172584   3.440266
    31  H    3.340944   3.601001   1.082984   3.450854   2.129961
                   11         12         13         14         15
    11  O    0.000000
    12  O    2.310218   0.000000
    13  C    2.418887   2.375792   0.000000
    14  H    2.727696   4.262115   2.790992   0.000000
    15  H    3.354310   4.307257   3.453541   1.752794   0.000000
    16  H    4.488400   3.320660   5.657511   6.901766   6.604355
    17  H    3.838981   3.992211   2.154359   2.460198   2.545895
    18  H    3.298984   2.792227   2.159679   3.047556   2.459905
    19  H    2.054814   2.655562   3.298580   3.042431   2.445459
    20  H    2.003598   3.843387   3.825137   2.441772   2.520804
    21  H    4.781802   2.794125   4.703476   6.302558   5.594170
    22  H    5.760437   4.011409   6.204450   7.590520   6.833580
    23  H    4.845023   3.336740   5.326428   7.360375   7.556102
    24  H    4.162220   2.611931   3.997895   6.376481   6.798570
    25  H    2.712396   3.284419   1.086602   2.635724   3.792586
    26  H    3.336058   2.559578   1.084626   3.800343   4.304097
    27  H    1.979814   2.032767   2.155718   4.018668   4.849901
    28  H    6.208336   4.239921   6.460218   8.445240   8.148835
    29  H    6.514230   4.272722   6.186057   8.323173   7.864132
    30  H    3.508243   2.599870   4.699327   5.529126   4.984239
    31  H    2.619805   2.051751   3.923980   5.294608   5.566751
                   16         17         18         19         20
    16  H    0.000000
    17  H    7.103789   0.000000
    18  H    5.608724   1.746053   0.000000
    19  H    4.217052   3.806217   2.665575   0.000000
    20  H    5.342861   4.287649   3.807198   1.753656   0.000000
    21  H    3.049355   5.511168   3.832848   3.912752   5.608532
    22  H    2.442898   7.131385   5.423310   4.823680   6.409773
    23  H    2.650223   7.222125   6.062336   5.491081   6.450344
    24  H    3.792250   5.988993   5.122175   5.155650   6.038279
    25  H    6.466811   2.445747   3.048220   3.976326   4.054312
    26  H    5.845115   2.536173   2.476692   4.090032   4.845100
    27  H    4.567572   4.272408   3.859015   3.660571   3.981036
    28  H    2.655966   7.915631   6.428734   6.069673   7.453121
    29  H    3.804499   7.310468   5.828208   6.149019   7.729160
    30  H    1.750253   5.777521   4.223310   2.626194   3.980680
    31  H    2.385769   5.754916   4.684123   3.438119   4.107441
                   21         22         23         24         25
    21  H    0.000000
    22  H    1.749744   0.000000
    23  H    3.983678   4.049785   0.000000
    24  H    4.103994   4.850930   1.761347   0.000000
    25  H    5.766789   7.221903   5.965251   4.543835   0.000000
    26  H    4.563898   6.154190   5.173651   3.683940   1.750789
    27  H    4.788298   5.864970   3.788414   2.595401   2.377189
    28  H    3.044834   2.454222   2.420377   3.578958   7.349447
    29  H    2.442969   2.523505   3.581541   4.015928   7.165314
    30  H    2.471090   2.551924   3.795537   4.268178   5.570562
    31  H    3.853220   4.270767   2.404146   2.515896   4.490278
                   26         27         28         29         30
    26  H    0.000000
    27  H    2.527902   0.000000
    28  H    6.181722   5.554211   0.000000
    29  H    5.715092   5.846428   1.758976   0.000000
    30  H    5.064264   4.183032   3.808087   4.296266   0.000000
    31  H    4.260650   2.336972   4.009096   4.843706   2.523476
                   31
    31  H    0.000000
 Stoichiometry    C10H18O3
 Framework group  C1[X(C10H18O3)]
 Deg. of freedom    87
 Full point group                 C1      NOp   1
 Largest Abelian subgroup         C1      NOp   1
 Largest concise Abelian subgroup C1      NOp   1
                         Standard orientation:                         
 ---------------------------------------------------------------------
 Center     Atomic      Atomic             Coordinates (Angstroms)
 Number     Number       Type             X           Y           Z
 ---------------------------------------------------------------------
      1          6           0        3.397562    0.585143    0.591137
      2          6           0        1.147286   -0.731079   -0.665122
      3          6           0       -1.683840    1.431888   -0.316593
      4          6           0        2.668955   -0.528117    1.343680
      5          6           0       -3.425758    0.013415    0.787775
      6          8           0       -2.753599   -1.143085    0.322450
      7          6           0        2.452393    1.260611   -0.388086
      8          6           0       -1.071541    0.146500   -0.864242
      9          6           0       -2.454911    1.168366    0.979016
     10          6           0       -2.117193   -0.956465   -0.923767
     11          8           0        1.857766    0.318103   -1.271651
     12          8           0        0.001669   -0.257854   -0.022538
     13          6           0        2.007887   -1.476859    0.342842
     14          1           0        4.241738    0.169700    0.045536
     15          1           0        3.788189    1.330906    1.277681
     16          1           0       -2.366060    1.822579   -1.067736
     17          1           0        3.360446   -1.080773    1.972247
     18          1           0        1.919135   -0.095627    2.000712
     19          1           0        1.673866    1.798575    0.141375
     20          1           0        2.974775    1.962766   -1.023093
     21          1           0       -1.768285    0.927755    1.785424
     22          1           0       -3.006953    2.054684    1.278140
     23          1           0       -2.859697   -0.708541   -1.678829
     24          1           0       -1.661935   -1.901876   -1.185207
     25          1           0        2.775972   -2.005280   -0.215298
     26          1           0        1.397385   -2.221494    0.842062
     27          1           0        0.863337   -1.380947   -1.481419
     28          1           0       -4.202715    0.281247    0.074695
     29          1           0       -3.899845   -0.263962    1.719388
     30          1           0       -0.907032    2.173753   -0.167015
     31          1           0       -0.694060    0.318800   -1.864579
 ---------------------------------------------------------------------
 Rotational constants (GHZ):           1.6564677           0.4526657           0.4361678
 Standard basis: 6-311++G(2d,2p) (5D, 7F)
 There are   557 symmetry adapted cartesian basis functions of A   symmetry.
 There are   531 symmetry adapted basis functions of A   symmetry.
   531 basis functions,   762 primitive gaussians,   557 cartesian basis functions
    51 alpha electrons       51 beta electrons
       nuclear repulsion energy       904.2735913541 Hartrees.
 NAtoms=   31 NActive=   31 NUniq=   31 SFac= 1.00D+00 NAtFMM=   60 NAOKFM=F Big=F
 Integral buffers will be    131072 words long.
 Raffenetti 2 integral format.
 Two-electron integral symmetry is turned on.
 ------------------------------------------------------------------------------
 Polarizable Continuum Model (PCM)
 =================================
 Model                : PCM.
 Atomic radii         : UFF (Universal Force Field).
 Polarization charges : Total charges.
 Charge compensation  : None.
 Solution method      : On-the-fly selection.
 Cavity type          : Scaled VdW (van der Waals Surface) (Alpha=1.100).
 Cavity algorithm     : GePol (No added spheres)
                        Default sphere list used, NSphG=   31.
                        Lebedev-Laikov grids with approx.  5.0 points / Ang**2.
                        Smoothing algorithm: York/Karplus (Gamma=1.0000).
                        Polarization charges: spherical gaussians, with
                                              point-specific exponents (IZeta= 3).
                        Self-potential: point-specific (ISelfS= 7).
                        Self-field    : sphere-specific E.n sum rule (ISelfD= 2).
 1st derivatives      : Analytical E(r).r(x)/FMM algorithm (CHGder, D1EAlg=3).
                        Cavity 1st derivative terms included.
 Solvent              : Water, Eps=  78.355300 Eps(inf)=   1.777849
 ------------------------------------------------------------------------------
 One-electron integrals computed using PRISM.
 NBasis=   531 RedAO= T EigKep=  4.81D-06  NBF=   531
 NBsUse=   531 1.00D-06 EigRej= -1.00D+00 NBFU=   531
 ExpMin= 3.60D-02 ExpMax= 8.59D+03 ExpMxC= 1.30D+03 IAcc=3 IRadAn=         5 AccDes= 0.00D+00
 Harris functional with IExCor= 1009 and IRadAn=       5 diagonalized for initial guess.
 HarFok:  IExCor= 1009 AccDes= 0.00D+00 IRadAn=         5 IDoV= 1 UseB2=F ITyADJ=14
 ICtDFT=  3500011 ScaDFX=  1.000000  1.000000  1.000000  1.000000
 FoFCou: FMM=F IPFlag=           0 FMFlag=      100000 FMFlg1=           0
         NFxFlg=           0 DoJE=T BraDBF=F KetDBF=T FulRan=T
         wScrn=  0.000000 ICntrl=       500 IOpCl=  0 I1Cent=   200000004 NGrid=           0
         NMat0=    1 NMatS0=      1 NMatT0=    0 NMatD0=    1 NMtDS0=    0 NMtDT0=    0
 Petite list used in FoFCou.
 Requested convergence on RMS density matrix=1.00D-08 within 128 cycles.
 Requested convergence on MAX density matrix=1.00D-06.
 Requested convergence on             energy=1.00D-06.
 No special actions if energy rises.
 Inv3:  Mode=1 IEnd=    12842283.
 Iteration    1 A*A^-1 deviation from unit magnitude is 3.77D-15 for   2064.
 Iteration    1 A*A^-1 deviation from orthogonality  is 2.10D-15 for   2027    903.
 Iteration    1 A^-1*A deviation from unit magnitude is 3.77D-15 for   2064.
 Iteration    1 A^-1*A deviation from orthogonality  is 2.04D-14 for   2055   2001.
 Error on total polarization charges =  0.01470
 SCF Done:  E(RM062X) =  -617.502236591     A.U. after   13 cycles
            NFock= 13  Conv=0.21D-08     -V/T= 2.0035

 **********************************************************************

            Population analysis using the SCF density.

 **********************************************************************

 Orbital symmetries:
       Occupied  (A) (A) (A) (A) (A) (A) (A) (A) (A) (A) (A) (A)
                 (A) (A) (A) (A) (A) (A) (A) (A) (A) (A) (A) (A)
                 (A) (A) (A) (A) (A) (A) (A) (A) (A) (A) (A) (A)
                 (A) (A) (A) (A) (A) (A) (A) (A) (A) (A) (A) (A)
                 (A) (A) (A)
       Virtual   (A) (A) (A) (A) (A) (A) (A) (A) (A) (A) (A) (A)
                 (A) (A) (A) (A) (A) (A) (A) (A) (A) (A) (A) (A)
                 (A) (A) (A) (A) (A) (A) (A) (A) (A) (A) (A) (A)
                 (A) (A) (A) (A) (A) (A) (A) (A) (A) (A) (A) (A)
                 (A) (A) (A) (A) (A) (A) (A) (A) (A) (A) (A) (A)
                 (A) (A) (A) (A) (A) (A) (A) (A) (A) (A) (A) (A)
                 (A) (A) (A) (A) (A) (A) (A) (A) (A) (A) (A) (A)
                 (A) (A) (A) (A) (A) (A) (A) (A) (A) (A) (A) (A)
                 (A) (A) (A) (A) (A) (A) (A) (A) (A) (A) (A) (A)
                 (A) (A) (A) (A) (A) (A) (A) (A) (A) (A) (A) (A)
                 (A) (A) (A) (A) (A) (A) (A) (A) (A) (A) (A) (A)
                 (A) (A) (A) (A) (A) (A) (A) (A) (A) (A) (A) (A)
                 (A) (A) (A) (A) (A) (A) (A) (A) (A) (A) (A) (A)
                 (A) (A) (A) (A) (A) (A) (A) (A) (A) (A) (A) (A)
                 (A) (A) (A) (A) (A) (A) (A) (A) (A) (A) (A) (A)
                 (A) (A) (A) (A) (A) (A) (A) (A) (A) (A) (A) (A)
                 (A) (A) (A) (A) (A) (A) (A) (A) (A) (A) (A) (A)
                 (A) (A) (A) (A) (A) (A) (A) (A) (A) (A) (A) (A)
                 (A) (A) (A) (A) (A) (A) (A) (A) (A) (A) (A) (A)
                 (A) (A) (A) (A) (A) (A) (A) (A) (A) (A) (A) (A)
                 (A) (A) (A) (A) (A) (A) (A) (A) (A) (A) (A) (A)
                 (A) (A) (A) (A) (A) (A) (A) (A) (A) (A) (A) (A)
                 (A) (A) (A) (A) (A) (A) (A) (A) (A) (A) (A) (A)
                 (A) (A) (A) (A) (A) (A) (A) (A) (A) (A) (A) (A)
                 (A) (A) (A) (A) (A) (A) (A) (A) (A) (A) (A) (A)
                 (A) (A) (A) (A) (A) (A) (A) (A) (A) (A) (A) (A)
                 (A) (A) (A) (A) (A) (A) (A) (A) (A) (A) (A) (A)
                 (A) (A) (A) (A) (A) (A) (A) (A) (A) (A) (A) (A)
                 (A) (A) (A) (A) (A) (A) (A) (A) (A) (A) (A) (A)
                 (A) (A) (A) (A) (A) (A) (A) (A) (A) (A) (A) (A)
                 (A) (A) (A) (A) (A) (A) (A) (A) (A) (A) (A) (A)
                 (A) (A) (A) (A) (A) (A) (A) (A) (A) (A) (A) (A)
                 (A) (A) (A) (A) (A) (A) (A) (A) (A) (A) (A) (A)
                 (A) (A) (A) (A) (A) (A) (A) (A) (A) (A) (A) (A)
                 (A) (A) (A) (A) (A) (A) (A) (A) (A) (A) (A) (A)
                 (A) (A) (A) (A) (A) (A) (A) (A) (A) (A) (A) (A)
                 (A) (A) (A) (A) (A) (A) (A) (A) (A) (A) (A) (A)
                 (A) (A) (A) (A) (A) (A) (A) (A) (A) (A) (A) (A)
                 (A) (A) (A) (A) (A) (A) (A) (A) (A) (A) (A) (A)
                 (A) (A) (A) (A) (A) (A) (A) (A) (A) (A) (A) (A)
 The electronic state is 1-A.
 Alpha  occ. eigenvalues --  -19.62729 -19.62679 -19.62631 -10.63340 -10.58615
 Alpha  occ. eigenvalues --  -10.57813 -10.57711 -10.57585 -10.53180 -10.52958
 Alpha  occ. eigenvalues --  -10.52918 -10.52823 -10.52735  -1.20154  -1.16524
 Alpha  occ. eigenvalues --   -1.13290  -0.90937  -0.89689  -0.87256  -0.84785
 Alpha  occ. eigenvalues --   -0.74556  -0.74130  -0.73163  -0.71748  -0.66356
 Alpha  occ. eigenvalues --   -0.62850  -0.59537  -0.58223  -0.58034  -0.55866
 Alpha  occ. eigenvalues --   -0.54406  -0.53299  -0.51960  -0.51235  -0.50199
 Alpha  occ. eigenvalues --   -0.48348  -0.46821  -0.46117  -0.45604  -0.45008
 Alpha  occ. eigenvalues --   -0.43720  -0.42993  -0.41198  -0.40168  -0.38871
 Alpha  occ. eigenvalues --   -0.38522  -0.37314  -0.36243  -0.35124  -0.33349
 Alpha  occ. eigenvalues --   -0.31633
 Alpha virt. eigenvalues --   -0.00160   0.00824   0.00841   0.01079   0.02229
 Alpha virt. eigenvalues --    0.02541   0.02696   0.03236   0.03310   0.04615
 Alpha virt. eigenvalues --    0.04834   0.04909   0.05280   0.05889   0.07110
 Alpha virt. eigenvalues --    0.07629   0.07728   0.08215   0.09170   0.09616
 Alpha virt. eigenvalues --    0.09930   0.10443   0.10918   0.11399   0.11969
 Alpha virt. eigenvalues --    0.12192   0.12664   0.13116   0.13443   0.13510
 Alpha virt. eigenvalues --    0.13591   0.13850   0.14334   0.14687   0.14795
 Alpha virt. eigenvalues --    0.15416   0.15526   0.15581   0.15763   0.16235
 Alpha virt. eigenvalues --    0.16625   0.16876   0.16975   0.17681   0.17757
 Alpha virt. eigenvalues --    0.18319   0.18439   0.18589   0.18841   0.19244
 Alpha virt. eigenvalues --    0.19841   0.20314   0.20761   0.20904   0.21391
 Alpha virt. eigenvalues --    0.21798   0.22426   0.23168   0.23661   0.24117
 Alpha virt. eigenvalues --    0.24287   0.25787   0.26270   0.26639   0.27043
 Alpha virt. eigenvalues --    0.27333   0.27777   0.28501   0.28762   0.29204
 Alpha virt. eigenvalues --    0.29416   0.30609   0.30913   0.31433   0.31844
 Alpha virt. eigenvalues --    0.32568   0.33318   0.33728   0.34019   0.34896
 Alpha virt. eigenvalues --    0.35012   0.35316   0.35680   0.35972   0.36263
 Alpha virt. eigenvalues --    0.36924   0.37080   0.37247   0.37922   0.38269
 Alpha virt. eigenvalues --    0.38745   0.39113   0.39360   0.39975   0.40332
 Alpha virt. eigenvalues --    0.41160   0.41697   0.43542   0.44422   0.45554
 Alpha virt. eigenvalues --    0.47131   0.48061   0.49716   0.50126   0.50830
 Alpha virt. eigenvalues --    0.51901   0.52339   0.53220   0.54160   0.55144
 Alpha virt. eigenvalues --    0.56976   0.57598   0.57940   0.58949   0.59991
 Alpha virt. eigenvalues --    0.60231   0.60763   0.61409   0.61659   0.61939
 Alpha virt. eigenvalues --    0.62710   0.63141   0.63534   0.64245   0.64816
 Alpha virt. eigenvalues --    0.64926   0.65082   0.65979   0.66509   0.66723
 Alpha virt. eigenvalues --    0.67667   0.68533   0.68702   0.69166   0.69888
 Alpha virt. eigenvalues --    0.70250   0.70958   0.71814   0.72848   0.73201
 Alpha virt. eigenvalues --    0.73491   0.74563   0.74897   0.75098   0.75710
 Alpha virt. eigenvalues --    0.76659   0.77117   0.78264   0.78689   0.79594
 Alpha virt. eigenvalues --    0.81023   0.81729   0.82815   0.85919   0.86227
 Alpha virt. eigenvalues --    0.86321   0.87349   0.87832   0.88129   0.89805
 Alpha virt. eigenvalues --    0.91114   0.92337   0.92602   0.95052   0.96938
 Alpha virt. eigenvalues --    0.97362   0.98204   0.99656   1.00191   1.01597
 Alpha virt. eigenvalues --    1.02851   1.03920   1.04868   1.04954   1.06835
 Alpha virt. eigenvalues --    1.07689   1.09388   1.10908   1.11485   1.11893
 Alpha virt. eigenvalues --    1.12634   1.14734   1.15191   1.15966   1.16857
 Alpha virt. eigenvalues --    1.17896   1.18425   1.19331   1.20238   1.20695
 Alpha virt. eigenvalues --    1.21881   1.23222   1.23596   1.23848   1.24617
 Alpha virt. eigenvalues --    1.24991   1.26278   1.26847   1.27463   1.27596
 Alpha virt. eigenvalues --    1.28361   1.29877   1.30419   1.31660   1.31787
 Alpha virt. eigenvalues --    1.32362   1.33010   1.33408   1.34005   1.35295
 Alpha virt. eigenvalues --    1.35823   1.36625   1.36820   1.37023   1.37587
 Alpha virt. eigenvalues --    1.38819   1.40169   1.40540   1.40687   1.40979
 Alpha virt. eigenvalues --    1.41379   1.42248   1.43887   1.44223   1.45333
 Alpha virt. eigenvalues --    1.45761   1.46858   1.46923   1.47497   1.48471
 Alpha virt. eigenvalues --    1.48824   1.49632   1.50415   1.51067   1.52042
 Alpha virt. eigenvalues --    1.53112   1.53558   1.54601   1.55250   1.55785
 Alpha virt. eigenvalues --    1.56012   1.56491   1.57257   1.57835   1.58695
 Alpha virt. eigenvalues --    1.59256   1.60004   1.60985   1.61323   1.62666
 Alpha virt. eigenvalues --    1.63046   1.63785   1.65015   1.66088   1.66297
 Alpha virt. eigenvalues --    1.66935   1.68085   1.69063   1.71845   1.72715
 Alpha virt. eigenvalues --    1.74000   1.75026   1.75307   1.76379   1.78474
 Alpha virt. eigenvalues --    1.78980   1.80310   1.80896   1.81346   1.82980
 Alpha virt. eigenvalues --    1.84652   1.89994   1.92978   1.99303   2.00346
 Alpha virt. eigenvalues --    2.03577   2.06967   2.12497   2.19454   2.21262
 Alpha virt. eigenvalues --    2.24454   2.26732   2.32547   2.33576   2.41805
 Alpha virt. eigenvalues --    2.41860   2.42792   2.44685   2.45664   2.50415
 Alpha virt. eigenvalues --    2.60423   2.75533   2.77319   2.80389   2.80547
 Alpha virt. eigenvalues --    2.81683   2.87227   2.91643   2.92669   2.93186
 Alpha virt. eigenvalues --    2.96378   2.97079   2.98012   3.00270   3.03554
 Alpha virt. eigenvalues --    3.06557   3.06943   3.09012   3.09597   3.11207
 Alpha virt. eigenvalues --    3.13363   3.13747   3.16846   3.19067   3.22539
 Alpha virt. eigenvalues --    3.27179   3.30124   3.31428   3.33309   3.34286
 Alpha virt. eigenvalues --    3.35460   3.35868   3.37485   3.39705   3.41159
 Alpha virt. eigenvalues --    3.43897   3.44487   3.45416   3.46353   3.47302
 Alpha virt. eigenvalues --    3.47959   3.48208   3.50483   3.51801   3.52366
 Alpha virt. eigenvalues --    3.53183   3.54024   3.54462   3.55447   3.55985
 Alpha virt. eigenvalues --    3.56923   3.57699   3.58196   3.59173   3.60065
 Alpha virt. eigenvalues --    3.60719   3.61576   3.63609   3.64239   3.65696
 Alpha virt. eigenvalues --    3.66644   3.66929   3.67284   3.68659   3.69451
 Alpha virt. eigenvalues --    3.70304   3.71085   3.71648   3.72461   3.74075
 Alpha virt. eigenvalues --    3.74323   3.75156   3.75599   3.77038   3.78073
 Alpha virt. eigenvalues --    3.78562   3.79547   3.82114   3.82753   3.84344
 Alpha virt. eigenvalues --    3.85747   3.89020   3.89684   3.90923   3.92469
 Alpha virt. eigenvalues --    3.93171   3.94396   3.94784   3.97013   3.97493
 Alpha virt. eigenvalues --    3.98984   4.01130   4.02119   4.02769   4.04190
 Alpha virt. eigenvalues --    4.05410   4.05916   4.06554   4.06972   4.07629
 Alpha virt. eigenvalues --    4.08544   4.08766   4.09803   4.10083   4.10151
 Alpha virt. eigenvalues --    4.12034   4.12550   4.13856   4.14760   4.15201
 Alpha virt. eigenvalues --    4.15920   4.17488   4.17956   4.19687   4.20458
 Alpha virt. eigenvalues --    4.22114   4.22342   4.25252   4.26363   4.27179
 Alpha virt. eigenvalues --    4.27960   4.30020   4.30387   4.31561   4.32578
 Alpha virt. eigenvalues --    4.32678   4.33774   4.34164   4.34519   4.38303
 Alpha virt. eigenvalues --    4.39271   4.42449   4.45085   4.45702   4.47098
 Alpha virt. eigenvalues --    4.57985   4.62705   4.73932   4.75404   4.82195
 Alpha virt. eigenvalues --    4.85234   4.93793   4.95909   5.00605   5.04492
 Alpha virt. eigenvalues --    5.06339   5.07590   5.08144   5.08484   5.10722
 Alpha virt. eigenvalues --    5.12461   5.13712   5.14335   5.32504   5.37543
 Alpha virt. eigenvalues --    5.44285   5.57879   5.59044   5.65927   5.86548
 Alpha virt. eigenvalues --    5.87309   6.07645   7.04492   7.05059   7.06627
 Alpha virt. eigenvalues --    7.09031   7.10403   7.12590   7.14722   7.19649
 Alpha virt. eigenvalues --    7.27549   7.36120   7.38280   7.44160   7.53271
 Alpha virt. eigenvalues --    7.55813   7.67466  23.95346  23.98517  24.06392
 Alpha virt. eigenvalues --   24.07651  24.10919  24.11889  24.13959  24.16002
 Alpha virt. eigenvalues --   24.17002  24.21086  50.15561  50.19061  50.27439
          Condensed to atoms (all electrons):
               1          2          3          4          5          6
     1  C    5.662890   0.173137  -0.004058   0.006060  -0.000510  -0.000455
     2  C    0.173137   7.134123   0.076921  -0.045771   0.017130  -0.012439
     3  C   -0.004058   0.076921   7.572427   0.015319  -0.307052  -0.018548
     4  C    0.006060  -0.045771   0.015319   5.650263   0.002924   0.000075
     5  C   -0.000510   0.017130  -0.307052   0.002924   5.504577   0.112045
     6  O   -0.000455  -0.012439  -0.018548   0.000075   0.112045   8.292633
     7  C   -0.047411  -0.457788  -0.019513   0.000263  -0.005043   0.001101
     8  C    0.074188  -0.975064  -1.551951  -0.011022   0.376125   0.033461
     9  C   -0.013027   0.120632  -0.135017  -0.015494   0.069786   0.003548
    10  C   -0.007870   0.119942   0.219248   0.023632  -0.251020   0.109803
    11  O   -0.072431   0.343252  -0.087968  -0.007938   0.002105  -0.000538
    12  O   -0.014646   0.225153  -0.010328  -0.008321  -0.013369   0.028633
    13  C   -0.122876  -0.888756  -0.305976  -0.124851   0.010383   0.009099
    14  H    0.480629   0.012161  -0.001708  -0.021579  -0.000012  -0.000005
    15  H    0.448605   0.001431   0.006453  -0.039980  -0.000378   0.000011
    16  H    0.000634   0.008998   0.469037   0.000329  -0.012668   0.001566
    17  H   -0.022341   0.019089  -0.000810   0.433045   0.000168  -0.000039
    18  H   -0.079306   0.003672  -0.000282   0.523439   0.001710   0.000166
    19  H   -0.083081   0.005726  -0.027472  -0.005650   0.005900  -0.000306
    20  H   -0.017258  -0.009937   0.000196   0.007521  -0.000159   0.000030
    21  H    0.003396  -0.009708   0.017166   0.001481  -0.107128  -0.012061
    22  H   -0.000303   0.007353  -0.034432  -0.000907  -0.028429   0.009673
    23  H   -0.000174  -0.004313  -0.039298   0.000865  -0.006975  -0.052799
    24  H    0.000770   0.011092   0.001619  -0.005021   0.008349  -0.082939
    25  H   -0.020119  -0.160931  -0.005816  -0.015678   0.000263   0.000001
    26  H   -0.002948  -0.006017   0.008944  -0.044168  -0.001069  -0.000812
    27  H    0.013602   0.483393   0.037807   0.014222   0.000203   0.001583
    28  H   -0.000019  -0.002688  -0.014666   0.000157   0.443313  -0.063560
    29  H   -0.000315   0.003093  -0.001129  -0.000482   0.452434  -0.064357
    30  H    0.005481  -0.014325   0.422192   0.002576  -0.021061  -0.002598
    31  H    0.001039  -0.045502   0.050801  -0.004470  -0.016904   0.007722
               7          8          9         10         11         12
     1  C   -0.047411   0.074188  -0.013027  -0.007870  -0.072431  -0.014646
     2  C   -0.457788  -0.975064   0.120632   0.119942   0.343252   0.225153
     3  C   -0.019513  -1.551951  -0.135017   0.219248  -0.087968  -0.010328
     4  C    0.000263  -0.011022  -0.015494   0.023632  -0.007938  -0.008321
     5  C   -0.005043   0.376125   0.069786  -0.251020   0.002105  -0.013369
     6  O    0.001101   0.033461   0.003548   0.109803  -0.000538   0.028633
     7  C    5.458718   0.069053   0.027097  -0.003598   0.126442   0.005091
     8  C    0.069053   8.513397  -0.359534  -0.635650   0.060361  -0.060989
     9  C    0.027097  -0.359534   5.652100   0.147176  -0.005553  -0.005107
    10  C   -0.003598  -0.635650   0.147176   5.919882   0.008591  -0.101232
    11  O    0.126442   0.060361  -0.005553   0.008591   8.177388  -0.037874
    12  O    0.005091  -0.060989  -0.005107  -0.101232  -0.037874   8.284966
    13  C    0.181926   0.241526   0.020003  -0.012495  -0.060892  -0.065742
    14  H   -0.083135  -0.006387   0.000299   0.000369  -0.002900  -0.000913
    15  H   -0.042153  -0.000948  -0.000527   0.000016   0.010344   0.001045
    16  H   -0.003474  -0.055706  -0.036651  -0.001104  -0.000008   0.007380
    17  H    0.010533   0.005699  -0.001670   0.000661  -0.004851   0.001212
    18  H    0.004534  -0.012492   0.002240  -0.002611   0.002393  -0.004845
    19  H    0.481465  -0.011914   0.002614   0.003927  -0.033152   0.009160
    20  H    0.431485   0.005949   0.000402   0.000254  -0.068933   0.000987
    21  H   -0.002061  -0.031516   0.494804   0.012822   0.000065   0.002470
    22  H    0.000757  -0.026727   0.446251   0.001316  -0.000781   0.001743
    23  H    0.001369  -0.079927   0.034896   0.474438   0.000737   0.016269
    24  H    0.001988  -0.009520   0.002328   0.410800  -0.000695  -0.011688
    25  H    0.015619   0.010738   0.000024  -0.002730  -0.007370   0.009449
    26  H    0.005679  -0.010152   0.000806  -0.005123   0.008913  -0.002749
    27  H   -0.023032   0.002389  -0.006112   0.005872  -0.054017  -0.027453
    28  H    0.000304   0.008714  -0.008992  -0.024157   0.000041   0.002058
    29  H    0.000198   0.015320  -0.063720  -0.000565  -0.000031   0.000685
    30  H   -0.001981  -0.027600  -0.011477   0.005209   0.001225   0.002151
    31  H    0.004054   0.424630  -0.021039  -0.037564  -0.009454  -0.010102
              13         14         15         16         17         18
     1  C   -0.122876   0.480629   0.448605   0.000634  -0.022341  -0.079306
     2  C   -0.888756   0.012161   0.001431   0.008998   0.019089   0.003672
     3  C   -0.305976  -0.001708   0.006453   0.469037  -0.000810  -0.000282
     4  C   -0.124851  -0.021579  -0.039980   0.000329   0.433045   0.523439
     5  C    0.010383  -0.000012  -0.000378  -0.012668   0.000168   0.001710
     6  O    0.009099  -0.000005   0.000011   0.001566  -0.000039   0.000166
     7  C    0.181926  -0.083135  -0.042153  -0.003474   0.010533   0.004534
     8  C    0.241526  -0.006387  -0.000948  -0.055706   0.005699  -0.012492
     9  C    0.020003   0.000299  -0.000527  -0.036651  -0.001670   0.002240
    10  C   -0.012495   0.000369   0.000016  -0.001104   0.000661  -0.002611
    11  O   -0.060892  -0.002900   0.010344  -0.000008  -0.004851   0.002393
    12  O   -0.065742  -0.000913   0.001045   0.007380   0.001212  -0.004845
    13  C    6.720162  -0.009996  -0.010456   0.003657  -0.062984  -0.061306
    14  H   -0.009996   0.485201  -0.012038   0.000062  -0.002808   0.001897
    15  H   -0.010456  -0.012038   0.488324  -0.000152  -0.006199  -0.005048
    16  H    0.003657   0.000062  -0.000152   0.435809   0.000044  -0.000131
    17  H   -0.062984  -0.002808  -0.006199   0.000044   0.465510  -0.008099
    18  H   -0.061306   0.001897  -0.005048  -0.000131  -0.008099   0.468613
    19  H    0.038139   0.004103  -0.003000   0.001772  -0.002777  -0.000489
    20  H    0.000153  -0.006280  -0.009393  -0.000278   0.001757  -0.002585
    21  H   -0.002871  -0.000020   0.000404   0.002598   0.000384  -0.004246
    22  H   -0.002227  -0.000003   0.000027  -0.007267  -0.000116   0.000342
    23  H    0.004371  -0.000045   0.000043  -0.006540   0.000069  -0.000026
    24  H    0.003689  -0.000070  -0.000066  -0.000889  -0.000312  -0.000207
    25  H    0.557618  -0.002326  -0.002586   0.000039  -0.002905   0.001879
    26  H    0.415594  -0.001338   0.001107  -0.000002  -0.008914  -0.000284
    27  H   -0.111757   0.000714   0.001753  -0.000089   0.002851  -0.002765
    28  H   -0.001697  -0.000002   0.000025  -0.006656  -0.000016  -0.000023
    29  H    0.002188   0.000006  -0.000044  -0.001429  -0.000014   0.000311
    30  H   -0.005484   0.000076   0.001120  -0.000013   0.000306   0.000517
    31  H   -0.016874  -0.000463   0.000285  -0.009528   0.000047  -0.000542
              19         20         21         22         23         24
     1  C   -0.083081  -0.017258   0.003396  -0.000303  -0.000174   0.000770
     2  C    0.005726  -0.009937  -0.009708   0.007353  -0.004313   0.011092
     3  C   -0.027472   0.000196   0.017166  -0.034432  -0.039298   0.001619
     4  C   -0.005650   0.007521   0.001481  -0.000907   0.000865  -0.005021
     5  C    0.005900  -0.000159  -0.107128  -0.028429  -0.006975   0.008349
     6  O   -0.000306   0.000030  -0.012061   0.009673  -0.052799  -0.082939
     7  C    0.481465   0.431485  -0.002061   0.000757   0.001369   0.001988
     8  C   -0.011914   0.005949  -0.031516  -0.026727  -0.079927  -0.009520
     9  C    0.002614   0.000402   0.494804   0.446251   0.034896   0.002328
    10  C    0.003927   0.000254   0.012822   0.001316   0.474438   0.410800
    11  O   -0.033152  -0.068933   0.000065  -0.000781   0.000737  -0.000695
    12  O    0.009160   0.000987   0.002470   0.001743   0.016269  -0.011688
    13  C    0.038139   0.000153  -0.002871  -0.002227   0.004371   0.003689
    14  H    0.004103  -0.006280  -0.000020  -0.000003  -0.000045  -0.000070
    15  H   -0.003000  -0.009393   0.000404   0.000027   0.000043  -0.000066
    16  H    0.001772  -0.000278   0.002598  -0.007267  -0.006540  -0.000889
    17  H   -0.002777   0.001757   0.000384  -0.000116   0.000069  -0.000312
    18  H   -0.000489  -0.002585  -0.004246   0.000342  -0.000026  -0.000207
    19  H    0.528845  -0.020153  -0.003698   0.000436  -0.000733   0.000162
    20  H   -0.020153   0.474559   0.000161   0.000033   0.000170   0.000026
    21  H   -0.003698   0.000161   0.487338  -0.014145  -0.000673  -0.001473
    22  H    0.000436   0.000033  -0.014145   0.485466   0.000263   0.001715
    23  H   -0.000733   0.000170  -0.000673   0.000263   0.482670  -0.010381
    24  H    0.000162   0.000026  -0.001473   0.001715  -0.010381   0.498298
    25  H   -0.000658   0.000434  -0.000055   0.000004  -0.000160   0.001552
    26  H   -0.000287   0.000930  -0.000181   0.000230  -0.000106  -0.000010
    27  H   -0.003027  -0.000143   0.001109  -0.000252   0.001329  -0.013802
    28  H   -0.000382   0.000024   0.000103   0.005941   0.007532  -0.002487
    29  H    0.000379  -0.000008  -0.005847  -0.008775  -0.001232   0.001348
    30  H   -0.010936   0.001616   0.005140  -0.012155   0.000997  -0.001052
    31  H   -0.001815  -0.000499   0.000436   0.000261  -0.005166  -0.006168
              25         26         27         28         29         30
     1  C   -0.020119  -0.002948   0.013602  -0.000019  -0.000315   0.005481
     2  C   -0.160931  -0.006017   0.483393  -0.002688   0.003093  -0.014325
     3  C   -0.005816   0.008944   0.037807  -0.014666  -0.001129   0.422192
     4  C   -0.015678  -0.044168   0.014222   0.000157  -0.000482   0.002576
     5  C    0.000263  -0.001069   0.000203   0.443313   0.452434  -0.021061
     6  O    0.000001  -0.000812   0.001583  -0.063560  -0.064357  -0.002598
     7  C    0.015619   0.005679  -0.023032   0.000304   0.000198  -0.001981
     8  C    0.010738  -0.010152   0.002389   0.008714   0.015320  -0.027600
     9  C    0.000024   0.000806  -0.006112  -0.008992  -0.063720  -0.011477
    10  C   -0.002730  -0.005123   0.005872  -0.024157  -0.000565   0.005209
    11  O   -0.007370   0.008913  -0.054017   0.000041  -0.000031   0.001225
    12  O    0.009449  -0.002749  -0.027453   0.002058   0.000685   0.002151
    13  C    0.557618   0.415594  -0.111757  -0.001697   0.002188  -0.005484
    14  H   -0.002326  -0.001338   0.000714  -0.000002   0.000006   0.000076
    15  H   -0.002586   0.001107   0.001753   0.000025  -0.000044   0.001120
    16  H    0.000039  -0.000002  -0.000089  -0.006656  -0.001429  -0.000013
    17  H   -0.002905  -0.008914   0.002851  -0.000016  -0.000014   0.000306
    18  H    0.001879  -0.000284  -0.002765  -0.000023   0.000311   0.000517
    19  H   -0.000658  -0.000287  -0.003027  -0.000382   0.000379  -0.010936
    20  H    0.000434   0.000930  -0.000143   0.000024  -0.000008   0.001616
    21  H   -0.000055  -0.000181   0.001109   0.000103  -0.005847   0.005140
    22  H    0.000004   0.000230  -0.000252   0.005941  -0.008775  -0.012155
    23  H   -0.000160  -0.000106   0.001329   0.007532  -0.001232   0.000997
    24  H    0.001552  -0.000010  -0.013802  -0.002487   0.001348  -0.001052
    25  H    0.451838  -0.003643  -0.016022  -0.000029   0.000024   0.000142
    26  H   -0.003643   0.474083  -0.007958   0.000065   0.000114  -0.000350
    27  H   -0.016022  -0.007958   0.454101  -0.000208  -0.000049   0.001115
    28  H   -0.000029   0.000065  -0.000208   0.499394  -0.005649   0.002382
    29  H    0.000024   0.000114  -0.000049  -0.005649   0.478835  -0.000710
    30  H    0.000142  -0.000350   0.001115   0.002382  -0.000710   0.498953
    31  H    0.000119  -0.000102   0.000182   0.002272  -0.000207  -0.003750
              31
     1  C    0.001039
     2  C   -0.045502
     3  C    0.050801
     4  C   -0.004470
     5  C   -0.016904
     6  O    0.007722
     7  C    0.004054
     8  C    0.424630
     9  C   -0.021039
    10  C   -0.037564
    11  O   -0.009454
    12  O   -0.010102
    13  C   -0.016874
    14  H   -0.000463
    15  H    0.000285
    16  H   -0.009528
    17  H    0.000047
    18  H   -0.000542
    19  H   -0.001815
    20  H   -0.000499
    21  H    0.000436
    22  H    0.000261
    23  H   -0.005166
    24  H   -0.006168
    25  H    0.000119
    26  H   -0.000102
    27  H    0.000182
    28  H    0.002272
    29  H   -0.000207
    30  H   -0.003750
    31  H    0.427054
 Mulliken charges:
               1
     1  C   -0.361285
     2  C   -0.133059
     3  C   -0.332105
     4  C   -0.330837
     5  C   -0.235638
     6  O   -0.299694
     7  C   -0.138484
     8  C    0.025548
     9  C   -0.341084
    10  C   -0.378235
    11  O   -0.286471
    12  O   -0.223094
    13  C   -0.341265
    14  H    0.166513
    15  H    0.171977
    16  H    0.210663
    17  H    0.183482
    18  H    0.173574
    19  H    0.126900
    20  H    0.208941
    21  H    0.165804
    22  H    0.174709
    23  H    0.182529
    24  H    0.203044
    25  H    0.191287
    26  H    0.179748
    27  H    0.244461
    28  H    0.158906
    29  H    0.199628
    30  H    0.162293
    31  H    0.271246
 Sum of Mulliken charges =  -0.00000
 Mulliken charges with hydrogens summed into heavy atoms:
               1
     1  C   -0.022795
     2  C    0.111402
     3  C    0.040851
     4  C    0.026218
     5  C    0.122896
     6  O   -0.299694
     7  C    0.197356
     8  C    0.296794
     9  C   -0.000571
    10  C    0.007338
    11  O   -0.286471
    12  O   -0.223094
    13  C    0.029770
 Electronic spatial extent (au):  <R**2>=           2833.3001
 Charge=             -0.0000 electrons
 Dipole moment (field-independent basis, Debye):
    X=              0.1781    Y=              1.6884    Z=             -0.3384  Tot=              1.7312
 Quadrupole moment (field-independent basis, Debye-Ang):
   XX=            -74.3177   YY=            -78.6398   ZZ=            -80.5246
   XY=             -5.8964   XZ=              5.4965   YZ=              3.2717
 Traceless Quadrupole moment (field-independent basis, Debye-Ang):
   XX=              3.5097   YY=             -0.8124   ZZ=             -2.6973
   XY=             -5.8964   XZ=              5.4965   YZ=              3.2717
 Octapole moment (field-independent basis, Debye-Ang**2):
  XXX=             -1.3305  YYY=              1.5869  ZZZ=              1.3282  XYY=             12.2255
  XXY=             19.7628  XXZ=              6.2438  XZZ=            -12.8198  YZZ=             -3.4498
  YYZ=             -5.6131  XYZ=             -4.0821
 Hexadecapole moment (field-independent basis, Debye-Ang**3):
 XXXX=          -2656.3232 YYYY=           -581.4045 ZZZZ=           -468.8784 XXXY=            -34.2363
 XXXZ=             -4.6068 YYYX=              1.2651 YYYZ=              4.3813 ZZZX=             -0.1071
 ZZZY=              1.0189 XXYY=           -557.4100 XXZZ=           -522.7637 YYZZ=           -170.4788
 XXYZ=              6.2398 YYXZ=             -0.3835 ZZXY=              3.8823
 N-N= 9.042735913541D+02 E-N=-3.250642603654D+03  KE= 6.153412099853D+02
 D1PCM: PCM CHGder 1st derivatives, ID1Alg=3 FixD1E=F DoIter=F DoCFld=F I1PDM=0.
 Calling FoFJK, ICntrl=      2127 FMM=F ISym2X=0 I1Cent= 0 IOpClX= 0 NMat=1 NMatS=1 NMatT=0.
 ***** Axes restored to original set *****
 -------------------------------------------------------------------
 Center     Atomic                   Forces (Hartrees/Bohr)
 Number     Number              X              Y              Z
 -------------------------------------------------------------------
      1        6          -0.002696598    0.000045566    0.000860308
      2        6           0.002683895    0.003490059    0.005760806
      3        6          -0.001670244   -0.004148645    0.001889171
      4        6          -0.000197586    0.000640357   -0.003921891
      5        6           0.006387483    0.001728110   -0.002257707
      6        8           0.000721292   -0.007700985    0.004200053
      7        6           0.000887883   -0.006108780    0.002850361
      8        6           0.000472020   -0.000205478    0.001001091
      9        6          -0.000801551   -0.000282693   -0.002412305
     10        6          -0.000591080    0.005476581    0.004598931
     11        8           0.001240808    0.000437964   -0.011221390
     12        8          -0.001771196    0.001545834    0.012212252
     13        6          -0.000881740    0.002202364    0.001375092
     14        1           0.002063131   -0.001533364   -0.002101990
     15        1           0.001139343    0.001692373    0.002002325
     16        1          -0.002535731    0.001103536   -0.002421117
     17        1           0.001688643   -0.001338964    0.001399611
     18        1          -0.003114599    0.001580932    0.001190998
     19        1          -0.004578386    0.002482931    0.004074802
     20        1           0.002222200    0.002773129   -0.002589748
     21        1           0.002572673   -0.001570266    0.001775085
     22        1          -0.001175063    0.002561129    0.000662276
     23        1          -0.003725557    0.001919564   -0.004914398
     24        1           0.002824705   -0.004253933   -0.001068911
     25        1           0.002507445   -0.001100211   -0.002000221
     26        1          -0.002009853   -0.001889941    0.001559470
     27        1          -0.001256397   -0.004602434   -0.006533044
     28        1          -0.004070348    0.002631016   -0.004071917
     29        1          -0.001832361   -0.001093283    0.003794583
     30        1           0.002998283    0.001657189    0.000319701
     31        1           0.002498486    0.001860347   -0.006012279
 -------------------------------------------------------------------
 Cartesian Forces:  Max     0.012212252 RMS     0.003329468

 GradGradGradGradGradGradGradGradGradGradGradGradGradGradGradGradGradGrad
 Berny optimization.
 FormGI is forming the generalized inverse of G from B-inverse, IUseBI=4.
 Internal  Forces:  Max     0.010054594 RMS     0.001966201
 Search for a local minimum.
 Step number   1 out of a maximum of  186
 All quantities printed in internal units (Hartrees-Bohrs-Radians)
 Mixed Optimization -- RFO/linear search
 Second derivative matrix not updated -- first step.
 ITU=  0
     Eigenvalues ---    0.00619   0.00627   0.00728   0.00733   0.01406
     Eigenvalues ---    0.01442   0.01742   0.02700   0.02821   0.03075
     Eigenvalues ---    0.03110   0.04096   0.04346   0.04679   0.04750
     Eigenvalues ---    0.04878   0.04889   0.05055   0.05139   0.05144
     Eigenvalues ---    0.05253   0.05688   0.05731   0.06173   0.06189
     Eigenvalues ---    0.06334   0.06675   0.06959   0.07589   0.07847
     Eigenvalues ---    0.07938   0.07957   0.07962   0.08129   0.08242
     Eigenvalues ---    0.08833   0.09300   0.09385   0.10705   0.11611
     Eigenvalues ---    0.11697   0.11718   0.11764   0.12405   0.12535
     Eigenvalues ---    0.14671   0.14766   0.15684   0.16500   0.17552
     Eigenvalues ---    0.19204   0.21301   0.21956   0.25000   0.28521
     Eigenvalues ---    0.28669   0.28768   0.28879   0.28955   0.29143
     Eigenvalues ---    0.30275   0.30359   0.35038   0.35090   0.35090
     Eigenvalues ---    0.35123   0.35194   0.35208   0.35241   0.35258
     Eigenvalues ---    0.35266   0.35318   0.35441   0.35455   0.35473
     Eigenvalues ---    0.35636   0.35816   0.35826   0.35833   0.35842
     Eigenvalues ---    0.40772   0.41390   0.42073   0.42230   0.43323
     Eigenvalues ---    0.462611000.000001000.000001000.000001000.00000
     Eigenvalues --- 1000.000001000.000001000.000001000.000001000.00000
     Eigenvalues --- 1000.000001000.000001000.000001000.000001000.00000
     Eigenvalues --- 1000.000001000.000001000.000001000.000001000.00000
     Eigenvalues --- 1000.000001000.000001000.000001000.000001000.00000
     Eigenvalues --- 1000.000001000.000001000.000001000.000001000.00000
     Eigenvalues --- 1000.000001000.000001000.000001000.000001000.00000
     Eigenvalues --- 1000.000001000.000001000.000001000.000001000.00000
     Eigenvalues --- 1000.000001000.000001000.000001000.000001000.00000
     Eigenvalues --- 1000.000001000.000001000.000001000.000001000.00000
     Eigenvalues --- 1000.000001000.000001000.000001000.000001000.00000
     Eigenvalues --- 1000.000001000.000001000.000001000.000001000.00000
     Eigenvalues --- 1000.000001000.000001000.000001000.000001000.00000
     Eigenvalues --- 1000.000001000.000001000.000001000.000001000.00000
     Eigenvalues --- 1000.000001000.000001000.000001000.000001000.00000
     Eigenvalues --- 1000.000001000.000001000.000001000.000001000.00000
     Eigenvalues --- 1000.000001000.000001000.000001000.000001000.00000
     Eigenvalues --- 1000.000001000.000001000.000001000.000001000.00000
     Eigenvalues --- 1000.000001000.000001000.000001000.000001000.00000
     Eigenvalues --- 1000.000001000.000001000.000001000.000001000.00000
 RFO step:  Lambda=-3.15882554D-03 EMin= 6.18727166D-03
 Linear search not attempted -- first point.
 Iteration  1 RMS(Cart)=  0.05077474 RMS(Int)=  0.00061843
 Iteration  2 RMS(Cart)=  0.00153060 RMS(Int)=  0.00005095
 Iteration  3 RMS(Cart)=  0.00000080 RMS(Int)=  0.00005094
 Iteration  1 RMS(Cart)=  0.00000498 RMS(Int)=  0.00000110
 Iteration  2 RMS(Cart)=  0.00000276 RMS(Int)=  0.00000123
 Iteration  3 RMS(Cart)=  0.00000153 RMS(Int)=  0.00000140
 Iteration  4 RMS(Cart)=  0.00000085 RMS(Int)=  0.00000150
 Variable       Old X    -DE/DX   Delta X   Delta X   Delta X     New X
                                 (Linear)    (Quad)   (Total)
    R1        2.88859  -0.00091   0.00000  -0.00247  -0.00248   2.88611
    R2        2.87119   0.00013   0.00000   0.00077   0.00080   2.87198
    R3        2.05529   0.00324   0.00000   0.00915   0.00915   2.06444
    R4        2.05285   0.00284   0.00000   0.00798   0.00798   2.06084
    R5        2.65467   0.00352   0.00000   0.00743   0.00744   2.66211
    R6        2.63838   0.00351   0.00000   0.00753   0.00753   2.64591
    R7        2.87388  -0.00079   0.00000  -0.00296  -0.00299   2.87089
    R8        2.04344   0.00803   0.00000   0.02220   0.02220   2.06564
    R9        2.88272  -0.00179   0.00000  -0.00663  -0.00666   2.87606
   R10        2.89233  -0.00119   0.00000  -0.00470  -0.00473   2.88760
   R11        2.05475   0.00366   0.00000   0.01033   0.01033   2.06508
   R12        2.04943   0.00333   0.00000   0.00930   0.00930   2.05873
   R13        2.88998  -0.00148   0.00000  -0.00479  -0.00479   2.88519
   R14        2.05162   0.00257   0.00000   0.00721   0.00721   2.05883
   R15        2.05361   0.00350   0.00000   0.00986   0.00986   2.06347
   R16        2.67636   0.00300   0.00000   0.00743   0.00747   2.68383
   R17        2.87402   0.00035   0.00000   0.00094   0.00092   2.87494
   R18        2.05614   0.00623   0.00000   0.01761   0.01761   2.07375
   R19        2.04370   0.00435   0.00000   0.01204   0.01204   2.05574
   R20        2.66773   0.00231   0.00000   0.00570   0.00573   2.67345
   R21        2.68753   0.00285   0.00000   0.00658   0.00659   2.69411
   R22        2.04915   0.00651   0.00000   0.01819   0.01819   2.06734
   R23        2.04330   0.00439   0.00000   0.01215   0.01215   2.05545
   R24        2.87429   0.00090   0.00000   0.00323   0.00325   2.87754
   R25        2.68830   0.00128   0.00000   0.00301   0.00301   2.69131
   R26        2.04654   0.00672   0.00000   0.01870   0.01870   2.06524
   R27        2.05246   0.00329   0.00000   0.00925   0.00925   2.06171
   R28        2.05258   0.00287   0.00000   0.00806   0.00806   2.06064
   R29        2.05529   0.00640   0.00000   0.01806   0.01806   2.07335
   R30        2.04354   0.00517   0.00000   0.01429   0.01429   2.05783
   R31        2.05338   0.00334   0.00000   0.00939   0.00939   2.06277
   R32        2.04965   0.00315   0.00000   0.00880   0.00880   2.05845
    A1        1.92256  -0.00102   0.00000  -0.00547  -0.00568   1.91688
    A2        1.91638   0.00091   0.00000   0.00146   0.00155   1.91793
    A3        1.93932  -0.00051   0.00000  -0.00164  -0.00161   1.93771
    A4        1.90641   0.00004   0.00000  -0.00153  -0.00147   1.90494
    A5        1.90266   0.00061   0.00000   0.00373   0.00379   1.90645
    A6        1.87566   0.00000   0.00000   0.00367   0.00364   1.87930
    A7        1.93967   0.00037   0.00000  -0.00216  -0.00200   1.93767
    A8        1.94573   0.00340   0.00000   0.01183   0.01160   1.95734
    A9        1.82939  -0.00229   0.00000  -0.01065  -0.01065   1.81874
   A10        1.90234  -0.00344   0.00000  -0.01681  -0.01672   1.88562
   A11        1.91312   0.00204   0.00000   0.01502   0.01501   1.92812
   A12        1.93287   0.00006   0.00000   0.00371   0.00380   1.93667
   A13        1.94017   0.00062   0.00000  -0.00983  -0.00994   1.93023
   A14        1.88241  -0.00003   0.00000   0.00654   0.00656   1.88898
   A15        1.91602  -0.00079   0.00000  -0.00807  -0.00804   1.90799
   A16        1.90768  -0.00033   0.00000   0.00487   0.00492   1.91260
   A17        1.94107   0.00019   0.00000   0.00158   0.00149   1.94256
   A18        1.87434   0.00032   0.00000   0.00571   0.00570   1.88004
   A19        1.91311   0.00188   0.00000  -0.00187  -0.00187   1.91124
   A20        1.93069  -0.00026   0.00000   0.00212   0.00219   1.93288
   A21        1.91420  -0.00083   0.00000  -0.00177  -0.00187   1.91234
   A22        1.91603  -0.00053   0.00000   0.00183   0.00182   1.91786
   A23        1.92230  -0.00096   0.00000  -0.00623  -0.00624   1.91606
   A24        1.86713   0.00063   0.00000   0.00602   0.00602   1.87315
   A25        1.93742   0.00138   0.00000   0.00697   0.00689   1.94432
   A26        1.90136   0.00099   0.00000   0.00823   0.00829   1.90966
   A27        1.85630  -0.00118   0.00000  -0.00456  -0.00453   1.85177
   A28        1.92976  -0.00137   0.00000  -0.00852  -0.00853   1.92124
   A29        1.94581  -0.00028   0.00000  -0.00307  -0.00306   1.94275
   A30        1.89089   0.00050   0.00000   0.00132   0.00129   1.89218
   A31        1.97800  -0.00384   0.00000  -0.02489  -0.02482   1.95318
   A32        1.94537   0.00234   0.00000   0.00598   0.00593   1.95130
   A33        1.93104  -0.00167   0.00000  -0.00796  -0.00800   1.92304
   A34        1.94621  -0.00025   0.00000  -0.00155  -0.00148   1.94473
   A35        1.90916   0.00016   0.00000   0.00136   0.00143   1.91059
   A36        1.84159  -0.00133   0.00000  -0.00174  -0.00176   1.83983
   A37        1.88751   0.00075   0.00000   0.00429   0.00428   1.89179
   A38        1.92745   0.00002   0.00000  -0.00094  -0.00102   1.92643
   A39        1.90699  -0.00050   0.00000  -0.00951  -0.00949   1.89750
   A40        1.91501  -0.00042   0.00000  -0.00342  -0.00340   1.91160
   A41        1.91312   0.00019   0.00000   0.00147   0.00148   1.91459
   A42        1.89531   0.00028   0.00000   0.00726   0.00726   1.90257
   A43        1.90582   0.00044   0.00000   0.00534   0.00528   1.91110
   A44        1.92399  -0.00036   0.00000  -0.00708  -0.00716   1.91683
   A45        1.92640   0.00040   0.00000  -0.00240  -0.00239   1.92401
   A46        1.92695  -0.00064   0.00000  -0.00053  -0.00051   1.92644
   A47        1.90571  -0.00024   0.00000  -0.00152  -0.00157   1.90413
   A48        1.90695   0.00061   0.00000   0.00561   0.00566   1.91262
   A49        1.87298   0.00025   0.00000   0.00636   0.00634   1.87932
   A50        1.95113   0.00123   0.00000   0.00525   0.00526   1.95639
   A51        1.91265   0.00103   0.00000   0.00980   0.00979   1.92244
   A52        1.86255  -0.00089   0.00000  -0.00344  -0.00344   1.85911
   A53        1.90837  -0.00119   0.00000  -0.00439  -0.00445   1.90392
   A54        1.93265  -0.00068   0.00000  -0.00871  -0.00871   1.92394
   A55        1.89532   0.00053   0.00000   0.00168   0.00165   1.89697
   A56        2.02437  -0.00572   0.00000  -0.03702  -0.03694   1.98743
   A57        2.02979  -0.01005   0.00000  -0.03972  -0.03972   1.99008
   A58        1.95427  -0.00169   0.00000  -0.01544  -0.01559   1.93868
   A59        1.87344   0.00011   0.00000   0.00422   0.00423   1.87767
   A60        1.89991   0.00074   0.00000  -0.00073  -0.00070   1.89922
   A61        1.90953   0.00121   0.00000   0.00762   0.00772   1.91725
   A62        1.94765  -0.00029   0.00000  -0.00165  -0.00175   1.94590
   A63        1.87594  -0.00000   0.00000   0.00710   0.00706   1.88300
    D1        0.92735  -0.00012   0.00000   0.00856   0.00855   0.93590
    D2        3.04259   0.00029   0.00000   0.01098   0.01101   3.05360
    D3       -1.18515   0.00041   0.00000   0.01855   0.01858  -1.16657
    D4       -1.17285  -0.00011   0.00000   0.01298   0.01297  -1.15988
    D5        0.94239   0.00030   0.00000   0.01540   0.01543   0.95782
    D6        2.99783   0.00042   0.00000   0.02297   0.02300   3.02083
    D7        3.03772  -0.00037   0.00000   0.00851   0.00847   3.04619
    D8       -1.13022   0.00004   0.00000   0.01094   0.01093  -1.11929
    D9        0.92522   0.00015   0.00000   0.01851   0.01850   0.94372
   D10       -0.95848  -0.00132   0.00000  -0.01918  -0.01923  -0.97771
[...]
 0,-0.05978630,-0.11412554,-0.00033171,-0.00021190,0.00053457,-0.000261
 54,0.00022397,0.00000538,-0.00008768,0.00012582,0.00004283,0.00024215,
 0.00075533,0.00061005,-0.00252087,-0.00329774,-0.00189324,-0.00001168,
 -0.00001801,-0.00006153,0.00006104,-0.00002416,0.00006824,0.00000249,-
 0.00000912,-0.00000377,-0.00001462,0.00000582,0.00002030,-0.00007671,-
 0.00004363,-0.00001101,0.00000323,-0.00001768,0.00000978,-0.10272126,0
 .06789719,0.12496823,-0.00006364,-0.00172472,-0.00283337,0.00992327,0.
 01352626,-0.00763420,0.00004874,-0.00000218,0.00002678,-0.00690527,-0.
 00722769,0.00681786,-0.00000255,0.00000311,0.00000140,0.00001777,-0.00
 000696,-0.00000179,-0.00074095,-0.00044489,-0.00084452,0.00027347,-0.0
 0015985,0.00002953,0.00000206,-0.00000573,0.00000258,-0.00000699,-0.00
 001514,0.00002882,-0.00057423,0.00439506,-0.00383876,0.00050378,0.0002
 4850,-0.00030381,-0.12770941,-0.10183830,0.07180624,0.00025987,0.00035
 953,-0.00025723,-0.00009547,-0.00096620,0.00054732,0.00001140,-0.00001
 745,-0.00000404,-0.00004775,0.00037717,0.00022921,0.00070563,0.0002558
 0,-0.00025477,0.00005565,0.00003833,0.00009063,0.00012292,0.00004039,0
 .00017480,0.00000158,0.00000047,0.00000064,0.00000199,0.00000055,-0.00
 000388,0.00000833,-0.00000228,-0.00000634,0.00002255,-0.00002667,0.000
 01031,-0.01190046,-0.01624896,0.01069685,0.13564082,-0.00116617,-0.001
 49499,-0.00429567,-0.00966217,-0.01146781,0.00600501,-0.00005456,0.000
 00209,-0.00005537,-0.01052074,-0.01459529,0.01043142,0.00001041,-0.000
 00652,-0.00000387,-0.00001553,-0.00000007,-0.00000681,0.00001026,0.001
 21909,0.00008012,0.00025821,0.00025523,-0.00001241,0.00000827,0.000001
 71,0.00000534,0.00003063,-0.00002554,0.00001828,0.00160931,-0.00179951
 ,0.00316703,-0.00038039,0.00114241,-0.00073351,-0.09817204,-0.17491858
 ,0.08994840,-0.00016474,0.00005678,0.00015070,-0.00056916,-0.00087310,
 0.00080683,-0.00001540,0.00002342,0.00001172,0.00015169,0.00079371,-0.
 00006341,0.00055883,0.00053852,0.00038172,0.00005875,-0.00008851,-0.00
 006202,-0.00000640,-0.00003572,0.00004446,-0.00000242,-0.00000417,-0.0
 0000310,-0.00000213,0.00000161,0.00000096,-0.00000585,0.00000146,0.000
 00014,0.00000674,-0.00001678,0.00001241,0.00755057,0.01172462,-0.00757
 752,0.11017080,0.18929711,-0.00164131,-0.00300787,-0.00324682,0.015478
 21,0.01314483,-0.00936382,0.00004884,-0.00002345,0.00004976,-0.0125447
 4,-0.01640447,0.01277293,0.00000359,-0.00000016,0.00000017,-0.00001563
 ,-0.00000768,0.00000202,-0.00084016,-0.00123017,-0.00129007,-0.0001737
 2,-0.00031092,-0.00005884,-0.00000114,0.00000825,0.00000122,-0.0000299
 1,0.00004967,-0.00000068,-0.00244427,0.00562323,-0.00386237,0.00066354
 ,-0.00114866,0.00123131,0.06891385,0.09115557,-0.11165757,-0.00010574,
 0.00003860,0.00003677,-0.00060188,-0.00116407,0.00065134,0.00000650,-0
 .00001386,-0.00001344,0.00035744,0.00098530,0.00077927,0.00067360,0.00
 070090,0.00088952,0.00006533,0.00015470,0.00018777,0.00015851,0.000150
 27,0.00019585,0.00000070,0.00000068,-0.00000576,-0.00000318,-0.0000004
 1,0.00000034,-0.00000486,-0.00000967,-0.00000359,0.00000189,-0.0000035
 9,-0.00000251,0.00693647,0.01031480,-0.00787784,-0.07495068,-0.0982600
 7,0.12022311,0.00036646,0.00012672,0.00012941,-0.07183580,-0.04303385,
 -0.05944559,-0.00013853,0.00008983,-0.00040716,-0.00105325,0.00315355,
 -0.00188289,0.00004894,0.00016241,0.00002675,0.00007467,-0.00012909,-0
 .00017649,0.00071264,-0.00084541,0.00293790,0.00302165,0.00020304,0.00
 286299,0.00002582,0.00000461,-0.00001734,0.00008174,0.00005267,0.00056
 480,-0.00775202,-0.01964633,-0.00935598,-0.00492736,0.02464177,0.02972
 415,-0.00456355,-0.01128857,-0.01463994,-0.00009819,0.00003757,0.00007
 161,-0.00006155,-0.00000262,-0.00002147,-0.00016171,0.00010216,0.00002
 338,-0.00050310,-0.00075040,-0.00075572,0.00004243,-0.00012634,-0.0001
 7873,-0.00015789,-0.00038403,-0.00027324,-0.00030944,-0.00066937,-0.00
 043934,0.00002236,0.00000704,-0.00013111,-0.00006346,0.00000897,-0.000
 03087,0.00017101,-0.00017336,-0.00007366,-0.00063649,-0.00045441,-0.00
 002397,0.00031826,-0.00044695,0.00037187,0.00040797,0.00042803,-0.0000
 2206,0.08706929,-0.00010429,-0.00060484,-0.00002656,-0.04023349,-0.142
 55970,-0.10769508,0.00007641,-0.00017929,0.00040482,0.00171495,-0.0017
 7277,0.00207794,-0.00003628,-0.00003210,0.00002198,-0.00003141,0.00012
 636,0.00012492,-0.00094155,-0.00014669,0.00546386,-0.00185461,0.000856
 26,-0.00233238,-0.00005572,0.00006396,0.00002588,0.00053469,-0.0001385
 3,0.00012319,-0.01968774,-0.03087027,-0.01631445,0.00743513,-0.0065513
 8,-0.01427427,0.00536564,0.01200988,0.01105172,-0.00001410,0.00007808,
 -0.00005061,-0.00008613,0.00021191,-0.00026930,0.00010436,-0.00009640,
 -0.00003340,0.00051569,0.00064604,0.00065440,-0.00009266,0.00003823,0.
 00009222,0.00014641,-0.00013215,-0.00019430,-0.00065457,-0.00110419,-0
 .00092506,-0.00000155,-0.00000331,0.00007834,0.00002467,-0.00001280,0.
 00003343,0.00017045,0.00001293,-0.00000667,0.00002359,0.00006257,-0.00
 003487,-0.00050209,0.00060141,-0.00058996,-0.00076682,0.00022306,-0.00
 071536,0.04883194,0.16966486,0.00030425,0.00045051,-0.00001662,-0.0604
 4635,-0.11794175,-0.18858183,0.00014632,-0.00009536,0.00037792,-0.0018
 3353,0.00355651,-0.00116164,-0.00009503,-0.00001356,0.00004803,0.00003
 389,0.00014282,0.00001575,0.00110338,0.00260572,-0.00071050,-0.0024039
 0,0.00295017,-0.00122014,-0.00012351,0.00007640,0.00004405,0.00055418,
 -0.00069457,0.00055623,0.00781134,0.01531100,0.01263153,0.00942827,-0.
 01650758,-0.01628144,-0.00725506,-0.01293647,-0.01387799,-0.00003792,-
 0.00006343,0.00006005,0.00005461,-0.00020582,0.00012819,0.00015557,-0.
 00014810,-0.00003782,-0.00054384,-0.00097073,-0.00081499,0.00018715,0.
 00002234,0.00008343,0.00005814,0.00027019,0.00011136,0.00028999,0.0005
 1284,0.00038247,-0.00000673,0.00000787,0.00008475,0.00003112,-0.000022
 85,0.00000070,0.00025800,0.00026541,0.00006330,0.00024456,0.00017034,0
 .00006541,-0.00002515,0.00022031,0.00090722,0.00050946,0.00009328,0.00
 029766,0.05146150,0.12281430,0.20593357,0.00000324,-0.00000340,-0.0000
 0521,0.00021955,-0.00005832,-0.00004927,0.00080677,0.00127320,-0.00069
 610,0.00000111,0.00000631,-0.00000026,-0.15812924,0.04193331,-0.108393
 19,-0.01417624,0.01799186,-0.00353890,0.00002182,0.00002645,0.00002212
 ,-0.00032808,0.00004985,0.00035875,-0.01528901,0.00463985,-0.01751384,
 0.00080932,0.00040877,-0.00337776,-0.00009997,-0.00004415,0.00002592,-
 0.00015344,0.00000773,0.00011455,-0.00000575,-0.00000576,0.00000925,-0
 .00000159,0.00000100,0.00000142,-0.00000322,-0.00000148,-0.00000250,-0
 .00014309,-0.00031709,0.00063059,-0.00000537,-0.00000123,-0.00000366,0
 .00000181,0.00000007,0.00000404,0.00000618,0.00000132,-0.00000546,-0.0
 0000473,-0.00000475,-0.00000006,-0.00206831,-0.00342552,-0.00067235,0.
 00061883,-0.00019759,0.00006389,-0.00014777,-0.00032854,0.00085608,0.0
 0020251,-0.00010915,0.00039272,-0.00001065,0.00000458,-0.00000400,0.00
 000019,-0.00000230,-0.00000054,-0.00001022,0.00000762,0.00002053,0.175
 99255,-0.00000003,0.00000330,0.00000206,-0.00016704,0.00009609,0.00013
 986,0.00075584,0.00092737,-0.00095795,0.00000367,-0.00000685,-0.000002
 52,0.04258269,-0.06593972,0.04723239,0.03104449,-0.02492913,0.01149544
 ,-0.00002116,-0.00002522,-0.00002109,-0.00004257,-0.00014789,-0.000544
 01,-0.01795460,0.00750339,-0.01689261,-0.00231743,0.00002652,0.0048246
 3,0.00010747,0.00003663,-0.00002064,0.00021654,0.00011097,0.00000791,0
 .00001751,0.00000013,-0.00001519,0.00000202,-0.00000166,0.00000037,0.0
 0000337,0.00000130,0.00000310,0.00032932,-0.00018047,0.00040508,0.0000
 0346,0.00000144,0.00000462,0.00000297,-0.00000171,-0.00000284,0.000001
 62,-0.00000207,-0.00000344,0.00000525,0.00000375,-0.00000034,-0.004028
 05,-0.00314577,-0.00047283,0.00112777,0.00088115,0.00033842,-0.0004430
 1,0.00062965,-0.00100093,-0.00024301,0.00003266,-0.00035257,0.00001064
 ,-0.00000500,0.00000556,-0.00000174,0.00000144,0.00000033,-0.00002491,
 0.00000332,0.00000243,-0.05684294,0.08532802,0.00000301,-0.00000219,-0
 .00000182,0.00026375,-0.00006032,-0.00012835,0.00097969,-0.00004879,0.
 00073939,0.00000033,0.00000806,-0.00000053,-0.11082403,0.05013239,-0.1
 7173690,0.01058479,-0.00541161,0.00965478,0.00002772,0.00001741,0.0000
 1011,0.00010244,0.00010619,-0.00016946,-0.00440077,0.00226356,-0.00517
 509,0.00207766,-0.00169492,0.00396843,-0.00008730,-0.00004694,0.000025
 65,-0.00045730,0.00010031,-0.00005852,-0.00001531,-0.00000519,0.000020
 45,-0.00000341,0.00000232,0.00000070,-0.00000387,-0.00000166,-0.000002
 92,-0.00028912,0.00002718,0.00051229,-0.00000652,-0.00000119,-0.000004
 56,0.00000123,0.00000124,0.00000592,0.00000495,0.00000595,0.00000150,-
 0.00000788,-0.00000448,0.00000171,-0.00071300,-0.00149543,0.00103055,-
 0.00008692,-0.00024692,0.00010654,-0.00152688,0.00043814,0.00053802,-0
 .00013638,0.00004522,0.00020831,-0.00001523,0.00000775,-0.00000757,-0.
 00000046,-0.00000118,-0.00000087,-0.00000442,0.00000868,0.00002417,0.1
 2227529,-0.05098234,0.17716004,-0.00000290,-0.00000197,0.00000495,0.00
 031811,-0.00006739,-0.00016023,-0.00180306,-0.00326160,-0.00228171,-0.
 00000402,0.00001411,0.00000058,-0.10803654,-0.03420069,0.09990442,-0.0
 1023729,0.00134494,0.01825141,0.00004596,0.00002043,0.00000593,0.00050
 600,-0.00005377,0.00003623,-0.01026356,-0.00736374,0.01870888,-0.00006
 846,0.00274902,-0.00151149,-0.00014212,-0.00006155,0.00002760,-0.00037
 496,0.00019028,0.00002760,-0.00002872,-0.00001093,0.00002750,-0.000006
 18,0.00000577,-0.00000246,-0.00000530,-0.00000277,-0.00000486,0.000085
 60,-0.00012050,0.00026385,-0.00000860,-0.00000147,-0.00000820,-0.00000
 063,0.00000050,0.00000606,0.00001369,0.00001125,0.00001603,-0.00001445
 ,-0.00000547,0.00000307,0.00069861,0.00100177,0.00018188,0.00058325,0.
 00002350,-0.00021992,0.00009222,-0.00014751,0.00044927,-0.00023948,-0.
 00014635,0.00079078,-0.00002128,0.00000901,-0.00001162,0.00000156,0.00
 000052,-0.00000065,-0.00000150,0.00000195,0.00001629,0.01165550,0.0054
 0274,-0.01770001,0.11788369,-0.00001044,0.00000774,0.00001884,0.000039
 21,-0.00001756,-0.00008039,-0.00368755,-0.00339652,-0.00259925,0.00000
 031,-0.00000243,0.00000076,-0.03996436,-0.07139958,0.07352001,0.020144
 18,0.00309590,-0.03381918,0.00002175,-0.00003481,-0.00004984,0.0003586
 4,-0.00071175,-0.00074082,-0.01017800,-0.00511384,0.02141609,0.0020632
 0,-0.00479757,-0.00025380,0.00001883,0.00001996,0.00001939,-0.00006909
 ,0.00020367,0.00010944,-0.00001635,0.00000899,0.00001455,-0.00000692,0
 .00000596,-0.00000612,0.00000020,-0.00000124,-0.00000097,0.00029102,0.
 00009704,-0.00032051,-0.00000097,0.00000206,-0.00000133,-0.00000039,-0
 .00000043,0.00000192,0.00001203,0.00001522,0.00002768,-0.00000920,0.00
 000311,0.00000653,0.00047881,0.00100819,-0.00055512,0.00078570,0.00046
 666,-0.00012318,-0.00017942,0.00006809,-0.00022380,0.00090401,0.000160
 29,-0.00134553,-0.00000652,0.00000229,-0.00000420,0.00000059,0.0000004
 1,-0.00000048,-0.00002420,0.00002148,0.00002277,-0.00480959,-0.0013347
 4,0.00687492,0.03491555,0.08146970,-0.00000270,0.00000461,0.00000381,-
 0.00023695,0.00004168,0.00010441,-0.00096464,-0.00103828,0.00056164,0.
 00000143,-0.00001158,0.00000025,0.10443070,0.06383330,-0.24036325,0.00
 857042,-0.00237834,-0.01297656,-0.00002756,-0.00002633,-0.00002664,-0.
 00043520,-0.00017003,-0.00023227,-0.00481001,-0.00156200,0.00769139,0.
 00010498,-0.00288146,0.00228035,0.00011192,0.00005597,-0.00001832,0.00
 034249,-0.00002101,0.00002178,0.00001721,0.00000832,-0.00001740,0.0000
 0195,-0.00000159,-0.00000057,0.00000380,0.00000167,0.00000326,-0.00006
 165,-0.00015007,0.00020002,0.00000647,0.00000210,0.00000558,-0.0000001
 6,-0.00000048,-0.00000383,-0.00000041,-0.00000462,0.00000155,0.0000077
 8,0.00000479,0.00000028,0.00046972,0.00035435,0.00062605,0.00066726,0.
 00066286,0.00007819,-0.00012306,0.00004109,0.00028551,0.00072020,0.000
 09932,-0.00058530,0.00001394,-0.00000603,0.00000727,-0.00000115,0.0000
 0106,0.00000064,-0.00000841,0.00000371,-0.00000156,0.00928686,0.006742
 46,-0.01682871,-0.11795815,-0.06348998,0.25888063,0.00002712,-0.000030
 71,-0.00008709,-0.00012313,0.00009361,0.00028830,-0.19474297,-0.131448
 72,-0.03387866,0.00002223,-0.00000713,0.00000251,-0.00071741,0.0007988
 9,0.00456317,0.00033231,-0.00050283,-0.00073067,-0.00055538,0.00023861
 ,0.00022155,0.00925277,0.01081619,0.00181411,-0.01161179,-0.00958625,-
 0.00381927,-0.00094320,0.00256252,0.00117044,0.00028777,-0.00032475,-0
 .00016829,0.00185384,-0.00088433,0.00035817,0.00005103,0.00000322,-0.0
 0005393,0.00001994,-0.00002798,0.00002333,0.00000460,0.00000517,0.0000
 0861,-0.01410662,-0.01258301,-0.00304296,0.00000568,-0.00000296,0.0000
 1441,0.00000748,-0.00000421,-0.00000914,-0.00078903,0.00025759,-0.0001
 7333,0.00004757,-0.00004632,0.00000137,0.00080151,0.00019303,0.0000766
 6,0.00005761,0.00036518,-0.00032515,0.00003144,0.00012197,0.00004231,0
 .00054165,0.00054455,0.00012057,0.00003124,-0.00001284,0.00001433,-0.0
 0000277,-0.00000706,0.00000523,0.00001314,-0.00002026,-0.00003490,0.00
 036206,0.00033216,0.00000897,-0.00054442,-0.00118358,-0.00017117,0.209
 80767,-0.00010945,0.00006637,0.00018063,0.00020929,-0.00020176,-0.0001
 0996,-0.12866220,-0.16174234,-0.02872113,-0.00001507,-0.00002342,0.000
 01099,0.00025954,0.00112516,0.00129365,-0.00025792,0.00069860,0.000442
 67,0.00023478,-0.00031367,-0.00044236,-0.02184595,-0.02179515,-0.00606
 624,-0.00362422,-0.00355042,0.00004277,0.00516418,-0.00341697,-0.00279
 685,0.00006015,0.00019863,0.00007762,-0.00097328,0.00312115,0.00046379
 ,0.00000166,0.00000019,0.00000370,-0.00007060,0.00005528,-0.00006224,-
 0.00000064,-0.00000820,-0.00001294,0.00987080,0.00954243,0.00161246,-0
 .00000592,0.00002234,-0.00001409,0.00000366,-0.00000621,0.00001384,0.0
 0035920,0.00028875,0.00030696,-0.00011773,0.00002573,0.00007771,0.0000
 5146,0.00008289,-0.00007042,0.00007855,0.00031867,0.00031682,-0.000101
 15,0.00021037,-0.00009236,-0.00132199,-0.00123900,0.00005931,-0.000013
 96,0.00000424,-0.00000717,-0.00000099,0.00001212,-0.00000824,-0.000111
 26,0.00009049,0.00009047,-0.00017887,-0.00006768,-0.00015651,-0.000222
 15,-0.00015262,-0.00023313,0.14117898,0.17556301,-0.00002335,0.0000110
 3,0.00003558,-0.00014807,-0.00006191,0.00017129,-0.03357096,-0.0303669
 3,-0.05553273,-0.00001645,-0.00000670,0.00001420,0.00286233,-0.0008464
 5,-0.00630346,-0.00104950,0.00029323,0.00111615,0.00002539,0.00000911,
 -0.00006481,-0.01176041,-0.00807762,-0.00333267,0.02230209,0.02036413,
 0.00579179,0.00256439,-0.00233759,-0.00138920,0.00002313,0.00014692,-0
 .00008059,0.00027701,0.00130887,0.00035255,0.00002497,-0.00000292,-0.0
 0003685,-0.00000958,0.00000846,-0.00001369,-0.00000086,0.00000049,-0.0
 0000174,-0.01467458,-0.01460275,-0.00385915,0.00000827,0.00000416,-0.0
 0000263,0.00001012,-0.00000772,-0.00001152,-0.00001185,0.00004602,0.00
 021150,0.00000252,-0.00000378,-0.00000177,-0.00097462,-0.00012296,0.00
 124230,-0.00065070,-0.00068177,0.00109478,0.00031427,0.00027094,0.0001
 7400,-0.00062867,-0.00086381,0.00029046,0.00001463,-0.00001272,0.00000
 377,-0.00000140,0.00000244,-0.00000309,-0.00000920,0.00001182,-0.00000
 630,0.00016414,0.00002337,0.00008501,0.00118015,0.00144329,0.00031391,
 0.03417943,0.03353015,0.05955808,0.00000163,0.00014340,-0.00000221,0.0
 0141919,0.00109192,-0.00341731,-0.00507641,-0.00177618,0.01009856,0.00
 001993,0.00002420,-0.00004697,0.00115203,-0.00093917,-0.00073310,-0.00
 443387,-0.00441015,0.00097642,-0.00004078,-0.00047107,-0.00019966,-0.0
 9385864,-0.02179925,0.10061433,0.00038076,0.00268536,0.00011146,-0.006
 61082,-0.00049953,0.02059843,-0.00132209,-0.00000273,-0.00006351,0.001
 09372,0.00933787,-0.03173699,0.00008636,-0.00005618,0.00021744,0.00000
 340,-0.00002671,0.00001004,0.00002243,-0.00001981,0.00003730,0.0000502
 8,-0.00003786,0.00008581,-0.00005300,-0.00000506,0.00002703,-0.0000047
 2,0.00005558,0.00009944,0.00000475,0.00007415,0.00006183,0.00000388,0.
 00003222,0.00003333,-0.00002382,-0.00003486,0.00015136,-0.00030439,-0.
 00015137,0.00057391,0.00011619,0.00062112,-0.00022134,0.00083166,-0.00
 016956,-0.00044678,-0.00010408,-0.00001754,0.00000904,0.00003994,-0.00
 010594,0.00006675,-0.00010230,0.00012977,0.00013735,-0.00012474,0.0001
 3698,-0.00005103,-0.00008072,0.00011255,0.00004409,0.00057807,0.000161
 09,-0.00042265,0.10633614,-0.00000284,-0.00003900,-0.00004028,-0.00058
 268,0.00114842,0.00320805,0.01369085,0.00571625,-0.02736043,-0.0000331
 2,0.00003374,-0.00002545,0.00027631,-0.00169201,-0.00059659,-0.0056606
 9,-0.00332672,0.00156263,-0.00009101,0.00008956,0.00001309,-0.02076964
 ,-0.05905486,0.03916042,0.00174756,-0.00555554,-0.00117852,-0.00893028
 ,-0.00163764,0.02167837,0.00003159,0.00020315,-0.00057809,0.00300679,-
 0.00418338,0.01308593,-0.00008740,-0.00028246,-0.00018465,0.00000806,-
 0.00000101,0.00000605,-0.00001003,0.00000551,-0.00000905,-0.00034217,0
 .00113132,0.00066899,0.00000995,-0.00002133,-0.00002795,-0.00000564,-0
 .00002985,-0.00004338,0.00000972,-0.00005240,-0.00004198,-0.00000503,-
 0.00002251,-0.00000894,-0.00018043,0.00002413,-0.00004224,0.00106247,0
 .00032779,-0.00150759,0.00026604,0.00084301,-0.00064773,0.00120012,0.0
 0042315,-0.00003381,0.00005735,0.00001125,-0.00000095,0.00004003,0.000
 03179,-0.00001802,0.00026082,-0.00050640,0.00001453,-0.00002123,0.0002
 0080,0.00012035,-0.00002350,0.00030635,0.00011763,-0.00083872,0.001090
 99,0.00052119,0.01591676,0.06481787,0.00005149,0.00008200,0.00007466,0
 .00506956,-0.00088840,-0.00270774,0.00604457,0.00132835,-0.00982081,0.
 00015317,-0.00002442,0.00002231,-0.00029499,-0.00038366,-0.00011279,-0
 .00115799,-0.00119914,0.00156396,-0.00014740,-0.00039388,-0.00021572,0
 .09125353,0.04086128,-0.25673209,0.00056407,-0.00243149,0.00089947,0.0
 0005529,0.00001882,0.00332258,0.00090346,-0.00145165,0.00195925,-0.005
 91657,0.00986834,-0.02542761,-0.00002800,0.00029263,0.00026791,-0.0000
 1890,-0.00000311,0.00000802,0.00001213,-0.00002430,0.00003763,0.000083
 07,-0.00012846,0.00069313,-0.00004440,0.00001895,0.00002565,-0.0000248
 2,0.00004059,0.00009198,-0.00007719,0.00006170,-0.00003435,-0.00001243
 ,0.00001727,0.00000234,-0.00016300,0.00002433,0.00014559,0.00038286,0.
 00031701,-0.00056454,0.00049533,0.00072342,0.00028995,0.00033306,0.000
 20007,0.00001402,-0.00016552,0.00005109,-0.00006247,-0.00003605,-0.000
 08643,0.00006761,-0.00027679,0.00047105,0.00089501,0.00003694,0.000041
 25,0.00002174,-0.00004317,0.00013831,-0.00001211,-0.00041891,0.0002701
 3,0.00018487,-0.09661239,-0.04781162,0.28510257\\0.00000406,0.00001024
 ,0.00000344,0.00041462,0.00096271,0.00003509,0.00066959,0.00055418,-0.
 00051276,0.00000265,-0.00000417,0.00001848,-0.00001823,-0.00000169,0.0
 0001433,0.00000395,0.00000689,-0.00000128,-0.00000536,0.00001437,-0.00
 000728,-0.00072573,-0.00031018,0.00069454,-0.00000387,0.00001067,-0.00
 000134,0.00000627,-0.00001896,-0.00002729,0.00001041,0.00001333,-0.000
 00086,-0.00037198,-0.00124747,-0.00022062,0.00000029,0.00000060,0.0000
 0320,-0.00000652,0.00000090,0.00000539,0.00000328,-0.00000031,-0.00000
 213,-0.00000196,0.00000117,-0.00000375,-0.00000932,0.00000256,-0.00000
 248,0.00000148,-0.00000068,-0.00000267,0.00000980,-0.00000733,-0.00000
 548,-0.00000256,-0.00000044,0.00000675,-0.00000282,0.00000063,-0.00000
 834,0.00000377,-0.00000517,-0.00000337,0.00000849,-0.00000618,0.000008
 87,0.00000104,0.00000777,-0.00000483,0.00000213,0.00000334,0.00000418,
 0.00000644,0.00000190,-0.00000182,0.00000861,0.00001849,0.00001382,0.0
 0000813,-0.00000366,0.00000256,-0.00000433,0.00000872,-0.00000864,-0.0
 0000925,-0.00000723,-0.00000765,-0.00000309,-0.00000495,0.00001194\\\@


 THE WORLD IS MADE UP OF THE WILLS, THE WON'TS, AND THE CANT'S:
 THE WILLS DO EVERYTHING,
 THE WON'TS DO NOTHING,
 THE CAN'TS CAN'T DO ANYTHING.

                               -- FROM WALT DISNEY'S "BLACK HOLE"
 Job cpu time:       0 days 15 hours 28 minutes 34.9 seconds.
 Elapsed time:       0 days  0 hours 58 minutes  3.4 seconds.
 File lengths (MBytes):  RWF=    693 Int=      0 D2E=      0 Chk=     33 Scr=      1
 Normal termination of Gaussian 16 at Sun Nov  4 22:53:45 2018.
