 Entering Gaussian System, Link 0=g16
 Initial command:
 /apps/gaussian/g16a03/g16/l1.exe "/jobfs/local/2011901.r-man2/Gau-19461.inp" -scrdir="/jobfs/local/2011901.r-man2/"
 Entering Link 1 = /apps/gaussian/g16a03/g16/l1.exe PID=     19462.
  
 Copyright (c) 1988,1990,1992,1993,1995,1998,2003,2009,2016,
            Gaussian, Inc.  All Rights Reserved.
  
 This is part of the Gaussian(R) 16 program.  It is based on
 the Gaussian(R) 09 system (copyright 2009, Gaussian, Inc.),
 the Gaussian(R) 03 system (copyright 2003, Gaussian, Inc.),
 the Gaussian(R) 98 system (copyright 1998, Gaussian, Inc.),
 the Gaussian(R) 94 system (copyright 1995, Gaussian, Inc.),
 the Gaussian 92(TM) system (copyright 1992, Gaussian, Inc.),
 the Gaussian 90(TM) system (copyright 1990, Gaussian, Inc.),
 the Gaussian 88(TM) system (copyright 1988, Gaussian, Inc.),
 the Gaussian 86(TM) system (copyright 1986, Carnegie Mellon
 University), and the Gaussian 82(TM) system (copyright 1983,
 Carnegie Mellon University). Gaussian is a federally registered
 trademark of Gaussian, Inc.
  
 This software contains proprietary and confidential information,
 including trade secrets, belonging to Gaussian, Inc.
  
 This software is provided under written license and may be
 used, copied, transmitted, or stored only in accord with that
 written license.
  
 The following legend is applicable only to US Government
 contracts under FAR:
  
                    RESTRICTED RIGHTS LEGEND
  
 Use, reproduction and disclosure by the US Government is
 subject to restrictions as set forth in subparagraphs (a)
 and (c) of the Commercial Computer Software - Restricted
 Rights clause in FAR 52.227-19.
  
 Gaussian, Inc.
 340 Quinnipiac St., Bldg. 40, Wallingford CT 06492
  
  
 ---------------------------------------------------------------
 Warning -- This program may not be used in any manner that
 competes with the business of Gaussian, Inc. or will provide
 assistance to any competitor of Gaussian, Inc.  The licensee
 of this program is prohibited from giving any competitor of
 Gaussian, Inc. access to this program.  By using this program,
 the user acknowledges that Gaussian, Inc. is engaged in the
 business of creating and licensing software in the field of
 computational chemistry and represents and warrants to the
 licensee that it is not a competitor of Gaussian, Inc. and that
 it will not use this program in any manner prohibited above.
 ---------------------------------------------------------------
  

 Cite this work as:
 Gaussian 16, Revision A.03,
 M. J. Frisch, G. W. Trucks, H. B. Schlegel, G. E. Scuseria, 
 M. A. Robb, J. R. Cheeseman, G. Scalmani, V. Barone, 
 G. A. Petersson, H. Nakatsuji, X. Li, M. Caricato, A. V. Marenich, 
 J. Bloino, B. G. Janesko, R. Gomperts, B. Mennucci, H. P. Hratchian, 
 J. V. Ortiz, A. F. Izmaylov, J. L. Sonnenberg, D. Williams-Young, 
 F. Ding, F. Lipparini, F. Egidi, J. Goings, B. Peng, A. Petrone, 
 T. Henderson, D. Ranasinghe, V. G. Zakrzewski, J. Gao, N. Rega, 
 G. Zheng, W. Liang, M. Hada, M. Ehara, K. Toyota, R. Fukuda, 
 J. Hasegawa, M. Ishida, T. Nakajima, Y. Honda, O. Kitao, H. Nakai, 
 T. Vreven, K. Throssell, J. A. Montgomery, Jr., J. E. Peralta, 
 F. Ogliaro, M. J. Bearpark, J. J. Heyd, E. N. Brothers, K. N. Kudin, 
 V. N. Staroverov, T. A. Keith, R. Kobayashi, J. Normand, 
 K. Raghavachari, A. P. Rendell, J. C. Burant, S. S. Iyengar, 
 J. Tomasi, M. Cossi, J. M. Millam, M. Klene, C. Adamo, R. Cammi, 
 J. W. Ochterski, R. L. Martin, K. Morokuma, O. Farkas, 
 J. B. Foresman, and D. J. Fox, Gaussian, Inc., Wallingford CT, 2016.
 
 ******************************************
 Gaussian 16:  ES64L-G16RevA.03 25-Dec-2016
                 5-Nov-2018 
 ******************************************
 %mem=6000mb
 %nproc=24
 Will use up to   24 processors via shared memory.
 %chk=D_1a_4a_L_PSI.inp_extract_11.chk
 ----------------------------------------------------------------------
 #M062X/6-311++G(2d,2p) opt=ModRedundant freq=noraman SCRF=(Solvent=Wat
 er)
 ----------------------------------------------------------------------
 1/18=120,19=15,26=3,38=1/1,3;
 2/9=110,12=2,17=6,18=5,40=1/2;
 3/5=4,6=6,7=1212,11=2,25=1,30=1,70=2201,71=1,72=1,74=-55/1,2,3;
 4//1;
 5/5=2,38=5,53=1/2;
 6/7=2,8=2,9=2,10=2,28=1/1;
 7//1,2,3,16;
 1/18=20,19=15,26=3/3(2);
 2/9=110/2;
 99//99;
 2/9=110/2;
 3/5=4,6=6,7=1212,11=2,25=1,30=1,70=2205,71=1,72=1,74=-55/1,2,3;
 4/5=5,16=3,69=1/1;
 5/5=2,38=5,53=1/2;
 7//1,2,3,16;
 1/18=20,19=15,26=3/3(-5);
 2/9=110/2;
 6/7=2,8=2,9=2,10=2,19=2,28=1/1;
 99/9=1/99;
 ----------------------------
 D_1a_4a_L_PSI.inp_extract_11
 ----------------------------
 Symbolic Z-matrix:
 Charge =  0 Multiplicity = 1
 C                     3.45086  -0.52097   0.07176 
 C                     0.72069   0.37211   0.45703 
 C                    -2.1441    1.32456  -0.59092 
 C                     3.10563   0.94988  -0.16142 
 C                    -3.0828   -0.53126   0.81811 
 O                    -1.99161  -1.33822   0.41677 
 C                     2.22476  -1.3893   -0.15686 
 C                    -1.14343   0.31855  -1.17929 
 C                    -2.70786   0.94162   0.78301 
 C                    -1.60368  -1.11142  -0.92075 
 O                     1.12894  -0.96038   0.6389 
 O                     0.21421   0.57618  -0.83009 
 C                     1.88384   1.32984   0.67638 
 H                     3.80173  -0.65931   1.09192 
 H                     4.24571  -0.84676  -0.59332 
 H                    -2.97261   1.37581  -1.2933 
 H                     3.94506   1.58575   0.10297 
 H                     2.90269   1.11551  -1.21611 
 H                     1.93817  -1.37783  -1.20309 
 H                     2.40768  -2.41582   0.12979 
 H                    -1.99478   1.14878   1.57281 
 H                    -3.59124   1.53802   0.99299 
 H                    -2.45102  -1.31254  -1.5723 
 H                    -0.82109  -1.81856  -1.1515 
 H                     2.14296   1.28793   1.73102 
 H                     1.55225   2.34014   0.46221 
 H                    -0.04246   0.53101   1.19751 
 H                    -3.92799  -0.72886   0.16199 
 H                    -3.3475   -0.84745   1.81786 
 H                    -1.69229   2.31073  -0.56575 
 H                    -1.13104   0.45125  -2.25264 
 
 The following ModRedundant input section has been read:
 D       3       8      12       2 F                                           
 

 GradGradGradGradGradGradGradGradGradGradGradGradGradGradGradGradGradGrad
 Berny optimization.
 Initialization pass.
                           ----------------------------
                           !    Initial Parameters    !
                           ! (Angstroms and Degrees)  !
 --------------------------                            --------------------------
 ! Name  Definition              Value          Derivative Info.                !
 --------------------------------------------------------------------------------
 ! R1    R(1,4)                  1.5287         estimate D2E/DX2                !
 ! R2    R(1,7)                  1.5197         estimate D2E/DX2                !
 ! R3    R(1,14)                 1.0876         estimate D2E/DX2                !
 ! R4    R(1,15)                 1.0864         estimate D2E/DX2                !
 ! R5    R(2,11)                 1.4054         estimate D2E/DX2                !
 ! R6    R(2,12)                 1.3982         estimate D2E/DX2                !
 ! R7    R(2,13)                 1.5226         estimate D2E/DX2                !
 ! R8    R(2,27)                 1.0752         estimate D2E/DX2                !
 ! R9    R(3,8)                  1.5361         estimate D2E/DX2                !
 ! R10   R(3,9)                  1.5337         estimate D2E/DX2                !
 ! R11   R(3,16)                 1.0874         estimate D2E/DX2                !
 ! R12   R(3,30)                 1.085          estimate D2E/DX2                !
 ! R13   R(4,13)                 1.5294         estimate D2E/DX2                !
 ! R14   R(4,17)                 1.0858         estimate D2E/DX2                !
 ! R15   R(4,18)                 1.0867         estimate D2E/DX2                !
 ! R16   R(5,6)                  1.4153         estimate D2E/DX2                !
 ! R17   R(5,9)                  1.5203         estimate D2E/DX2                !
 ! R18   R(5,28)                 1.0881         estimate D2E/DX2                !
 ! R19   R(5,29)                 1.0815         estimate D2E/DX2                !
 ! R20   R(6,10)                 1.411          estimate D2E/DX2                !
 ! R21   R(7,11)                 1.4206         estimate D2E/DX2                !
 ! R22   R(7,19)                 1.0848         estimate D2E/DX2                !
 ! R23   R(7,20)                 1.0814         estimate D2E/DX2                !
 ! R24   R(8,10)                 1.5243         estimate D2E/DX2                !
 ! R25   R(8,12)                 1.4253         estimate D2E/DX2                !
 ! R26   R(8,31)                 1.0816         estimate D2E/DX2                !
 ! R27   R(9,21)                 1.0841         estimate D2E/DX2                !
 ! R28   R(9,22)                 1.0863         estimate D2E/DX2                !
 ! R29   R(10,23)                1.0876         estimate D2E/DX2                !
 ! R30   R(10,24)                1.0797         estimate D2E/DX2                !
 ! R31   R(13,25)                1.0868         estimate D2E/DX2                !
 ! R32   R(13,26)                1.0847         estimate D2E/DX2                !
 ! A1    A(4,1,7)              110.1578         estimate D2E/DX2                !
 ! A2    A(4,1,14)             109.7729         estimate D2E/DX2                !
 ! A3    A(4,1,15)             111.1228         estimate D2E/DX2                !
 ! A4    A(7,1,14)             109.1902         estimate D2E/DX2                !
 ! A5    A(7,1,15)             109.0771         estimate D2E/DX2                !
 ! A6    A(14,1,15)            107.4598         estimate D2E/DX2                !
 ! A7    A(11,2,12)            111.2682         estimate D2E/DX2                !
 ! A8    A(11,2,13)            110.8438         estimate D2E/DX2                !
 ! A9    A(11,2,27)            104.9032         estimate D2E/DX2                !
 ! A10   A(12,2,13)            108.5144         estimate D2E/DX2                !
 ! A11   A(12,2,27)            110.8131         estimate D2E/DX2                !
 ! A12   A(13,2,27)            110.4905         estimate D2E/DX2                !
 ! A13   A(8,3,9)              114.776          estimate D2E/DX2                !
 ! A14   A(8,3,16)             106.2485         estimate D2E/DX2                !
 ! A15   A(8,3,30)             109.4427         estimate D2E/DX2                !
 ! A16   A(9,3,16)             108.0808         estimate D2E/DX2                !
 ! A17   A(9,3,30)             111.0522         estimate D2E/DX2                !
 ! A18   A(16,3,30)            106.8231         estimate D2E/DX2                !
 ! A19   A(1,4,13)             109.6264         estimate D2E/DX2                !
 ! A20   A(1,4,17)             110.594          estimate D2E/DX2                !
 ! A21   A(1,4,18)             109.6854         estimate D2E/DX2                !
 ! A22   A(13,4,17)            109.8002         estimate D2E/DX2                !
 ! A23   A(13,4,18)            110.1568         estimate D2E/DX2                !
 ! A24   A(17,4,18)            106.9443         estimate D2E/DX2                !
 ! A25   A(6,5,9)              110.8372         estimate D2E/DX2                !
 ! A26   A(6,5,28)             108.9269         estimate D2E/DX2                !
 ! A27   A(6,5,29)             106.5086         estimate D2E/DX2                !
 ! A28   A(9,5,28)             110.7079         estimate D2E/DX2                !
 ! A29   A(9,5,29)             111.4061         estimate D2E/DX2                !
 ! A30   A(28,5,29)            108.3145         estimate D2E/DX2                !
 ! A31   A(5,6,10)             112.901          estimate D2E/DX2                !
 ! A32   A(1,7,11)             111.4422         estimate D2E/DX2                !
 ! A33   A(1,7,19)             110.6208         estimate D2E/DX2                !
 ! A34   A(1,7,20)             111.4718         estimate D2E/DX2                !
 ! A35   A(11,7,19)            109.4663         estimate D2E/DX2                !
 ! A36   A(11,7,20)            105.5814         estimate D2E/DX2                !
 ! A37   A(19,7,20)            108.0816         estimate D2E/DX2                !
 ! A38   A(3,8,10)             110.6541         estimate D2E/DX2                !
 ! A39   A(3,8,12)             114.0974         estimate D2E/DX2                !
 ! A40   A(3,8,31)             107.8922         estimate D2E/DX2                !
 ! A41   A(10,8,12)            114.5586         estimate D2E/DX2                !
 ! A42   A(10,8,31)            106.6711         estimate D2E/DX2                !
 ! A43   A(12,8,31)            102.1244         estimate D2E/DX2                !
 ! A44   A(3,9,5)              110.6859         estimate D2E/DX2                !
 ! A45   A(3,9,21)             111.2946         estimate D2E/DX2                !
 ! A46   A(3,9,22)             109.5719         estimate D2E/DX2                !
 ! A47   A(5,9,21)             109.3026         estimate D2E/DX2                !
 ! A48   A(5,9,22)             109.0791         estimate D2E/DX2                !
 ! A49   A(21,9,22)            106.8074         estimate D2E/DX2                !
 ! A50   A(6,10,8)             113.2401         estimate D2E/DX2                !
 ! A51   A(6,10,23)            108.9017         estimate D2E/DX2                !
 ! A52   A(6,10,24)            107.2529         estimate D2E/DX2                !
 ! A53   A(8,10,23)            107.8843         estimate D2E/DX2                !
 ! A54   A(8,10,24)            111.0579         estimate D2E/DX2                !
 ! A55   A(23,10,24)           108.3944         estimate D2E/DX2                !
 ! A56   A(2,11,7)             115.9666         estimate D2E/DX2                !
 ! A57   A(2,12,8)             122.9707         estimate D2E/DX2                !
 ! A58   A(2,13,4)             112.0298         estimate D2E/DX2                !
 ! A59   A(2,13,25)            107.3181         estimate D2E/DX2                !
 ! A60   A(2,13,26)            108.8989         estimate D2E/DX2                !
 ! A61   A(4,13,25)            109.3615         estimate D2E/DX2                !
 ! A62   A(4,13,26)            111.5593         estimate D2E/DX2                !
 ! A63   A(25,13,26)           107.4827         estimate D2E/DX2                !
 ! D1    D(7,1,4,13)            52.6931         estimate D2E/DX2                !
 ! D2    D(7,1,4,17)           173.9035         estimate D2E/DX2                !
 ! D3    D(7,1,4,18)           -68.3802         estimate D2E/DX2                !
 ! D4    D(14,1,4,13)          -67.5756         estimate D2E/DX2                !
 ! D5    D(14,1,4,17)           53.6348         estimate D2E/DX2                !
 ! D6    D(14,1,4,18)          171.3511         estimate D2E/DX2                !
 ! D7    D(15,1,4,13)          173.6946         estimate D2E/DX2                !
 ! D8    D(15,1,4,17)          -65.095          estimate D2E/DX2                !
 ! D9    D(15,1,4,18)           52.6213         estimate D2E/DX2                !
 ! D10   D(4,1,7,11)           -54.6743         estimate D2E/DX2                !
 ! D11   D(4,1,7,19)            67.3533         estimate D2E/DX2                !
 ! D12   D(4,1,7,20)          -172.3578         estimate D2E/DX2                !
 ! D13   D(14,1,7,11)           65.9452         estimate D2E/DX2                !
 ! D14   D(14,1,7,19)         -172.0272         estimate D2E/DX2                !
 ! D15   D(14,1,7,20)          -51.7383         estimate D2E/DX2                !
 ! D16   D(15,1,7,11)         -176.8923         estimate D2E/DX2                !
 ! D17   D(15,1,7,19)          -54.8647         estimate D2E/DX2                !
 ! D18   D(15,1,7,20)           65.4242         estimate D2E/DX2                !
 ! D19   D(12,2,11,7)           65.2325         estimate D2E/DX2                !
 ! D20   D(13,2,11,7)          -55.6189         estimate D2E/DX2                !
 ! D21   D(27,2,11,7)         -174.8894         estimate D2E/DX2                !
 ! D22   D(11,2,12,8)           85.57           estimate D2E/DX2                !
 ! D23   D(13,2,12,8)         -152.2206         estimate D2E/DX2                !
 ! D24   D(27,2,12,8)          -30.7391         estimate D2E/DX2                !
 ! D25   D(11,2,13,4)           52.2666         estimate D2E/DX2                !
 ! D26   D(11,2,13,25)         -67.7857         estimate D2E/DX2                !
 ! D27   D(11,2,13,26)         176.1511         estimate D2E/DX2                !
 ! D28   D(12,2,13,4)          -70.2009         estimate D2E/DX2                !
 ! D29   D(12,2,13,25)         169.7469         estimate D2E/DX2                !
 ! D30   D(12,2,13,26)          53.6836         estimate D2E/DX2                !
 ! D31   D(27,2,13,4)          168.1197         estimate D2E/DX2                !
 ! D32   D(27,2,13,25)          48.0675         estimate D2E/DX2                !
 ! D33   D(27,2,13,26)         -67.9958         estimate D2E/DX2                !
 ! D34   D(9,3,8,10)            40.609          estimate D2E/DX2                !
 ! D35   D(9,3,8,12)           -90.3238         estimate D2E/DX2                !
 ! D36   D(9,3,8,31)           156.9594         estimate D2E/DX2                !
 ! D37   D(16,3,8,10)          -78.7685         estimate D2E/DX2                !
 ! D38   D(16,3,8,12)          150.2987         estimate D2E/DX2                !
 ! D39   D(16,3,8,31)           37.5819         estimate D2E/DX2                !
 ! D40   D(30,3,8,10)          166.2348         estimate D2E/DX2                !
 ! D41   D(30,3,8,12)           35.3019         estimate D2E/DX2                !
 ! D42   D(30,3,8,31)          -77.4148         estimate D2E/DX2                !
 ! D43   D(8,3,9,5)            -43.8044         estimate D2E/DX2                !
 ! D44   D(8,3,9,21)            77.9583         estimate D2E/DX2                !
 ! D45   D(8,3,9,22)          -164.1403         estimate D2E/DX2                !
 ! D46   D(16,3,9,5)            74.5463         estimate D2E/DX2                !
 ! D47   D(16,3,9,21)         -163.691          estimate D2E/DX2                !
 ! D48   D(16,3,9,22)          -45.7896         estimate D2E/DX2                !
 ! D49   D(30,3,9,5)          -168.5886         estimate D2E/DX2                !
 ! D50   D(30,3,9,21)          -46.8259         estimate D2E/DX2                !
 ! D51   D(30,3,9,22)           71.0755         estimate D2E/DX2                !
 ! D52   D(1,4,13,2)           -52.0703         estimate D2E/DX2                !
 ! D53   D(1,4,13,25)           66.7823         estimate D2E/DX2                !
 ! D54   D(1,4,13,26)         -174.4527         estimate D2E/DX2                !
 ! D55   D(17,4,13,2)         -173.7582         estimate D2E/DX2                !
 ! D56   D(17,4,13,25)         -54.9056         estimate D2E/DX2                !
 ! D57   D(17,4,13,26)          63.8594         estimate D2E/DX2                !
 ! D58   D(18,4,13,2)           68.7178         estimate D2E/DX2                !
 ! D59   D(18,4,13,25)        -172.4296         estimate D2E/DX2                !
 ! D60   D(18,4,13,26)         -53.6645         estimate D2E/DX2                !
 ! D61   D(9,5,6,10)           -63.5225         estimate D2E/DX2                !
 ! D62   D(28,5,6,10)           58.5157         estimate D2E/DX2                !
 ! D63   D(29,5,6,10)          175.1378         estimate D2E/DX2                !
 ! D64   D(6,5,9,3)             53.4459         estimate D2E/DX2                !
 ! D65   D(6,5,9,21)           -69.4803         estimate D2E/DX2                !
 ! D66   D(6,5,9,22)           174.0754         estimate D2E/DX2                !
 ! D67   D(28,5,9,3)           -67.5455         estimate D2E/DX2                !
 ! D68   D(28,5,9,21)          169.5282         estimate D2E/DX2                !
 ! D69   D(28,5,9,22)           53.084          estimate D2E/DX2                !
 ! D70   D(29,5,9,3)           171.856          estimate D2E/DX2                !
 ! D71   D(29,5,9,21)           48.9297         estimate D2E/DX2                !
 ! D72   D(29,5,9,22)          -67.5146         estimate D2E/DX2                !
 ! D73   D(5,6,10,8)            61.2171         estimate D2E/DX2                !
 ! D74   D(5,6,10,23)          -58.8031         estimate D2E/DX2                !
 ! D75   D(5,6,10,24)         -175.9065         estimate D2E/DX2                !
 ! D76   D(1,7,11,2)            57.6356         estimate D2E/DX2                !
 ! D77   D(19,7,11,2)          -65.0567         estimate D2E/DX2                !
 ! D78   D(20,7,11,2)          178.8195         estimate D2E/DX2                !
 ! D79   D(3,8,10,6)           -47.9301         estimate D2E/DX2                !
 ! D80   D(3,8,10,23)           72.6688         estimate D2E/DX2                !
 ! D81   D(3,8,10,24)         -168.6751         estimate D2E/DX2                !
 ! D82   D(12,8,10,6)           82.7614         estimate D2E/DX2                !
 ! D83   D(12,8,10,23)        -156.6397         estimate D2E/DX2                !
 ! D84   D(12,8,10,24)         -37.9837         estimate D2E/DX2                !
 ! D85   D(31,8,10,6)         -165.0349         estimate D2E/DX2                !
 ! D86   D(31,8,10,23)         -44.436          estimate D2E/DX2                !
 ! D87   D(31,8,10,24)          74.22           estimate D2E/DX2                !
 ! D88   D(3,8,12,2)            71.4821         Frozen                          !
 ! D89   D(10,8,12,2)          -57.51           estimate D2E/DX2                !
 ! D90   D(31,8,12,2)         -172.3935         estimate D2E/DX2                !
 --------------------------------------------------------------------------------
 Trust Radius=3.00D-01 FncErr=1.00D-07 GrdErr=1.00D-06 EigMax=2.50D+02 EigMin=1.00D-04
 Number of steps in this run=    186 maximum allowed number of steps=    186.
 GradGradGradGradGradGradGradGradGradGradGradGradGradGradGradGradGradGrad

                          Input orientation:                          
 ---------------------------------------------------------------------
 Center     Atomic      Atomic             Coordinates (Angstroms)
 Number     Number       Type             X           Y           Z
 ---------------------------------------------------------------------
      1          6           0        3.450855   -0.520974    0.071764
      2          6           0        0.720692    0.372105    0.457030
      3          6           0       -2.144104    1.324555   -0.590919
      4          6           0        3.105634    0.949878   -0.161416
      5          6           0       -3.082801   -0.531257    0.818108
      6          8           0       -1.991609   -1.338220    0.416772
      7          6           0        2.224764   -1.389301   -0.156864
      8          6           0       -1.143434    0.318547   -1.179289
      9          6           0       -2.707860    0.941616    0.783013
     10          6           0       -1.603680   -1.111418   -0.920753
     11          8           0        1.128941   -0.960383    0.638895
     12          8           0        0.214207    0.576182   -0.830091
     13          6           0        1.883841    1.329843    0.676380
     14          1           0        3.801730   -0.659308    1.091921
     15          1           0        4.245710   -0.846757   -0.593320
     16          1           0       -2.972607    1.375807   -1.293300
     17          1           0        3.945064    1.585745    0.102972
     18          1           0        2.902692    1.115514   -1.216107
     19          1           0        1.938172   -1.377828   -1.203089
     20          1           0        2.407676   -2.415824    0.129787
     21          1           0       -1.994779    1.148780    1.572809
     22          1           0       -3.591237    1.538015    0.992993
     23          1           0       -2.451022   -1.312536   -1.572304
     24          1           0       -0.821090   -1.818555   -1.151497
     25          1           0        2.142962    1.287927    1.731018
     26          1           0        1.552245    2.340140    0.462209
     27          1           0       -0.042457    0.531010    1.197508
     28          1           0       -3.927986   -0.728855    0.161987
     29          1           0       -3.347503   -0.847453    1.817857
     30          1           0       -1.692290    2.310726   -0.565747
     31          1           0       -1.131035    0.451248   -2.252635
 ---------------------------------------------------------------------
                    Distance matrix (angstroms):
                    1          2          3          4          5
     1  C    0.000000
     2  C    2.898243   0.000000
     3  C    5.928633   3.195687   0.000000
     4  C    1.528711   2.530661   5.280588   0.000000
     5  C    6.576154   3.925939   2.512080   6.438164   0.000000
     6  O    5.514285   3.206775   2.851152   5.617079   1.415260
     7  C    1.519724   2.396174   5.161436   2.499542   5.464161
     8  C    4.835020   2.481003   1.536090   4.414660   2.910826
     9  C    6.369836   3.490785   1.533673   5.889714   1.520252
    10  C    5.184789   3.082504   2.516905   5.196458   2.355424
    11  O    2.430227   1.405442   4.176866   2.863025   4.237338
    12  O    3.534542   1.398161   2.485739   2.991175   3.848798
    13  C    2.499323   1.522594   4.222608   1.529397   5.305781
    14  H    1.087644   3.310543   6.490039   2.155199   6.891164
    15  H    1.086400   3.874869   6.748654   2.171224   7.469856
    16  H    6.835352   4.208507   1.087374   6.197386   2.847293
    17  H    2.164135   3.463359   6.134140   1.085758   7.374551
    18  H    2.153413   2.848362   5.089667   1.086735   6.532688
    19  H    2.155843   2.701947   4.933822   2.804686   5.478329
    20  H    2.163804   3.274989   5.935365   3.449622   5.845572
    21  H    5.890343   3.036770   2.175986   5.390854   2.139133
    22  H    7.394536   4.498815   2.156046   6.821044   2.137985
    23  H    6.177514   4.125043   2.830471   6.163242   2.592993
    24  H    4.629211   3.124651   3.455974   4.905471   3.263712
    25  H    2.781336   2.117694   4.875620   2.149958   5.608158
    26  H    3.455885   2.136509   3.975360   2.175949   5.463995
    27  H    3.818010   1.075153   2.871429   3.454360   3.242846
    28  H    7.382320   4.786373   2.822339   7.238408   1.088061
    29  H    7.026600   4.459751   3.459478   6.985048   1.081455
    30  H    5.905666   3.259878   1.085036   5.003545   3.453323
    31  H    5.228935   3.282901   2.133137   4.750915   3.768842
                    6          7          8          9         10
     6  O    0.000000
     7  C    4.255522   0.000000
     8  C    2.451874   3.912398   0.000000
     9  C    2.417602   5.536002   2.585783   0.000000
    10  C    1.410993   3.913787   1.524292   2.887383   0.000000
    11  O    3.151179   1.420574   3.178859   4.284788   3.150005
    12  O    3.175725   2.891141   1.425308   3.357696   2.482121
    13  C    4.712226   2.864309   3.691967   4.609318   4.546800
    14  H    5.871927   2.139901   5.528946   6.710674   5.785648
    15  H    6.337663   2.137538   5.544742   7.310589   5.864522
    16  H    3.354496   5.995830   2.115815   2.137683   2.863397
    17  H    6.625113   3.446425   5.398407   6.718538   6.253900
    18  H    5.713255   2.802799   4.124033   5.958608   5.035261
    19  H    4.250729   1.084829   3.517748   5.559679   3.563061
    20  H    4.538425   1.081376   4.669138   6.153683   4.346963
    21  H    2.742554   5.219020   2.998019   1.084057   3.388112
    22  H    3.341193   6.611900   3.492514   1.086342   3.825219
    23  H    2.041603   4.885933   2.127129   3.270273   1.087638
    24  H    2.015020   3.232767   2.161454   3.862742   1.079691
    25  H    5.071348   3.276941   4.495551   4.954707   5.179389
    26  H    5.107964   3.839826   3.748071   4.495251   4.877058
    27  H    2.811185   3.265304   2.628013   2.728512   3.101938
    28  H    2.045922   6.196304   3.263403   2.159827   2.592504
    29  H    2.010557   5.936605   3.898764   2.163519   3.257389
    30  H    3.790744   5.403767   2.155563   2.173706   3.441649
    31  H    3.326938   4.363630   1.081589   3.455719   2.106948
                   11         12         13         14         15
    11  O    0.000000
    12  O    2.314236   0.000000
    13  C    2.411724   2.371737   0.000000
    14  H    2.727578   4.253338   2.794225   0.000000
    15  H    3.353433   4.281802   3.453716   1.752796   0.000000
    16  H    5.100378   3.318094   5.240882   7.464758   7.585108
    17  H    3.834127   3.976068   2.154744   2.457403   2.547995
    18  H    3.300996   2.769086   2.159977   3.047172   2.458062
    19  H    2.054756   2.632364   3.296489   3.042399   2.445115
    20  H    2.003163   3.832071   3.821412   2.440171   2.522543
    21  H    3.883090   3.313822   3.984980   6.090973   6.900579
    22  H    5.352332   4.327836   5.488174   7.713234   8.343936
    23  H    4.222505   3.349863   5.552457   6.828009   6.783921
    24  H    2.782909   2.628670   4.535438   5.267565   5.189260
    25  H    2.697382   3.284198   1.086813   2.636604   3.792225
    26  H    3.332245   2.563578   1.084677   3.801764   4.304092
    27  H    1.976986   2.044279   2.149496   4.025640   4.847028
    28  H    5.084639   4.454784   6.187097   7.785764   8.209366
    29  H    4.630470   4.660917   5.780186   7.188457   7.966847
    30  H    4.484491   2.590994   3.910719   6.461673   6.725348
    31  H    3.932066   1.961865   4.294244   6.062306   5.774732
                   16         17         18         19         20
    16  H    0.000000
    17  H    7.060299   0.000000
    18  H    5.881569   1.745745   0.000000
    19  H    5.630843   3.810010   2.673429   0.000000
    20  H    6.734173   4.286821   3.811407   1.753405   0.000000
    21  H    3.036819   6.134582   5.635990   5.436677   5.845539
    22  H    2.374058   7.588824   6.872390   6.625653   7.236361
    23  H    2.752650   7.219176   5.889360   4.405180   5.265103
    24  H    3.853970   5.989923   4.741254   2.794714   3.524677
    25  H    5.943338   2.446794   3.048354   3.969531   4.043734
    26  H    4.948337   2.534511   2.477935   4.092120   4.843703
    27  H    3.937459   4.267411   3.852413   3.650948   3.978318
    28  H    2.731339   8.206447   7.208259   6.057756   6.556486
    29  H    3.842230   7.876726   7.219634   6.111119   6.199311
    30  H    1.744310   5.722984   4.792219   5.214584   6.295535
    31  H    2.272998   5.709882   4.217415   3.723855   5.139894
                   21         22         23         24         25
    21  H    0.000000
    22  H    1.742518   0.000000
    23  H    4.019698   4.000810   0.000000
    24  H    4.195768   4.851712   1.757786   0.000000
    25  H    4.143102   5.786904   6.227281   5.171530   0.000000
    26  H    3.903095   5.232642   5.788560   5.052871   1.750993
    27  H    2.081839   3.694553   4.107518   3.412411   2.373523
    28  H    3.041911   2.437759   2.351568   3.544783   6.586781
    29  H    2.423810   2.535797   3.537396   4.017818   5.891740
    30  H    2.452558   2.575413   3.836256   4.260640   4.585892
    31  H    3.983293   4.215182   2.305678   2.541766   5.223847
                   26         27         28         29         30
    26  H    0.000000
    27  H    2.521248   0.000000
    28  H    6.288227   4.213894   0.000000
    29  H    6.000505   3.634326   1.758673   0.000000
    30  H    3.403611   2.999734   3.842784   4.288985   0.000000
    31  H    4.258906   3.618681   3.878914   4.813342   2.572597
                   31
    31  H    0.000000
 Stoichiometry    C10H18O3
 Framework group  C1[X(C10H18O3)]
 Deg. of freedom    87
 Full point group                 C1      NOp   1
 Largest Abelian subgroup         C1      NOp   1
 Largest concise Abelian subgroup C1      NOp   1
                         Standard orientation:                         
 ---------------------------------------------------------------------
 Center     Atomic      Atomic             Coordinates (Angstroms)
 Number     Number       Type             X           Y           Z
 ---------------------------------------------------------------------
      1          6           0       -3.450855   -0.520974   -0.071764
      2          6           0       -0.720692    0.372105   -0.457030
      3          6           0        2.144104    1.324555    0.590919
      4          6           0       -3.105634    0.949878    0.161416
      5          6           0        3.082801   -0.531257   -0.818108
      6          8           0        1.991609   -1.338220   -0.416772
      7          6           0       -2.224764   -1.389301    0.156864
      8          6           0        1.143434    0.318547    1.179289
      9          6           0        2.707860    0.941616   -0.783013
     10          6           0        1.603680   -1.111418    0.920753
     11          8           0       -1.128941   -0.960383   -0.638895
     12          8           0       -0.214207    0.576182    0.830091
     13          6           0       -1.883841    1.329843   -0.676380
     14          1           0       -3.801730   -0.659308   -1.091921
     15          1           0       -4.245710   -0.846757    0.593320
     16          1           0        2.972607    1.375807    1.293300
     17          1           0       -3.945064    1.585745   -0.102972
     18          1           0       -2.902692    1.115514    1.216107
     19          1           0       -1.938172   -1.377828    1.203089
     20          1           0       -2.407676   -2.415824   -0.129787
     21          1           0        1.994779    1.148780   -1.572809
     22          1           0        3.591237    1.538015   -0.992993
     23          1           0        2.451022   -1.312536    1.572304
     24          1           0        0.821090   -1.818555    1.151497
     25          1           0       -2.142962    1.287927   -1.731018
     26          1           0       -1.552245    2.340140   -0.462209
     27          1           0        0.042457    0.531010   -1.197508
     28          1           0        3.927986   -0.728855   -0.161987
     29          1           0        3.347503   -0.847453   -1.817857
     30          1           0        1.692290    2.310726    0.565747
     31          1           0        1.131035    0.451248    2.252635
 ---------------------------------------------------------------------
 Rotational constants (GHZ):           1.6842997           0.5081349           0.4634841
 Standard basis: 6-311++G(2d,2p) (5D, 7F)
 There are   557 symmetry adapted cartesian basis functions of A   symmetry.
 There are   531 symmetry adapted basis functions of A   symmetry.
   531 basis functions,   762 primitive gaussians,   557 cartesian basis functions
    51 alpha electrons       51 beta electrons
       nuclear repulsion energy       917.2326861336 Hartrees.
 NAtoms=   31 NActive=   31 NUniq=   31 SFac= 1.00D+00 NAtFMM=   60 NAOKFM=F Big=F
 Integral buffers will be    131072 words long.
 Raffenetti 2 integral format.
 Two-electron integral symmetry is turned on.
 ------------------------------------------------------------------------------
 Polarizable Continuum Model (PCM)
 =================================
 Model                : PCM.
 Atomic radii         : UFF (Universal Force Field).
 Polarization charges : Total charges.
 Charge compensation  : None.
 Solution method      : On-the-fly selection.
 Cavity type          : Scaled VdW (van der Waals Surface) (Alpha=1.100).
 Cavity algorithm     : GePol (No added spheres)
                        Default sphere list used, NSphG=   31.
                        Lebedev-Laikov grids with approx.  5.0 points / Ang**2.
                        Smoothing algorithm: York/Karplus (Gamma=1.0000).
                        Polarization charges: spherical gaussians, with
                                              point-specific exponents (IZeta= 3).
                        Self-potential: point-specific (ISelfS= 7).
                        Self-field    : sphere-specific E.n sum rule (ISelfD= 2).
 1st derivatives      : Analytical E(r).r(x)/FMM algorithm (CHGder, D1EAlg=3).
                        Cavity 1st derivative terms included.
 Solvent              : Water, Eps=  78.355300 Eps(inf)=   1.777849
 ------------------------------------------------------------------------------
 One-electron integrals computed using PRISM.
 NBasis=   531 RedAO= T EigKep=  4.01D-06  NBF=   531
 NBsUse=   531 1.00D-06 EigRej= -1.00D+00 NBFU=   531
 ExpMin= 3.60D-02 ExpMax= 8.59D+03 ExpMxC= 1.30D+03 IAcc=3 IRadAn=         5 AccDes= 0.00D+00
 Harris functional with IExCor= 1009 and IRadAn=       5 diagonalized for initial guess.
 HarFok:  IExCor= 1009 AccDes= 0.00D+00 IRadAn=         5 IDoV= 1 UseB2=F ITyADJ=14
 ICtDFT=  3500011 ScaDFX=  1.000000  1.000000  1.000000  1.000000
 FoFCou: FMM=F IPFlag=           0 FMFlag=      100000 FMFlg1=           0
         NFxFlg=           0 DoJE=T BraDBF=F KetDBF=T FulRan=T
         wScrn=  0.000000 ICntrl=       500 IOpCl=  0 I1Cent=   200000004 NGrid=           0
         NMat0=    1 NMatS0=      1 NMatT0=    0 NMatD0=    1 NMtDS0=    0 NMtDT0=    0
 Petite list used in FoFCou.
 Requested convergence on RMS density matrix=1.00D-08 within 128 cycles.
 Requested convergence on MAX density matrix=1.00D-06.
 Requested convergence on             energy=1.00D-06.
 No special actions if energy rises.
 Inv3:  Mode=1 IEnd=    12289728.
 Iteration    1 A*A^-1 deviation from unit magnitude is 4.22D-15 for   2014.
 Iteration    1 A*A^-1 deviation from orthogonality  is 1.71D-15 for   1778    360.
 Iteration    1 A^-1*A deviation from unit magnitude is 3.77D-15 for   2014.
 Iteration    1 A^-1*A deviation from orthogonality  is 1.07D-12 for   1741   1704.
 Error on total polarization charges =  0.01464
 SCF Done:  E(RM062X) =  -617.494170837     A.U. after   13 cycles
            NFock= 13  Conv=0.15D-08     -V/T= 2.0035

 **********************************************************************

            Population analysis using the SCF density.

 **********************************************************************

 Orbital symmetries:
       Occupied  (A) (A) (A) (A) (A) (A) (A) (A) (A) (A) (A) (A)
                 (A) (A) (A) (A) (A) (A) (A) (A) (A) (A) (A) (A)
                 (A) (A) (A) (A) (A) (A) (A) (A) (A) (A) (A) (A)
                 (A) (A) (A) (A) (A) (A) (A) (A) (A) (A) (A) (A)
                 (A) (A) (A)
       Virtual   (A) (A) (A) (A) (A) (A) (A) (A) (A) (A) (A) (A)
                 (A) (A) (A) (A) (A) (A) (A) (A) (A) (A) (A) (A)
                 (A) (A) (A) (A) (A) (A) (A) (A) (A) (A) (A) (A)
                 (A) (A) (A) (A) (A) (A) (A) (A) (A) (A) (A) (A)
                 (A) (A) (A) (A) (A) (A) (A) (A) (A) (A) (A) (A)
                 (A) (A) (A) (A) (A) (A) (A) (A) (A) (A) (A) (A)
                 (A) (A) (A) (A) (A) (A) (A) (A) (A) (A) (A) (A)
                 (A) (A) (A) (A) (A) (A) (A) (A) (A) (A) (A) (A)
                 (A) (A) (A) (A) (A) (A) (A) (A) (A) (A) (A) (A)
                 (A) (A) (A) (A) (A) (A) (A) (A) (A) (A) (A) (A)
                 (A) (A) (A) (A) (A) (A) (A) (A) (A) (A) (A) (A)
                 (A) (A) (A) (A) (A) (A) (A) (A) (A) (A) (A) (A)
                 (A) (A) (A) (A) (A) (A) (A) (A) (A) (A) (A) (A)
                 (A) (A) (A) (A) (A) (A) (A) (A) (A) (A) (A) (A)
                 (A) (A) (A) (A) (A) (A) (A) (A) (A) (A) (A) (A)
                 (A) (A) (A) (A) (A) (A) (A) (A) (A) (A) (A) (A)
                 (A) (A) (A) (A) (A) (A) (A) (A) (A) (A) (A) (A)
                 (A) (A) (A) (A) (A) (A) (A) (A) (A) (A) (A) (A)
                 (A) (A) (A) (A) (A) (A) (A) (A) (A) (A) (A) (A)
                 (A) (A) (A) (A) (A) (A) (A) (A) (A) (A) (A) (A)
                 (A) (A) (A) (A) (A) (A) (A) (A) (A) (A) (A) (A)
                 (A) (A) (A) (A) (A) (A) (A) (A) (A) (A) (A) (A)
                 (A) (A) (A) (A) (A) (A) (A) (A) (A) (A) (A) (A)
                 (A) (A) (A) (A) (A) (A) (A) (A) (A) (A) (A) (A)
                 (A) (A) (A) (A) (A) (A) (A) (A) (A) (A) (A) (A)
                 (A) (A) (A) (A) (A) (A) (A) (A) (A) (A) (A) (A)
                 (A) (A) (A) (A) (A) (A) (A) (A) (A) (A) (A) (A)
                 (A) (A) (A) (A) (A) (A) (A) (A) (A) (A) (A) (A)
                 (A) (A) (A) (A) (A) (A) (A) (A) (A) (A) (A) (A)
                 (A) (A) (A) (A) (A) (A) (A) (A) (A) (A) (A) (A)
                 (A) (A) (A) (A) (A) (A) (A) (A) (A) (A) (A) (A)
                 (A) (A) (A) (A) (A) (A) (A) (A) (A) (A) (A) (A)
                 (A) (A) (A) (A) (A) (A) (A) (A) (A) (A) (A) (A)
                 (A) (A) (A) (A) (A) (A) (A) (A) (A) (A) (A) (A)
                 (A) (A) (A) (A) (A) (A) (A) (A) (A) (A) (A) (A)
                 (A) (A) (A) (A) (A) (A) (A) (A) (A) (A) (A) (A)
                 (A) (A) (A) (A) (A) (A) (A) (A) (A) (A) (A) (A)
                 (A) (A) (A) (A) (A) (A) (A) (A) (A) (A) (A) (A)
                 (A) (A) (A) (A) (A) (A) (A) (A) (A) (A) (A) (A)
                 (A) (A) (A) (A) (A) (A) (A) (A) (A) (A) (A) (A)
 The electronic state is 1-A.
 Alpha  occ. eigenvalues --  -19.62621 -19.62501 -19.62217 -10.62998 -10.58905
 Alpha  occ. eigenvalues --  -10.57762 -10.57760 -10.57375 -10.53324 -10.53015
 Alpha  occ. eigenvalues --  -10.52823 -10.52708 -10.52608  -1.19559  -1.16443
 Alpha  occ. eigenvalues --   -1.12991  -0.90573  -0.89518  -0.87535  -0.84680
 Alpha  occ. eigenvalues --   -0.75177  -0.74243  -0.73192  -0.71148  -0.66399
 Alpha  occ. eigenvalues --   -0.62468  -0.59533  -0.58684  -0.56616  -0.55543
 Alpha  occ. eigenvalues --   -0.54492  -0.53424  -0.52226  -0.50679  -0.49804
 Alpha  occ. eigenvalues --   -0.48903  -0.46658  -0.45770  -0.45363  -0.44977
 Alpha  occ. eigenvalues --   -0.43382  -0.42727  -0.42072  -0.40026  -0.39327
 Alpha  occ. eigenvalues --   -0.38372  -0.37114  -0.35774  -0.34651  -0.32868
 Alpha  occ. eigenvalues --   -0.31349
 Alpha virt. eigenvalues --   -0.00203   0.00735   0.00883   0.01205   0.02299
 Alpha virt. eigenvalues --    0.02531   0.02638   0.03254   0.03432   0.04578
 Alpha virt. eigenvalues --    0.04772   0.05029   0.05477   0.05653   0.07283
 Alpha virt. eigenvalues --    0.07542   0.07983   0.08378   0.08712   0.09636
 Alpha virt. eigenvalues --    0.09848   0.10317   0.11125   0.11390   0.11922
 Alpha virt. eigenvalues --    0.12148   0.12794   0.13008   0.13554   0.13658
 Alpha virt. eigenvalues --    0.14027   0.14110   0.14286   0.14586   0.14750
 Alpha virt. eigenvalues --    0.15069   0.15463   0.15664   0.16100   0.16399
 Alpha virt. eigenvalues --    0.16588   0.16815   0.17393   0.17539   0.17670
 Alpha virt. eigenvalues --    0.18308   0.18605   0.18827   0.18904   0.19551
 Alpha virt. eigenvalues --    0.20034   0.20169   0.20577   0.20851   0.21632
 Alpha virt. eigenvalues --    0.22208   0.22524   0.22745   0.23305   0.24307
 Alpha virt. eigenvalues --    0.24932   0.25541   0.25961   0.26536   0.27010
 Alpha virt. eigenvalues --    0.27569   0.27983   0.28703   0.29150   0.30009
 Alpha virt. eigenvalues --    0.30460   0.30886   0.31401   0.31691   0.32257
 Alpha virt. eigenvalues --    0.32683   0.33039   0.33765   0.34644   0.34742
 Alpha virt. eigenvalues --    0.35333   0.35766   0.36189   0.36425   0.36561
 Alpha virt. eigenvalues --    0.37123   0.37468   0.37848   0.38077   0.38461
 Alpha virt. eigenvalues --    0.38716   0.39636   0.40245   0.40766   0.41642
 Alpha virt. eigenvalues --    0.42131   0.42828   0.43699   0.44525   0.44838
 Alpha virt. eigenvalues --    0.46937   0.47631   0.49425   0.50655   0.50799
 Alpha virt. eigenvalues --    0.51157   0.52588   0.53891   0.54882   0.56264
 Alpha virt. eigenvalues --    0.57518   0.57625   0.58099   0.59260   0.59794
 Alpha virt. eigenvalues --    0.60006   0.60741   0.60831   0.61505   0.61695
 Alpha virt. eigenvalues --    0.62280   0.62322   0.63340   0.63958   0.64626
 Alpha virt. eigenvalues --    0.64797   0.65994   0.66729   0.66895   0.67294
 Alpha virt. eigenvalues --    0.67909   0.68534   0.68842   0.69896   0.70514
 Alpha virt. eigenvalues --    0.71199   0.71740   0.72321   0.72934   0.73386
 Alpha virt. eigenvalues --    0.74402   0.74554   0.74869   0.75490   0.75895
 Alpha virt. eigenvalues --    0.76362   0.77684   0.77828   0.78521   0.79120
 Alpha virt. eigenvalues --    0.81197   0.81327   0.83792   0.85375   0.86206
 Alpha virt. eigenvalues --    0.87149   0.87324   0.88367   0.89429   0.89606
 Alpha virt. eigenvalues --    0.90937   0.92071   0.92968   0.95516   0.96231
 Alpha virt. eigenvalues --    0.97597   0.99084   1.01452   1.01585   1.02310
 Alpha virt. eigenvalues --    1.02885   1.03746   1.04660   1.05544   1.06828
 Alpha virt. eigenvalues --    1.07806   1.08622   1.10961   1.12574   1.13242
 Alpha virt. eigenvalues --    1.13521   1.13826   1.15631   1.16613   1.17256
 Alpha virt. eigenvalues --    1.17688   1.18438   1.18792   1.19898   1.20780
 Alpha virt. eigenvalues --    1.21435   1.22059   1.23079   1.23413   1.24411
 Alpha virt. eigenvalues --    1.25604   1.25886   1.26410   1.27592   1.28305
 Alpha virt. eigenvalues --    1.29001   1.30717   1.30768   1.32183   1.32680
 Alpha virt. eigenvalues --    1.32900   1.33399   1.34588   1.34772   1.35349
 Alpha virt. eigenvalues --    1.36163   1.36765   1.37382   1.37785   1.38482
 Alpha virt. eigenvalues --    1.39358   1.39805   1.40034   1.41328   1.41907
 Alpha virt. eigenvalues --    1.42336   1.43307   1.44000   1.44462   1.45092
 Alpha virt. eigenvalues --    1.45968   1.46904   1.48128   1.48300   1.49332
 Alpha virt. eigenvalues --    1.49427   1.50653   1.51236   1.52321   1.53388
 Alpha virt. eigenvalues --    1.53636   1.54333   1.54511   1.55658   1.55930
 Alpha virt. eigenvalues --    1.56694   1.57991   1.58422   1.58881   1.59665
 Alpha virt. eigenvalues --    1.60422   1.60719   1.62229   1.63070   1.64085
 Alpha virt. eigenvalues --    1.64596   1.64644   1.65278   1.66640   1.67800
 Alpha virt. eigenvalues --    1.68812   1.69390   1.70243   1.71814   1.72984
 Alpha virt. eigenvalues --    1.74159   1.75400   1.76518   1.76996   1.77829
 Alpha virt. eigenvalues --    1.78800   1.81007   1.81578   1.82784   1.86269
 Alpha virt. eigenvalues --    1.87026   1.88972   1.90954   1.94285   1.99240
 Alpha virt. eigenvalues --    2.03246   2.07262   2.13176   2.18193   2.21051
 Alpha virt. eigenvalues --    2.23321   2.28141   2.30934   2.34907   2.38130
 Alpha virt. eigenvalues --    2.42764   2.43228   2.45765   2.47509   2.54228
 Alpha virt. eigenvalues --    2.62606   2.76869   2.77911   2.79289   2.81539
 Alpha virt. eigenvalues --    2.86321   2.88457   2.92380   2.93100   2.94873
 Alpha virt. eigenvalues --    2.95739   2.96917   2.99230   3.00785   3.03869
 Alpha virt. eigenvalues --    3.06769   3.07439   3.08536   3.10633   3.12728
 Alpha virt. eigenvalues --    3.13811   3.15445   3.16018   3.19137   3.22280
 Alpha virt. eigenvalues --    3.26094   3.28512   3.30768   3.33766   3.34559
 Alpha virt. eigenvalues --    3.35596   3.37137   3.37837   3.40859   3.41856
 Alpha virt. eigenvalues --    3.42408   3.44423   3.44494   3.45471   3.46844
 Alpha virt. eigenvalues --    3.48074   3.49331   3.51355   3.51647   3.51900
 Alpha virt. eigenvalues --    3.53549   3.54766   3.55257   3.55649   3.56226
 Alpha virt. eigenvalues --    3.57006   3.57846   3.58044   3.58929   3.60120
 Alpha virt. eigenvalues --    3.60553   3.61573   3.63889   3.65240   3.65988
 Alpha virt. eigenvalues --    3.66871   3.67648   3.68158   3.69771   3.70078
 Alpha virt. eigenvalues --    3.71079   3.71869   3.72888   3.73697   3.74346
 Alpha virt. eigenvalues --    3.74935   3.76478   3.76943   3.77619   3.77994
 Alpha virt. eigenvalues --    3.79923   3.81027   3.83322   3.83719   3.85603
 Alpha virt. eigenvalues --    3.86750   3.87413   3.87887   3.89522   3.90448
 Alpha virt. eigenvalues --    3.91929   3.93226   3.94523   3.97378   3.98535
 Alpha virt. eigenvalues --    3.99947   4.01219   4.01756   4.03178   4.04576
 Alpha virt. eigenvalues --    4.06349   4.06395   4.07333   4.07551   4.07884
 Alpha virt. eigenvalues --    4.08621   4.09231   4.09736   4.10608   4.11771
 Alpha virt. eigenvalues --    4.12023   4.13456   4.14957   4.15506   4.16268
 Alpha virt. eigenvalues --    4.17011   4.18047   4.18716   4.20577   4.20795
 Alpha virt. eigenvalues --    4.21911   4.23367   4.25373   4.27146   4.28740
 Alpha virt. eigenvalues --    4.29017   4.30376   4.30473   4.31826   4.32982
 Alpha virt. eigenvalues --    4.33873   4.34334   4.36228   4.37183   4.38594
 Alpha virt. eigenvalues --    4.40500   4.41330   4.46227   4.47204   4.48721
 Alpha virt. eigenvalues --    4.57942   4.61256   4.73473   4.76372   4.79390
 Alpha virt. eigenvalues --    4.85903   4.93640   4.95987   5.01200   5.03362
 Alpha virt. eigenvalues --    5.06937   5.07385   5.08493   5.09610   5.11761
 Alpha virt. eigenvalues --    5.12983   5.14399   5.14935   5.34717   5.41284
 Alpha virt. eigenvalues --    5.43821   5.59636   5.62267   5.68387   5.85946
 Alpha virt. eigenvalues --    5.87800   6.01754   7.01128   7.05662   7.08280
 Alpha virt. eigenvalues --    7.09594   7.10908   7.12781   7.14703   7.19290
 Alpha virt. eigenvalues --    7.28289   7.37655   7.42183   7.49399   7.52943
 Alpha virt. eigenvalues --    7.54619   7.64120  23.96916  23.97324  24.06644
 Alpha virt. eigenvalues --   24.07868  24.10015  24.12054  24.12934  24.15425
 Alpha virt. eigenvalues --   24.16153  24.20651  50.17526  50.18397  50.28478
          Condensed to atoms (all electrons):
               1          2          3          4          5          6
     1  C    5.797781   0.338531  -0.009886   0.007105   0.003575  -0.000549
     2  C    0.338531   8.149680   0.180154  -0.352458  -0.019275  -0.002265
     3  C   -0.009886   0.180154   6.324233  -0.019985   0.041998   0.008661
     4  C    0.007105  -0.352458  -0.019985   5.718223   0.002891   0.003900
     5  C    0.003575  -0.019275   0.041998   0.002891   5.576874   0.061370
     6  O   -0.000549  -0.002265   0.008661   0.003900   0.061370   8.243338
     7  C   -0.145983  -0.480596   0.039897  -0.030322   0.010847  -0.001655
     8  C    0.035569  -1.095228  -0.961270   0.112840   0.258238   0.020998
     9  C    0.003156   0.053452  -0.202111   0.004550  -0.124911   0.041100
    10  C   -0.053255   0.289340   0.513349  -0.053986  -0.305886   0.125489
    11  O   -0.089171   0.218475  -0.001834   0.019530  -0.007791   0.001965
    12  O   -0.008888   0.380518   0.016129  -0.027704  -0.012039  -0.010814
    13  C   -0.240001  -1.661194  -0.027607   0.120923  -0.063170   0.038476
    14  H    0.483482  -0.007895  -0.001045  -0.014876  -0.000534   0.000143
    15  H    0.446289   0.018186   0.000722  -0.058152   0.000424  -0.000074
    16  H   -0.001510  -0.000387   0.489156   0.000628  -0.022857   0.000047
    17  H   -0.008839   0.002872  -0.002028   0.414417  -0.000310   0.000073
    18  H   -0.071519  -0.042640   0.004296   0.529492  -0.000004   0.000214
    19  H   -0.072909  -0.007378  -0.003954  -0.008901  -0.000702   0.001067
    20  H   -0.025287  -0.011603   0.001607   0.014221   0.001139   0.000262
    21  H   -0.007247   0.008228  -0.060867   0.005847  -0.117595  -0.007803
    22  H    0.000495   0.002835  -0.052440  -0.000271  -0.014288   0.008060
    23  H    0.000551  -0.014926  -0.056146   0.000186  -0.009442  -0.052545
    24  H   -0.002337   0.039252   0.009188  -0.004326   0.000961  -0.069712
    25  H   -0.024691  -0.175970   0.003862   0.012672  -0.000651  -0.000195
    26  H   -0.007946  -0.022541  -0.002590  -0.040460   0.003412  -0.000030
    27  H    0.061797   0.518994  -0.070646  -0.073524   0.052230  -0.026438
    28  H   -0.000029  -0.007982  -0.058964  -0.000150   0.441271  -0.058773
    29  H    0.000266   0.000539   0.014186   0.000638   0.457396  -0.066511
    30  H    0.003533  -0.000145   0.420299   0.001152  -0.001648  -0.000780
    31  H   -0.001485  -0.034638  -0.031390   0.003180   0.000774   0.004302
               7          8          9         10         11         12
     1  C   -0.145983   0.035569   0.003156  -0.053255  -0.089171  -0.008888
     2  C   -0.480596  -1.095228   0.053452   0.289340   0.218475   0.380518
     3  C    0.039897  -0.961270  -0.202111   0.513349  -0.001834   0.016129
     4  C   -0.030322   0.112840   0.004550  -0.053986   0.019530  -0.027704
     5  C    0.010847   0.258238  -0.124911  -0.305886  -0.007791  -0.012039
     6  O   -0.001655   0.020998   0.041100   0.125489   0.001965  -0.010814
     7  C    5.611402   0.032897  -0.038461   0.037794   0.111773  -0.014384
     8  C    0.032897   8.441723  -0.143480  -1.543907   0.003250  -0.122002
     9  C   -0.038461  -0.143480   5.792628   0.042230  -0.006022  -0.028224
    10  C    0.037794  -1.543907   0.042230   6.741250   0.017048   0.065594
    11  O    0.111773   0.003250  -0.006022   0.017048   8.226361  -0.066150
    12  O   -0.014384  -0.122002  -0.028224   0.065594  -0.066150   8.296151
    13  C    0.197374   0.192400   0.009492  -0.140979  -0.005856  -0.102005
    14  H   -0.086971  -0.003829   0.001338   0.000615   0.000302   0.000687
    15  H   -0.036955   0.002371  -0.000601  -0.000296   0.008211   0.000035
    16  H    0.002218  -0.077367  -0.027814   0.006526  -0.000138   0.001658
    17  H    0.006451   0.007498  -0.000117  -0.002190  -0.003399  -0.000447
    18  H    0.002328  -0.003161   0.000835  -0.003826   0.000755  -0.001396
    19  H    0.486085  -0.029158   0.001905   0.019817  -0.032556   0.006922
    20  H    0.439045   0.011177  -0.002097  -0.002702  -0.070744  -0.000453
    21  H    0.006909  -0.061335   0.571859   0.052451   0.004353   0.003325
    22  H   -0.001062   0.032885   0.416934  -0.016427  -0.000557  -0.002328
    23  H   -0.000462   0.073083   0.011507   0.401584   0.002500  -0.006136
    24  H   -0.007634  -0.091623   0.019408   0.406508  -0.006062   0.017611
    25  H    0.016308   0.001710  -0.002847  -0.001596  -0.001846   0.009823
    26  H    0.008195   0.013990  -0.003770  -0.000344   0.011186  -0.000134
    27  H   -0.062427   0.147046  -0.039847  -0.038797  -0.109118  -0.034223
    28  H    0.000992   0.082979   0.000270  -0.060230  -0.000714  -0.001462
    29  H   -0.000689   0.017128  -0.063560  -0.017630   0.000282  -0.000479
    30  H   -0.004268  -0.024542  -0.008218  -0.021165  -0.000571   0.002922
    31  H    0.007028   0.524549  -0.025829  -0.046251   0.004068  -0.063718
              13         14         15         16         17         18
     1  C   -0.240001   0.483482   0.446289  -0.001510  -0.008839  -0.071519
     2  C   -1.661194  -0.007895   0.018186  -0.000387   0.002872  -0.042640
     3  C   -0.027607  -0.001045   0.000722   0.489156  -0.002028   0.004296
     4  C    0.120923  -0.014876  -0.058152   0.000628   0.414417   0.529492
     5  C   -0.063170  -0.000534   0.000424  -0.022857  -0.000310  -0.000004
     6  O    0.038476   0.000143  -0.000074   0.000047   0.000073   0.000214
     7  C    0.197374  -0.086971  -0.036955   0.002218   0.006451   0.002328
     8  C    0.192400  -0.003829   0.002371  -0.077367   0.007498  -0.003161
     9  C    0.009492   0.001338  -0.000601  -0.027814  -0.000117   0.000835
    10  C   -0.140979   0.000615  -0.000296   0.006526  -0.002190  -0.003826
    11  O   -0.005856   0.000302   0.008211  -0.000138  -0.003399   0.000755
    12  O   -0.102005   0.000687   0.000035   0.001658  -0.000447  -0.001396
    13  C    7.436273  -0.004491  -0.009310   0.003372  -0.039314  -0.031090
    14  H   -0.004491   0.483442  -0.011721  -0.000016  -0.000917   0.001795
    15  H   -0.009310  -0.011721   0.489908  -0.000005  -0.008615  -0.005013
    16  H    0.003372  -0.000016  -0.000005   0.432611  -0.000009   0.000266
    17  H   -0.039314  -0.000917  -0.008615  -0.000009   0.465759  -0.005952
    18  H   -0.031090   0.001795  -0.005013   0.000266  -0.005952   0.458644
    19  H    0.019254   0.004212   0.001218  -0.000080  -0.001894  -0.000846
    20  H   -0.005639  -0.006065  -0.009353   0.000045   0.001055  -0.002195
    21  H    0.021785  -0.000128  -0.000064   0.006557  -0.000054   0.000619
    22  H   -0.004601   0.000010   0.000001  -0.009151  -0.000026  -0.000050
    23  H   -0.000344   0.000019  -0.000053  -0.003312   0.000028  -0.000331
    24  H    0.018244   0.000479  -0.000203  -0.000896   0.000053   0.001069
    25  H    0.559616  -0.001276  -0.003380   0.000234  -0.003871   0.002834
    26  H    0.403918  -0.001618   0.001688  -0.000267  -0.009006  -0.002595
    27  H   -0.251966   0.000989   0.002943  -0.006815   0.002361  -0.006895
    28  H    0.000208  -0.000026   0.000023  -0.002988  -0.000002   0.000027
    29  H    0.002716   0.000067  -0.000032  -0.001191   0.000011   0.000009
    30  H    0.004859  -0.000075   0.000025   0.000612   0.000304  -0.000480
    31  H   -0.012115  -0.000236   0.000247  -0.005554   0.000361  -0.001364
              19         20         21         22         23         24
     1  C   -0.072909  -0.025287  -0.007247   0.000495   0.000551  -0.002337
     2  C   -0.007378  -0.011603   0.008228   0.002835  -0.014926   0.039252
     3  C   -0.003954   0.001607  -0.060867  -0.052440  -0.056146   0.009188
     4  C   -0.008901   0.014221   0.005847  -0.000271   0.000186  -0.004326
     5  C   -0.000702   0.001139  -0.117595  -0.014288  -0.009442   0.000961
     6  O    0.001067   0.000262  -0.007803   0.008060  -0.052545  -0.069712
     7  C    0.486085   0.439045   0.006909  -0.001062  -0.000462  -0.007634
     8  C   -0.029158   0.011177  -0.061335   0.032885   0.073083  -0.091623
     9  C    0.001905  -0.002097   0.571859   0.416934   0.011507   0.019408
    10  C    0.019817  -0.002702   0.052451  -0.016427   0.401584   0.406508
    11  O   -0.032556  -0.070744   0.004353  -0.000557   0.002500  -0.006062
    12  O    0.006922  -0.000453   0.003325  -0.002328  -0.006136   0.017611
    13  C    0.019254  -0.005639   0.021785  -0.004601  -0.000344   0.018244
    14  H    0.004212  -0.006065  -0.000128   0.000010   0.000019   0.000479
    15  H    0.001218  -0.009353  -0.000064   0.000001  -0.000053  -0.000203
    16  H   -0.000080   0.000045   0.006557  -0.009151  -0.003312  -0.000896
    17  H   -0.001894   0.001055  -0.000054  -0.000026   0.000028   0.000053
    18  H   -0.000846  -0.002195   0.000619  -0.000050  -0.000331   0.001069
    19  H    0.491301  -0.011533   0.000018   0.000034   0.000390   0.000096
    20  H   -0.011533   0.477908   0.000006  -0.000055  -0.000083  -0.002579
    21  H    0.000018   0.000006   0.509345  -0.011424  -0.001518   0.001003
    22  H    0.000034  -0.000055  -0.011424   0.461841   0.000620   0.000397
    23  H    0.000390  -0.000083  -0.001518   0.000620   0.462079  -0.010944
    24  H    0.000096  -0.002579   0.001003   0.000397  -0.010944   0.497528
    25  H   -0.000382  -0.000180   0.002400  -0.000157  -0.000109   0.000572
    26  H   -0.000505   0.001413  -0.001966   0.000141   0.000089  -0.001218
    27  H    0.001922  -0.000077  -0.051934   0.004784   0.002440  -0.000896
    28  H   -0.000363   0.000116   0.001542   0.005225   0.005828  -0.002690
    29  H    0.000159  -0.000126  -0.006710  -0.007744  -0.001397   0.001364
    30  H   -0.000362   0.000001  -0.007460  -0.004574  -0.000951   0.001601
    31  H   -0.002953   0.000936  -0.000561   0.000682   0.003090  -0.020423
              25         26         27         28         29         30
     1  C   -0.024691  -0.007946   0.061797  -0.000029   0.000266   0.003533
     2  C   -0.175970  -0.022541   0.518994  -0.007982   0.000539  -0.000145
     3  C    0.003862  -0.002590  -0.070646  -0.058964   0.014186   0.420299
     4  C    0.012672  -0.040460  -0.073524  -0.000150   0.000638   0.001152
     5  C   -0.000651   0.003412   0.052230   0.441271   0.457396  -0.001648
     6  O   -0.000195  -0.000030  -0.026438  -0.058773  -0.066511  -0.000780
     7  C    0.016308   0.008195  -0.062427   0.000992  -0.000689  -0.004268
     8  C    0.001710   0.013990   0.147046   0.082979   0.017128  -0.024542
     9  C   -0.002847  -0.003770  -0.039847   0.000270  -0.063560  -0.008218
    10  C   -0.001596  -0.000344  -0.038797  -0.060230  -0.017630  -0.021165
    11  O   -0.001846   0.011186  -0.109118  -0.000714   0.000282  -0.000571
    12  O    0.009823  -0.000134  -0.034223  -0.001462  -0.000479   0.002922
    13  C    0.559616   0.403918  -0.251966   0.000208   0.002716   0.004859
    14  H   -0.001276  -0.001618   0.000989  -0.000026   0.000067  -0.000075
    15  H   -0.003380   0.001688   0.002943   0.000023  -0.000032   0.000025
    16  H    0.000234  -0.000267  -0.006815  -0.002988  -0.001191   0.000612
    17  H   -0.003871  -0.009006   0.002361  -0.000002   0.000011   0.000304
    18  H    0.002834  -0.002595  -0.006895   0.000027   0.000009  -0.000480
    19  H   -0.000382  -0.000505   0.001922  -0.000363   0.000159  -0.000362
    20  H   -0.000180   0.001413  -0.000077   0.000116  -0.000126   0.000001
    21  H    0.002400  -0.001966  -0.051934   0.001542  -0.006710  -0.007460
    22  H   -0.000157   0.000141   0.004784   0.005225  -0.007744  -0.004574
    23  H   -0.000109   0.000089   0.002440   0.005828  -0.001397  -0.000951
    24  H    0.000572  -0.001218  -0.000896  -0.002690   0.001364   0.001601
    25  H    0.456393  -0.005654  -0.029415  -0.000076   0.000023   0.000257
    26  H   -0.005654   0.485303  -0.003368   0.000064  -0.000045  -0.003035
    27  H   -0.029415  -0.003368   0.623525  -0.002396   0.001100   0.003673
    28  H   -0.000076   0.000064  -0.002396   0.499613  -0.008342  -0.000847
    29  H    0.000023  -0.000045   0.001100  -0.008342   0.479648   0.000223
    30  H    0.000257  -0.003035   0.003673  -0.000847   0.000223   0.474192
    31  H   -0.000739   0.002479   0.001687   0.004835   0.000141  -0.011015
              31
     1  C   -0.001485
     2  C   -0.034638
     3  C   -0.031390
     4  C    0.003180
     5  C    0.000774
     6  O    0.004302
     7  C    0.007028
     8  C    0.524549
     9  C   -0.025829
    10  C   -0.046251
    11  O    0.004068
    12  O   -0.063718
    13  C   -0.012115
    14  H   -0.000236
    15  H    0.000247
    16  H   -0.005554
    17  H    0.000361
    18  H   -0.001364
    19  H   -0.002953
    20  H    0.000936
    21  H   -0.000561
    22  H    0.000682
    23  H    0.003090
    24  H   -0.020423
    25  H   -0.000739
    26  H    0.002479
    27  H    0.001687
    28  H    0.004835
    29  H    0.000141
    30  H   -0.011015
    31  H    0.450763
 Mulliken charges:
               1
     1  C   -0.410601
     2  C   -0.263934
     3  C   -0.504974
     4  C   -0.287279
     5  C   -0.212301
     6  O   -0.261320
     7  C   -0.105679
     8  C    0.144573
     9  C   -0.252752
    10  C   -0.410127
    11  O   -0.227530
    12  O   -0.298392
    13  C   -0.429231
    14  H    0.164139
    15  H    0.171535
    16  H    0.216428
    17  H    0.185749
    18  H    0.176175
    19  H    0.140075
    20  H    0.201838
    21  H    0.140420
    22  H    0.190212
    23  H    0.194704
    24  H    0.206207
    25  H    0.186330
    26  H    0.175213
    27  H    0.383291
    28  H    0.163042
    29  H    0.198560
    30  H    0.176482
    31  H    0.249149
 Sum of Mulliken charges =  -0.00000
 Mulliken charges with hydrogens summed into heavy atoms:
               1
     1  C   -0.074927
     2  C    0.119356
     3  C   -0.112064
     4  C    0.074644
     5  C    0.149300
     6  O   -0.261320
     7  C    0.236235
     8  C    0.393722
     9  C    0.077880
    10  C   -0.009216
    11  O   -0.227530
    12  O   -0.298392
    13  C   -0.067688
 Electronic spatial extent (au):  <R**2>=           2655.0865
 Charge=             -0.0000 electrons
 Dipole moment (field-independent basis, Debye):
    X=              0.9842    Y=              2.1154    Z=              1.1677  Tot=              2.6091
 Quadrupole moment (field-independent basis, Debye-Ang):
   XX=            -68.0708   YY=            -82.3153   ZZ=            -78.9029
   XY=              3.9157   XZ=              1.3847   YZ=             -5.1551
 Traceless Quadrupole moment (field-independent basis, Debye-Ang):
   XX=              8.3589   YY=             -5.8857   ZZ=             -2.4732
   XY=              3.9157   XZ=              1.3847   YZ=             -5.1551
 Octapole moment (field-independent basis, Debye-Ang**2):
  XXX=             13.0952  YYY=             -0.8538  ZZZ=              1.3855  XYY=             -7.0674
  XXY=              0.9370  XXZ=              0.0875  XZZ=              8.9742  YZZ=             -1.3827
  YYZ=              4.2642  XYZ=              0.9936
 Hexadecapole moment (field-independent basis, Debye-Ang**3):
 XXXX=          -2431.5366 YYYY=           -633.5243 ZZZZ=           -370.3684 XXXY=             12.7708
 XXXZ=            -11.7078 YYYX=             18.1066 YYYZ=             -3.4253 ZZZX=             -0.3323
 ZZZY=              3.3515 XXYY=           -528.9724 XXZZ=           -472.2642 YYZZ=           -173.4060
 XXYZ=             -6.7292 YYXZ=              5.1721 ZZXY=             -4.6422
 N-N= 9.172326861336D+02 E-N=-3.276738005359D+03  KE= 6.153205532942D+02
 D1PCM: PCM CHGder 1st derivatives, ID1Alg=3 FixD1E=F DoIter=F DoCFld=F I1PDM=0.
 Calling FoFJK, ICntrl=      2127 FMM=F ISym2X=0 I1Cent= 0 IOpClX= 0 NMat=1 NMatS=1 NMatT=0.
 ***** Axes restored to original set *****
 -------------------------------------------------------------------
 Center     Atomic                   Forces (Hartrees/Bohr)
 Number     Number              X              Y              Z
 -------------------------------------------------------------------
      1        6          -0.001640429    0.000846331   -0.002034593
      2        6           0.004284581   -0.002538091   -0.004833292
      3        6           0.000236080   -0.004009311    0.001978449
      4        6          -0.002150482   -0.002464359    0.002081800
      5        6           0.004757872    0.003490429   -0.002974646
      6        8           0.005182097   -0.004584064    0.005959854
      7        6           0.001237483    0.006717634    0.002053751
      8        6           0.000886411   -0.002264791    0.007621043
      9        6          -0.000653960   -0.001240238   -0.003012134
     10        6          -0.002117880    0.005799272    0.003580573
     11        8          -0.004760714   -0.007010045    0.007132341
     12        8           0.004922774    0.006532513   -0.008275308
     13        6           0.000668284   -0.000751106   -0.002570248
     14        1           0.000389314   -0.000311575    0.003302337
     15        1           0.002310735   -0.000520961   -0.001664296
     16        1          -0.003031756    0.000119021   -0.002168354
     17        1           0.002023110    0.001495677    0.000694438
     18        1          -0.001754861    0.000036575   -0.003214663
     19        1          -0.001301109    0.001038247   -0.006211746
     20        1           0.000860202   -0.004186401    0.001310634
     21        1           0.002748685    0.000180567    0.002679804
     22        1          -0.002114922    0.001970312    0.000706409
     23        1          -0.005075257   -0.000673564   -0.004429410
     24        1           0.005330891   -0.002393825   -0.000391604
     25        1           0.000884513   -0.000750900    0.003252128
     26        1          -0.001108545    0.002903564   -0.000990794
     27        1          -0.006827185    0.000220948    0.006141515
     28        1          -0.004985285    0.000093782   -0.003875728
     29        1          -0.001064466   -0.001164083    0.004065670
     30        1           0.002108352    0.002522989   -0.000235848
     31        1          -0.000244531    0.000895450   -0.005678080
 -------------------------------------------------------------------
 Cartesian Forces:  Max     0.008275308 RMS     0.003421855

 GradGradGradGradGradGradGradGradGradGradGradGradGradGradGradGradGradGrad
 Berny optimization.
 FormGI is forming the generalized inverse of G from B-inverse, IUseBI=4.
 Internal  Forces:  Max     0.019270760 RMS     0.002345716
 Search for a local minimum.
 Step number   1 out of a maximum of  186
 All quantities printed in internal units (Hartrees-Bohrs-Radians)
 Mixed Optimization -- RFO/linear search
 Second derivative matrix not updated -- first step.
 ITU=  0
     Eigenvalues ---    0.00470   0.00623   0.00682   0.00720   0.01413
     Eigenvalues ---    0.01431   0.01716   0.02702   0.02766   0.02895
     Eigenvalues ---    0.03076   0.03907   0.04086   0.04471   0.04719
     Eigenvalues ---    0.04745   0.04892   0.04926   0.05055   0.05140
     Eigenvalues ---    0.05275   0.05450   0.05688   0.06153   0.06175
     Eigenvalues ---    0.06328   0.06478   0.07052   0.07619   0.07850
     Eigenvalues ---    0.07956   0.08033   0.08224   0.08244   0.08669
     Eigenvalues ---    0.08830   0.09199   0.09939   0.10895   0.11597
     Eigenvalues ---    0.11708   0.11763   0.11809   0.12397   0.12732
     Eigenvalues ---    0.14659   0.15245   0.16469   0.16504   0.18210
     Eigenvalues ---    0.19075   0.21562   0.21951   0.25000   0.28158
     Eigenvalues ---    0.28459   0.28616   0.28837   0.28838   0.28929
     Eigenvalues ---    0.30158   0.30263   0.35038   0.35086   0.35087
     Eigenvalues ---    0.35118   0.35184   0.35193   0.35232   0.35239
     Eigenvalues ---    0.35307   0.35393   0.35417   0.35435   0.35509
     Eigenvalues ---    0.35803   0.35819   0.35829   0.36032   0.36586
     Eigenvalues ---    0.40983   0.41482   0.41671   0.42278   0.43211
     Eigenvalues ---    0.459271000.000001000.000001000.000001000.00000
     Eigenvalues --- 1000.000001000.000001000.000001000.000001000.00000
     Eigenvalues --- 1000.000001000.000001000.000001000.000001000.00000
     Eigenvalues --- 1000.000001000.000001000.000001000.000001000.00000
     Eigenvalues --- 1000.000001000.000001000.000001000.000001000.00000
     Eigenvalues --- 1000.000001000.000001000.000001000.000001000.00000
     Eigenvalues --- 1000.000001000.000001000.000001000.000001000.00000
     Eigenvalues --- 1000.000001000.000001000.000001000.000001000.00000
     Eigenvalues --- 1000.000001000.000001000.000001000.000001000.00000
     Eigenvalues --- 1000.000001000.000001000.000001000.000001000.00000
     Eigenvalues --- 1000.000001000.000001000.000001000.000001000.00000
     Eigenvalues --- 1000.000001000.000001000.000001000.000001000.00000
     Eigenvalues --- 1000.000001000.000001000.000001000.000001000.00000
     Eigenvalues --- 1000.000001000.000001000.000001000.000001000.00000
     Eigenvalues --- 1000.000001000.000001000.000001000.000001000.00000
     Eigenvalues --- 1000.000001000.000001000.000001000.000001000.00000
     Eigenvalues --- 1000.000001000.000001000.000001000.000001000.00000
     Eigenvalues --- 1000.000001000.000001000.000001000.000001000.00000
     Eigenvalues --- 1000.000001000.000001000.000001000.000001000.00000
     Eigenvalues --- 1000.000001000.000001000.000001000.000001000.00000
 RFO step:  Lambda=-4.55197804D-03 EMin= 4.70097606D-03
 Linear search not attempted -- first point.
 Iteration  1 RMS(Cart)=  0.08337667 RMS(Int)=  0.00134661
 Iteration  2 RMS(Cart)=  0.00326224 RMS(Int)=  0.00009181
 Iteration  3 RMS(Cart)=  0.00000428 RMS(Int)=  0.00009179
 Iteration  4 RMS(Cart)=  0.00000000 RMS(Int)=  0.00009179
 Iteration  1 RMS(Cart)=  0.00006873 RMS(Int)=  0.00001503
 Iteration  2 RMS(Cart)=  0.00003819 RMS(Int)=  0.00001678
 Iteration  3 RMS(Cart)=  0.00002122 RMS(Int)=  0.00001899
 Iteration  4 RMS(Cart)=  0.00001179 RMS(Int)=  0.00002049
 Iteration  5 RMS(Cart)=  0.00000655 RMS(Int)=  0.00002138
 Iteration  6 RMS(Cart)=  0.00000364 RMS(Int)=  0.00002189
 Iteration  7 RMS(Cart)=  0.00000202 RMS(Int)=  0.00002218
 Iteration  8 RMS(Cart)=  0.00000112 RMS(Int)=  0.00002234
 Iteration  9 RMS(Cart)=  0.00000062 RMS(Int)=  0.00002243
 Variable       Old X    -DE/DX   Delta X   Delta X   Delta X     New X
                                 (Linear)    (Quad)   (Total)
    R1        2.88884  -0.00084   0.00000  -0.00222  -0.00224   2.88661
    R2        2.87186   0.00023   0.00000   0.00117   0.00119   2.87305
    R3        2.05535   0.00326   0.00000   0.00918   0.00918   2.06453
    R4        2.05300   0.00287   0.00000   0.00803   0.00803   2.06103
    R5        2.65590   0.00375   0.00000   0.00791   0.00793   2.66383
    R6        2.64214   0.00238   0.00000   0.00513   0.00513   2.64727
    R7        2.87729  -0.00029   0.00000  -0.00140  -0.00142   2.87587
    R8        2.03175   0.00911   0.00000   0.02459   0.02459   2.05634
    R9        2.90279  -0.00144   0.00000  -0.00300  -0.00290   2.89989
   R10        2.89822  -0.00077   0.00000  -0.00319  -0.00320   2.89502
   R11        2.05484   0.00372   0.00000   0.01045   0.01045   2.06529
   R12        2.05042   0.00317   0.00000   0.00883   0.00883   2.05925
   R13        2.89014  -0.00143   0.00000  -0.00469  -0.00470   2.88544
   R14        2.05179   0.00261   0.00000   0.00730   0.00730   2.05908
   R15        2.05363   0.00345   0.00000   0.00968   0.00968   2.06332
   R16        2.67445   0.00328   0.00000   0.00617   0.00608   2.68054
   R17        2.87286   0.00008   0.00000  -0.00117  -0.00129   2.87157
   R18        2.05614   0.00619   0.00000   0.01745   0.01745   2.07359
   R19        2.04365   0.00436   0.00000   0.01202   0.01202   2.05567
   R20        2.66639   0.00308   0.00000   0.00735   0.00736   2.67375
   R21        2.68450   0.00262   0.00000   0.00602   0.00603   2.69052
   R22        2.05003   0.00635   0.00000   0.01769   0.01769   2.06772
   R23        2.04351   0.00447   0.00000   0.01231   0.01231   2.05582
   R24        2.88050  -0.00073   0.00000  -0.00098  -0.00087   2.87963
   R25        2.69344  -0.00258   0.00000  -0.00612  -0.00612   2.68732
   R26        2.04391   0.00574   0.00000   0.01584   0.01584   2.05974
   R27        2.04857   0.00379   0.00000   0.01055   0.01055   2.05912
   R28        2.05289   0.00294   0.00000   0.00823   0.00823   2.06112
   R29        2.05534   0.00673   0.00000   0.01894   0.01894   2.07428
   R30        2.04032   0.00552   0.00000   0.01512   0.01512   2.05544
   R31        2.05378   0.00340   0.00000   0.00953   0.00953   2.06331
   R32        2.04974   0.00324   0.00000   0.00902   0.00902   2.05877
    A1        1.92262  -0.00107   0.00000  -0.00516  -0.00534   1.91728
    A2        1.91590   0.00092   0.00000   0.00138   0.00144   1.91734
    A3        1.93946  -0.00052   0.00000  -0.00197  -0.00194   1.93752
    A4        1.90573   0.00004   0.00000  -0.00133  -0.00128   1.90445
    A5        1.90375   0.00068   0.00000   0.00393   0.00397   1.90772
    A6        1.87553  -0.00001   0.00000   0.00339   0.00336   1.87889
    A7        1.94200   0.00014   0.00000  -0.00368  -0.00354   1.93845
    A8        1.93459   0.00320   0.00000   0.01259   0.01242   1.94701
    A9        1.83091  -0.00224   0.00000  -0.01024  -0.01030   1.82061
   A10        1.89393  -0.00283   0.00000  -0.01355  -0.01348   1.88045
   A11        1.93405   0.00125   0.00000   0.00650   0.00650   1.94055
   A12        1.92842   0.00064   0.00000   0.00917   0.00921   1.93764
   A13        2.00322   0.00040   0.00000  -0.00138  -0.00125   2.00197
   A14        1.85439  -0.00019   0.00000   0.00644   0.00640   1.86079
   A15        1.91014  -0.00045   0.00000  -0.01035  -0.01043   1.89971
   A16        1.88637   0.00007   0.00000   0.00422   0.00418   1.89054
   A17        1.93823  -0.00004   0.00000  -0.00108  -0.00119   1.93704
   A18        1.86441   0.00020   0.00000   0.00319   0.00323   1.86765
   A19        1.91334   0.00189   0.00000  -0.00146  -0.00147   1.91187
   A20        1.93023  -0.00027   0.00000   0.00209   0.00214   1.93237
   A21        1.91437  -0.00082   0.00000  -0.00180  -0.00188   1.91249
   A22        1.91638  -0.00048   0.00000   0.00205   0.00204   1.91842
   A23        1.92260  -0.00102   0.00000  -0.00660  -0.00660   1.91600
   A24        1.86653   0.00064   0.00000   0.00581   0.00582   1.87235
   A25        1.93447   0.00076   0.00000   0.00232   0.00222   1.93669
   A26        1.90113   0.00120   0.00000   0.00954   0.00958   1.91071
   A27        1.85893  -0.00088   0.00000  -0.00280  -0.00276   1.85617
   A28        1.93222  -0.00100   0.00000  -0.00716  -0.00717   1.92505
   A29        1.94440  -0.00049   0.00000  -0.00329  -0.00325   1.94115
   A30        1.89044   0.00045   0.00000   0.00188   0.00185   1.89230
   A31        1.97049  -0.00358   0.00000  -0.02290  -0.02294   1.94755
   A32        1.94503   0.00251   0.00000   0.00770   0.00767   1.95271
   A33        1.93070  -0.00158   0.00000  -0.00710  -0.00713   1.92356
   A34        1.94555  -0.00034   0.00000  -0.00244  -0.00239   1.94316
   A35        1.91055   0.00005   0.00000   0.00080   0.00086   1.91140
   A36        1.84274  -0.00138   0.00000  -0.00249  -0.00250   1.84025
   A37        1.88638   0.00073   0.00000   0.00375   0.00373   1.89011
   A38        1.93128   0.00076   0.00000  -0.00397  -0.00435   1.92692
   A39        1.99138   0.00077   0.00000  -0.00900  -0.00966   1.98172
   A40        1.88307  -0.00091   0.00000   0.01019   0.01022   1.89329
   A41        1.99942  -0.00264   0.00000  -0.02955  -0.02989   1.96953
   A42        1.86176   0.00092   0.00000   0.01665   0.01674   1.87850
   A43        1.78241   0.00123   0.00000   0.02301   0.02332   1.80572
   A44        1.93183  -0.00018   0.00000  -0.00695  -0.00702   1.92482
   A45        1.94246   0.00075   0.00000   0.00195   0.00194   1.94440
   A46        1.91239  -0.00068   0.00000   0.00064   0.00068   1.91307
   A47        1.90769  -0.00085   0.00000  -0.00321  -0.00319   1.90450
   A48        1.90379   0.00096   0.00000   0.00616   0.00617   1.90996
   A49        1.86414   0.00002   0.00000   0.00187   0.00186   1.86600
   A50        1.97641   0.00056   0.00000   0.00136   0.00144   1.97785
   A51        1.90069   0.00099   0.00000   0.01536   0.01525   1.91594
   A52        1.87192  -0.00044   0.00000  -0.01037  -0.01058   1.86134
   A53        1.88294  -0.00051   0.00000   0.00427   0.00420   1.88714
   A54        1.93833  -0.00149   0.00000  -0.01868  -0.01884   1.91949
   A55        1.89184   0.00098   0.00000   0.00917   0.00923   1.90107
   A56        2.02400  -0.00568   0.00000  -0.03621  -0.03609   1.98791
   A57        2.14624  -0.01927   0.00000  -0.07570  -0.07570   2.07054
   A58        1.95529  -0.00164   0.00000  -0.01451  -0.01463   1.94066
   A59        1.87305   0.00012   0.00000   0.00432   0.00432   1.87738
   A60        1.90064   0.00071   0.00000  -0.00099  -0.00099   1.89966
   A61        1.90872   0.00119   0.00000   0.00729   0.00738   1.91610
   A62        1.94708  -0.00031   0.00000  -0.00187  -0.00197   1.94510
   A63        1.87593   0.00001   0.00000   0.00687   0.00685   1.88277
    D1        0.91967  -0.00019   0.00000   0.00724   0.00724   0.92691
    D2        3.03519   0.00028   0.00000   0.01018   0.01021   3.04540
    D3       -1.19346   0.00040   0.00000   0.01746   0.01748  -1.17598
    D4       -1.17942  -0.00016   0.00000   0.01126   0.01126  -1.16816
    D5        0.93610   0.00031   0.00000   0.01421   0.01423   0.95033
[...]
 00883,0.00003194,-0.00000300,-0.00012863,0.00006419,-0.00012467,0.0006
 0911,-0.00006834,0.00111194,-0.00250620,-0.00058389,0.00031627,-0.0640
 3505,0.01873208,-0.29242329,0.00014952,-0.00071392,0.00023367,0.000195
 22,0.00002112,0.00032831,-0.00004929,0.00002181,0.00001831,0.00000278,
 0.00025374,0.00087990,0.00339262,-0.00103708,-0.00088038,0.00003083,0.
 00008527,0.00003084,-0.00005674,-0.00006530,0.00000731,-0.00000734,-0.
 00000948,-0.00001671,-0.00002083,-0.00000008,0.00001060,-0.00004953,-0
 .00007421,0.00002310,0.00000497,0.00000792,0.00000209,0.06677234,-0.02
 148577,0.31969322,-0.00423372,0.00003673,0.00437757,0.00900065,-0.0214
 7959,0.00407746,0.00001734,-0.00006398,0.00001933,-0.00722113,0.025182
 49,-0.00618047,0.00002206,-0.00001706,-0.00001097,-0.00002807,0.000032
 53,-0.00001288,-0.00183422,0.00003849,0.00077290,-0.00004188,0.0002189
 0,0.00016896,-0.00002410,0.00002431,0.00000172,0.00006962,-0.00001371,
 0.00000846,-0.00233484,-0.00757925,-0.00154909,0.00111302,-0.00013001,
 0.00084263,-0.07378026,0.07831472,-0.01565636,0.00007698,-0.00037828,-
 0.00002966,-0.00021048,0.00193801,0.00006827,0.00001080,0.00002853,-0.
 00000036,0.00067333,-0.00048485,-0.00085712,0.00118185,-0.00057589,-0.
 00008664,0.00018012,0.00000293,-0.00012236,0.00031863,0.00002078,-0.00
 013019,0.00001027,0.00000835,0.00000034,-0.00000775,-0.00000039,-0.000
 00221,-0.00000708,0.00001850,-0.00000235,0.00001407,0.00002659,0.00002
 543,-0.00303942,0.00714715,-0.00106572,0.07938491,0.00111412,0.0014246
 9,-0.00119988,0.00991109,-0.01866936,0.00484324,-0.00005616,-0.0000849
 8,-0.00001286,0.00139096,-0.00460989,0.00065516,0.00003457,-0.00003066
 ,-0.00003855,-0.00010510,0.00001236,-0.00006131,-0.00101406,0.00100460
 ,0.00120035,-0.00030413,0.00035418,-0.00012344,-0.00002320,0.00001565,
 0.00004828,0.00018648,-0.00004329,0.00013064,-0.00351005,-0.00511293,-
 0.00119031,0.00085782,0.00209656,0.00074611,0.07505953,-0.28316580,0.0
 4329800,-0.00002338,0.00004626,0.00009935,-0.00005138,-0.00042292,0.00
 017007,0.00000484,0.00001718,0.00000293,0.00032724,0.00037821,-0.00016
 070,-0.00000913,0.00023621,-0.00022600,0.00008708,-0.00004286,-0.00019
 878,0.00010946,-0.00008434,-0.00005235,-0.00005463,-0.00003010,-0.0000
 3534,-0.00001379,-0.00000077,-0.00001406,-0.00001034,0.00005680,-0.000
 00730,0.00001647,0.00004536,0.00003502,0.00004950,-0.00080065,0.000747
 63,-0.08348719,0.30689667,0.00329074,-0.00000723,-0.00201392,0.0010375
 0,-0.00602351,-0.00178133,0.00000130,-0.00001471,-0.00000819,0.0054280
 9,-0.01957230,0.00302097,-0.00000080,0.00000139,-0.00000434,0.00000008
 ,0.00000320,-0.00000435,0.00020107,0.00030428,-0.00000065,-0.00000954,
 0.00007296,0.00010118,0.00000980,0.00000022,0.00001184,0.00001921,0.00
 000925,0.00000008,-0.00050011,-0.00091755,0.00117850,0.00010196,-0.000
 61959,0.00034139,-0.01512436,0.04701957,-0.05644996,0.00013813,-0.0003
 1688,0.00023179,0.00035887,-0.00102617,0.00029131,0.00000564,0.0000077
 1,-0.00000396,-0.00059994,0.00057825,0.00053739,-0.00094992,0.00004811
 ,0.00072704,-0.00005485,0.00000981,0.00001344,-0.00005769,0.00001120,0
 .00004781,-0.00000005,-0.00000101,-0.00000754,0.00000094,0.00000055,-0
 .00000215,0.00000546,0.00000443,-0.00000188,0.00000896,0.00000051,0.00
 000172,-0.00821087,0.02888606,-0.00419228,0.01481820,-0.04862963,0.057
 90484,0.00040230,-0.00016232,0.00002146,-0.20932233,0.02567253,0.13637
 143,0.00079811,0.00034272,0.00088389,-0.00134892,-0.00362644,-0.002014
 27,-0.00021515,-0.00038118,0.00004418,-0.00118765,-0.00130466,-0.00027
 042,0.00213873,0.00077482,-0.00162782,0.00277127,-0.00059565,-0.000300
 73,-0.00347107,0.00119791,0.00012367,-0.00001040,-0.00017144,0.0000293
 2,-0.00907361,0.00905061,0.00645619,0.01118872,-0.00100150,-0.01511000
 ,-0.01703414,0.00186939,0.01414959,-0.00003560,0.00005266,-0.00008490,
 -0.00002083,0.00003780,0.00001345,0.00010900,-0.00009870,0.00015576,-0
 .00104686,0.00036090,0.00074142,0.00006691,-0.00002994,0.00013341,-0.0
 0013907,0.00005101,0.00015451,-0.00035017,0.00017875,0.00028793,-0.003
 88712,0.00155721,0.00017431,-0.00039892,-0.00026105,-0.00000813,0.0000
 0611,-0.00000646,0.00002054,-0.00001545,0.00003761,-0.00000321,0.00046
 124,0.00044526,-0.00025534,0.00058425,-0.00038077,0.00002006,0.2289111
 8,0.00023762,-0.00059697,-0.00027631,0.01600680,-0.05050863,-0.0186917
 8,-0.00008797,0.00023726,-0.00020142,-0.00243585,-0.00286218,-0.001767
 96,-0.00082110,0.00015848,-0.00001884,0.00012468,-0.00021825,0.0004138
 0,-0.00132794,-0.00480811,0.00293532,-0.00013482,-0.00006344,-0.000533
 08,0.00105167,-0.00004313,0.00012951,0.00018456,-0.00020831,-0.0005280
 5,0.03616376,-0.02050390,-0.02311417,-0.00267889,0.00512213,0.00613463
 ,-0.01671019,0.00530395,0.01301215,0.00002339,0.00011468,0.00002913,0.
 00018549,0.00036412,0.00004344,-0.00006229,-0.00009612,-0.00007773,-0.
 00115487,0.00036690,0.00072411,0.00018289,-0.00004310,0.00007572,0.000
 11684,-0.00008201,-0.00036585,0.00140799,-0.00059422,-0.00097626,0.001
 63675,0.00011665,-0.00033708,0.00010117,-0.00002179,-0.00002793,0.0000
 4692,0.00005188,0.00007675,-0.00001120,0.00001177,0.00007845,0.0006841
 0,0.00063425,-0.00028406,0.00106118,0.00052502,0.00014488,-0.03378028,
 0.06806099,0.00014838,-0.00008188,-0.00007240,0.12827380,-0.02559187,-
 0.16246588,-0.00128769,0.00018743,-0.00042457,-0.00122064,-0.00147981,
 0.00021082,-0.00062204,-0.00016055,0.00011638,0.00077346,0.00086568,0.
 00085684,-0.00059392,0.00096605,0.00170917,0.00415616,0.00062108,0.001
 52710,0.00030611,-0.00034241,-0.00070172,-0.00048225,-0.00031518,-0.00
 131768,-0.00124683,0.00004727,0.00510909,0.01625156,-0.00027831,-0.040
 27596,-0.00567935,0.00138586,0.00680250,-0.00000798,0.00001658,-0.0000
 5311,-0.00000613,0.00004419,-0.00005091,0.00000590,-0.00003954,0.00015
 445,-0.00049548,0.00004785,0.00022369,-0.00017657,-0.00002588,0.000164
 05,-0.00027695,0.00021835,0.00015979,-0.00001579,0.00010254,0.00004637
 ,0.00162560,-0.00029341,0.00116028,0.00047974,0.00012581,0.00036886,-0
 .00006714,-0.00017310,0.00014696,-0.00000144,0.00009635,0.00002826,0.0
 0035202,0.00049028,0.00062420,0.00047696,0.00001104,0.00004280,-0.1404
 7039,0.02342468,0.18572715,-0.00003185,0.00001396,0.00004683,0.0002069
 2,0.00014041,-0.00010623,-0.00006514,0.00061835,-0.00020938,-0.0000213
 0,-0.00002698,-0.00003543,-0.17955794,-0.04196172,-0.11107676,-0.03765
 311,0.00865451,-0.00906640,0.00013424,-0.00013129,-0.00014400,-0.00017
 811,0.00003488,0.00063649,-0.00449654,-0.00314973,-0.00646256,0.001237
 10,-0.00015586,-0.00585652,-0.00045627,-0.00005882,0.00011089,0.000014
 09,-0.00003063,-0.00005266,-0.00004500,0.00005854,0.00007344,-0.000001
 53,-0.00000137,-0.00000798,-0.00002773,-0.00000833,0.00000250,-0.00013
 647,-0.00020697,0.00031975,-0.00002551,-0.00000228,0.00001088,0.000003
 48,0.00000271,0.00000269,-0.00000832,-0.00000058,0.00002002,-0.0000176
 9,0.00002017,0.00000569,0.00088260,-0.00124835,0.00003579,0.00046981,-
 0.00039106,0.00005623,0.00043684,-0.00006511,0.00142636,0.00036918,0.0
 0016457,0.00040436,-0.00001314,-0.00000559,-0.00000863,-0.00000560,-0.
 00001592,-0.00000081,-0.00000429,0.00008464,0.00012944,0.21108374,0.00
 002048,-0.00000991,-0.00001691,0.00006719,-0.00018588,-0.00018420,0.00
 051980,0.00155509,-0.00094656,-0.00000419,-0.00001606,-0.00000169,-0.0
 4232818,-0.06165960,-0.03332351,0.02574380,0.00109019,0.00899502,-0.00
 003372,0.00008549,0.00004437,-0.00021833,-0.00018295,-0.00019698,-0.02
 517719,-0.00833373,-0.02258253,-0.00051560,0.00028301,0.00369973,0.000
 17318,0.00014779,0.00002573,0.00002442,0.00002241,0.00007924,-0.000008
 47,0.00002098,0.00001717,-0.00000005,0.00000044,0.00000094,0.00000865,
 0.00000656,-0.00000051,0.00026907,-0.00007073,0.00063751,-0.00000379,0
 .00000260,0.00000304,-0.00000076,0.00000047,0.00000100,0.00000023,-0.0
 0000130,-0.00000500,-0.00000391,-0.00000168,0.00000411,-0.00207238,-0.
 00619869,0.00087940,0.00068380,0.00131657,0.00005686,-0.00092052,-0.00
 010048,-0.00031676,-0.00010907,-0.00008111,0.00004614,0.00000089,-0.00
 000031,-0.00000007,0.00000584,0.00000429,-0.00000220,0.00012360,-0.000
 10384,0.00005051,0.03648546,0.06939798,0.00000455,-0.00000192,0.000000
 51,0.00016109,-0.00013899,0.00005340,0.00060305,-0.00003725,0.00079550
 ,-0.00000375,-0.00001792,-0.00001329,-0.11534124,-0.03167601,-0.155055
 26,0.00743212,0.00178683,0.00658201,0.00003057,0.00000090,-0.00000664,
 -0.00004120,-0.00001042,-0.00021021,0.00067394,0.00033767,0.00008428,0
 .00378481,0.00035483,0.00328840,0.00003856,0.00011394,0.00002012,-0.00
 022949,-0.00015868,-0.00010490,-0.00004054,0.00003589,0.00001064,-0.00
 000230,-0.00000080,-0.00000303,-0.00000378,0.00000291,0.00000069,-0.00
 030238,-0.00008894,0.00036379,-0.00001161,0.00000058,0.00000379,0.0000
 0199,0.00000266,-0.00000122,0.00000091,-0.00000266,-0.00000375,-0.0000
 0764,0.00000524,0.00000165,0.00035292,-0.00002087,0.00125335,-0.000138
 33,-0.00052770,0.00019956,-0.00108666,-0.00022365,0.00072714,0.0000067
 8,0.00008007,0.00030146,-0.00001406,-0.00000654,-0.00000573,0.00000011
 ,0.00000244,-0.00000038,0.00005796,0.00002278,0.00003671,0.12567028,0.
 03692410,0.15852846,-0.00000504,0.00000450,0.00000664,0.00014782,0.000
 02392,0.00018307,0.00080380,-0.00108107,-0.00046602,-0.00000509,-0.000
 01089,-0.00001235,-0.06469137,-0.01818919,0.05068187,-0.01429629,-0.00
 195342,0.03372099,0.00007614,-0.00003744,-0.00003046,0.00015030,0.0005
 5198,0.00043824,-0.00143852,-0.00459766,0.00718427,-0.00362993,0.00262
 929,-0.00202329,-0.00015652,0.00004211,-0.00003999,-0.00016673,-0.0001
 2356,-0.00017816,-0.00001586,0.00002299,0.00000202,-0.00000368,-0.0000
 0264,-0.00000471,-0.00000920,-0.00000192,0.00000182,-0.00003806,-0.000
 14821,0.00039581,-0.00001109,-0.00000140,0.00000329,0.00000358,0.00000
 218,-0.00000182,0.00000865,-0.00000211,-0.00000703,-0.00000960,0.00000
 939,0.00000081,0.00019942,0.00061788,0.00036111,0.00009777,-0.00026017
 ,-0.00001262,0.00041054,0.00008264,0.00043258,-0.00025768,-0.00017235,
 0.00140570,-0.00001467,-0.00000645,-0.00000817,-0.00000371,-0.00000323
 ,0.00000005,-0.00000024,0.00002460,0.00002583,0.00786091,0.00689271,-0
 .02143070,0.07491529,0.00000270,-0.00000532,0.00000539,0.00011208,-0.0
 0019671,0.00009770,-0.00151494,-0.00647842,-0.00209869,-0.00000079,-0.
 00000969,-0.00000363,-0.02176272,-0.07222110,0.07767956,0.00982969,0.0
 0414035,-0.02496147,-0.00000678,0.00001699,-0.00000813,0.00065408,-0.0
 0047125,-0.00069282,-0.00835122,-0.00806776,0.03148863,0.00342040,-0.0
 0209922,-0.00012630,-0.00000228,0.00009550,0.00001042,-0.00028624,0.00
 030499,-0.00002779,-0.00000771,0.00001590,-0.00000209,0.00000149,0.000
 00212,-0.00000080,-0.00000035,0.00000195,0.00000001,0.00023514,0.00006
 865,-0.00002575,-0.00000578,0.00000160,0.00000137,0.00000150,0.0000012
 1,-0.00000268,-0.00000760,-0.00000391,0.00000619,-0.00000396,0.0000015
 2,0.00000129,0.00008117,0.00165612,-0.00053410,0.00071298,0.00080034,-
 0.00042475,-0.00007802,-0.00004810,0.00015902,0.00055839,0.00022698,-0
 .00106891,-0.00000980,-0.00000314,-0.00000483,0.00000340,0.00000464,0.
 00000122,0.00000669,-0.00002959,0.00003995,0.00137942,0.00275674,-0.00
 670364,0.01595467,0.07975966,0.00000624,-0.00000406,-0.00001164,-0.000
 17074,0.00001146,-0.00017356,0.00005533,0.00002233,0.00125710,0.000005
 09,0.00001537,0.00001619,0.06034088,0.07140211,-0.28322683,0.00622172,
 -0.00173704,-0.00947480,-0.00009278,0.00004316,0.00004368,-0.00047561,
 -0.00037559,0.00008124,-0.00159427,-0.00034693,0.00163340,0.00135959,-
 0.00142326,0.00255221,0.00020723,-0.00003805,0.00003000,0.00026924,0.0
 0016778,0.00014014,0.00001700,-0.00002860,-0.00000143,0.00000319,0.000
 00213,0.00000497,0.00001188,0.00000159,-0.00000211,-0.00007195,-0.0001
 3876,0.00019811,0.00001465,0.00000152,-0.00000440,-0.00000396,-0.00000
 301,0.00000190,-0.00000618,0.00000144,0.00000372,0.00001062,-0.0000117
 4,-0.00000037,0.00022878,0.00026591,0.00079294,0.00019194,0.00072600,-
 0.00010749,0.00000498,0.00004952,0.00030529,0.00041704,0.00028090,-0.0
 0056064,0.00001724,0.00000616,0.00001009,0.00000171,0.00000376,-0.0000
 0018,0.00000239,-0.00001701,-0.00004624,0.00383975,0.00600258,-0.01694
 311,-0.07090158,-0.07484271,0.30362271,0.00000015,0.00000658,-0.000018
 81,-0.00031817,0.00016665,-0.00036947,-0.09524029,-0.10577584,-0.00079
 406,-0.00000219,0.00000607,0.00001027,-0.00060878,0.00102577,0.0029064
 4,0.00062293,-0.00073262,-0.00071450,-0.00003404,-0.00000980,0.0000488
 7,0.00691721,0.02273636,0.00051368,-0.00435279,-0.00890371,-0.00124265
 ,-0.00360920,0.00230140,0.00244409,0.00013163,-0.00019981,0.00003080,0
 .00311565,-0.00042793,0.00006583,-0.00002990,-0.00000503,-0.00005639,0
 .00000029,0.00000015,0.00000416,0.00000731,-0.00000446,-0.00000082,-0.
 01034237,-0.02276727,-0.00003446,0.00001701,-0.00000032,-0.00000197,-0
 .00000125,-0.00000347,0.00001254,0.00001286,0.00000777,-0.00000278,0.0
 0001342,-0.00000940,-0.00000043,0.00063933,0.00046125,0.00004546,-0.00
 016970,0.00010069,-0.00025803,0.00005441,0.00003993,0.00003606,0.00043
 975,0.00122135,-0.00034943,0.00000477,0.00000866,0.00000883,0.00008993
 ,-0.00005317,0.00003031,0.00015484,-0.00009766,-0.00006651,0.00012402,
 0.00041155,-0.00006986,0.00012289,-0.00088073,0.00009755,0.10188088,0.
 00000584,-0.00000051,0.00000488,0.00043966,-0.00028932,0.00050179,-0.1
 0330122,-0.26567070,-0.00196956,0.00000224,-0.00000628,0.00000285,-0.0
 0009468,0.00144676,0.00166388,-0.00048550,0.00037937,0.00028578,-0.000
 01879,0.00003421,-0.00000520,-0.00956367,-0.02349269,-0.00118745,-0.00
 255366,-0.00516327,0.00023573,0.00471264,-0.00040278,-0.00311115,-0.00
 000821,0.00021835,-0.00006525,-0.00183854,0.00306255,0.00087473,0.0000
 5599,-0.00001676,0.00005413,0.00000125,0.00000057,0.00000043,0.0000015
 5,0.00000315,-0.00000031,0.00076483,0.00253961,-0.00055083,-0.00000192
 ,0.00000175,-0.00000486,0.00000111,0.00000153,-0.00000419,-0.00001215,
 -0.00001168,-0.00000084,-0.00000587,0.00000098,-0.00000351,0.00029781,
 0.00044480,0.00004914,-0.00015423,0.00008612,0.00032739,-0.00023013,0.
 00018855,-0.00008790,-0.00043012,-0.00127563,0.00046893,0.00000294,0.0
 0001456,-0.00000258,0.00009857,-0.00001907,0.00003117,0.00001868,-0.00
 016996,0.00000636,-0.00001906,0.00005488,-0.00011558,-0.00002468,-0.00
 048047,-0.00009957,0.11216355,0.28823080,-0.00000001,0.00000233,-0.000
 00843,-0.00004837,0.00013882,0.00001242,-0.00008732,-0.00324648,-0.047
 73386,-0.00001155,-0.00000342,0.00001682,0.00329863,-0.00110208,-0.006
 60152,-0.00102564,-0.00006053,0.00124481,-0.00004998,0.00000469,0.0000
 2448,-0.00702724,-0.01056671,-0.00031730,0.01327629,0.03000563,0.00029
 029,0.00260512,-0.00092755,-0.00164764,0.00009436,-0.00005380,-0.00002
 496,-0.00052375,0.00097127,0.00054911,0.00000937,0.00001150,0.00006506
 ,0.00000178,0.00000085,0.00000262,0.00000590,-0.00000264,-0.00000052,-
 0.00768866,-0.01895409,-0.00055473,0.00000882,0.00000131,-0.00000243,-
 0.00000198,-0.00000176,-0.00000201,-0.00000575,0.00000209,-0.00000199,
 0.00000707,-0.00000640,-0.00000483,-0.00092438,-0.00029953,0.00158179,
 -0.00009599,-0.00064854,0.00080162,0.00011190,0.00031589,0.00001684,-0
 .00016078,-0.00076619,0.00046426,0.00002935,0.00000275,0.00000925,0.00
 003531,-0.00003468,0.00000820,0.00013490,-0.00005527,-0.00004743,0.000
 12386,0.00010057,0.00008332,0.00027486,0.00199055,-0.00008157,-0.00202
 439,0.00285399,0.05182782,-0.00000295,-0.00002753,0.00009071,-0.003310
 55,-0.00385780,0.00206897,-0.00381934,-0.00103692,0.01989542,0.0000979
 2,-0.00004280,-0.00011565,0.00068804,0.00015158,-0.00037744,0.00008356
 ,-0.00254798,0.00120621,0.00048514,-0.00015223,-0.00031031,-0.04038007
 ,-0.00145693,0.00911678,-0.00103723,0.00338727,0.00046393,-0.00030539,
 0.00013435,0.00790985,-0.00056680,0.00140242,-0.00033843,-0.01950411,0
 .00254409,-0.04476523,-0.00024209,0.00050205,-0.00157395,0.00000197,-0
 .00000603,-0.00002342,-0.00004962,0.00001948,0.00000986,0.00009988,-0.
 00003354,0.00110196,-0.00008713,-0.00000564,0.00005682,-0.00000101,0.0
 0002870,0.00005745,-0.00001955,-0.00003412,0.00009787,-0.00006178,0.00
 005772,0.00002895,-0.00001151,-0.00004593,0.00038397,-0.00041307,-0.00
 013683,0.00077998,-0.00012591,-0.00014488,0.00076902,0.00003939,-0.000
 25448,-0.00029573,-0.00048929,-0.00032045,-0.00013880,0.00002446,-0.00
 003354,0.00003257,-0.00003085,-0.00002201,-0.00028787,-0.00007739,-0.0
 0003453,-0.00009611,-0.00004382,-0.00003489,-0.00000695,0.00035937,0.0
 0017579,-0.00034172,0.06869974,0.00001153,0.00000029,0.00000397,-0.000
 77007,-0.00022145,0.00038019,0.00407930,0.00284301,-0.02461210,0.00002
 532,-0.00000239,-0.00002738,0.00138183,-0.00146365,-0.00051205,-0.0033
 7232,-0.00700330,0.00422436,0.00003277,0.00001333,0.00002047,0.0002896
 6,-0.05551815,0.03116380,0.00245583,-0.00324242,-0.00036503,-0.0011341
 2,-0.00078785,0.03063075,-0.00022458,0.00046900,-0.00024845,-0.0037699
 7,0.00307756,-0.00866854,-0.00007471,0.00004812,-0.00023044,-0.0000016
 7,-0.00000330,-0.00000531,-0.00000330,0.00000383,0.00000158,-0.0005463
 6,0.00126315,0.00019231,-0.00001092,-0.00000472,0.00001087,0.00000408,
 0.00000199,0.00001813,-0.00003383,-0.00000564,-0.00002349,-0.00001539,
 0.00000819,0.00000177,-0.00004535,-0.00002611,-0.00011336,0.00063507,0
 .00036351,-0.00107185,-0.00033658,0.00129465,-0.00008835,0.00085500,0.
 00039694,-0.00081919,-0.00007437,-0.00004018,-0.00003023,0.00000221,-0
 .00000108,-0.00000400,0.00002226,-0.00011453,0.00003407,-0.00017798,0.
 00020077,0.00006074,-0.00024245,0.00025941,0.00006262,-0.00078651,0.00
 029058,0.00032744,0.00182562,0.05790045,0.00000275,-0.00000244,0.00004
 327,-0.00014765,-0.00190704,0.00390353,0.00230132,0.00146309,-0.012201
 67,-0.00001614,-0.00008714,-0.00005071,-0.00080683,-0.00008269,0.00026
 374,0.00113202,0.00175693,0.00048569,0.00024305,-0.00007174,-0.0000982
 5,0.00138351,0.02921368,-0.31124643,0.00136768,-0.00227273,0.00135060,
 0.00034328,0.00002178,-0.00742678,-0.00041588,0.00067127,-0.00019899,-
 0.01009538,0.00044974,-0.01157949,-0.00009282,0.00034233,-0.00053415,-
 0.00000618,-0.00000354,-0.00002207,-0.00003798,0.00000978,0.00000739,0
 .00016381,0.00014197,0.00110830,-0.00007448,0.00000770,0.00001608,0.00
 000397,0.00002163,-0.00003358,-0.00007506,0.00000062,-0.00006584,-0.00
 005171,0.00004007,0.00000029,-0.00004858,-0.00002440,0.00003971,0.0002
 4958,0.00030485,-0.00071020,0.00024034,0.00024849,0.00078715,-0.000000
 03,0.00027588,-0.00002842,-0.00020350,-0.00012772,-0.00007514,0.000011
 02,-0.00000884,0.00001078,0.00016885,0.00002745,0.00024045,0.00011208,
 0.00000893,0.00001274,-0.00000204,0.00004779,-0.00005931,-0.00025033,-
 0.00015238,0.00003050,0.00460131,-0.03031329,0.33603082\\0.00000001,0.
 00000145,-0.00000289,-0.00064117,0.00253151,0.00066604,-0.00020378,-0.
 00131525,0.00190443,0.00000578,0.00000771,-0.00000327,-0.00000344,-0.0
 0000772,0.00000579,-0.00000773,0.00000100,0.00000264,0.00000255,-0.000
 00931,-0.00000274,-0.00000274,0.00310208,-0.00244055,0.00000258,0.0000
 0068,0.00000224,0.00000167,-0.00000874,-0.00000847,0.00000261,0.000010
 41,-0.00001670,0.00083490,-0.00430566,-0.00010686,-0.00000537,-0.00000
 396,-0.00000862,0.00000149,0.00000297,-0.00000069,-0.00000171,0.000003
 63,-0.00000044,0.00000149,-0.00000406,0.00000131,-0.00000283,0.0000012
 1,-0.00000612,-0.00000203,0.00000130,-0.00000538,-0.00000195,0.0000013
 3,0.00000271,0.00000664,0.00000005,-0.00000208,0.00000284,0.00000377,0
 .00000046,0.00000059,-0.00000248,0.00000004,0.00000238,-0.00000141,0.0
 0000786,0.00000192,-0.00000331,0.00000305,0.00000076,0.00000161,0.0000
 0131,0.00000081,-0.00000248,-0.00000157,0.00000264,-0.00000329,-0.0000
 0370,0.00000434,-0.00000368,0.00000458,0.00000309,-0.00000148,0.000004
 36,-0.00000330,0.00000260,0.00000108,-0.00000305,-0.00000049,0.0000021
 6\\\@


 LOVE IS BLIND, THAT'S WHY ALL THE WORLD LOVES A LOUVER.
 Job cpu time:       0 days 14 hours 24 minutes 30.3 seconds.
 Elapsed time:       0 days  0 hours 54 minutes  3.5 seconds.
 File lengths (MBytes):  RWF=    690 Int=      0 D2E=      0 Chk=     33 Scr=      1
 Normal termination of Gaussian 16 at Mon Nov  5 05:24:11 2018.
