 Entering Gaussian System, Link 0=g16
 Initial command:
 /apps/gaussian/g16a03/g16/l1.exe "/jobfs/local/2011909.r-man2/Gau-2412.inp" -scrdir="/jobfs/local/2011909.r-man2/"
 Entering Link 1 = /apps/gaussian/g16a03/g16/l1.exe PID=      2413.
  
 Copyright (c) 1988,1990,1992,1993,1995,1998,2003,2009,2016,
            Gaussian, Inc.  All Rights Reserved.
  
 This is part of the Gaussian(R) 16 program.  It is based on
 the Gaussian(R) 09 system (copyright 2009, Gaussian, Inc.),
 the Gaussian(R) 03 system (copyright 2003, Gaussian, Inc.),
 the Gaussian(R) 98 system (copyright 1998, Gaussian, Inc.),
 the Gaussian(R) 94 system (copyright 1995, Gaussian, Inc.),
 the Gaussian 92(TM) system (copyright 1992, Gaussian, Inc.),
 the Gaussian 90(TM) system (copyright 1990, Gaussian, Inc.),
 the Gaussian 88(TM) system (copyright 1988, Gaussian, Inc.),
 the Gaussian 86(TM) system (copyright 1986, Carnegie Mellon
 University), and the Gaussian 82(TM) system (copyright 1983,
 Carnegie Mellon University). Gaussian is a federally registered
 trademark of Gaussian, Inc.
  
 This software contains proprietary and confidential information,
 including trade secrets, belonging to Gaussian, Inc.
  
 This software is provided under written license and may be
 used, copied, transmitted, or stored only in accord with that
 written license.
  
 The following legend is applicable only to US Government
 contracts under FAR:
  
                    RESTRICTED RIGHTS LEGEND
  
 Use, reproduction and disclosure by the US Government is
 subject to restrictions as set forth in subparagraphs (a)
 and (c) of the Commercial Computer Software - Restricted
 Rights clause in FAR 52.227-19.
  
 Gaussian, Inc.
 340 Quinnipiac St., Bldg. 40, Wallingford CT 06492
  
  
 ---------------------------------------------------------------
 Warning -- This program may not be used in any manner that
 competes with the business of Gaussian, Inc. or will provide
 assistance to any competitor of Gaussian, Inc.  The licensee
 of this program is prohibited from giving any competitor of
 Gaussian, Inc. access to this program.  By using this program,
 the user acknowledges that Gaussian, Inc. is engaged in the
 business of creating and licensing software in the field of
 computational chemistry and represents and warrants to the
 licensee that it is not a competitor of Gaussian, Inc. and that
 it will not use this program in any manner prohibited above.
 ---------------------------------------------------------------
  

 Cite this work as:
 Gaussian 16, Revision A.03,
 M. J. Frisch, G. W. Trucks, H. B. Schlegel, G. E. Scuseria, 
 M. A. Robb, J. R. Cheeseman, G. Scalmani, V. Barone, 
 G. A. Petersson, H. Nakatsuji, X. Li, M. Caricato, A. V. Marenich, 
 J. Bloino, B. G. Janesko, R. Gomperts, B. Mennucci, H. P. Hratchian, 
 J. V. Ortiz, A. F. Izmaylov, J. L. Sonnenberg, D. Williams-Young, 
 F. Ding, F. Lipparini, F. Egidi, J. Goings, B. Peng, A. Petrone, 
 T. Henderson, D. Ranasinghe, V. G. Zakrzewski, J. Gao, N. Rega, 
 G. Zheng, W. Liang, M. Hada, M. Ehara, K. Toyota, R. Fukuda, 
 J. Hasegawa, M. Ishida, T. Nakajima, Y. Honda, O. Kitao, H. Nakai, 
 T. Vreven, K. Throssell, J. A. Montgomery, Jr., J. E. Peralta, 
 F. Ogliaro, M. J. Bearpark, J. J. Heyd, E. N. Brothers, K. N. Kudin, 
 V. N. Staroverov, T. A. Keith, R. Kobayashi, J. Normand, 
 K. Raghavachari, A. P. Rendell, J. C. Burant, S. S. Iyengar, 
 J. Tomasi, M. Cossi, J. M. Millam, M. Klene, C. Adamo, R. Cammi, 
 J. W. Ochterski, R. L. Martin, K. Morokuma, O. Farkas, 
 J. B. Foresman, and D. J. Fox, Gaussian, Inc., Wallingford CT, 2016.
 
 ******************************************
 Gaussian 16:  ES64L-G16RevA.03 25-Dec-2016
                 5-Nov-2018 
 ******************************************
 %mem=6000mb
 %nproc=24
 Will use up to   24 processors via shared memory.
 %chk=D_1a_4a_L_PSI.inp_extract_19.chk
 ----------------------------------------------------------------------
 #M062X/6-311++G(2d,2p) opt=ModRedundant freq=noraman SCRF=(Solvent=Wat
 er)
 ----------------------------------------------------------------------
 1/18=120,19=15,26=3,38=1/1,3;
 2/9=110,12=2,17=6,18=5,40=1/2;
 3/5=4,6=6,7=1212,11=2,25=1,30=1,70=2201,71=1,72=1,74=-55/1,2,3;
 4//1;
 5/5=2,38=5,53=1/2;
 6/7=2,8=2,9=2,10=2,28=1/1;
 7//1,2,3,16;
 1/18=20,19=15,26=3/3(2);
 2/9=110/2;
 99//99;
 2/9=110/2;
 3/5=4,6=6,7=1212,11=2,25=1,30=1,70=2205,71=1,72=1,74=-55/1,2,3;
 4/5=5,16=3,69=1/1;
 5/5=2,38=5,53=1/2;
 7//1,2,3,16;
 1/18=20,19=15,26=3/3(-5);
 2/9=110/2;
 6/7=2,8=2,9=2,10=2,19=2,28=1/1;
 99/9=1/99;
 ----------------------------
 D_1a_4a_L_PSI.inp_extract_19
 ----------------------------
 Symbolic Z-matrix:
 Charge =  0 Multiplicity = 1
 C                     3.50989   0.39336   0.469 
 C                     1.03525  -0.65015  -0.60563 
 C                    -1.79968   1.45351   0.44626 
 C                     2.71462  -0.62756   1.28305 
 C                    -3.47699  -0.40427   0.4892 
 O                    -2.65587  -1.13239  -0.40569 
 C                     2.58269   1.17111  -0.45005 
 C                    -1.00509   0.64819  -0.5782 
 C                    -2.64737   0.54466   1.33889 
 C                    -1.94152  -0.31145  -1.30408 
 O                     1.82301   0.29965  -1.27742 
 O                     0.01943  -0.03561   0.12996 
 C                     1.87216  -1.49292   0.34448 
 H                     4.25999  -0.11755  -0.13031 
 H                     4.03128   1.09044   1.1189 
 H                    -2.4502    2.13454  -0.09676 
 H                     3.38291  -1.25726   1.86239 
 H                     2.07304  -0.11057   1.99142 
 H                     1.91066   1.79927   0.12491 
 H                     3.13746   1.80452  -1.12843 
 H                    -2.01203  -0.03248   2.0038 
 H                    -3.30939   1.14016   1.96093 
 H                    -2.63876   0.27446  -1.89861 
 H                    -1.41111  -0.97418  -1.97127 
 H                     2.52661  -2.11221  -0.26283 
 H                     1.21561  -2.15678   0.89658 
 H                     0.61612  -1.26269  -1.38878 
 H                    -4.22071   0.14584  -0.08361 
 H                    -3.98938  -1.13696   1.09764 
 H                    -1.12219   2.05929   1.03906 
 H                    -0.55624   1.31208  -1.30727 
 
 The following ModRedundant input section has been read:
 D       3       8      12       2 F                                           
 

 GradGradGradGradGradGradGradGradGradGradGradGradGradGradGradGradGradGrad
 Berny optimization.
 Initialization pass.
                           ----------------------------
                           !    Initial Parameters    !
                           ! (Angstroms and Degrees)  !
 --------------------------                            --------------------------
 ! Name  Definition              Value          Derivative Info.                !
 --------------------------------------------------------------------------------
 ! R1    R(1,4)                  1.5289         estimate D2E/DX2                !
 ! R2    R(1,7)                  1.5196         estimate D2E/DX2                !
 ! R3    R(1,14)                 1.0876         estimate D2E/DX2                !
 ! R4    R(1,15)                 1.0863         estimate D2E/DX2                !
 ! R5    R(2,11)                 1.405          estimate D2E/DX2                !
 ! R6    R(2,12)                 1.3967         estimate D2E/DX2                !
 ! R7    R(2,13)                 1.521          estimate D2E/DX2                !
 ! R8    R(2,27)                 1.079          estimate D2E/DX2                !
 ! R9    R(3,8)                  1.5262         estimate D2E/DX2                !
 ! R10   R(3,9)                  1.5302         estimate D2E/DX2                !
 ! R11   R(3,16)                 1.0871         estimate D2E/DX2                !
 ! R12   R(3,30)                 1.0851         estimate D2E/DX2                !
 ! R13   R(4,13)                 1.5295         estimate D2E/DX2                !
 ! R14   R(4,17)                 1.0857         estimate D2E/DX2                !
 ! R15   R(4,18)                 1.0866         estimate D2E/DX2                !
 ! R16   R(5,6)                  1.4161         estimate D2E/DX2                !
 ! R17   R(5,9)                  1.5201         estimate D2E/DX2                !
 ! R18   R(5,28)                 1.088          estimate D2E/DX2                !
 ! R19   R(5,29)                 1.0815         estimate D2E/DX2                !
 ! R20   R(6,10)                 1.4112         estimate D2E/DX2                !
 ! R21   R(7,11)                 1.4217         estimate D2E/DX2                !
 ! R22   R(7,19)                 1.0848         estimate D2E/DX2                !
 ! R23   R(7,20)                 1.0813         estimate D2E/DX2                !
 ! R24   R(8,10)                 1.5247         estimate D2E/DX2                !
 ! R25   R(8,12)                 1.4208         estimate D2E/DX2                !
 ! R26   R(8,31)                 1.0834         estimate D2E/DX2                !
 ! R27   R(9,21)                 1.0858         estimate D2E/DX2                !
 ! R28   R(9,22)                 1.0862         estimate D2E/DX2                !
 ! R29   R(10,23)                1.0876         estimate D2E/DX2                !
 ! R30   R(10,24)                1.0797         estimate D2E/DX2                !
 ! R31   R(13,25)                1.0866         estimate D2E/DX2                !
 ! R32   R(13,26)                1.0847         estimate D2E/DX2                !
 ! A1    A(4,1,7)              110.2672         estimate D2E/DX2                !
 ! A2    A(4,1,14)             109.7838         estimate D2E/DX2                !
 ! A3    A(4,1,15)             111.0758         estimate D2E/DX2                !
 ! A4    A(7,1,14)             109.1464         estimate D2E/DX2                !
 ! A5    A(7,1,15)             109.0414         estimate D2E/DX2                !
 ! A6    A(14,1,15)            107.462          estimate D2E/DX2                !
 ! A7    A(11,2,12)            111.2339         estimate D2E/DX2                !
 ! A8    A(11,2,13)            111.392          estimate D2E/DX2                !
 ! A9    A(11,2,27)            104.7454         estimate D2E/DX2                !
 ! A10   A(12,2,13)            108.3618         estimate D2E/DX2                !
 ! A11   A(12,2,27)            110.4594         estimate D2E/DX2                !
 ! A12   A(13,2,27)            110.6453         estimate D2E/DX2                !
 ! A13   A(8,3,9)              111.5044         estimate D2E/DX2                !
 ! A14   A(8,3,16)             107.8663         estimate D2E/DX2                !
 ! A15   A(8,3,30)             109.6478         estimate D2E/DX2                !
 ! A16   A(9,3,16)             109.3884         estimate D2E/DX2                !
 ! A17   A(9,3,30)             111.0263         estimate D2E/DX2                !
 ! A18   A(16,3,30)            107.2633         estimate D2E/DX2                !
 ! A19   A(1,4,13)             109.7294         estimate D2E/DX2                !
 ! A20   A(1,4,17)             110.5631         estimate D2E/DX2                !
 ! A21   A(1,4,18)             109.6661         estimate D2E/DX2                !
 ! A22   A(13,4,17)            109.775          estimate D2E/DX2                !
 ! A23   A(13,4,18)            110.121          estimate D2E/DX2                !
 ! A24   A(17,4,18)            106.9488         estimate D2E/DX2                !
 ! A25   A(6,5,9)              110.9622         estimate D2E/DX2                !
 ! A26   A(6,5,28)             108.8829         estimate D2E/DX2                !
 ! A27   A(6,5,29)             106.3747         estimate D2E/DX2                !
 ! A28   A(9,5,28)             110.5916         estimate D2E/DX2                !
 ! A29   A(9,5,29)             111.5323         estimate D2E/DX2                !
 ! A30   A(28,5,29)            108.3531         estimate D2E/DX2                !
 ! A31   A(5,6,10)             113.3744         estimate D2E/DX2                !
 ! A32   A(1,7,11)             111.3639         estimate D2E/DX2                !
 ! A33   A(1,7,19)             110.7206         estimate D2E/DX2                !
 ! A34   A(1,7,20)             111.4809         estimate D2E/DX2                !
 ! A35   A(11,7,19)            109.4132         estimate D2E/DX2                !
 ! A36   A(11,7,20)            105.5526         estimate D2E/DX2                !
 ! A37   A(19,7,20)            108.1287         estimate D2E/DX2                !
 ! A38   A(3,8,10)             109.3852         estimate D2E/DX2                !
 ! A39   A(3,8,12)             107.1449         estimate D2E/DX2                !
 ! A40   A(3,8,31)             110.1239         estimate D2E/DX2                !
 ! A41   A(10,8,12)            112.1634         estimate D2E/DX2                !
 ! A42   A(10,8,31)            108.6481         estimate D2E/DX2                !
 ! A43   A(12,8,31)            109.3648         estimate D2E/DX2                !
 ! A44   A(3,9,5)              110.3074         estimate D2E/DX2                !
 ! A45   A(3,9,21)             110.4137         estimate D2E/DX2                !
 ! A46   A(3,9,22)             110.2483         estimate D2E/DX2                !
 ! A47   A(5,9,21)             109.2599         estimate D2E/DX2                !
 ! A48   A(5,9,22)             109.2513         estimate D2E/DX2                !
 ! A49   A(21,9,22)            107.299          estimate D2E/DX2                !
 ! A50   A(6,10,8)             111.9603         estimate D2E/DX2                !
 ! A51   A(6,10,23)            109.6869         estimate D2E/DX2                !
 ! A52   A(6,10,24)            106.5595         estimate D2E/DX2                !
 ! A53   A(8,10,23)            108.3557         estimate D2E/DX2                !
 ! A54   A(8,10,24)            112.2605         estimate D2E/DX2                !
 ! A55   A(23,10,24)           107.9274         estimate D2E/DX2                !
 ! A56   A(2,11,7)             115.8316         estimate D2E/DX2                !
 ! A57   A(2,12,8)             118.2757         estimate D2E/DX2                !
 ! A58   A(2,13,4)             111.8942         estimate D2E/DX2                !
 ! A59   A(2,13,25)            107.342          estimate D2E/DX2                !
 ! A60   A(2,13,26)            108.9054         estimate D2E/DX2                !
 ! A61   A(4,13,25)            109.4925         estimate D2E/DX2                !
 ! A62   A(4,13,26)            111.5504         estimate D2E/DX2                !
 ! A63   A(25,13,26)           107.4715         estimate D2E/DX2                !
 ! D1    D(7,1,4,13)            52.7441         estimate D2E/DX2                !
 ! D2    D(7,1,4,17)           173.9706         estimate D2E/DX2                !
 ! D3    D(7,1,4,18)           -68.3379         estimate D2E/DX2                !
 ! D4    D(14,1,4,13)          -67.5465         estimate D2E/DX2                !
 ! D5    D(14,1,4,17)           53.68           estimate D2E/DX2                !
 ! D6    D(14,1,4,18)          171.3715         estimate D2E/DX2                !
 ! D7    D(15,1,4,13)          173.7432         estimate D2E/DX2                !
 ! D8    D(15,1,4,17)          -65.0303         estimate D2E/DX2                !
 ! D9    D(15,1,4,18)           52.6612         estimate D2E/DX2                !
 ! D10   D(4,1,7,11)           -54.7987         estimate D2E/DX2                !
 ! D11   D(4,1,7,19)            67.1769         estimate D2E/DX2                !
 ! D12   D(4,1,7,20)          -172.4011         estimate D2E/DX2                !
 ! D13   D(14,1,7,11)           65.8746         estimate D2E/DX2                !
 ! D14   D(14,1,7,19)         -172.1498         estimate D2E/DX2                !
 ! D15   D(14,1,7,20)          -51.7277         estimate D2E/DX2                !
 ! D16   D(15,1,7,11)         -177.0052         estimate D2E/DX2                !
 ! D17   D(15,1,7,19)          -55.0296         estimate D2E/DX2                !
 ! D18   D(15,1,7,20)           65.3925         estimate D2E/DX2                !
 ! D19   D(12,2,11,7)           65.6888         estimate D2E/DX2                !
 ! D20   D(13,2,11,7)          -55.3204         estimate D2E/DX2                !
 ! D21   D(27,2,11,7)         -174.9681         estimate D2E/DX2                !
 ! D22   D(11,2,12,8)           66.2254         estimate D2E/DX2                !
 ! D23   D(13,2,12,8)         -171.0043         estimate D2E/DX2                !
 ! D24   D(27,2,12,8)          -49.6495         estimate D2E/DX2                !
 ! D25   D(11,2,13,4)           51.8317         estimate D2E/DX2                !
 ! D26   D(11,2,13,25)         -68.3168         estimate D2E/DX2                !
 ! D27   D(11,2,13,26)         175.617          estimate D2E/DX2                !
 ! D28   D(12,2,13,4)          -70.8425         estimate D2E/DX2                !
 ! D29   D(12,2,13,25)         169.009          estimate D2E/DX2                !
 ! D30   D(12,2,13,26)          52.9427         estimate D2E/DX2                !
 ! D31   D(27,2,13,4)          167.9172         estimate D2E/DX2                !
 ! D32   D(27,2,13,25)          47.7688         estimate D2E/DX2                !
 ! D33   D(27,2,13,26)         -68.2975         estimate D2E/DX2                !
 ! D34   D(9,3,8,10)            50.5186         estimate D2E/DX2                !
 ! D35   D(9,3,8,12)           -71.289          estimate D2E/DX2                !
 ! D36   D(9,3,8,31)           169.8554         estimate D2E/DX2                !
 ! D37   D(16,3,8,10)          -69.6065         estimate D2E/DX2                !
 ! D38   D(16,3,8,12)          168.5859         estimate D2E/DX2                !
 ! D39   D(16,3,8,31)           49.7303         estimate D2E/DX2                !
 ! D40   D(30,3,8,10)          173.8959         estimate D2E/DX2                !
 ! D41   D(30,3,8,12)           52.0882         estimate D2E/DX2                !
 ! D42   D(30,3,8,31)          -66.7673         estimate D2E/DX2                !
 ! D43   D(8,3,9,5)            -51.1222         estimate D2E/DX2                !
 ! D44   D(8,3,9,21)            69.7421         estimate D2E/DX2                !
 ! D45   D(8,3,9,22)          -171.8679         estimate D2E/DX2                !
 ! D46   D(16,3,9,5)            68.1025         estimate D2E/DX2                !
 ! D47   D(16,3,9,21)         -171.0332         estimate D2E/DX2                !
 ! D48   D(16,3,9,22)          -52.6433         estimate D2E/DX2                !
 ! D49   D(30,3,9,5)          -173.7122         estimate D2E/DX2                !
 ! D50   D(30,3,9,21)          -52.8479         estimate D2E/DX2                !
 ! D51   D(30,3,9,22)           65.5421         estimate D2E/DX2                !
 ! D52   D(1,4,13,2)           -51.6203         estimate D2E/DX2                !
 ! D53   D(1,4,13,25)           67.2632         estimate D2E/DX2                !
 ! D54   D(1,4,13,26)         -173.9067         estimate D2E/DX2                !
 ! D55   D(17,4,13,2)         -173.3199         estimate D2E/DX2                !
 ! D56   D(17,4,13,25)         -54.4364         estimate D2E/DX2                !
 ! D57   D(17,4,13,26)          64.3937         estimate D2E/DX2                !
 ! D58   D(18,4,13,2)           69.1872         estimate D2E/DX2                !
 ! D59   D(18,4,13,25)        -171.9293         estimate D2E/DX2                !
 ! D60   D(18,4,13,26)         -53.0992         estimate D2E/DX2                !
 ! D61   D(9,5,6,10)           -60.2374         estimate D2E/DX2                !
 ! D62   D(28,5,6,10)           61.7068         estimate D2E/DX2                !
 ! D63   D(29,5,6,10)          178.281          estimate D2E/DX2                !
 ! D64   D(6,5,9,3)             54.4933         estimate D2E/DX2                !
 ! D65   D(6,5,9,21)           -67.0581         estimate D2E/DX2                !
 ! D66   D(6,5,9,22)           175.8338         estimate D2E/DX2                !
 ! D67   D(28,5,9,3)           -66.4481         estimate D2E/DX2                !
 ! D68   D(28,5,9,21)          172.0005         estimate D2E/DX2                !
 ! D69   D(28,5,9,22)           54.8923         estimate D2E/DX2                !
 ! D70   D(29,5,9,3)           172.8988         estimate D2E/DX2                !
 ! D71   D(29,5,9,21)           51.3474         estimate D2E/DX2                !
 ! D72   D(29,5,9,22)          -65.7607         estimate D2E/DX2                !
 ! D73   D(5,6,10,8)            60.6929         estimate D2E/DX2                !
 ! D74   D(5,6,10,23)          -59.6319         estimate D2E/DX2                !
 ! D75   D(5,6,10,24)         -176.2124         estimate D2E/DX2                !
 ! D76   D(1,7,11,2)            57.3858         estimate D2E/DX2                !
 ! D77   D(19,7,11,2)          -65.3437         estimate D2E/DX2                !
 ! D78   D(20,7,11,2)          178.5185         estimate D2E/DX2                !
 ! D79   D(3,8,10,6)           -54.5            estimate D2E/DX2                !
 ! D80   D(3,8,10,23)           66.5974         estimate D2E/DX2                !
 ! D81   D(3,8,10,24)         -174.3086         estimate D2E/DX2                !
 ! D82   D(12,8,10,6)           64.2357         estimate D2E/DX2                !
 ! D83   D(12,8,10,23)        -174.6668         estimate D2E/DX2                !
 ! D84   D(12,8,10,24)         -55.5729         estimate D2E/DX2                !
 ! D85   D(31,8,10,6)         -174.7439         estimate D2E/DX2                !
 ! D86   D(31,8,10,23)         -53.6465         estimate D2E/DX2                !
 ! D87   D(31,8,10,24)          65.4474         estimate D2E/DX2                !
 ! D88   D(3,8,12,2)          -168.5179         Frozen                          !
 ! D89   D(10,8,12,2)           71.4336         estimate D2E/DX2                !
 ! D90   D(31,8,12,2)          -49.1728         estimate D2E/DX2                !
 --------------------------------------------------------------------------------
 Trust Radius=3.00D-01 FncErr=1.00D-07 GrdErr=1.00D-06 EigMax=2.50D+02 EigMin=1.00D-04
 Number of steps in this run=    186 maximum allowed number of steps=    186.
 GradGradGradGradGradGradGradGradGradGradGradGradGradGradGradGradGradGrad

                          Input orientation:                          
 ---------------------------------------------------------------------
 Center     Atomic      Atomic             Coordinates (Angstroms)
 Number     Number       Type             X           Y           Z
 ---------------------------------------------------------------------
      1          6           0        3.509890    0.393363    0.468997
      2          6           0        1.035249   -0.650153   -0.605628
      3          6           0       -1.799675    1.453513    0.446259
      4          6           0        2.714620   -0.627558    1.283046
      5          6           0       -3.476992   -0.404269    0.489198
      6          8           0       -2.655868   -1.132386   -0.405687
      7          6           0        2.582685    1.171105   -0.450048
      8          6           0       -1.005094    0.648186   -0.578203
      9          6           0       -2.647371    0.544655    1.338885
     10          6           0       -1.941515   -0.311446   -1.304081
     11          8           0        1.823012    0.299649   -1.277424
     12          8           0        0.019429   -0.035607    0.129961
     13          6           0        1.872164   -1.492922    0.344481
     14          1           0        4.259994   -0.117546   -0.130310
     15          1           0        4.031284    1.090440    1.118903
     16          1           0       -2.450195    2.134543   -0.096755
     17          1           0        3.382906   -1.257256    1.862394
     18          1           0        2.073036   -0.110568    1.991422
     19          1           0        1.910655    1.799267    0.124906
     20          1           0        3.137458    1.804517   -1.128427
     21          1           0       -2.012029   -0.032482    2.003805
     22          1           0       -3.309394    1.140155    1.960927
     23          1           0       -2.638757    0.274461   -1.898611
     24          1           0       -1.411111   -0.974175   -1.971274
     25          1           0        2.526609   -2.112207   -0.262831
     26          1           0        1.215612   -2.156780    0.896576
     27          1           0        0.616118   -1.262693   -1.388780
     28          1           0       -4.220710    0.145841   -0.083607
     29          1           0       -3.989379   -1.136958    1.097641
     30          1           0       -1.122193    2.059289    1.039058
     31          1           0       -0.556244    1.312076   -1.307273
 ---------------------------------------------------------------------
                    Distance matrix (angstroms):
                    1          2          3          4          5
     1  C    0.000000
     2  C    2.892679   0.000000
     3  C    5.414417   3.683568   0.000000
     4  C    1.528859   2.527427   5.040826   0.000000
     5  C    7.032293   4.649669   2.503316   6.246288   0.000000
     6  O    6.411673   3.727851   2.854076   5.652328   1.416057
     7  C    1.519617   2.394941   4.481986   2.501242   6.331167
     8  C    4.641836   2.418561   1.526248   4.350637   2.890897
     9  C    6.220246   4.332480   1.530161   5.488911   1.520097
    10  C    5.775671   3.076310   2.489757   5.335986   2.362659
    11  O    2.429882   1.404993   4.174488   2.865429   5.630852
    12  O    3.533027   1.396656   2.372059   2.990663   3.534108
    13  C    2.501144   1.520984   4.708953   1.529540   5.460731
    14  H    1.087590   3.302814   6.286513   2.155428   7.767043
    15  H    1.086345   3.870387   5.880846   2.170729   7.681464
    16  H    6.234934   4.490190   1.087126   6.017339   2.800575
    17  H    2.163845   3.459942   6.017712   1.085712   7.047798
    18  H    2.153201   2.848302   4.453287   1.086603   5.757234
    19  H    2.156969   2.701791   3.740236   2.806622   5.832240
    20  H    2.163752   3.273837   5.194047   3.450939   7.158659
    21  H    5.747049   4.059133   2.163152   4.818176   2.139714
    22  H    7.020412   5.354281   2.161403   6.314513   2.139935
    23  H    6.589808   4.003128   2.755474   6.292474   2.620104
    24  H    5.660506   2.820400   3.448060   5.266156   3.262910
    25  H    2.789318   2.116428   5.651009   2.151573   6.286957
    26  H    3.456843   2.135198   4.725353   2.175983   5.025712
    27  H    3.816775   1.078982   4.072002   3.456264   4.584457
    28  H    7.754277   5.341462   2.802173   7.110885   1.088046
    29  H    7.679591   5.327757   3.453931   6.725880   1.081470
    30  H    4.955449   3.834139   1.085061   4.690396   3.452035
    31  H    4.531293   2.622117   2.154298   4.601139   3.834569
                    6          7          8          9         10
     6  O    0.000000
     7  C    5.722803   0.000000
     8  C    2.434184   3.627951   0.000000
     9  C    2.419932   5.562931   2.526464   0.000000
    10  C    1.411154   4.836912   1.524689   2.866428   0.000000
    11  O    4.782365   1.421650   2.934037   5.185501   3.813897
    12  O    2.940588   2.891859   1.420815   2.984966   2.444967
    13  C    4.603891   2.869348   3.703283   5.056358   4.319466
    14  H    6.995347   2.139210   5.339298   7.092865   6.314590
    15  H    7.209947   2.136949   5.332997   6.704529   6.596246
    16  H    3.287942   5.136430   2.128231   2.151205   2.774753
    17  H    6.451866   3.447416   5.370453   6.315472   6.266624
    18  H    5.399331   2.804140   4.080878   4.810131   5.197818
    19  H    5.452454   1.084797   3.212622   4.880922   4.619126
    20  H    6.535318   1.081287   4.335964   6.413979   5.504918
    21  H    2.725797   5.346159   2.853768   1.085756   3.320377
    22  H    3.345505   6.366345   3.463959   1.086200   3.826031
    23  H    2.051422   5.492337   2.133542   3.248763   1.087612
    24  H    2.006368   4.781920   2.176592   3.846081   1.079669
    25  H    5.276223   3.289123   4.493568   6.032784   4.928598
    26  H    4.211132   3.841498   3.869670   4.734557   4.267974
    27  H    3.418968   3.266799   2.633785   4.621366   2.730116
    28  H    2.046052   6.889966   3.291985   2.158224   2.625528
    29  H    2.009544   7.135441   3.860201   2.164950   3.262436
    30  H    3.824426   4.090529   2.149525   2.170295   3.432488
    31  H    3.346143   3.256928   1.083402   3.458887   2.134200
                   11         12         13         14         15
    11  O    0.000000
    12  O    2.312151   0.000000
    13  C    2.417913   2.366942   0.000000
    14  H    2.725583   4.249335   2.796215   0.000000
    15  H    3.353237   4.282636   3.454749   1.752733   0.000000
    16  H    4.798032   3.295450   5.660033   7.078112   6.676642
    17  H    3.836102   3.975768   2.154516   2.457456   2.546537
    18  H    3.303959   2.772717   2.159552   3.047061   2.457325
    19  H    2.055010   2.635057   3.299728   3.042811   2.446944
    20  H    2.003646   3.832976   3.826687   2.439396   2.521770
    21  H    5.058094   2.763715   4.469138   6.625704   6.210124
    22  H    6.126578   3.976923   6.032788   7.953032   7.388980
    23  H    4.504874   3.358154   5.338868   7.132554   7.366184
    24  H    3.544518   2.709713   4.051137   6.023653   6.590257
    25  H    2.709520   3.279101   1.086573   2.645913   3.798708
    26  H    3.336054   2.553023   1.084701   3.805421   4.303705
    27  H    1.977348   2.041654   2.152870   4.021559   4.846552
    28  H    6.162421   4.249390   6.323916   8.484922   8.392479
    29  H    6.441169   4.268480   5.920443   8.402334   8.324229
    30  H    4.139644   2.553105   4.697533   5.922328   5.244365
    31  H    2.585877   2.052630   4.061215   5.159962   5.194311
                   16         17         18         19         20
    16  H    0.000000
    17  H    7.026210   0.000000
    18  H    5.464488   1.745652   0.000000
    19  H    4.379333   3.811656   2.675391   0.000000
    20  H    5.691672   4.287156   3.812349   1.753829   0.000000
    21  H    3.049646   5.534021   4.085830   4.719430   6.301005
    22  H    2.441533   7.109442   5.525920   5.572640   7.179651
    23  H    2.596564   7.263039   6.122222   5.207380   6.024858
    24  H    3.775930   6.144896   5.346780   4.808334   5.396388
    25  H    6.544543   2.445561   3.048597   3.978614   4.057477
    26  H    5.730646   2.537540   2.474035   4.090094   4.846236
    27  H    4.755294   4.269107   3.856912   3.652762   3.979035
    28  H    2.662674   7.973116   6.631948   6.353812   7.614820
    29  H    3.807675   7.412820   6.213308   6.661684   8.024927
    30  H    1.749092   5.654491   3.978035   3.178278   4.786181
    31  H    2.393503   5.671434   4.451788   2.893801   3.730673
                   21         22         23         24         25
    21  H    0.000000
    22  H    1.749306   0.000000
    23  H    3.964322   4.011884   0.000000
    24  H    4.129061   4.851399   1.752566   0.000000
    25  H    5.482894   7.041441   5.920555   4.440668   0.000000
    26  H    4.019486   5.698974   5.346042   4.064824   1.750693
    27  H    4.464326   5.692439   3.635517   2.128896   2.374744
    28  H    3.044234   2.449342   2.411091   3.565329   7.117388
    29  H    2.439449   2.528416   3.576844   4.011509   6.727562
    30  H    2.469423   2.545289   3.757057   4.283395   5.692983
    31  H    3.858806   4.276742   2.400664   2.529553   4.724464
                   26         27         28         29         30
    26  H    0.000000
    27  H    2.526190   0.000000
    28  H    5.984682   5.204070   0.000000
    29  H    5.307767   5.235332   1.759100   0.000000
    30  H    4.822953   4.466731   3.810836   4.294203   0.000000
    31  H    4.475420   2.830285   4.035564   4.854667   2.526637
                   31
    31  H    0.000000
 Stoichiometry    C10H18O3
 Framework group  C1[X(C10H18O3)]
 Deg. of freedom    87
 Full point group                 C1      NOp   1
 Largest Abelian subgroup         C1      NOp   1
 Largest concise Abelian subgroup C1      NOp   1
                         Standard orientation:                         
 ---------------------------------------------------------------------
 Center     Atomic      Atomic             Coordinates (Angstroms)
 Number     Number       Type             X           Y           Z
 ---------------------------------------------------------------------
      1          6           0        3.509890    0.393363    0.468997
      2          6           0        1.035249   -0.650153   -0.605628
      3          6           0       -1.799675    1.453513    0.446259
      4          6           0        2.714620   -0.627558    1.283046
      5          6           0       -3.476992   -0.404269    0.489198
      6          8           0       -2.655868   -1.132386   -0.405687
      7          6           0        2.582685    1.171105   -0.450048
      8          6           0       -1.005094    0.648186   -0.578203
      9          6           0       -2.647371    0.544655    1.338885
     10          6           0       -1.941515   -0.311446   -1.304081
     11          8           0        1.823012    0.299649   -1.277424
     12          8           0        0.019429   -0.035607    0.129961
     13          6           0        1.872164   -1.492922    0.344481
     14          1           0        4.259994   -0.117546   -0.130310
     15          1           0        4.031284    1.090440    1.118903
     16          1           0       -2.450195    2.134543   -0.096755
     17          1           0        3.382906   -1.257256    1.862394
     18          1           0        2.073036   -0.110568    1.991422
     19          1           0        1.910655    1.799267    0.124906
     20          1           0        3.137458    1.804517   -1.128427
     21          1           0       -2.012029   -0.032482    2.003805
     22          1           0       -3.309394    1.140155    1.960927
     23          1           0       -2.638757    0.274461   -1.898611
     24          1           0       -1.411111   -0.974175   -1.971274
     25          1           0        2.526609   -2.112207   -0.262831
     26          1           0        1.215612   -2.156780    0.896576
     27          1           0        0.616118   -1.262693   -1.388780
     28          1           0       -4.220710    0.145841   -0.083607
     29          1           0       -3.989379   -1.136958    1.097641
     30          1           0       -1.122193    2.059289    1.039058
     31          1           0       -0.556244    1.312076   -1.307273
 ---------------------------------------------------------------------
 Rotational constants (GHZ):           1.7344140           0.4417508           0.4397966
 Standard basis: 6-311++G(2d,2p) (5D, 7F)
 There are   557 symmetry adapted cartesian basis functions of A   symmetry.
 There are   531 symmetry adapted basis functions of A   symmetry.
   531 basis functions,   762 primitive gaussians,   557 cartesian basis functions
    51 alpha electrons       51 beta electrons
       nuclear repulsion energy       905.3652427967 Hartrees.
 NAtoms=   31 NActive=   31 NUniq=   31 SFac= 1.00D+00 NAtFMM=   60 NAOKFM=F Big=F
 Integral buffers will be    131072 words long.
 Raffenetti 2 integral format.
 Two-electron integral symmetry is turned on.
 ------------------------------------------------------------------------------
 Polarizable Continuum Model (PCM)
 =================================
 Model                : PCM.
 Atomic radii         : UFF (Universal Force Field).
 Polarization charges : Total charges.
 Charge compensation  : None.
 Solution method      : On-the-fly selection.
 Cavity type          : Scaled VdW (van der Waals Surface) (Alpha=1.100).
 Cavity algorithm     : GePol (No added spheres)
                        Default sphere list used, NSphG=   31.
                        Lebedev-Laikov grids with approx.  5.0 points / Ang**2.
                        Smoothing algorithm: York/Karplus (Gamma=1.0000).
                        Polarization charges: spherical gaussians, with
                                              point-specific exponents (IZeta= 3).
                        Self-potential: point-specific (ISelfS= 7).
                        Self-field    : sphere-specific E.n sum rule (ISelfD= 2).
 1st derivatives      : Analytical E(r).r(x)/FMM algorithm (CHGder, D1EAlg=3).
                        Cavity 1st derivative terms included.
 Solvent              : Water, Eps=  78.355300 Eps(inf)=   1.777849
 ------------------------------------------------------------------------------
 One-electron integrals computed using PRISM.
 NBasis=   531 RedAO= T EigKep=  4.74D-06  NBF=   531
 NBsUse=   531 1.00D-06 EigRej= -1.00D+00 NBFU=   531
 ExpMin= 3.60D-02 ExpMax= 8.59D+03 ExpMxC= 1.30D+03 IAcc=3 IRadAn=         5 AccDes= 0.00D+00
 Harris functional with IExCor= 1009 and IRadAn=       5 diagonalized for initial guess.
 HarFok:  IExCor= 1009 AccDes= 0.00D+00 IRadAn=         5 IDoV= 1 UseB2=F ITyADJ=14
 ICtDFT=  3500011 ScaDFX=  1.000000  1.000000  1.000000  1.000000
 FoFCou: FMM=F IPFlag=           0 FMFlag=      100000 FMFlg1=           0
         NFxFlg=           0 DoJE=T BraDBF=F KetDBF=T FulRan=T
         wScrn=  0.000000 ICntrl=       500 IOpCl=  0 I1Cent=   200000004 NGrid=           0
         NMat0=    1 NMatS0=      1 NMatT0=    0 NMatD0=    1 NMtDS0=    0 NMtDT0=    0
 Petite list used in FoFCou.
 Requested convergence on RMS density matrix=1.00D-08 within 128 cycles.
 Requested convergence on MAX density matrix=1.00D-06.
 Requested convergence on             energy=1.00D-06.
 No special actions if energy rises.
 Inv3:  Mode=1 IEnd=    12644427.
 Iteration    1 A*A^-1 deviation from unit magnitude is 4.00D-15 for   2031.
 Iteration    1 A*A^-1 deviation from orthogonality  is 3.27D-15 for   2052    982.
 Iteration    1 A^-1*A deviation from unit magnitude is 3.77D-15 for   2031.
 Iteration    1 A^-1*A deviation from orthogonality  is 1.86D-15 for   2048   2027.
 Error on total polarization charges =  0.01468
 SCF Done:  E(RM062X) =  -617.502244642     A.U. after   12 cycles
            NFock= 12  Conv=0.71D-08     -V/T= 2.0035

 **********************************************************************

            Population analysis using the SCF density.

 **********************************************************************

 Orbital symmetries:
       Occupied  (A) (A) (A) (A) (A) (A) (A) (A) (A) (A) (A) (A)
                 (A) (A) (A) (A) (A) (A) (A) (A) (A) (A) (A) (A)
                 (A) (A) (A) (A) (A) (A) (A) (A) (A) (A) (A) (A)
                 (A) (A) (A) (A) (A) (A) (A) (A) (A) (A) (A) (A)
                 (A) (A) (A)
       Virtual   (A) (A) (A) (A) (A) (A) (A) (A) (A) (A) (A) (A)
                 (A) (A) (A) (A) (A) (A) (A) (A) (A) (A) (A) (A)
                 (A) (A) (A) (A) (A) (A) (A) (A) (A) (A) (A) (A)
                 (A) (A) (A) (A) (A) (A) (A) (A) (A) (A) (A) (A)
                 (A) (A) (A) (A) (A) (A) (A) (A) (A) (A) (A) (A)
                 (A) (A) (A) (A) (A) (A) (A) (A) (A) (A) (A) (A)
                 (A) (A) (A) (A) (A) (A) (A) (A) (A) (A) (A) (A)
                 (A) (A) (A) (A) (A) (A) (A) (A) (A) (A) (A) (A)
                 (A) (A) (A) (A) (A) (A) (A) (A) (A) (A) (A) (A)
                 (A) (A) (A) (A) (A) (A) (A) (A) (A) (A) (A) (A)
                 (A) (A) (A) (A) (A) (A) (A) (A) (A) (A) (A) (A)
                 (A) (A) (A) (A) (A) (A) (A) (A) (A) (A) (A) (A)
                 (A) (A) (A) (A) (A) (A) (A) (A) (A) (A) (A) (A)
                 (A) (A) (A) (A) (A) (A) (A) (A) (A) (A) (A) (A)
                 (A) (A) (A) (A) (A) (A) (A) (A) (A) (A) (A) (A)
                 (A) (A) (A) (A) (A) (A) (A) (A) (A) (A) (A) (A)
                 (A) (A) (A) (A) (A) (A) (A) (A) (A) (A) (A) (A)
                 (A) (A) (A) (A) (A) (A) (A) (A) (A) (A) (A) (A)
                 (A) (A) (A) (A) (A) (A) (A) (A) (A) (A) (A) (A)
                 (A) (A) (A) (A) (A) (A) (A) (A) (A) (A) (A) (A)
                 (A) (A) (A) (A) (A) (A) (A) (A) (A) (A) (A) (A)
                 (A) (A) (A) (A) (A) (A) (A) (A) (A) (A) (A) (A)
                 (A) (A) (A) (A) (A) (A) (A) (A) (A) (A) (A) (A)
                 (A) (A) (A) (A) (A) (A) (A) (A) (A) (A) (A) (A)
                 (A) (A) (A) (A) (A) (A) (A) (A) (A) (A) (A) (A)
                 (A) (A) (A) (A) (A) (A) (A) (A) (A) (A) (A) (A)
                 (A) (A) (A) (A) (A) (A) (A) (A) (A) (A) (A) (A)
                 (A) (A) (A) (A) (A) (A) (A) (A) (A) (A) (A) (A)
                 (A) (A) (A) (A) (A) (A) (A) (A) (A) (A) (A) (A)
                 (A) (A) (A) (A) (A) (A) (A) (A) (A) (A) (A) (A)
                 (A) (A) (A) (A) (A) (A) (A) (A) (A) (A) (A) (A)
                 (A) (A) (A) (A) (A) (A) (A) (A) (A) (A) (A) (A)
                 (A) (A) (A) (A) (A) (A) (A) (A) (A) (A) (A) (A)
                 (A) (A) (A) (A) (A) (A) (A) (A) (A) (A) (A) (A)
                 (A) (A) (A) (A) (A) (A) (A) (A) (A) (A) (A) (A)
                 (A) (A) (A) (A) (A) (A) (A) (A) (A) (A) (A) (A)
                 (A) (A) (A) (A) (A) (A) (A) (A) (A) (A) (A) (A)
                 (A) (A) (A) (A) (A) (A) (A) (A) (A) (A) (A) (A)
                 (A) (A) (A) (A) (A) (A) (A) (A) (A) (A) (A) (A)
                 (A) (A) (A) (A) (A) (A) (A) (A) (A) (A) (A) (A)
 The electronic state is 1-A.
 Alpha  occ. eigenvalues --  -19.62827 -19.62675 -19.62666 -10.63248 -10.58638
 Alpha  occ. eigenvalues --  -10.57894 -10.57708 -10.57587 -10.53204 -10.52934
 Alpha  occ. eigenvalues --  -10.52895 -10.52789 -10.52727  -1.20164  -1.16561
 Alpha  occ. eigenvalues --   -1.13275  -0.90987  -0.89673  -0.87186  -0.84873
 Alpha  occ. eigenvalues --   -0.74966  -0.74137  -0.73082  -0.71419  -0.66288
 Alpha  occ. eigenvalues --   -0.62649  -0.59611  -0.58771  -0.58005  -0.55897
 Alpha  occ. eigenvalues --   -0.54345  -0.53060  -0.52393  -0.50862  -0.49965
 Alpha  occ. eigenvalues --   -0.48264  -0.46972  -0.46216  -0.45574  -0.45199
 Alpha  occ. eigenvalues --   -0.43809  -0.43069  -0.40805  -0.40007  -0.39004
 Alpha  occ. eigenvalues --   -0.38347  -0.37791  -0.36060  -0.34965  -0.33279
 Alpha  occ. eigenvalues --   -0.31790
 Alpha virt. eigenvalues --   -0.00166   0.00827   0.00900   0.00993   0.02214
 Alpha virt. eigenvalues --    0.02500   0.02719   0.03191   0.03487   0.04567
 Alpha virt. eigenvalues --    0.04749   0.04841   0.05376   0.05739   0.07338
 Alpha virt. eigenvalues --    0.07708   0.07968   0.08394   0.08646   0.08985
 Alpha virt. eigenvalues --    0.09931   0.10815   0.11050   0.11459   0.12265
 Alpha virt. eigenvalues --    0.12399   0.12742   0.13068   0.13278   0.13519
 Alpha virt. eigenvalues --    0.13828   0.13960   0.14490   0.14516   0.14852
 Alpha virt. eigenvalues --    0.14995   0.15329   0.15785   0.15969   0.16206
 Alpha virt. eigenvalues --    0.16462   0.16864   0.17269   0.17368   0.17651
 Alpha virt. eigenvalues --    0.18184   0.18476   0.18794   0.18948   0.19562
 Alpha virt. eigenvalues --    0.19853   0.20075   0.20408   0.20682   0.21200
 Alpha virt. eigenvalues --    0.22004   0.22318   0.22688   0.23396   0.24086
 Alpha virt. eigenvalues --    0.24624   0.25135   0.26286   0.26712   0.27353
 Alpha virt. eigenvalues --    0.27576   0.28132   0.28341   0.28519   0.29615
 Alpha virt. eigenvalues --    0.29977   0.30548   0.30988   0.31480   0.32465
 Alpha virt. eigenvalues --    0.32987   0.33258   0.33571   0.34220   0.34344
 Alpha virt. eigenvalues --    0.34657   0.34964   0.35798   0.36253   0.36456
 Alpha virt. eigenvalues --    0.37055   0.37153   0.37388   0.37701   0.38363
 Alpha virt. eigenvalues --    0.38910   0.39109   0.39436   0.40318   0.40719
 Alpha virt. eigenvalues --    0.41487   0.42165   0.43306   0.44587   0.45150
 Alpha virt. eigenvalues --    0.46904   0.48192   0.48970   0.50130   0.50734
 Alpha virt. eigenvalues --    0.51313   0.52639   0.52865   0.53971   0.55406
 Alpha virt. eigenvalues --    0.56435   0.57952   0.58668   0.59532   0.59915
 Alpha virt. eigenvalues --    0.60648   0.60905   0.61202   0.61746   0.62199
 Alpha virt. eigenvalues --    0.62289   0.63099   0.63538   0.64411   0.64811
 Alpha virt. eigenvalues --    0.65178   0.65548   0.66053   0.66355   0.66657
 Alpha virt. eigenvalues --    0.68016   0.68469   0.68838   0.69072   0.69757
 Alpha virt. eigenvalues --    0.70840   0.71551   0.71580   0.72441   0.72494
 Alpha virt. eigenvalues --    0.73303   0.74437   0.75108   0.75446   0.75796
 Alpha virt. eigenvalues --    0.76555   0.77486   0.78195   0.78765   0.78913
 Alpha virt. eigenvalues --    0.80102   0.81944   0.82852   0.84121   0.85978
 Alpha virt. eigenvalues --    0.86614   0.86893   0.87648   0.88462   0.89361
 Alpha virt. eigenvalues --    0.91813   0.92622   0.93218   0.94314   0.95761
 Alpha virt. eigenvalues --    0.98399   0.98853   0.99458   0.99997   1.02031
 Alpha virt. eigenvalues --    1.03560   1.03805   1.04165   1.05589   1.06580
 Alpha virt. eigenvalues --    1.06948   1.08918   1.09953   1.12427   1.12733
 Alpha virt. eigenvalues --    1.12890   1.13555   1.14647   1.16574   1.17364
 Alpha virt. eigenvalues --    1.17981   1.18806   1.19907   1.20849   1.21489
 Alpha virt. eigenvalues --    1.21886   1.22618   1.23671   1.24124   1.24562
 Alpha virt. eigenvalues --    1.25352   1.25917   1.26375   1.27787   1.28271
 Alpha virt. eigenvalues --    1.28453   1.29806   1.30331   1.30991   1.32380
 Alpha virt. eigenvalues --    1.32557   1.32899   1.33428   1.33952   1.35095
 Alpha virt. eigenvalues --    1.35792   1.36633   1.37137   1.37362   1.37473
 Alpha virt. eigenvalues --    1.38573   1.39281   1.39622   1.40750   1.41122
 Alpha virt. eigenvalues --    1.41770   1.42691   1.43895   1.44691   1.45537
 Alpha virt. eigenvalues --    1.46125   1.46654   1.47418   1.48008   1.48555
 Alpha virt. eigenvalues --    1.49257   1.49895   1.50436   1.51961   1.52386
 Alpha virt. eigenvalues --    1.52520   1.53263   1.54587   1.54855   1.55300
 Alpha virt. eigenvalues --    1.55770   1.56781   1.57459   1.58182   1.58366
 Alpha virt. eigenvalues --    1.59399   1.60266   1.60895   1.61783   1.62352
 Alpha virt. eigenvalues --    1.63605   1.64126   1.65317   1.66265   1.66645
 Alpha virt. eigenvalues --    1.67362   1.68284   1.69501   1.70078   1.72458
 Alpha virt. eigenvalues --    1.73807   1.74332   1.75548   1.76911   1.78024
 Alpha virt. eigenvalues --    1.78710   1.80427   1.81608   1.83246   1.83679
 Alpha virt. eigenvalues --    1.84936   1.86728   1.93584   1.97225   2.02514
 Alpha virt. eigenvalues --    2.03416   2.08826   2.14089   2.18406   2.22226
 Alpha virt. eigenvalues --    2.24148   2.27501   2.28949   2.35964   2.40007
 Alpha virt. eigenvalues --    2.41388   2.43125   2.45059   2.47911   2.51507
 Alpha virt. eigenvalues --    2.60426   2.76053   2.77480   2.79804   2.80949
 Alpha virt. eigenvalues --    2.84023   2.85963   2.92337   2.93095   2.93942
 Alpha virt. eigenvalues --    2.95062   2.98262   2.99386   3.00457   3.03293
 Alpha virt. eigenvalues --    3.05946   3.07070   3.08860   3.10813   3.11968
 Alpha virt. eigenvalues --    3.13764   3.15572   3.16542   3.17860   3.20430
 Alpha virt. eigenvalues --    3.23437   3.29212   3.31675   3.33132   3.33689
 Alpha virt. eigenvalues --    3.34860   3.36397   3.37483   3.38774   3.40771
 Alpha virt. eigenvalues --    3.41870   3.44313   3.45483   3.45506   3.46694
 Alpha virt. eigenvalues --    3.48123   3.49256   3.50465   3.51908   3.52644
 Alpha virt. eigenvalues --    3.53069   3.54038   3.54461   3.56166   3.56385
 Alpha virt. eigenvalues --    3.56964   3.57944   3.58739   3.59267   3.60210
 Alpha virt. eigenvalues --    3.61675   3.62097   3.63312   3.63822   3.64334
 Alpha virt. eigenvalues --    3.65512   3.67440   3.67833   3.68533   3.69445
 Alpha virt. eigenvalues --    3.70698   3.71440   3.72121   3.73642   3.73864
 Alpha virt. eigenvalues --    3.75074   3.75334   3.76013   3.76460   3.77506
 Alpha virt. eigenvalues --    3.78311   3.80445   3.81062   3.82686   3.83646
 Alpha virt. eigenvalues --    3.86207   3.89736   3.90242   3.91851   3.92033
 Alpha virt. eigenvalues --    3.93189   3.93614   3.94577   3.95354   3.97960
 Alpha virt. eigenvalues --    4.00122   4.00700   4.02242   4.03072   4.03777
 Alpha virt. eigenvalues --    4.04731   4.05559   4.06502   4.07423   4.07574
 Alpha virt. eigenvalues --    4.08146   4.08681   4.09313   4.10014   4.10619
 Alpha virt. eigenvalues --    4.11823   4.12093   4.14145   4.14814   4.15197
 Alpha virt. eigenvalues --    4.16882   4.17558   4.17839   4.19398   4.19951
 Alpha virt. eigenvalues --    4.20653   4.21818   4.24071   4.26080   4.27459
 Alpha virt. eigenvalues --    4.28132   4.29740   4.30192   4.31855   4.32645
 Alpha virt. eigenvalues --    4.33357   4.33457   4.35549   4.36645   4.37168
 Alpha virt. eigenvalues --    4.39028   4.43896   4.45835   4.46661   4.48016
 Alpha virt. eigenvalues --    4.57027   4.62439   4.74618   4.75630   4.81827
 Alpha virt. eigenvalues --    4.85296   4.93755   4.95911   5.01379   5.03804
 Alpha virt. eigenvalues --    5.06370   5.07445   5.08010   5.08702   5.11800
 Alpha virt. eigenvalues --    5.12563   5.13739   5.14204   5.32474   5.37017
 Alpha virt. eigenvalues --    5.43728   5.58642   5.59629   5.64306   5.86508
 Alpha virt. eigenvalues --    5.87414   6.06953   7.03657   7.05871   7.06707
 Alpha virt. eigenvalues --    7.09344   7.10193   7.12460   7.13416   7.20474
 Alpha virt. eigenvalues --    7.26624   7.36431   7.38870   7.47940   7.53001
 Alpha virt. eigenvalues --    7.55507   7.66356  23.95807  23.97633  24.05972
 Alpha virt. eigenvalues --   24.07912  24.10671  24.11778  24.13778  24.15803
 Alpha virt. eigenvalues --   24.16089  24.22520  50.16744  50.18058  50.26379
          Condensed to atoms (all electrons):
               1          2          3          4          5          6
     1  C    5.720587   0.302811   0.020210  -0.034495  -0.001831  -0.000256
     2  C    0.302811   7.274791   0.035561  -0.082631  -0.016845  -0.026986
     3  C    0.020210   0.035561   6.185037  -0.045143  -0.097710   0.006321
     4  C   -0.034495  -0.082631  -0.045143   5.747680  -0.008612  -0.000644
     5  C   -0.001831  -0.016845  -0.097710  -0.008612   5.466673   0.098728
     6  O   -0.000256  -0.026986   0.006321  -0.000644   0.098728   8.257971
     7  C   -0.064738  -0.496904  -0.000369  -0.053979   0.004743   0.003293
     8  C    0.012238  -0.900411  -0.432714  -0.010485   0.289986   0.051249
     9  C   -0.003415   0.147280  -0.023624   0.025604   0.008722   0.000214
    10  C   -0.013135   0.132785   0.051765   0.049850  -0.292486   0.120202
    11  O   -0.067231   0.242648   0.000895  -0.004101   0.000637   0.000196
    12  O   -0.022882   0.247670  -0.085140  -0.002728  -0.005176   0.026398
    13  C   -0.196494  -0.950603  -0.034560  -0.101758   0.017340  -0.001351
    14  H    0.492396   0.006519  -0.000366  -0.016556  -0.000066  -0.000017
    15  H    0.440708  -0.002240   0.000531  -0.046303  -0.000184   0.000017
    16  H   -0.000117  -0.001070   0.526917  -0.000423  -0.012896   0.001614
    17  H   -0.021732   0.014372  -0.001065   0.433390  -0.000002  -0.000083
    18  H   -0.070924  -0.016633  -0.009275   0.519819   0.002300   0.000257
    19  H   -0.107908   0.011023  -0.013667   0.013981   0.001235  -0.000823
    20  H   -0.015291  -0.013492  -0.000506   0.002837   0.000269   0.000053
    21  H    0.001923  -0.009489  -0.001836   0.002784  -0.102487  -0.013165
    22  H    0.000092   0.008203  -0.056532   0.000007  -0.026103   0.011295
    23  H   -0.000755  -0.013702  -0.032672   0.003123  -0.011755  -0.051772
    24  H    0.002656   0.045192   0.012922  -0.001728   0.007653  -0.077262
    25  H   -0.015247  -0.134986   0.001215  -0.002072   0.000479   0.000240
    26  H   -0.008623  -0.047184  -0.002753  -0.052907   0.001489  -0.001722
    27  H    0.013635   0.482972   0.001423  -0.009795   0.004313   0.000128
    28  H    0.000178  -0.002731  -0.030779  -0.000208   0.448768  -0.061239
    29  H   -0.000287   0.001327   0.013434   0.000127   0.447006  -0.065295
    30  H    0.006493  -0.014598   0.385679  -0.000730  -0.006994  -0.001672
    31  H   -0.003317  -0.074692  -0.000511  -0.007602  -0.010298   0.012017
               7          8          9         10         11         12
     1  C   -0.064738   0.012238  -0.003415  -0.013135  -0.067231  -0.022882
     2  C   -0.496904  -0.900411   0.147280   0.132785   0.242648   0.247670
     3  C   -0.000369  -0.432714  -0.023624   0.051765   0.000895  -0.085140
     4  C   -0.053979  -0.010485   0.025604   0.049850  -0.004101  -0.002728
     5  C    0.004743   0.289986   0.008722  -0.292486   0.000637  -0.005176
     6  O    0.003293   0.051249   0.000214   0.120202   0.000196   0.026398
     7  C    5.547259   0.095522   0.014668  -0.051819   0.109563  -0.001271
     8  C    0.095522   7.327921  -0.436314  -0.622833   0.045966   0.036562
     9  C    0.014668  -0.436314   5.669406   0.117376  -0.005982  -0.008850
    10  C   -0.051819  -0.622833   0.117376   6.324741  -0.031951  -0.096433
    11  O    0.109563   0.045966  -0.005982  -0.031951   8.203185  -0.048876
    12  O   -0.001271   0.036562  -0.008850  -0.096433  -0.048876   8.291260
    13  C    0.249768   0.266034  -0.050194  -0.087478   0.001930  -0.101384
    14  H   -0.093535  -0.003494  -0.000100   0.000100  -0.003154  -0.000871
    15  H   -0.035634   0.001719   0.000540   0.001113   0.010181   0.001169
    16  H   -0.000403  -0.087775  -0.032485  -0.016153  -0.000445   0.005121
    17  H    0.003864   0.005982  -0.001041   0.001344  -0.002289   0.001106
    18  H    0.007021  -0.000679   0.001535  -0.000389   0.001040  -0.004991
    19  H    0.469296  -0.012232  -0.002755   0.009088  -0.034092   0.011830
    20  H    0.438258   0.011819   0.000390  -0.002079  -0.071409   0.000909
    21  H   -0.003247  -0.031999   0.508728   0.029093   0.000059  -0.003279
    22  H    0.000758  -0.008324   0.455539  -0.011056  -0.000118   0.002176
    23  H    0.001537  -0.049859   0.027844   0.456190   0.001770   0.013327
    24  H    0.004277  -0.067685   0.015190   0.420612  -0.004066  -0.012270
    25  H    0.016039   0.004596   0.000259  -0.004435  -0.010530   0.008733
    26  H    0.009350   0.006428  -0.000858  -0.007164   0.008990   0.000547
    27  H   -0.030607   0.036659  -0.009250  -0.021564  -0.052145  -0.031993
    28  H    0.000047   0.016454  -0.012982  -0.011233  -0.000032   0.001446
    29  H    0.000291   0.006300  -0.060405  -0.004372   0.000041   0.001554
    30  H    0.000721   0.010846  -0.010566  -0.006106   0.001656   0.006820
    31  H    0.005639   0.449547  -0.036053   0.007314  -0.004866  -0.024115
              13         14         15         16         17         18
     1  C   -0.196494   0.492396   0.440708  -0.000117  -0.021732  -0.070924
     2  C   -0.950603   0.006519  -0.002240  -0.001070   0.014372  -0.016633
     3  C   -0.034560  -0.000366   0.000531   0.526917  -0.001065  -0.009275
     4  C   -0.101758  -0.016556  -0.046303  -0.000423   0.433390   0.519819
     5  C    0.017340  -0.000066  -0.000184  -0.012896  -0.000002   0.002300
     6  O   -0.001351  -0.000017   0.000017   0.001614  -0.000083   0.000257
     7  C    0.249768  -0.093535  -0.035634  -0.000403   0.003864   0.007021
     8  C    0.266034  -0.003494   0.001719  -0.087775   0.005982  -0.000679
     9  C   -0.050194  -0.000100   0.000540  -0.032485  -0.001041   0.001535
    10  C   -0.087478   0.000100   0.001113  -0.016153   0.001344  -0.000389
    11  O    0.001930  -0.003154   0.010181  -0.000445  -0.002289   0.001040
    12  O   -0.101384  -0.000871   0.001169   0.005121   0.001106  -0.004991
    13  C    6.503721  -0.013734   0.000087   0.001514  -0.060386  -0.045615
    14  H   -0.013734   0.483705  -0.012516  -0.000024  -0.002985   0.001813
    15  H    0.000087  -0.012516   0.489617  -0.000036  -0.005562  -0.005959
    16  H    0.001514  -0.000024  -0.000036   0.425622   0.000003  -0.000163
    17  H   -0.060386  -0.002985  -0.005562   0.000003   0.472675  -0.009491
    18  H   -0.045615   0.001813  -0.005959  -0.000163  -0.009491   0.463748
    19  H    0.017591   0.005354  -0.000799   0.000756  -0.001073   0.000311
    20  H    0.003043  -0.006538  -0.009163  -0.000045   0.001072  -0.002167
    21  H   -0.004534   0.000000   0.000161   0.002360   0.000437  -0.003041
    22  H   -0.001078   0.000002  -0.000020  -0.006334  -0.000099   0.000135
    23  H    0.003067  -0.000040   0.000020  -0.005808   0.000115  -0.000022
    24  H   -0.008853  -0.000334   0.000159  -0.000056  -0.000451  -0.000051
    25  H    0.521682  -0.002409  -0.002531   0.000101  -0.004718   0.002236
    26  H    0.462218  -0.001742   0.000899   0.000096  -0.008443  -0.000635
    27  H   -0.074256   0.000812   0.000962  -0.000566   0.003827  -0.003874
    28  H   -0.001828   0.000005   0.000009  -0.006066  -0.000022  -0.000024
    29  H    0.001376  -0.000004  -0.000008  -0.001374   0.000017   0.000159
    30  H    0.001296   0.000038   0.000294   0.000784   0.000056  -0.000941
    31  H    0.006818  -0.000282   0.000234  -0.006381   0.000537  -0.000542
              19         20         21         22         23         24
     1  C   -0.107908  -0.015291   0.001923   0.000092  -0.000755   0.002656
     2  C    0.011023  -0.013492  -0.009489   0.008203  -0.013702   0.045192
     3  C   -0.013667  -0.000506  -0.001836  -0.056532  -0.032672   0.012922
     4  C    0.013981   0.002837   0.002784   0.000007   0.003123  -0.001728
     5  C    0.001235   0.000269  -0.102487  -0.026103  -0.011755   0.007653
     6  O   -0.000823   0.000053  -0.013165   0.011295  -0.051772  -0.077262
     7  C    0.469296   0.438258  -0.003247   0.000758   0.001537   0.004277
     8  C   -0.012232   0.011819  -0.031999  -0.008324  -0.049859  -0.067685
     9  C   -0.002755   0.000390   0.508728   0.455539   0.027844   0.015190
    10  C    0.009088  -0.002079   0.029093  -0.011056   0.456190   0.420612
    11  O   -0.034092  -0.071409   0.000059  -0.000118   0.001770  -0.004066
    12  O    0.011830   0.000909  -0.003279   0.002176   0.013327  -0.012270
    13  C    0.017591   0.003043  -0.004534  -0.001078   0.003067  -0.008853
    14  H    0.005354  -0.006538   0.000000   0.000002  -0.000040  -0.000334
    15  H   -0.000799  -0.009163   0.000161  -0.000020   0.000020   0.000159
    16  H    0.000756  -0.000045   0.002360  -0.006334  -0.005808  -0.000056
    17  H   -0.001073   0.001072   0.000437  -0.000099   0.000115  -0.000451
    18  H    0.000311  -0.002167  -0.003041   0.000135  -0.000022  -0.000051
    19  H    0.535798  -0.020192  -0.000635   0.000037  -0.001026  -0.000541
    20  H   -0.020192   0.480122  -0.000080   0.000011   0.000050   0.000788
    21  H   -0.000635  -0.000080   0.483284  -0.016256  -0.000624  -0.001368
    22  H    0.000037   0.000011  -0.016256   0.483583   0.000315   0.001980
    23  H   -0.001026   0.000050  -0.000624   0.000315   0.481793  -0.008873
    24  H   -0.000541   0.000788  -0.001368   0.001980  -0.008873   0.486249
    25  H   -0.002465   0.000786  -0.000353   0.000076   0.000028   0.001596
    26  H    0.001087   0.001133  -0.001756   0.000130  -0.000344   0.001231
    27  H    0.001025  -0.001518   0.000587  -0.000329  -0.000328  -0.014704
    28  H   -0.000264   0.000009   0.000923   0.003660   0.009101  -0.002898
    29  H    0.000081   0.000004  -0.005053  -0.007895  -0.001896   0.000905
    30  H   -0.007278   0.001266  -0.000241  -0.007485   0.000448   0.000353
    31  H   -0.005378  -0.001522   0.001716  -0.001673  -0.003190  -0.014948
              25         26         27         28         29         30
     1  C   -0.015247  -0.008623   0.013635   0.000178  -0.000287   0.006493
     2  C   -0.134986  -0.047184   0.482972  -0.002731   0.001327  -0.014598
     3  C    0.001215  -0.002753   0.001423  -0.030779   0.013434   0.385679
     4  C   -0.002072  -0.052907  -0.009795  -0.000208   0.000127  -0.000730
     5  C    0.000479   0.001489   0.004313   0.448768   0.447006  -0.006994
     6  O    0.000240  -0.001722   0.000128  -0.061239  -0.065295  -0.001672
     7  C    0.016039   0.009350  -0.030607   0.000047   0.000291   0.000721
     8  C    0.004596   0.006428   0.036659   0.016454   0.006300   0.010846
     9  C    0.000259  -0.000858  -0.009250  -0.012982  -0.060405  -0.010566
    10  C   -0.004435  -0.007164  -0.021564  -0.011233  -0.004372  -0.006106
    11  O   -0.010530   0.008990  -0.052145  -0.000032   0.000041   0.001656
    12  O    0.008733   0.000547  -0.031993   0.001446   0.001554   0.006820
    13  C    0.521682   0.462218  -0.074256  -0.001828   0.001376   0.001296
    14  H   -0.002409  -0.001742   0.000812   0.000005  -0.000004   0.000038
    15  H   -0.002531   0.000899   0.000962   0.000009  -0.000008   0.000294
    16  H    0.000101   0.000096  -0.000566  -0.006066  -0.001374   0.000784
    17  H   -0.004718  -0.008443   0.003827  -0.000022   0.000017   0.000056
    18  H    0.002236  -0.000635  -0.003874  -0.000024   0.000159  -0.000941
    19  H   -0.002465   0.001087   0.001025  -0.000264   0.000081  -0.007278
    20  H    0.000786   0.001133  -0.001518   0.000009   0.000004   0.001266
    21  H   -0.000353  -0.001756   0.000587   0.000923  -0.005053  -0.000241
    22  H    0.000076   0.000130  -0.000329   0.003660  -0.007895  -0.007485
    23  H    0.000028  -0.000344  -0.000328   0.009101  -0.001896   0.000448
    24  H    0.001596   0.001231  -0.014704  -0.002898   0.000905   0.000353
    25  H    0.451866  -0.004267  -0.016217  -0.000038  -0.000025   0.000245
    26  H   -0.004267   0.473998  -0.008934  -0.000126   0.000389  -0.000558
    27  H   -0.016217  -0.008934   0.460369   0.000119   0.000479   0.000390
    28  H   -0.000038  -0.000126   0.000119   0.497333  -0.005946   0.001481
    29  H   -0.000025   0.000389   0.000479  -0.005946   0.480345   0.000030
    30  H    0.000245  -0.000558   0.000390   0.001481   0.000030   0.483481
    31  H   -0.000528  -0.000904   0.003113   0.001905  -0.000033  -0.009104
              31
     1  C   -0.003317
     2  C   -0.074692
     3  C   -0.000511
     4  C   -0.007602
     5  C   -0.010298
     6  O    0.012017
     7  C    0.005639
     8  C    0.449547
     9  C   -0.036053
    10  C    0.007314
    11  O   -0.004866
    12  O   -0.024115
    13  C    0.006818
    14  H   -0.000282
    15  H    0.000234
    16  H   -0.006381
    17  H    0.000537
    18  H   -0.000542
    19  H   -0.005378
    20  H   -0.001522
    21  H    0.001716
    22  H   -0.001673
    23  H   -0.003190
    24  H   -0.014948
    25  H   -0.000528
    26  H   -0.000904
    27  H    0.003113
    28  H    0.001905
    29  H   -0.000033
    30  H   -0.009104
    31  H    0.442342
 Mulliken charges:
               1
     1  C   -0.365246
     2  C   -0.147957
     3  C   -0.372688
     4  C   -0.316303
     5  C   -0.206897
     6  O   -0.287905
     7  C   -0.149409
     8  C   -0.011021
     9  C   -0.298422
    10  C   -0.440888
    11  O   -0.287470
    12  O   -0.206369
    13  C   -0.323377
    14  H    0.168025
    15  H    0.172537
    16  H    0.213731
    17  H    0.180644
    18  H    0.175040
    19  H    0.132638
    20  H    0.201181
    21  H    0.167386
    22  H    0.175304
    23  H    0.183936
    24  H    0.214327
    25  H    0.190642
    26  H    0.180935
    27  H    0.265267
    28  H    0.154977
    29  H    0.198729
    30  H    0.163896
    31  H    0.274757
 Sum of Mulliken charges =  -0.00000
 Mulliken charges with hydrogens summed into heavy atoms:
               1
     1  C   -0.024685
     2  C    0.117310
     3  C    0.004939
     4  C    0.039381
     5  C    0.146809
     6  O   -0.287905
     7  C    0.184409
     8  C    0.263736
     9  C    0.044268
    10  C   -0.042624
    11  O   -0.287470
    12  O   -0.206369
    13  C    0.048200
 Electronic spatial extent (au):  <R**2>=           2841.2158
 Charge=             -0.0000 electrons
 Dipole moment (field-independent basis, Debye):
    X=              0.0572    Y=              1.9749    Z=              0.7451  Tot=              2.1115
 Quadrupole moment (field-independent basis, Debye-Ang):
   XX=            -72.8325   YY=            -79.3786   ZZ=            -80.5784
   XY=             -5.4938   XZ=              1.8553   YZ=             -0.0484
 Traceless Quadrupole moment (field-independent basis, Debye-Ang):
   XX=              4.7640   YY=             -1.7821   ZZ=             -2.9819
   XY=             -5.4938   XZ=              1.8553   YZ=             -0.0484
 Octapole moment (field-independent basis, Debye-Ang**2):
  XXX=             -3.9153  YYY=              3.7786  ZZZ=             -2.1830  XYY=             11.4369
  XXY=             16.9130  XXZ=             13.6135  XZZ=            -11.7170  YZZ=             -2.7235
  YYZ=             -1.3388  XYZ=              3.5589
 Hexadecapole moment (field-independent basis, Debye-Ang**3):
 XXXX=          -2677.4687 YYYY=           -519.1768 ZZZZ=           -504.5969 XXXY=            -10.6110
 XXXZ=            -28.2085 YYYX=             -0.0926 YYYZ=             -3.0920 ZZZX=             10.3465
 ZZZY=              4.5486 XXYY=           -548.8141 XXZZ=           -543.2907 YYZZ=           -160.6546
 XXYZ=            -18.4116 YYXZ=            -11.0950 ZZXY=              3.5486
 N-N= 9.053652427967D+02 E-N=-3.252823096379D+03  KE= 6.153388501934D+02
 D1PCM: PCM CHGder 1st derivatives, ID1Alg=3 FixD1E=F DoIter=F DoCFld=F I1PDM=0.
 Calling FoFJK, ICntrl=      2127 FMM=F ISym2X=0 I1Cent= 0 IOpClX= 0 NMat=1 NMatS=1 NMatT=0.
 ***** Axes restored to original set *****
 -------------------------------------------------------------------
 Center     Atomic                   Forces (Hartrees/Bohr)
 Number     Number              X              Y              Z
 -------------------------------------------------------------------
      1        6          -0.002652737    0.000302717    0.001058936
      2        6           0.004088793    0.005626858    0.005107003
      3        6          -0.000103244   -0.003249852   -0.000549945
      4        6          -0.000470862    0.000683914   -0.003911894
      5        6           0.006357801    0.003097350   -0.000224216
      6        8           0.001313325   -0.008838818   -0.000440177
      7        6           0.000472678   -0.005939276    0.003079054
      8        6          -0.001022949   -0.002726996    0.000651988
      9        6          -0.000571210    0.000927199   -0.002316784
     10        6          -0.001203711    0.002328650    0.007062220
     11        8           0.000436917    0.000351834   -0.011442347
     12        8          -0.002398470   -0.002120157    0.012872647
     13        6          -0.000457008    0.002208042    0.001587530
     14        1           0.001730382   -0.001766332   -0.002229417
     15        1           0.001478728    0.001534661    0.001890608
     16        1          -0.002290814    0.001951176   -0.001971818
     17        1           0.001629491   -0.001542611    0.001254464
     18        1          -0.002797980    0.001885606    0.001332843
     19        1          -0.003945807    0.003031897    0.004327462
     20        1           0.002346339    0.002461791   -0.002791182
     21        1           0.002600581   -0.002082315    0.000996520
     22        1          -0.001535111    0.001836755    0.001670048
     23        1          -0.003334479    0.004034834   -0.003752497
     24        1           0.003303999   -0.003209726   -0.003110681
     25        1           0.002153082   -0.001396870   -0.002194351
     26        1          -0.002133085   -0.001633224    0.001756059
     27        1          -0.002462853   -0.004500720   -0.006515037
     28        1          -0.003982941    0.004073437   -0.002683549
     29        1          -0.002010737   -0.002942756    0.002513811
     30        1           0.002552228    0.001319327    0.001382359
     31        1           0.002909657    0.004293607   -0.004409656
 -------------------------------------------------------------------
 Cartesian Forces:  Max     0.012872647 RMS     0.003415777

 GradGradGradGradGradGradGradGradGradGradGradGradGradGradGradGradGradGrad
 Berny optimization.
 FormGI is forming the generalized inverse of G from B-inverse, IUseBI=4.
 Internal  Forces:  Max     0.012882636 RMS     0.002059946
 Search for a local minimum.
 Step number   1 out of a maximum of  186
 All quantities printed in internal units (Hartrees-Bohrs-Radians)
 Mixed Optimization -- RFO/linear search
 Second derivative matrix not updated -- first step.
 ITU=  0
     Eigenvalues ---    0.00619   0.00622   0.00721   0.00726   0.01413
     Eigenvalues ---    0.01431   0.01736   0.02702   0.02816   0.03073
     Eigenvalues ---    0.03107   0.04090   0.04350   0.04661   0.04750
     Eigenvalues ---    0.04878   0.04889   0.05028   0.05141   0.05167
     Eigenvalues ---    0.05265   0.05682   0.05749   0.06169   0.06174
     Eigenvalues ---    0.06251   0.06635   0.07030   0.07614   0.07865
     Eigenvalues ---    0.07954   0.07973   0.07976   0.08172   0.08230
     Eigenvalues ---    0.08826   0.09243   0.09307   0.10755   0.11597
     Eigenvalues ---    0.11714   0.11739   0.11761   0.12399   0.12535
     Eigenvalues ---    0.14520   0.14722   0.15631   0.16478   0.17493
     Eigenvalues ---    0.19146   0.21321   0.21948   0.25000   0.28423
     Eigenvalues ---    0.28648   0.28772   0.28861   0.28935   0.29043
     Eigenvalues ---    0.30162   0.30338   0.35039   0.35090   0.35093
     Eigenvalues ---    0.35147   0.35208   0.35212   0.35238   0.35255
     Eigenvalues ---    0.35308   0.35313   0.35390   0.35421   0.35432
     Eigenvalues ---    0.35586   0.35817   0.35839   0.36034   0.36118
     Eigenvalues ---    0.40839   0.41429   0.42289   0.42338   0.43279
     Eigenvalues ---    0.461791000.000001000.000001000.000001000.00000
     Eigenvalues --- 1000.000001000.000001000.000001000.000001000.00000
     Eigenvalues --- 1000.000001000.000001000.000001000.000001000.00000
     Eigenvalues --- 1000.000001000.000001000.000001000.000001000.00000
     Eigenvalues --- 1000.000001000.000001000.000001000.000001000.00000
     Eigenvalues --- 1000.000001000.000001000.000001000.000001000.00000
     Eigenvalues --- 1000.000001000.000001000.000001000.000001000.00000
     Eigenvalues --- 1000.000001000.000001000.000001000.000001000.00000
     Eigenvalues --- 1000.000001000.000001000.000001000.000001000.00000
     Eigenvalues --- 1000.000001000.000001000.000001000.000001000.00000
     Eigenvalues --- 1000.000001000.000001000.000001000.000001000.00000
     Eigenvalues --- 1000.000001000.000001000.000001000.000001000.00000
     Eigenvalues --- 1000.000001000.000001000.000001000.000001000.00000
     Eigenvalues --- 1000.000001000.000001000.000001000.000001000.00000
     Eigenvalues --- 1000.000001000.000001000.000001000.000001000.00000
     Eigenvalues --- 1000.000001000.000001000.000001000.000001000.00000
     Eigenvalues --- 1000.000001000.000001000.000001000.000001000.00000
     Eigenvalues --- 1000.000001000.000001000.000001000.000001000.00000
     Eigenvalues --- 1000.000001000.000001000.000001000.000001000.00000
     Eigenvalues --- 1000.000001000.000001000.000001000.000001000.00000
 RFO step:  Lambda=-3.34371576D-03 EMin= 6.18780695D-03
 Linear search not attempted -- first point.
 Iteration  1 RMS(Cart)=  0.04405381 RMS(Int)=  0.00046241
 Iteration  2 RMS(Cart)=  0.00165116 RMS(Int)=  0.00004724
 Iteration  3 RMS(Cart)=  0.00000082 RMS(Int)=  0.00004724
 Iteration  1 RMS(Cart)=  0.00000283 RMS(Int)=  0.00000064
 Iteration  2 RMS(Cart)=  0.00000158 RMS(Int)=  0.00000072
 Iteration  3 RMS(Cart)=  0.00000088 RMS(Int)=  0.00000081
 Variable       Old X    -DE/DX   Delta X   Delta X   Delta X     New X
                                 (Linear)    (Quad)   (Total)
    R1        2.88912  -0.00089   0.00000  -0.00249  -0.00251   2.88662
    R2        2.87166   0.00015   0.00000   0.00074   0.00075   2.87241
    R3        2.05525   0.00325   0.00000   0.00918   0.00918   2.06443
    R4        2.05289   0.00283   0.00000   0.00794   0.00794   2.06084
    R5        2.65505   0.00373   0.00000   0.00795   0.00796   2.66302
    R6        2.63930   0.00305   0.00000   0.00655   0.00655   2.64585
    R7        2.87424  -0.00074   0.00000  -0.00268  -0.00270   2.87155
    R8        2.03898   0.00824   0.00000   0.02261   0.02261   2.06159
    R9        2.88419  -0.00215   0.00000  -0.00728  -0.00731   2.87688
   R10        2.89159  -0.00125   0.00000  -0.00493  -0.00495   2.88663
   R11        2.05437   0.00358   0.00000   0.01009   0.01009   2.06446
   R12        2.05047   0.00308   0.00000   0.00863   0.00863   2.05910
   R13        2.89041  -0.00155   0.00000  -0.00505  -0.00506   2.88535
   R14        2.05170   0.00257   0.00000   0.00720   0.00720   2.05889
   R15        2.05338   0.00342   0.00000   0.00962   0.00962   2.06300
   R16        2.67596   0.00338   0.00000   0.00789   0.00792   2.68388
   R17        2.87257   0.00052   0.00000   0.00118   0.00116   2.87373
   R18        2.05611   0.00619   0.00000   0.01750   0.01750   2.07361
   R19        2.04368   0.00436   0.00000   0.01207   0.01207   2.05575
   R20        2.66669   0.00211   0.00000   0.00525   0.00527   2.67197
   R21        2.68653   0.00304   0.00000   0.00703   0.00703   2.69356
   R22        2.04997   0.00649   0.00000   0.01816   0.01816   2.06813
   R23        2.04334   0.00440   0.00000   0.01216   0.01216   2.05550
   R24        2.88124   0.00059   0.00000   0.00253   0.00255   2.88380
   R25        2.68495   0.00080   0.00000   0.00188   0.00188   2.68684
   R26        2.04733   0.00680   0.00000   0.01894   0.01894   2.06627
   R27        2.05178   0.00324   0.00000   0.00909   0.00909   2.06087
   R28        2.05262   0.00290   0.00000   0.00815   0.00815   2.06077
   R29        2.05529   0.00636   0.00000   0.01795   0.01795   2.07324
   R30        2.04028   0.00552   0.00000   0.01517   0.01517   2.05545
   R31        2.05332   0.00332   0.00000   0.00934   0.00934   2.06266
   R32        2.04979   0.00318   0.00000   0.00890   0.00890   2.05869
    A1        1.92453  -0.00098   0.00000  -0.00532  -0.00552   1.91901
    A2        1.91609   0.00091   0.00000   0.00159   0.00167   1.91776
    A3        1.93864  -0.00051   0.00000  -0.00167  -0.00164   1.93700
    A4        1.90496   0.00005   0.00000  -0.00148  -0.00142   1.90354
    A5        1.90313   0.00058   0.00000   0.00360   0.00365   1.90678
    A6        1.87557   0.00000   0.00000   0.00351   0.00348   1.87905
    A7        1.94140   0.00033   0.00000  -0.00242  -0.00227   1.93913
    A8        1.94416   0.00341   0.00000   0.01284   0.01264   1.95680
    A9        1.82815  -0.00225   0.00000  -0.01035  -0.01036   1.81780
   A10        1.89127  -0.00333   0.00000  -0.01641  -0.01632   1.87495
   A11        1.92788   0.00193   0.00000   0.01349   0.01348   1.94136
   A12        1.93112   0.00008   0.00000   0.00380   0.00387   1.93500
   A13        1.94612   0.00014   0.00000  -0.01046  -0.01055   1.93557
   A14        1.88262  -0.00015   0.00000   0.00478   0.00479   1.88741
   A15        1.91372  -0.00043   0.00000  -0.00667  -0.00664   1.90707
   A16        1.90919  -0.00007   0.00000   0.00526   0.00530   1.91449
   A17        1.93777   0.00026   0.00000   0.00202   0.00193   1.93970
   A18        1.87210   0.00025   0.00000   0.00587   0.00585   1.87795
   A19        1.91514   0.00196   0.00000  -0.00150  -0.00151   1.91363
   A20        1.92969  -0.00027   0.00000   0.00201   0.00207   1.93176
   A21        1.91404  -0.00086   0.00000  -0.00180  -0.00189   1.91215
   A22        1.91594  -0.00057   0.00000   0.00160   0.00160   1.91754
   A23        1.92197  -0.00098   0.00000  -0.00646  -0.00647   1.91550
   A24        1.86661   0.00066   0.00000   0.00625   0.00626   1.87287
   A25        1.93666   0.00144   0.00000   0.00786   0.00778   1.94444
   A26        1.90036   0.00099   0.00000   0.00798   0.00804   1.90840
   A27        1.85659  -0.00124   0.00000  -0.00473  -0.00470   1.85188
   A28        1.93019  -0.00132   0.00000  -0.00843  -0.00844   1.92174
   A29        1.94661  -0.00034   0.00000  -0.00340  -0.00339   1.94321
   A30        1.89112   0.00050   0.00000   0.00108   0.00105   1.89217
   A31        1.97876  -0.00393   0.00000  -0.02525  -0.02517   1.95358
   A32        1.94367   0.00226   0.00000   0.00549   0.00545   1.94912
   A33        1.93244  -0.00164   0.00000  -0.00754  -0.00758   1.92486
   A34        1.94571  -0.00021   0.00000  -0.00153  -0.00146   1.94425
   A35        1.90962   0.00020   0.00000   0.00175   0.00182   1.91144
   A36        1.84224  -0.00133   0.00000  -0.00217  -0.00219   1.84005
   A37        1.88720   0.00074   0.00000   0.00435   0.00434   1.89154
   A38        1.90913   0.00087   0.00000   0.00157   0.00148   1.91061
   A39        1.87003  -0.00021   0.00000  -0.00623  -0.00621   1.86382
   A40        1.92203  -0.00088   0.00000   0.00039   0.00041   1.92243
   A41        1.95762  -0.00033   0.00000  -0.00352  -0.00348   1.95414
   A42        1.89627   0.00013   0.00000   0.00339   0.00339   1.89966
   A43        1.90878   0.00040   0.00000   0.00432   0.00431   1.91309
   A44        1.92523  -0.00025   0.00000  -0.00651  -0.00658   1.91865
   A45        1.92708   0.00035   0.00000  -0.00327  -0.00326   1.92382
   A46        1.92420  -0.00069   0.00000  -0.00030  -0.00028   1.92391
   A47        1.90694  -0.00035   0.00000  -0.00157  -0.00163   1.90532
   A48        1.90679   0.00066   0.00000   0.00540   0.00545   1.91224
   A49        1.87272   0.00030   0.00000   0.00669   0.00668   1.87940
   A50        1.95408   0.00083   0.00000   0.00477   0.00481   1.95888
   A51        1.91440   0.00120   0.00000   0.01106   0.01103   1.92543
   A52        1.85981  -0.00074   0.00000  -0.00346  -0.00347   1.85634
   A53        1.89116  -0.00113   0.00000  -0.00375  -0.00382   1.88735
   A54        1.95932  -0.00050   0.00000  -0.00880  -0.00882   1.95050
   A55        1.88369   0.00041   0.00000   0.00060   0.00058   1.88426
   A56        2.02164  -0.00574   0.00000  -0.03668  -0.03659   1.98506
   A57        2.06430  -0.01288   0.00000  -0.05085  -0.05085   2.01345
   A58        1.95292  -0.00171   0.00000  -0.01537  -0.01550   1.93742
   A59        1.87347   0.00007   0.00000   0.00376   0.00376   1.87723
   A60        1.90076   0.00077   0.00000  -0.00062  -0.00060   1.90016
   A61        1.91100   0.00123   0.00000   0.00773   0.00781   1.91882
   A62        1.94692  -0.00028   0.00000  -0.00156  -0.00166   1.94526
   A63        1.87573  -0.00000   0.00000   0.00715   0.00712   1.88285
    D1        0.92056  -0.00008   0.00000   0.00948   0.00948   0.93003
    D2        3.03636   0.00032   0.00000   0.01180   0.01183   3.04819
    D3       -1.19272   0.00044   0.00000   0.01957   0.01959  -1.17313
    D4       -1.17891  -0.00009   0.00000   0.01366   0.01366  -1.16525
    D5        0.93689   0.00030   0.00000   0.01598   0.01601   0.95290
    D6        2.99100   0.00043   0.00000   0.02375   0.02377   3.01477
    D7        3.03239  -0.00035   0.00000   0.00933   0.00930   3.04169
    D8       -1.13499   0.00005   0.00000   0.01165   0.01165  -1.12335
    D9        0.91911   0.00017   0.00000   0.01942   0.01941   0.93852
   D10       -0.95642  -0.00135   0.00000  -0.02003  -0.02009  -0.97651
   D11        1.17246  -0.00068   0.00000  -0.01926  -0.01933   1.15313
[...]
 ,-0.00020424,0.00051737,-0.00022801,0.00020449,0.00003208,-0.00010402,
 0.00007756,0.00008599,0.00026014,0.00063210,0.00047822,-0.00282042,-0.
 00276659,-0.00126526,-0.00001103,-0.00000975,-0.00005858,0.00006110,-0
 .00002690,0.00006106,-0.00000186,-0.00000612,-0.00000303,-0.00001830,-
 0.00000803,0.00001721,-0.00004814,-0.00002492,-0.00003467,-0.00000030,
 -0.00002934,-0.00001807,-0.09644057,0.08809233,0.13901753,-0.00086941,
 -0.00215864,-0.00344100,0.01104912,0.01188268,-0.00921016,0.00002621,-
 0.00002945,0.00005169,-0.00911888,-0.00904015,0.01020713,-0.00000406,0
 .00000297,0.00000453,0.00002217,-0.00001029,0.00000218,-0.00093083,-0.
 00038436,-0.00085366,0.00040697,-0.00017280,0.00001288,-0.00000214,0.0
 0000355,-0.00000884,-0.00000036,-0.00004319,-0.00000532,-0.00062098,0.
 00475230,-0.00398931,0.00043003,0.00003562,-0.00020260,-0.13287366,-0.
 09336075,0.08507774,0.00022826,0.00034097,-0.00025154,-0.00025375,-0.0
 0110291,0.00073502,0.00001182,-0.00001198,-0.00001621,0.00008260,0.000
 56387,0.00027664,0.00086571,0.00029955,-0.00019717,0.00008419,0.000044
 13,0.00009220,0.00015549,0.00004724,0.00018565,0.00000860,-0.00001042,
 0.00000593,0.00000174,0.00000060,-0.00000053,0.00000665,0.00000808,0.0
 0000587,-0.00000656,0.00000251,0.00000009,-0.01080241,-0.01250830,0.01
 055311,0.14156164,-0.00172375,-0.00133484,-0.00389747,-0.01074038,-0.0
 1106814,0.00780010,-0.00000566,0.00001345,-0.00002228,-0.01049996,-0.0
 1285578,0.01141164,0.00000742,0.00000181,0.00000109,0.00000089,-0.0000
 0620,-0.00001101,0.00020307,0.00123533,0.00009476,0.00016918,0.0001773
 2,-0.00007817,0.00000818,-0.00000634,0.00000126,-0.00000277,0.00001958
 ,0.00002477,0.00171377,-0.00220996,0.00337702,-0.00038669,0.00110968,-
 0.00056027,-0.09013409,-0.14897574,0.09203438,-0.00017350,0.00003157,0
 .00019092,-0.00056755,-0.00073128,0.00083562,-0.00000923,0.00000444,0.
 00000706,0.00021069,0.00072939,-0.00013064,0.00058402,0.00052883,0.000
 38840,0.00004491,-0.00009549,-0.00006807,-0.00001338,-0.00003591,0.000
 03272,0.00000671,-0.00000313,-0.00000547,-0.00000153,0.00000203,-0.000
 00031,-0.00000540,-0.00001140,-0.00001034,-0.00000384,-0.00001660,-0.0
 0002065,0.00938813,0.01235733,-0.01015631,0.10169070,0.16076251,-0.002
 11688,-0.00265008,-0.00254441,0.01511524,0.01027735,-0.01057979,-0.000
 02370,-0.00002556,-0.00000236,-0.01168641,-0.01362830,0.01319854,0.000
 00234,0.00000139,0.00000369,-0.00000772,-0.00001381,0.00000427,-0.0009
 9510,-0.00118913,-0.00110050,-0.00027896,-0.00017208,0.00008252,-0.000
 00473,0.00000896,0.00001173,-0.00000201,0.00001618,-0.00004151,-0.0022
 4291,0.00541755,-0.00363996,0.00071605,-0.00123681,0.00106754,0.082330
 27,0.09395030,-0.13240717,-0.00010964,0.00001141,0.00005974,-0.0005995
 4,-0.00096253,0.00064548,-0.00000329,0.00000736,-0.00000486,0.00051174
 ,0.00090482,0.00067568,0.00072509,0.00062592,0.00084776,0.00008757,0.0
 0015362,0.00017051,0.00017724,0.00013795,0.00015545,-0.00000644,0.0000
 1177,-0.00000628,-0.00000524,-0.00000218,0.00000264,-0.00000850,0.0000
 0307,0.00000474,-0.00000382,0.00001705,0.00001183,0.00795277,0.0102479
 8,-0.00966153,-0.08956968,-0.10110318,0.14263322,0.00039465,0.00006536
 ,0.00011639,-0.09641546,-0.06386209,-0.07791117,-0.00024785,0.00005277
 ,-0.00025819,-0.00085818,0.00322603,-0.00176953,-0.00000378,0.00006424
 ,0.00016998,0.00028164,-0.00019337,-0.00010951,0.00081380,-0.00055667,
 0.00333872,0.00297134,-0.00086244,0.00159775,0.00005077,0.00001029,-0.
 00004665,-0.00124934,0.00007813,-0.00054024,-0.01167872,-0.02014992,-0
 .00826251,0.00358674,0.02247858,0.02549268,-0.00722224,-0.01085730,-0.
 01373676,-0.00008908,0.00004551,0.00007428,-0.00005741,0.00001294,-0.0
 0003296,-0.00017785,0.00001963,-0.00001075,-0.00060377,-0.00071828,-0.
 00066651,0.00000518,-0.00012685,-0.00017215,-0.00015567,-0.00034885,-0
 .00021781,-0.00044578,-0.00069461,-0.00043188,0.00002268,0.00001528,-0
 .00003178,-0.00002296,-0.00000007,0.00000423,0.00032671,-0.00005102,-0
 .00001092,-0.00280540,0.00096399,-0.00075360,0.00023832,-0.00037120,0.
 00039614,0.00048525,0.00036883,-0.00007343,0.11304532,-0.00019645,-0.0
 0061726,-0.00001163,-0.05960150,-0.14169380,-0.09894614,0.00028178,-0.
 00012468,0.00024649,0.00177895,-0.00214995,0.00216521,0.00000677,-0.00
 016152,-0.00007253,-0.00002393,0.00005922,0.00029418,-0.00059903,0.000
 35641,0.00519623,-0.00268130,0.00093454,-0.00166361,-0.00005882,-0.000
 01578,-0.00000375,0.00030687,-0.00007845,-0.00063088,-0.02256336,-0.02
 644650,-0.01198699,0.00456181,-0.01035182,-0.01814192,0.00819245,0.012
 58167,0.01111149,-0.00000273,0.00006969,-0.00005899,-0.00008282,0.0002
 0939,-0.00026765,0.00016483,-0.00005882,-0.00004413,0.00067623,0.00067
 012,0.00064562,-0.00006249,0.00007819,0.00014088,0.00016110,-0.0000788
 1,-0.00018206,-0.00077729,-0.00097108,-0.00076559,-0.00001567,-0.00002
 810,0.00004132,0.00003634,0.00000484,0.00000384,-0.00010123,0.00025637
 ,0.00027729,0.00062301,0.00058474,0.00067202,-0.00052032,0.00066178,-0
 .00058737,-0.00087351,0.00027905,-0.00067790,0.07130809,0.16612700,0.0
 0033500,0.00047691,-0.00004088,-0.08154935,-0.10840257,-0.16932191,0.0
 0025541,-0.00011326,0.00029728,-0.00162506,0.00345398,-0.00104676,-0.0
 0011083,-0.00006251,-0.00002231,0.00008844,0.00023796,0.00006443,0.001
 32074,0.00245303,-0.00147237,-0.00228574,0.00262529,-0.00171136,-0.000
 06403,-0.00007571,0.00001208,-0.00021950,-0.00055511,-0.00011271,0.012
 75271,0.01813012,0.01270084,0.00657495,-0.01980643,-0.01824172,-0.0097
 7512,-0.01201673,-0.01173819,-0.00002798,-0.00006820,0.00005965,0.0000
 6798,-0.00022106,0.00014703,0.00021978,-0.00008505,-0.00006428,-0.0006
 5883,-0.00089404,-0.00069874,0.00020444,0.00001581,0.00008299,0.000101
 62,0.00031294,0.00012777,0.00045585,0.00062585,0.00042517,-0.00001759,
 -0.00002409,0.00004610,0.00006745,0.00001105,-0.00002329,0.00016212,0.
 00028558,0.00035905,-0.00131791,0.00076718,0.00056693,0.00003106,0.000
 26823,0.00088761,0.00059680,-0.00006334,0.00034265,0.07421443,0.112939
 97,0.18791040,0.00000090,-0.00000306,-0.00000200,0.00020829,-0.0000700
 0,-0.00006431,0.00051451,0.00135967,0.00009691,0.00000032,0.00000636,-
 0.00000067,-0.13739014,0.07854581,-0.07919013,-0.01999806,0.02060760,0
 .00272390,0.00003076,0.00002127,0.00001693,-0.00038317,-0.00020480,0.0
 0032281,-0.01087225,0.01039810,-0.01292449,0.00129367,0.00289513,-0.00
 325997,-0.00009675,-0.00002943,0.00003666,-0.00010978,-0.00007283,0.00
 005963,-0.00000459,-0.00000688,0.00000809,-0.00000217,0.00000196,0.000
 00050,-0.00000357,-0.00000144,-0.00000216,-0.00026315,-0.00055258,0.00
 023107,-0.00000517,-0.00000064,-0.00000355,0.00000051,0.00000098,0.000
 00356,0.00000298,0.00000464,0.00000079,-0.00000636,-0.00000356,0.00000
 128,-0.00106283,-0.00212165,-0.00231255,0.00055247,-0.00020276,-0.0000
 1279,0.00002700,-0.00073060,0.00057759,0.00020138,-0.00030262,0.000298
 54,-0.00000931,0.00000472,-0.00000268,0.00000116,-0.00000167,-0.000000
 24,0.00001614,0.00000389,0.00000986,0.15493893,-0.00000074,0.00000265,
 0.00000347,-0.00025072,0.00006975,0.00018875,0.00029571,0.00132386,-0.
 00053250,0.00000255,-0.00001170,0.00000151,0.08088210,-0.13211637,0.08
 064510,0.02189469,-0.01748274,-0.00176603,-0.00003992,-0.00002636,-0.0
 0002160,0.00000159,0.00001716,-0.00040535,-0.01229142,0.01065503,-0.00
 999494,-0.00336065,-0.00032499,0.00164812,0.00010669,0.00003470,-0.000
 02331,0.00032854,0.00000887,0.00014259,0.00002125,0.00000914,-0.000022
 28,0.00000290,-0.00000287,-0.00000052,0.00000515,0.00000203,0.00000303
 ,0.00039087,-0.00018156,0.00005883,0.00000813,0.00000180,0.00000580,0.
 00000002,-0.00000070,-0.00000556,-0.00000683,-0.00000706,-0.00000400,0
 .00000917,0.00000434,-0.00000202,-0.00274167,-0.00129734,-0.00234360,0
 .00087134,0.00067508,0.00081318,0.00054580,0.00081353,-0.00071622,-0.0
 0010532,0.00021100,-0.00034515,0.00001517,-0.00000952,0.00000727,-0.00
 000172,0.00000058,-0.00000068,-0.00004209,0.00000634,-0.00001024,-0.09
 944341,0.14879607,0.00000242,-0.00000151,-0.00000248,0.00011881,-0.000
 10757,-0.00007960,0.00119451,0.00055016,0.00051598,-0.00000034,0.00000
 448,0.00000041,-0.08108348,0.08328356,-0.12587159,0.02209434,-0.018469
 32,0.00765206,0.00002116,0.00001279,0.00000656,0.00001955,0.00024629,-
 0.00029960,-0.01377698,0.01322997,-0.01278310,0.00022714,-0.00400659,0
 .00383267,-0.00006857,-0.00000740,0.00004266,-0.00027794,0.00015776,0.
 00002688,-0.00000295,0.00000222,0.00001311,-0.00000176,0.00000073,0.00
 000100,-0.00000178,-0.00000085,-0.00000177,-0.00022487,-0.00052299,0.0
 0049985,-0.00000354,-0.00000015,-0.00000156,0.00000173,0.00000130,0.00
 000408,0.00000154,0.00000215,-0.00000134,-0.00000297,-0.00000173,0.000
 00141,-0.00263909,-0.00328807,-0.00174876,0.00051835,0.00006296,0.0004
 5255,-0.00151789,0.00049177,0.00010482,-0.00020450,-0.00002645,0.00006
 432,-0.00000962,0.00000452,-0.00000337,-0.00000025,-0.00000215,-0.0000
 0134,-0.00002334,0.00001528,0.00003072,0.08491745,-0.07978892,0.134764
 99,0.00000201,-0.00000406,-0.00000183,0.00029104,-0.00005889,-0.000174
 52,-0.00067444,-0.00135844,-0.00332701,-0.00000463,0.00001929,-0.00000
 414,-0.12588122,-0.09478293,0.06655930,-0.01619903,-0.01122343,0.01801
 451,0.00006091,0.00003251,0.00002888,0.00047384,-0.00003343,0.00022994
 ,-0.00957207,-0.01361078,0.00823026,-0.00042967,0.00396150,0.00037812,
 -0.00015541,-0.00003954,0.00004379,-0.00036112,0.00018288,0.00003626,-
 0.00003218,-0.00002036,0.00002950,-0.00000466,0.00000427,-0.00000001,-
 0.00000635,-0.00000238,-0.00000459,0.00001928,-0.00022610,0.00017378,-
 0.00001147,-0.00000281,-0.00000852,0.00000147,0.00000038,0.00000711,0.
 00001288,0.00000996,0.00000302,-0.00001299,-0.00000623,0.00000258,0.00
 047871,0.00065194,0.00066384,0.00041380,-0.00000013,-0.00017211,0.0000
 9507,-0.00035038,0.00028685,-0.00052549,-0.00068750,0.00066994,-0.0000
 2147,0.00001198,-0.00000992,0.00000180,0.00000007,-0.00000241,0.000002
 30,-0.00001644,0.00001238,0.01224026,0.01249531,-0.00949268,0.14038124
 ,0.00000044,-0.00000159,0.00000112,0.00011799,-0.00007337,-0.00013322,
 -0.00200819,-0.00082077,-0.00390976,0.00000327,0.00000293,0.00000063,-
 0.10357348,-0.18186273,0.09768591,0.01471951,0.01499531,-0.01437104,0.
 00002683,0.00000352,0.00000347,0.00061201,-0.00015780,-0.00058408,-0.0
 0795763,-0.01103163,0.00969216,0.00212993,-0.00140010,-0.00228239,-0.0
 0007591,-0.00000930,0.00003078,-0.00022685,0.00017471,0.00015856,-0.00
 001383,0.00001373,0.00002829,-0.00000251,0.00000224,-0.00000045,-0.000
 00241,-0.00000090,-0.00000202,0.00032580,0.00031325,-0.00017353,-0.000
 00408,0.00000071,-0.00000203,0.00000106,-0.00000039,0.00000465,0.00000
 994,0.00000839,0.00000171,-0.00000658,-0.00000009,0.00000269,0.0002325
 5,0.00103341,-0.00028780,0.00036183,0.00013912,-0.00004600,-0.00006244
 ,0.00018607,-0.00027676,0.00048890,0.00052928,-0.00060106,-0.00001225,
 0.00000734,-0.00000754,0.00000005,-0.00000026,-0.00000190,-0.00001540,
 0.00002455,0.00002672,-0.00982298,-0.01130014,0.00824043,0.10577430,0.
 18971818,-0.00000195,0.00000203,0.00000503,-0.00012986,-0.00005801,-0.
 00000567,-0.00241101,-0.00216575,-0.00313335,0.00000706,-0.00001662,0.
 00000530,0.06770248,0.08927884,-0.11276694,0.01867098,0.01321410,-0.01
 862990,-0.00001845,-0.00002622,-0.00002426,0.00001578,-0.00015971,-0.0
 0075355,-0.01285321,-0.01512460,0.01293682,0.00136446,-0.00451261,-0.0
 0086394,0.00004726,0.00004212,-0.00000008,0.00017650,0.00008068,0.0001
 7936,0.00000705,0.00003911,0.00000888,0.00000106,-0.00000080,-0.000001
 02,0.00000323,0.00000141,0.00000157,0.00009767,-0.00010734,0.00001151,
 0.00000680,0.00000375,0.00000524,-0.00000005,-0.00000047,-0.00000146,0
 .00000449,0.00000192,0.00000081,0.00000392,0.00000555,0.00000112,0.000
 59832,0.00069690,0.00087613,0.00097320,0.00071954,0.00052536,-0.000196
 14,-0.00009299,0.00018308,0.00112895,0.00068066,-0.00063143,0.00000505
 ,-0.00000252,0.00000058,-0.00000010,-0.00000101,0.00000163,-0.00000577
 ,0.00004864,0.00003127,0.00840311,0.01231911,-0.00738955,-0.08271620,-
 0.09418465,0.12853074,0.00001765,-0.00001140,-0.00002975,0.00011021,-0
 .00004295,0.00026382,-0.15684426,-0.08383205,-0.10344860,-0.00001534,0
 .00000378,0.00001325,-0.00182918,-0.00197958,0.00461924,0.00068773,-0.
 00002684,-0.00095234,-0.00003424,0.00008763,0.00009966,0.01086355,0.01
 045896,0.01131251,-0.01214132,-0.00815125,-0.01221046,-0.00227920,0.00
 183231,0.00250504,0.00004823,0.00001114,-0.00005460,0.00154602,-0.0010
 5104,0.00014853,0.00003579,-0.00003170,-0.00008792,0.00000681,-0.00000
 986,0.00000733,0.00000319,0.00000285,0.00000087,-0.01111094,-0.0086014
 5,-0.01012036,0.00000466,-0.00000148,0.00000221,0.00004552,-0.00003852
 ,-0.00001492,0.00008241,-0.00005211,-0.00007079,0.00002036,-0.00000831
 ,-0.00000563,0.00093368,0.00023022,0.00017024,0.00016901,0.00062321,-0
 .00020349,-0.00001231,0.00005287,0.00007015,0.00058585,0.00067323,0.00
 059189,0.00002409,-0.00001824,0.00001822,-0.00000380,-0.00000087,0.000
 00023,0.00003313,0.00000263,-0.00000771,0.00030601,0.00028330,0.000229
 33,-0.00049839,-0.00105966,-0.00094648,0.16850254,0.00000093,0.0000088
 6,0.00001218,0.00018094,0.00015209,-0.00004820,-0.08186090,-0.11011736
 ,-0.07635022,0.00001358,-0.00000685,-0.00000319,-0.00200187,-0.0010751
 9,0.00426567,0.00028669,0.00047909,0.00008579,0.00002270,-0.00008521,-
 0.00002821,-0.01027916,-0.01075143,-0.01221441,-0.01282285,-0.01050284
 ,-0.01200029,0.00351572,-0.00060541,-0.00167157,0.00000522,-0.00001721
 ,0.00006029,-0.00124338,0.00129282,0.00068424,-0.00000088,0.00000878,0
 .00003024,-0.00000843,0.00000429,-0.00000161,-0.00000036,-0.00000253,-
 0.00000041,0.01347616,0.01191701,0.01336338,-0.00000605,0.00000632,0.0
 0000015,0.00000769,-0.00000148,0.00001320,0.00010275,0.00002405,-0.000
 01331,-0.00002365,0.00001337,0.00001436,0.00065715,0.00050209,-0.00044
 193,0.00035451,0.00067762,0.00014383,-0.00022650,0.00016801,-0.0001345
 6,-0.00074082,-0.00048921,-0.00052244,-0.00001395,0.00000831,-0.000009
 00,-0.00000057,-0.00000254,-0.00000223,-0.00010834,0.00010159,0.000101
 99,-0.00020143,0.00003079,-0.00022848,-0.00066616,-0.00061106,-0.00089
 111,0.09132262,0.11834159,-0.00000844,0.00001770,0.00004444,0.00007458
 ,0.00020486,0.00017804,-0.10178508,-0.07828425,-0.14375021,-0.00000365
 ,-0.00001327,0.00001636,0.00294140,0.00203182,-0.00289565,-0.00114204,
 -0.00013087,0.00096221,0.00000936,-0.00017764,-0.00013089,-0.01645245,
 -0.01134738,-0.01605440,0.01284770,0.00996908,0.01310399,0.00511331,-0
 .00162381,-0.00308065,0.00015367,0.00009923,0.00000641,-0.00070355,0.0
 0174940,0.00168674,0.00005203,0.00000987,-0.00003627,-0.00001303,0.000
 01279,-0.00001238,0.00000406,0.00000049,0.00000189,-0.00828505,-0.0069
 9673,-0.00909658,0.00000604,0.00000687,0.00000085,0.00003393,-0.000031
 41,-0.00001176,0.00015280,0.00005059,-0.00001814,-0.00002600,0.0000239
 6,0.00001834,-0.00078298,-0.00055972,0.00075692,-0.00060321,-0.0008324
 9,0.00060028,0.00022929,0.00022294,0.00033869,-0.00105516,-0.00123396,
 -0.00055311,0.00001197,-0.00001290,0.00000279,-0.00000200,0.00000373,-
 0.00000346,-0.00012418,0.00012994,0.00009400,0.00009915,0.00003571,0.0
 0003489,0.00066304,0.00077168,0.00070457,0.10888936,0.08526787,0.15653
 894,0.00003199,-0.00000838,-0.00015909,0.00280092,0.00052435,-0.001411
 01,-0.00864258,-0.00922887,0.00899632,0.00007242,0.00001709,-0.0000011
 0,0.00129798,-0.00029382,-0.00076274,-0.00342837,-0.00366945,-0.001986
 36,-0.00069029,0.00034739,0.00006028,-0.11687628,-0.08623911,0.0805003
 3,-0.00020369,0.00287268,0.00182922,-0.00798270,-0.00995476,0.01397817
 ,-0.00276939,0.00031688,0.00035662,0.00645966,0.02220187,-0.02075828,-
 0.00020523,-0.00018499,0.00020908,0.00004016,-0.00007457,0.00002581,0.
 00001852,-0.00000903,0.00002344,0.00007362,-0.00011758,-0.00014468,-0.
 00002904,-0.00001689,0.00001738,0.00000979,0.00001948,0.00003150,0.000
 10866,-0.00020109,-0.00039933,0.00002979,-0.00003339,0.00006608,-0.000
 02519,-0.00011389,0.00011543,-0.00049450,-0.00058081,0.00047110,0.0000
 0766,0.00051707,0.00008952,0.00064624,0.00004069,-0.00037739,-0.000114
 71,-0.00001835,0.00001652,0.00005745,-0.00012631,0.00012208,-0.0002404
 6,0.00007215,0.00018863,-0.00012798,0.00012418,-0.00001378,-0.00008402
 ,0.00003979,0.00006188,0.00074254,0.00025865,-0.00029490,0.12951702,-0
 .00008861,-0.00009926,-0.00002455,-0.00385880,-0.00022573,0.00403743,0
 .01046565,0.01299576,-0.01173324,-0.00007713,-0.00005365,0.00001798,0.
 00069633,-0.00094038,-0.00105118,-0.00459326,-0.00258219,-0.00132986,0
 .00046781,0.00069269,0.00025806,-0.08249890,-0.14682390,0.09143817,0.0
 0170849,-0.00210459,-0.00277934,-0.01025371,-0.01036660,0.01286496,-0.
 00058498,0.00175478,-0.00146795,0.00399462,-0.01858627,0.01764227,0.00
 023487,-0.00007407,-0.00023821,-0.00000479,0.00001326,-0.00002029,-0.0
 0001776,0.00002663,-0.00004786,-0.00049275,0.00083160,0.00069664,0.000
 03996,0.00000797,0.00000037,-0.00000947,-0.00003003,-0.00005136,0.0001
 5609,-0.00006366,-0.00010859,-0.00000333,-0.00004560,0.00005057,-0.000
 03910,0.00008576,-0.00012280,0.00077556,0.00061317,-0.00063147,-0.0000
 2592,0.00062874,-0.00050154,0.00082524,0.00021752,0.00020444,0.0001813
 8,-0.00003130,0.00003248,0.00003424,0.00010070,-0.00012629,0.00024885,
 -0.00022893,-0.00033427,-0.00007778,0.00009863,0.00014583,-0.00005440,
 0.00011740,0.00021004,-0.00066742,0.00053162,0.00063588,0.08351900,0.1
 6353992,0.00009192,-0.00008204,-0.00016216,0.00350383,-0.00100011,-0.0
 0260664,0.01277668,0.01314678,-0.01280265,0.00004189,0.00008976,-0.000
 00790,0.00034523,-0.00091690,-0.00112828,-0.00462848,-0.00425142,-0.00
 050471,-0.00043697,0.00010843,0.00020876,0.07628046,0.09345220,-0.1440
 5482,0.00169018,-0.00358676,-0.00166922,-0.00732387,-0.00970025,0.0127
 4690,0.00117229,-0.00206201,0.00145920,-0.00238562,0.01956317,-0.01455
 218,-0.00016303,0.00010115,0.00012838,0.00003720,-0.00004346,0.0000650
 4,-0.00001649,-0.00001046,0.00001845,-0.00023818,-0.00007521,0.0009752
 7,-0.00005105,-0.00002514,-0.00000808,0.00001362,0.00001578,0.00004502
 ,-0.00046411,-0.00016368,-0.00044864,0.00001993,-0.00004348,-0.0000882
 5,-0.00020583,-0.00003694,0.00006246,0.00081006,0.00088573,-0.00056703
 ,0.00046742,0.00105019,0.00060303,0.00089313,0.00032753,0.00023536,-0.
 00016517,0.00003968,-0.00003086,-0.00005907,-0.00007281,0.00007353,-0.
 00021497,0.00011274,0.00030854,-0.00003228,0.00011044,0.00013510,-0.00
 011915,0.00021543,0.00019215,-0.00078883,0.00051798,0.00055314,-0.0808
 5074,-0.10766630,0.16082110\\-0.00000005,0.00000368,0.00000142,-0.0001
 5268,-0.00020812,-0.00002560,-0.00015436,-0.00017302,0.00001454,0.0000
 0131,-0.00000043,0.00000111,0.,-0.00000163,0.00000107,-0.00000052,-0.0
 0000681,0.00000268,0.00000185,0.00000210,-0.00000398,0.00013054,0.0001
 3529,-0.00003129,0.00000020,-0.00000052,-0.00000053,0.00000227,-0.0000
 0284,0.00000006,-0.00000242,-0.00000369,-0.00000003,0.00017571,0.00025
 502,0.00004364,0.00000208,0.00000367,0.00000110,0.00000005,0.00000278,
 -0.00000053,-0.00000083,0.00000433,-0.00000116,-0.00000180,-0.00000186
 ,-0.00000072,0.00000118,0.00000343,0.00000109,-0.00000064,0.00000430,-
 0.00000092,-0.00000296,0.00000038,-0.00000050,-0.00000181,0.00000202,-
 0.00000122,0.00000020,-0.00000064,0.00000109,-0.00000157,-0.00000241,-
 0.00000018,-0.00000137,-0.00000304,0.00000052,0.00000269,-0.00000275,-
 0.00000039,0.00000235,0.00000135,-0.00000006,0.00000128,0.00000159,0.0
 0000015,0.00000035,-0.00000190,-0.00000118,-0.00000027,-0.00000459,0.0
 0000005,0.00000048,-0.00000324,0.00000093,-0.00000064,-0.00000050,-0.0
 0000047,-0.00000062,-0.00000198,-0.00000069\\\@


 ORIGINALITY CONSISTS NOT IN SAYING WHAT NO ONE HAS EVER SAID BEFORE, 
 BUT IN SAYING WHAT YOU THINK YOUR SELF.

                                    -- JAMES F. STEPHEN
 Job cpu time:       0 days 15 hours 12 minutes 17.7 seconds.
 Elapsed time:       0 days  0 hours 57 minutes  4.4 seconds.
 File lengths (MBytes):  RWF=    691 Int=      0 D2E=      0 Chk=     33 Scr=      1
 Normal termination of Gaussian 16 at Mon Nov  5 06:41:54 2018.
