 Entering Gaussian System, Link 0=g16
 Initial command:
 /apps/gaussian/g16a03/g16/l1.exe "/jobfs/local/2012014.r-man2/Gau-8315.inp" -scrdir="/jobfs/local/2012014.r-man2/"
 Entering Link 1 = /apps/gaussian/g16a03/g16/l1.exe PID=      8316.
  
 Copyright (c) 1988,1990,1992,1993,1995,1998,2003,2009,2016,
            Gaussian, Inc.  All Rights Reserved.
  
 This is part of the Gaussian(R) 16 program.  It is based on
 the Gaussian(R) 09 system (copyright 2009, Gaussian, Inc.),
 the Gaussian(R) 03 system (copyright 2003, Gaussian, Inc.),
 the Gaussian(R) 98 system (copyright 1998, Gaussian, Inc.),
 the Gaussian(R) 94 system (copyright 1995, Gaussian, Inc.),
 the Gaussian 92(TM) system (copyright 1992, Gaussian, Inc.),
 the Gaussian 90(TM) system (copyright 1990, Gaussian, Inc.),
 the Gaussian 88(TM) system (copyright 1988, Gaussian, Inc.),
 the Gaussian 86(TM) system (copyright 1986, Carnegie Mellon
 University), and the Gaussian 82(TM) system (copyright 1983,
 Carnegie Mellon University). Gaussian is a federally registered
 trademark of Gaussian, Inc.
  
 This software contains proprietary and confidential information,
 including trade secrets, belonging to Gaussian, Inc.
  
 This software is provided under written license and may be
 used, copied, transmitted, or stored only in accord with that
 written license.
  
 The following legend is applicable only to US Government
 contracts under FAR:
  
                    RESTRICTED RIGHTS LEGEND
  
 Use, reproduction and disclosure by the US Government is
 subject to restrictions as set forth in subparagraphs (a)
 and (c) of the Commercial Computer Software - Restricted
 Rights clause in FAR 52.227-19.
  
 Gaussian, Inc.
 340 Quinnipiac St., Bldg. 40, Wallingford CT 06492
  
  
 ---------------------------------------------------------------
 Warning -- This program may not be used in any manner that
 competes with the business of Gaussian, Inc. or will provide
 assistance to any competitor of Gaussian, Inc.  The licensee
 of this program is prohibited from giving any competitor of
 Gaussian, Inc. access to this program.  By using this program,
 the user acknowledges that Gaussian, Inc. is engaged in the
 business of creating and licensing software in the field of
 computational chemistry and represents and warrants to the
 licensee that it is not a competitor of Gaussian, Inc. and that
 it will not use this program in any manner prohibited above.
 ---------------------------------------------------------------
  

 Cite this work as:
 Gaussian 16, Revision A.03,
 M. J. Frisch, G. W. Trucks, H. B. Schlegel, G. E. Scuseria, 
 M. A. Robb, J. R. Cheeseman, G. Scalmani, V. Barone, 
 G. A. Petersson, H. Nakatsuji, X. Li, M. Caricato, A. V. Marenich, 
 J. Bloino, B. G. Janesko, R. Gomperts, B. Mennucci, H. P. Hratchian, 
 J. V. Ortiz, A. F. Izmaylov, J. L. Sonnenberg, D. Williams-Young, 
 F. Ding, F. Lipparini, F. Egidi, J. Goings, B. Peng, A. Petrone, 
 T. Henderson, D. Ranasinghe, V. G. Zakrzewski, J. Gao, N. Rega, 
 G. Zheng, W. Liang, M. Hada, M. Ehara, K. Toyota, R. Fukuda, 
 J. Hasegawa, M. Ishida, T. Nakajima, Y. Honda, O. Kitao, H. Nakai, 
 T. Vreven, K. Throssell, J. A. Montgomery, Jr., J. E. Peralta, 
 F. Ogliaro, M. J. Bearpark, J. J. Heyd, E. N. Brothers, K. N. Kudin, 
 V. N. Staroverov, T. A. Keith, R. Kobayashi, J. Normand, 
 K. Raghavachari, A. P. Rendell, J. C. Burant, S. S. Iyengar, 
 J. Tomasi, M. Cossi, J. M. Millam, M. Klene, C. Adamo, R. Cammi, 
 J. W. Ochterski, R. L. Martin, K. Morokuma, O. Farkas, 
 J. B. Foresman, and D. J. Fox, Gaussian, Inc., Wallingford CT, 2016.
 
 ******************************************
 Gaussian 16:  ES64L-G16RevA.03 25-Dec-2016
                 4-Nov-2018 
 ******************************************
 %mem=6000mb
 %nproc=24
 Will use up to   24 processors via shared memory.
 %chk=D_a1-4_2SO_PSI.inp_extract_13.chk
 ----------------------------------------------------------------------
 #M062X/6-311++G(2d,2p) opt=ModRedundant freq=noraman SCRF=(Solvent=Wat
 er)
 ----------------------------------------------------------------------
 1/18=120,19=15,26=3,38=1/1,3;
 2/9=110,12=2,17=6,18=5,40=1/2;
 3/5=4,6=6,7=1212,11=2,25=1,30=1,70=2201,71=1,72=1,74=-55/1,2,3;
 4//1;
 5/5=2,38=5,53=1/2;
 6/7=2,8=2,9=2,10=2,28=1/1;
 7//1,2,3,16;
 1/18=20,19=15,26=3/3(2);
 2/9=110/2;
 99//99;
 2/9=110/2;
 3/5=4,6=6,7=1212,11=2,25=1,30=1,70=2205,71=1,72=1,74=-55/1,2,3;
 4/5=5,16=3,69=1/1;
 5/5=2,38=5,53=1/2;
 7//1,2,3,16;
 1/18=20,19=15,26=3/3(-5);
 2/9=110/2;
 6/7=2,8=2,9=2,10=2,19=2,28=1/1;
 99/9=1/99;
 -----------------------------
 D_a1-4_2SO_PSI.inp_extract_13
 -----------------------------
 Symbolic Z-matrix:
 Charge =  0 Multiplicity = 1
 C                     1.09815   0.35747   0.99212 
 C                     3.3812   -0.25158  -0.79249 
 O                    -1.17694  -0.66302  -0.96664 
 C                     1.90537   1.3442    0.14125 
 C                     1.59468  -1.0725    0.75557 
 O                    -0.31708   0.47191   0.86648 
 C                    -2.23049   1.37064  -0.21218 
 C                    -3.29219   0.55541   0.52778 
 C                    -0.93307   0.59278  -0.38375 
 C                    -3.46102  -0.80445  -0.15006 
 C                    -2.11255  -1.49117  -0.29083 
 C                     3.09931  -1.04252   0.49043 
 O                     2.38987   0.73719  -1.03594 
 H                     1.26758   0.61815   2.02861 
 H                     4.35527   0.2265   -0.74923 
 H                     3.35935  -0.90275  -1.65604 
 H                     1.31467   2.19969  -0.15184 
 H                     2.74232   1.71113   0.72675 
 H                     1.089    -1.49877  -0.102 
 H                     1.35769  -1.69101   1.61444 
 H                    -2.01672   2.3033    0.29857 
 H                    -2.59356   1.61791  -1.20617 
 H                    -2.9995    0.41363   1.56477 
 H                    -4.23277   1.09764   0.53575 
 H                    -0.28136   1.09404  -1.07956 
 H                    -4.12817  -1.44537   0.4195 
 H                    -3.89908  -0.67181  -1.13667 
 H                    -2.18713  -2.3911   -0.88572 
 H                    -1.71767  -1.76266   0.6824 
 H                     3.6116   -0.59026   1.33501 
 H                     3.4954   -2.04655   0.38316 
 
 The following ModRedundant input section has been read:
 D       5       1       6       9 F                                           
 

 GradGradGradGradGradGradGradGradGradGradGradGradGradGradGradGradGradGrad
 Berny optimization.
 Initialization pass.
                           ----------------------------
                           !    Initial Parameters    !
                           ! (Angstroms and Degrees)  !
 --------------------------                            --------------------------
 ! Name  Definition              Value          Derivative Info.                !
 --------------------------------------------------------------------------------
 ! R1    R(1,4)                  1.5327         estimate D2E/DX2                !
 ! R2    R(1,5)                  1.5321         estimate D2E/DX2                !
 ! R3    R(1,6)                  1.4254         estimate D2E/DX2                !
 ! R4    R(1,14)                 1.0821         estimate D2E/DX2                !
 ! R5    R(2,12)                 1.5333         estimate D2E/DX2                !
 ! R6    R(2,13)                 1.4211         estimate D2E/DX2                !
 ! R7    R(2,15)                 1.0859         estimate D2E/DX2                !
 ! R8    R(2,16)                 1.0818         estimate D2E/DX2                !
 ! R9    R(3,9)                  1.4058         estimate D2E/DX2                !
 ! R10   R(3,11)                 1.4205         estimate D2E/DX2                !
 ! R11   R(4,13)                 1.4103         estimate D2E/DX2                !
 ! R12   R(4,17)                 1.0801         estimate D2E/DX2                !
 ! R13   R(4,18)                 1.0853         estimate D2E/DX2                !
 ! R14   R(5,12)                 1.5281         estimate D2E/DX2                !
 ! R15   R(5,19)                 1.083          estimate D2E/DX2                !
 ! R16   R(5,20)                 1.0846         estimate D2E/DX2                !
 ! R17   R(6,9)                  1.399          estimate D2E/DX2                !
 ! R18   R(7,8)                  1.5295         estimate D2E/DX2                !
 ! R19   R(7,9)                  1.5224         estimate D2E/DX2                !
 ! R20   R(7,21)                 1.0846         estimate D2E/DX2                !
 ! R21   R(7,22)                 1.0867         estimate D2E/DX2                !
 ! R22   R(8,10)                 1.5288         estimate D2E/DX2                !
 ! R23   R(8,23)                 1.0868         estimate D2E/DX2                !
 ! R24   R(8,24)                 1.0857         estimate D2E/DX2                !
 ! R25   R(9,25)                 1.0771         estimate D2E/DX2                !
 ! R26   R(10,11)                1.5198         estimate D2E/DX2                !
 ! R27   R(10,26)                1.0864         estimate D2E/DX2                !
 ! R28   R(10,27)                1.0876         estimate D2E/DX2                !
 ! R29   R(11,28)                1.0814         estimate D2E/DX2                !
 ! R30   R(11,29)                1.0848         estimate D2E/DX2                !
 ! R31   R(12,30)                1.0864         estimate D2E/DX2                !
 ! R32   R(12,31)                1.0847         estimate D2E/DX2                !
 ! A1    A(4,1,5)              110.1497         estimate D2E/DX2                !
 ! A2    A(4,1,6)              114.9789         estimate D2E/DX2                !
 ! A3    A(4,1,14)             107.1088         estimate D2E/DX2                !
 ! A4    A(5,1,6)              112.5258         estimate D2E/DX2                !
 ! A5    A(5,1,14)             108.7826         estimate D2E/DX2                !
 ! A6    A(6,1,14)             102.7412         estimate D2E/DX2                !
 ! A7    A(12,2,13)            111.9621         estimate D2E/DX2                !
 ! A8    A(12,2,15)            111.0195         estimate D2E/DX2                !
 ! A9    A(12,2,16)            110.7138         estimate D2E/DX2                !
 ! A10   A(13,2,15)            109.0401         estimate D2E/DX2                !
 ! A11   A(13,2,16)            105.5432         estimate D2E/DX2                !
 ! A12   A(15,2,16)            108.3561         estimate D2E/DX2                !
 ! A13   A(9,3,11)             115.9624         estimate D2E/DX2                !
 ! A14   A(1,4,13)             111.5439         estimate D2E/DX2                !
 ! A15   A(1,4,17)             111.8701         estimate D2E/DX2                !
 ! A16   A(1,4,18)             108.9233         estimate D2E/DX2                !
 ! A17   A(13,4,17)            107.5945         estimate D2E/DX2                !
 ! A18   A(13,4,18)            109.3224         estimate D2E/DX2                !
 ! A19   A(17,4,18)            107.4783         estimate D2E/DX2                !
 ! A20   A(1,5,12)             109.1222         estimate D2E/DX2                !
 ! A21   A(1,5,19)             109.7735         estimate D2E/DX2                !
 ! A22   A(1,5,20)             109.8268         estimate D2E/DX2                !
 ! A23   A(12,5,19)            109.2738         estimate D2E/DX2                !
 ! A24   A(12,5,20)            111.3297         estimate D2E/DX2                !
 ! A25   A(19,5,20)            107.4917         estimate D2E/DX2                !
 ! A26   A(1,6,9)              121.5259         estimate D2E/DX2                !
 ! A27   A(8,7,9)              111.9468         estimate D2E/DX2                !
 ! A28   A(8,7,21)             111.5508         estimate D2E/DX2                !
 ! A29   A(8,7,22)             109.383          estimate D2E/DX2                !
 ! A30   A(9,7,21)             108.9322         estimate D2E/DX2                !
 ! A31   A(9,7,22)             107.331          estimate D2E/DX2                !
 ! A32   A(21,7,22)            107.5116         estimate D2E/DX2                !
 ! A33   A(7,8,10)             109.6498         estimate D2E/DX2                !
 ! A34   A(7,8,23)             110.1338         estimate D2E/DX2                !
 ! A35   A(7,8,24)             109.7984         estimate D2E/DX2                !
 ! A36   A(10,8,23)            109.6798         estimate D2E/DX2                !
 ! A37   A(10,8,24)            110.5989         estimate D2E/DX2                !
 ! A38   A(23,8,24)            106.9454         estimate D2E/DX2                !
 ! A39   A(3,9,6)              111.7006         estimate D2E/DX2                !
 ! A40   A(3,9,7)              110.812          estimate D2E/DX2                !
 ! A41   A(3,9,25)             104.6452         estimate D2E/DX2                !
 ! A42   A(6,9,7)              108.5824         estimate D2E/DX2                !
 ! A43   A(6,9,25)             110.5554         estimate D2E/DX2                !
 ! A44   A(7,9,25)             110.5274         estimate D2E/DX2                !
 ! A45   A(8,10,11)            110.1817         estimate D2E/DX2                !
 ! A46   A(8,10,26)            111.1086         estimate D2E/DX2                !
 ! A47   A(8,10,27)            109.7677         estimate D2E/DX2                !
 ! A48   A(11,10,26)           109.0781         estimate D2E/DX2                !
 ! A49   A(11,10,27)           109.1746         estimate D2E/DX2                !
 ! A50   A(26,10,27)           107.4692         estimate D2E/DX2                !
 ! A51   A(3,11,10)            111.4095         estimate D2E/DX2                !
 ! A52   A(3,11,28)            105.5975         estimate D2E/DX2                !
 ! A53   A(3,11,29)            109.4486         estimate D2E/DX2                !
 ! A54   A(10,11,28)           111.4571         estimate D2E/DX2                !
 ! A55   A(10,11,29)           110.6683         estimate D2E/DX2                !
 ! A56   A(28,11,29)           108.0819         estimate D2E/DX2                !
 ! A57   A(2,12,5)             109.6534         estimate D2E/DX2                !
 ! A58   A(2,12,30)            110.4278         estimate D2E/DX2                !
 ! A59   A(2,12,31)            109.1246         estimate D2E/DX2                !
 ! A60   A(5,12,30)            109.7291         estimate D2E/DX2                !
 ! A61   A(5,12,31)            111.0124         estimate D2E/DX2                !
 ! A62   A(30,12,31)           106.8595         estimate D2E/DX2                !
 ! A63   A(2,13,4)             113.3352         estimate D2E/DX2                !
 ! D1    D(5,1,4,13)            28.357          estimate D2E/DX2                !
 ! D2    D(5,1,4,17)           148.931          estimate D2E/DX2                !
 ! D3    D(5,1,4,18)           -92.4008         estimate D2E/DX2                !
 ! D4    D(6,1,4,13)          -100.0411         estimate D2E/DX2                !
 ! D5    D(6,1,4,17)            20.533          estimate D2E/DX2                !
 ! D6    D(6,1,4,18)           139.2011         estimate D2E/DX2                !
 ! D7    D(14,1,4,13)          146.5078         estimate D2E/DX2                !
 ! D8    D(14,1,4,17)          -92.9182         estimate D2E/DX2                !
 ! D9    D(14,1,4,18)           25.75           estimate D2E/DX2                !
 ! D10   D(4,1,5,12)            33.4163         estimate D2E/DX2                !
 ! D11   D(4,1,5,19)           -86.3123         estimate D2E/DX2                !
 ! D12   D(4,1,5,20)           155.7089         estimate D2E/DX2                !
 ! D13   D(6,1,5,12)           163.1446         estimate D2E/DX2                !
 ! D14   D(6,1,5,19)            43.416          estimate D2E/DX2                !
 ! D15   D(6,1,5,20)           -74.5628         estimate D2E/DX2                !
 ! D16   D(14,1,5,12)          -83.699          estimate D2E/DX2                !
 ! D17   D(14,1,5,19)          156.5724         estimate D2E/DX2                !
 ! D18   D(14,1,5,20)           38.5936         estimate D2E/DX2                !
 ! D19   D(4,1,6,9)             45.5966         estimate D2E/DX2                !
 ! D20   D(5,1,6,9)            -81.6047         Frozen                          !
 ! D21   D(14,1,6,9)           161.5778         estimate D2E/DX2                !
 ! D22   D(13,2,12,5)           28.2668         estimate D2E/DX2                !
 ! D23   D(13,2,12,30)         -92.7657         estimate D2E/DX2                !
 ! D24   D(13,2,12,31)         150.0586         estimate D2E/DX2                !
 ! D25   D(15,2,12,5)          150.3929         estimate D2E/DX2                !
 ! D26   D(15,2,12,30)          29.3604         estimate D2E/DX2                !
 ! D27   D(15,2,12,31)         -87.8153         estimate D2E/DX2                !
 ! D28   D(16,2,12,5)          -89.21           estimate D2E/DX2                !
 ! D29   D(16,2,12,30)         149.7574         estimate D2E/DX2                !
 ! D30   D(16,2,12,31)          32.5818         estimate D2E/DX2                !
 ! D31   D(12,2,13,4)           36.1435         estimate D2E/DX2                !
 ! D32   D(15,2,13,4)          -87.1072         estimate D2E/DX2                !
 ! D33   D(16,2,13,4)          156.6752         estimate D2E/DX2                !
 ! D34   D(11,3,9,6)            65.4265         estimate D2E/DX2                !
 ! D35   D(11,3,9,7)           -55.784          estimate D2E/DX2                !
 ! D36   D(11,3,9,25)         -174.9314         estimate D2E/DX2                !
 ! D37   D(9,3,11,10)           57.6475         estimate D2E/DX2                !
 ! D38   D(9,3,11,28)          178.8051         estimate D2E/DX2                !
 ! D39   D(9,3,11,29)          -65.0708         estimate D2E/DX2                !
 ! D40   D(1,4,13,2)           -67.9164         estimate D2E/DX2                !
 ! D41   D(17,4,13,2)          169.0363         estimate D2E/DX2                !
 ! D42   D(18,4,13,2)           52.6077         estimate D2E/DX2                !
 ! D43   D(1,5,12,2)           -63.0775         estimate D2E/DX2                !
 ! D44   D(1,5,12,30)           58.3761         estimate D2E/DX2                !
 ! D45   D(1,5,12,31)          176.2685         estimate D2E/DX2                !
 ! D46   D(19,5,12,2)           56.9595         estimate D2E/DX2                !
 ! D47   D(19,5,12,30)         178.4131         estimate D2E/DX2                !
 ! D48   D(19,5,12,31)         -63.6945         estimate D2E/DX2                !
 ! D49   D(20,5,12,2)          175.5387         estimate D2E/DX2                !
 ! D50   D(20,5,12,30)         -63.0078         estimate D2E/DX2                !
 ! D51   D(20,5,12,31)          54.8847         estimate D2E/DX2                !
 ! D52   D(1,6,9,3)             85.9257         estimate D2E/DX2                !
 ! D53   D(1,6,9,7)           -151.579          estimate D2E/DX2                !
 ! D54   D(1,6,9,25)           -30.1686         estimate D2E/DX2                !
 ! D55   D(9,7,8,10)           -52.1486         estimate D2E/DX2                !
 ! D56   D(9,7,8,23)            68.633          estimate D2E/DX2                !
 ! D57   D(9,7,8,24)          -173.8564         estimate D2E/DX2                !
 ! D58   D(21,7,8,10)         -174.5079         estimate D2E/DX2                !
 ! D59   D(21,7,8,23)          -53.7263         estimate D2E/DX2                !
 ! D60   D(21,7,8,24)           63.7843         estimate D2E/DX2                !
 ! D61   D(22,7,8,10)           66.6825         estimate D2E/DX2                !
 ! D62   D(22,7,8,23)         -172.5359         estimate D2E/DX2                !
 ! D63   D(22,7,8,24)          -55.0254         estimate D2E/DX2                !
 ! D64   D(8,7,9,3)             52.4209         estimate D2E/DX2                !
 ! D65   D(8,7,9,6)            -70.6115         estimate D2E/DX2                !
 ! D66   D(8,7,9,25)           167.9609         estimate D2E/DX2                !
 ! D67   D(21,7,9,3)           176.2616         estimate D2E/DX2                !
 ! D68   D(21,7,9,6)            53.2292         estimate D2E/DX2                !
 ! D69   D(21,7,9,25)          -68.1983         estimate D2E/DX2                !
 ! D70   D(22,7,9,3)           -67.617          estimate D2E/DX2                !
 ! D71   D(22,7,9,6)           169.3506         estimate D2E/DX2                !
 ! D72   D(22,7,9,25)           47.9231         estimate D2E/DX2                !
 ! D73   D(7,8,10,11)           52.6816         estimate D2E/DX2                !
 ! D74   D(7,8,10,26)          173.6911         estimate D2E/DX2                !
 ! D75   D(7,8,10,27)          -67.5796         estimate D2E/DX2                !
 ! D76   D(23,8,10,11)         -68.3745         estimate D2E/DX2                !
 ! D77   D(23,8,10,26)          52.6349         estimate D2E/DX2                !
 ! D78   D(23,8,10,27)         171.3643         estimate D2E/DX2                !
 ! D79   D(24,8,10,11)         173.9083         estimate D2E/DX2                !
 ! D80   D(24,8,10,26)         -65.0823         estimate D2E/DX2                !
 ! D81   D(24,8,10,27)          53.6471         estimate D2E/DX2                !
 ! D82   D(8,10,11,3)          -54.591          estimate D2E/DX2                !
 ! D83   D(8,10,11,28)        -172.2638         estimate D2E/DX2                !
 ! D84   D(8,10,11,29)          67.4246         estimate D2E/DX2                !
 ! D85   D(26,10,11,3)        -176.8073         estimate D2E/DX2                !
 ! D86   D(26,10,11,28)         65.5199         estimate D2E/DX2                !
 ! D87   D(26,10,11,29)        -54.7917         estimate D2E/DX2                !
 ! D88   D(27,10,11,3)          66.0271         estimate D2E/DX2                !
 ! D89   D(27,10,11,28)        -51.6458         estimate D2E/DX2                !
 ! D90   D(27,10,11,29)       -171.9573         estimate D2E/DX2                !
 --------------------------------------------------------------------------------
 Trust Radius=3.00D-01 FncErr=1.00D-07 GrdErr=1.00D-06 EigMax=2.50D+02 EigMin=1.00D-04
 Number of steps in this run=    186 maximum allowed number of steps=    186.
 GradGradGradGradGradGradGradGradGradGradGradGradGradGradGradGradGradGrad

                          Input orientation:                          
 ---------------------------------------------------------------------
 Center     Atomic      Atomic             Coordinates (Angstroms)
 Number     Number       Type             X           Y           Z
 ---------------------------------------------------------------------
      1          6           0        1.098145    0.357474    0.992118
      2          6           0        3.381201   -0.251575   -0.792488
      3          8           0       -1.176938   -0.663016   -0.966636
      4          6           0        1.905366    1.344204    0.141248
      5          6           0        1.594676   -1.072503    0.755572
      6          8           0       -0.317081    0.471913    0.866475
      7          6           0       -2.230491    1.370638   -0.212180
      8          6           0       -3.292186    0.555406    0.527777
      9          6           0       -0.933065    0.592777   -0.383747
     10          6           0       -3.461024   -0.804454   -0.150056
     11          6           0       -2.112551   -1.491171   -0.290826
     12          6           0        3.099305   -1.042523    0.490426
     13          8           0        2.389870    0.737186   -1.035941
     14          1           0        1.267579    0.618152    2.028615
     15          1           0        4.355274    0.226500   -0.749229
     16          1           0        3.359352   -0.902745   -1.656042
     17          1           0        1.314671    2.199685   -0.151841
     18          1           0        2.742320    1.711130    0.726750
     19          1           0        1.089000   -1.498768   -0.101996
     20          1           0        1.357687   -1.691011    1.614436
     21          1           0       -2.016718    2.303303    0.298568
     22          1           0       -2.593555    1.617911   -1.206174
     23          1           0       -2.999495    0.413625    1.564772
     24          1           0       -4.232769    1.097644    0.535751
     25          1           0       -0.281362    1.094035   -1.079555
     26          1           0       -4.128167   -1.445373    0.419499
     27          1           0       -3.899076   -0.671812   -1.136667
     28          1           0       -2.187127   -2.391104   -0.885715
     29          1           0       -1.717672   -1.762658    0.682404
     30          1           0        3.611595   -0.590262    1.335011
     31          1           0        3.495401   -2.046552    0.383159
 ---------------------------------------------------------------------
                    Distance matrix (angstroms):
                    1          2          3          4          5
     1  C    0.000000
     2  C    2.961098   0.000000
     3  O    3.170823   4.579983   0.000000
     4  C    1.532717   2.365684   3.841476   0.000000
     5  C    1.532100   2.502416   3.288696   2.512846   0.000000
     6  O    1.425394   4.117388   2.321145   2.495219   2.460149
     7  C    3.681936   5.870215   2.411416   4.151015   4.640839
     8  C    4.419253   6.850432   2.862184   5.271257   5.155909
     9  C    2.464586   4.415075   1.405791   2.982776   3.234297
    10  C    4.841556   6.894522   2.429785   5.787895   5.143162
    11  C    3.920715   5.654164   1.420539   4.936567   3.874760
    12  C    2.493256   1.533275   4.533576   2.691446   1.528107
    13  O    2.434288   1.421146   3.832426   1.410315   2.667738
    14  H    1.082121   3.630764   4.072908   2.120396   2.141482
    15  H    3.695718   1.085931   5.607484   2.836241   3.401872
    16  H    3.703236   1.081770   4.594636   3.223834   2.993122
    17  H    2.179281   3.269503   3.881632   1.080125   3.407201
    18  H    2.146186   2.562901   4.885152   1.085329   3.011068
    19  H    2.154717   2.699343   2.565260   2.967846   1.082974
    20  H    2.156602   3.458304   3.760722   3.418006   1.084603
    21  H    3.737597   6.070859   3.332420   4.040713   4.964583
    22  H    4.477705   6.274060   2.695702   4.704333   5.350519
    23  H    4.137842   6.834650   3.299833   5.191345   4.895895
    24  H    5.401367   7.845836   3.833431   6.155739   6.222297
    25  H    2.595648   3.912473   1.975357   2.516888   3.403101
    26  H    5.558101   7.699654   3.353089   6.653021   5.744816
    27  H    5.528415   7.300513   2.727457   6.276060   5.824297
    28  H    4.676959   5.965949   2.003327   5.635218   4.328344
    29  H    3.538320   5.518803   2.054492   4.803316   3.384275
    30  H    2.707990   2.166574   5.313466   2.842261   2.153200
    31  H    3.449204   2.148751   5.056369   3.752860   2.167999
                    6          7          8          9         10
     6  O    0.000000
     7  C    2.373255   0.000000
     8  C    2.995486   1.529489   0.000000
     9  C    1.398964   1.522438   2.529372   0.000000
    10  C    3.542150   2.499819   1.528785   2.897834   0.000000
    11  C    2.901165   2.865318   2.500025   2.396385   1.519795
    12  C    3.755878   5.892684   6.588318   4.438287   6.595818
    13  O    3.319208   4.735777   5.896102   3.389411   6.115097
    14  H    1.970559   4.221835   4.800824   3.265420   5.397231
    15  H    4.949912   6.705951   7.760320   5.313593   7.906731
    16  H    4.665719   6.204785   7.151100   4.720187   6.985355
    17  H    2.585494   3.641309   4.938488   2.772770   5.641996
    18  H    3.303803   5.072117   6.147402   3.999046   6.751180
    19  H    2.607409   4.389152   4.879655   2.922788   4.602945
    20  H    2.835936   5.058186   5.277171   3.802100   5.207628
    21  H    2.562279   1.084632   2.175890   2.136763   3.456217
    22  H    3.285045   1.086731   2.150253   2.117667   2.781320
    23  H    2.772429   2.159815   1.086797   2.845866   2.153453
    24  H    3.979137   2.154772   1.085717   3.462429   2.164232
    25  H    2.043366   2.151268   3.455242   1.077091   3.818177
    26  H    4.289540   3.453999   2.171107   3.874008   1.086393
    27  H    4.260443   2.794719   2.155169   3.311087   1.087605
    28  H    3.842409   3.821810   3.449788   3.275391   2.163670
    29  H    2.643642   3.298607   2.806497   2.701918   2.156483
    30  H    4.096613   6.353652   7.044599   5.000764   7.230024
    31  H    4.594701   6.694584   7.270656   5.212055   7.086535
                   11         12         13         14         15
    11  C    0.000000
    12  C    5.289148   0.000000
    13  O    5.078638   2.449583   0.000000
    14  H    4.610242   2.911887   3.265763   0.000000
    15  H    6.707704   2.173620   2.050809   4.171770   0.000000
    16  H    5.670254   2.166677   2.003446   4.501704   1.757659
    17  H    5.038609   3.756240   2.019056   2.694040   3.673636
    18  H    5.904233   2.786735   2.044472   2.250403   2.642775
    19  H    3.207124   2.144866   2.750274   3.008778   3.750201
    20  H    3.963901   2.171904   3.739792   2.347743   4.271919
    21  H    3.841172   6.115967   4.863297   4.076690   6.783308
    22  H    3.276525   6.508841   5.063515   5.135342   7.101482
    23  H    2.803241   6.361599   5.992800   4.297081   7.712473
    24  H    3.446813   7.638172   6.816120   5.719474   8.727230
    25  H    3.264757   4.296351   2.695315   3.505197   4.728649
    26  H    2.137608   7.239038   7.026142   5.996788   8.725242
    27  H    2.139735   7.194595   6.445639   6.194945   8.312122
    28  H    1.081357   5.626615   5.545960   5.429911   7.047942
    29  H    1.084809   4.874291   5.106254   4.048736   6.548816
    30  H    6.018374   1.086418   2.979286   2.726859   2.358859
    31  H    5.675547   1.084653   3.314399   3.843353   2.681128
                   16         17         18         19         20
    16  H    0.000000
    17  H    4.008542   0.000000
    18  H    3.590372   1.746078   0.000000
    19  H    2.815102   3.705667   3.704556   0.000000
    20  H    3.914595   4.273067   3.778857   1.747938   0.000000
    21  H    6.557543   3.363296   4.814816   4.925615   5.391907
    22  H    6.480215   4.089537   5.675953   4.949152   5.875127
    23  H    7.248545   4.974816   5.945943   4.811565   4.839111
    24  H    8.151430   5.697488   7.004621   5.955611   6.339823
    25  H    4.192167   2.151845   3.575779   3.091301   4.207202
    26  H    7.788790   6.575512   7.567133   5.243438   5.619858
    27  H    7.280650   6.033120   7.297868   5.160940   6.020041
    28  H    5.794139   5.820353   6.612701   3.484751   4.393927
    29  H    5.655436   5.058778   5.653379   2.926146   3.214288
    30  H    3.017892   3.907735   2.534172   3.042015   2.523852
    31  H    2.342039   4.803367   3.847773   2.515196   2.492443
                   21         22         23         24         25
    21  H    0.000000
    22  H    1.751214   0.000000
    23  H    2.477904   3.048481   0.000000
    24  H    2.533920   2.447857   1.745775   0.000000
    25  H    2.524483   2.374177   3.852748   4.268822   0.000000
    26  H    4.304116   3.792302   2.457931   2.547821   4.847026
    27  H    3.801905   2.636674   3.047161   2.457500   4.026081
    28  H    4.844484   4.042286   3.811999   4.286791   3.976897
    29  H    4.094972   3.970157   2.675416   3.811633   3.650778
    30  H    6.412865   7.059571   6.690821   8.063615   4.880789
    31  H    7.022240   7.282146   7.045023   8.344691   5.125111
                   26         27         28         29         30
    26  H    0.000000
    27  H    1.752864   0.000000
    28  H    2.523019   2.439203   0.000000
    29  H    2.445460   3.042612   1.753377   0.000000
    30  H    7.840491   7.907340   6.465279   5.495589   0.000000
    31  H    7.647321   7.673205   5.832656   5.229366   1.743647
                   31
    31  H    0.000000
 Stoichiometry    C10H18O3
 Framework group  C1[X(C10H18O3)]
 Deg. of freedom    87
 Full point group                 C1      NOp   1
 Largest Abelian subgroup         C1      NOp   1
 Largest concise Abelian subgroup C1      NOp   1
                         Standard orientation:                         
 ---------------------------------------------------------------------
 Center     Atomic      Atomic             Coordinates (Angstroms)
 Number     Number       Type             X           Y           Z
 ---------------------------------------------------------------------
      1          6           0       -1.098145   -0.357474    0.992118
      2          6           0       -3.381201    0.251575   -0.792488
      3          8           0        1.176938    0.663016   -0.966636
      4          6           0       -1.905366   -1.344204    0.141248
      5          6           0       -1.594676    1.072503    0.755572
      6          8           0        0.317081   -0.471913    0.866475
      7          6           0        2.230491   -1.370638   -0.212180
      8          6           0        3.292186   -0.555406    0.527777
      9          6           0        0.933065   -0.592777   -0.383747
     10          6           0        3.461024    0.804454   -0.150056
     11          6           0        2.112551    1.491171   -0.290826
     12          6           0       -3.099305    1.042523    0.490426
     13          8           0       -2.389870   -0.737186   -1.035941
     14          1           0       -1.267579   -0.618152    2.028615
     15          1           0       -4.355274   -0.226500   -0.749229
     16          1           0       -3.359352    0.902745   -1.656042
     17          1           0       -1.314671   -2.199685   -0.151841
     18          1           0       -2.742320   -1.711130    0.726750
     19          1           0       -1.089000    1.498768   -0.101996
     20          1           0       -1.357687    1.691011    1.614436
     21          1           0        2.016718   -2.303303    0.298568
     22          1           0        2.593555   -1.617911   -1.206174
     23          1           0        2.999495   -0.413625    1.564772
     24          1           0        4.232769   -1.097644    0.535751
     25          1           0        0.281362   -1.094035   -1.079555
     26          1           0        4.128167    1.445373    0.419499
     27          1           0        3.899076    0.671812   -1.136667
     28          1           0        2.187127    2.391104   -0.885715
     29          1           0        1.717672    1.762658    0.682404
     30          1           0       -3.611595    0.590262    1.335011
     31          1           0       -3.495401    2.046552    0.383159
 ---------------------------------------------------------------------
 Rotational constants (GHZ):           1.8246052           0.4581245           0.4290875
 Standard basis: 6-311++G(2d,2p) (5D, 7F)
 There are   557 symmetry adapted cartesian basis functions of A   symmetry.
 There are   531 symmetry adapted basis functions of A   symmetry.
   531 basis functions,   762 primitive gaussians,   557 cartesian basis functions
    51 alpha electrons       51 beta electrons
       nuclear repulsion energy       907.2859587981 Hartrees.
 NAtoms=   31 NActive=   31 NUniq=   31 SFac= 1.00D+00 NAtFMM=   60 NAOKFM=F Big=F
 Integral buffers will be    131072 words long.
 Raffenetti 2 integral format.
 Two-electron integral symmetry is turned on.
 ------------------------------------------------------------------------------
 Polarizable Continuum Model (PCM)
 =================================
 Model                : PCM.
 Atomic radii         : UFF (Universal Force Field).
 Polarization charges : Total charges.
 Charge compensation  : None.
 Solution method      : On-the-fly selection.
 Cavity type          : Scaled VdW (van der Waals Surface) (Alpha=1.100).
 Cavity algorithm     : GePol (No added spheres)
                        Default sphere list used, NSphG=   31.
                        Lebedev-Laikov grids with approx.  5.0 points / Ang**2.
                        Smoothing algorithm: York/Karplus (Gamma=1.0000).
                        Polarization charges: spherical gaussians, with
                                              point-specific exponents (IZeta= 3).
                        Self-potential: point-specific (ISelfS= 7).
                        Self-field    : sphere-specific E.n sum rule (ISelfD= 2).
 1st derivatives      : Analytical E(r).r(x)/FMM algorithm (CHGder, D1EAlg=3).
                        Cavity 1st derivative terms included.
 Solvent              : Water, Eps=  78.355300 Eps(inf)=   1.777849
 ------------------------------------------------------------------------------
 One-electron integrals computed using PRISM.
 NBasis=   531 RedAO= T EigKep=  3.76D-06  NBF=   531
 NBsUse=   531 1.00D-06 EigRej= -1.00D+00 NBFU=   531
 ExpMin= 3.60D-02 ExpMax= 8.59D+03 ExpMxC= 1.30D+03 IAcc=3 IRadAn=         5 AccDes= 0.00D+00
 Harris functional with IExCor= 1009 and IRadAn=       5 diagonalized for initial guess.
 HarFok:  IExCor= 1009 AccDes= 0.00D+00 IRadAn=         5 IDoV= 1 UseB2=F ITyADJ=14
 ICtDFT=  3500011 ScaDFX=  1.000000  1.000000  1.000000  1.000000
 FoFCou: FMM=F IPFlag=           0 FMFlag=      100000 FMFlg1=           0
         NFxFlg=           0 DoJE=T BraDBF=F KetDBF=T FulRan=T
         wScrn=  0.000000 ICntrl=       500 IOpCl=  0 I1Cent=   200000004 NGrid=           0
         NMat0=    1 NMatS0=      1 NMatT0=    0 NMatD0=    1 NMtDS0=    0 NMtDT0=    0
 Petite list used in FoFCou.
 Requested convergence on RMS density matrix=1.00D-08 within 128 cycles.
 Requested convergence on MAX density matrix=1.00D-06.
 Requested convergence on             energy=1.00D-06.
 No special actions if energy rises.
 Inv3:  Mode=1 IEnd=    12582912.
 Iteration    1 A*A^-1 deviation from unit magnitude is 5.00D-15 for   2035.
 Iteration    1 A*A^-1 deviation from orthogonality  is 2.38D-15 for   2022   1342.
 Iteration    1 A^-1*A deviation from unit magnitude is 5.22D-15 for   2035.
 Iteration    1 A^-1*A deviation from orthogonality  is 1.44D-15 for   1979   1022.
 Error on total polarization charges =  0.01460
 SCF Done:  E(RM062X) =  -617.490237047     A.U. after   12 cycles
            NFock= 12  Conv=0.65D-08     -V/T= 2.0035

 **********************************************************************

            Population analysis using the SCF density.

 **********************************************************************

 Orbital symmetries:
       Occupied  (A) (A) (A) (A) (A) (A) (A) (A) (A) (A) (A) (A)
                 (A) (A) (A) (A) (A) (A) (A) (A) (A) (A) (A) (A)
                 (A) (A) (A) (A) (A) (A) (A) (A) (A) (A) (A) (A)
                 (A) (A) (A) (A) (A) (A) (A) (A) (A) (A) (A) (A)
                 (A) (A) (A)
       Virtual   (A) (A) (A) (A) (A) (A) (A) (A) (A) (A) (A) (A)
                 (A) (A) (A) (A) (A) (A) (A) (A) (A) (A) (A) (A)
                 (A) (A) (A) (A) (A) (A) (A) (A) (A) (A) (A) (A)
                 (A) (A) (A) (A) (A) (A) (A) (A) (A) (A) (A) (A)
                 (A) (A) (A) (A) (A) (A) (A) (A) (A) (A) (A) (A)
                 (A) (A) (A) (A) (A) (A) (A) (A) (A) (A) (A) (A)
                 (A) (A) (A) (A) (A) (A) (A) (A) (A) (A) (A) (A)
                 (A) (A) (A) (A) (A) (A) (A) (A) (A) (A) (A) (A)
                 (A) (A) (A) (A) (A) (A) (A) (A) (A) (A) (A) (A)
                 (A) (A) (A) (A) (A) (A) (A) (A) (A) (A) (A) (A)
                 (A) (A) (A) (A) (A) (A) (A) (A) (A) (A) (A) (A)
                 (A) (A) (A) (A) (A) (A) (A) (A) (A) (A) (A) (A)
                 (A) (A) (A) (A) (A) (A) (A) (A) (A) (A) (A) (A)
                 (A) (A) (A) (A) (A) (A) (A) (A) (A) (A) (A) (A)
                 (A) (A) (A) (A) (A) (A) (A) (A) (A) (A) (A) (A)
                 (A) (A) (A) (A) (A) (A) (A) (A) (A) (A) (A) (A)
                 (A) (A) (A) (A) (A) (A) (A) (A) (A) (A) (A) (A)
                 (A) (A) (A) (A) (A) (A) (A) (A) (A) (A) (A) (A)
                 (A) (A) (A) (A) (A) (A) (A) (A) (A) (A) (A) (A)
                 (A) (A) (A) (A) (A) (A) (A) (A) (A) (A) (A) (A)
                 (A) (A) (A) (A) (A) (A) (A) (A) (A) (A) (A) (A)
                 (A) (A) (A) (A) (A) (A) (A) (A) (A) (A) (A) (A)
                 (A) (A) (A) (A) (A) (A) (A) (A) (A) (A) (A) (A)
                 (A) (A) (A) (A) (A) (A) (A) (A) (A) (A) (A) (A)
                 (A) (A) (A) (A) (A) (A) (A) (A) (A) (A) (A) (A)
                 (A) (A) (A) (A) (A) (A) (A) (A) (A) (A) (A) (A)
                 (A) (A) (A) (A) (A) (A) (A) (A) (A) (A) (A) (A)
                 (A) (A) (A) (A) (A) (A) (A) (A) (A) (A) (A) (A)
                 (A) (A) (A) (A) (A) (A) (A) (A) (A) (A) (A) (A)
                 (A) (A) (A) (A) (A) (A) (A) (A) (A) (A) (A) (A)
                 (A) (A) (A) (A) (A) (A) (A) (A) (A) (A) (A) (A)
                 (A) (A) (A) (A) (A) (A) (A) (A) (A) (A) (A) (A)
                 (A) (A) (A) (A) (A) (A) (A) (A) (A) (A) (A) (A)
                 (A) (A) (A) (A) (A) (A) (A) (A) (A) (A) (A) (A)
                 (A) (A) (A) (A) (A) (A) (A) (A) (A) (A) (A) (A)
                 (A) (A) (A) (A) (A) (A) (A) (A) (A) (A) (A) (A)
                 (A) (A) (A) (A) (A) (A) (A) (A) (A) (A) (A) (A)
                 (A) (A) (A) (A) (A) (A) (A) (A) (A) (A) (A) (A)
                 (A) (A) (A) (A) (A) (A) (A) (A) (A) (A) (A) (A)
                 (A) (A) (A) (A) (A) (A) (A) (A) (A) (A) (A) (A)
 The electronic state is 1-A.
 Alpha  occ. eigenvalues --  -19.62699 -19.62677 -19.62383 -10.63168 -10.58851
 Alpha  occ. eigenvalues --  -10.58081 -10.57854 -10.57450 -10.53179 -10.52872
 Alpha  occ. eigenvalues --  -10.52820 -10.52782 -10.52657  -1.19672  -1.16534
 Alpha  occ. eigenvalues --   -1.13181  -0.90742  -0.89550  -0.87090  -0.84806
 Alpha  occ. eigenvalues --   -0.75436  -0.74577  -0.73254  -0.70906  -0.65294
 Alpha  occ. eigenvalues --   -0.61587  -0.61151  -0.58830  -0.57369  -0.56765
 Alpha  occ. eigenvalues --   -0.54120  -0.53088  -0.52676  -0.50852  -0.49410
 Alpha  occ. eigenvalues --   -0.47396  -0.46357  -0.45675  -0.45490  -0.45138
 Alpha  occ. eigenvalues --   -0.43913  -0.42368  -0.41950  -0.40529  -0.40052
 Alpha  occ. eigenvalues --   -0.38231  -0.37235  -0.36505  -0.33800  -0.32869
 Alpha  occ. eigenvalues --   -0.31678
 Alpha virt. eigenvalues --   -0.00189   0.00765   0.00909   0.01049   0.02270
 Alpha virt. eigenvalues --    0.02482   0.02613   0.03368   0.03432   0.04364
 Alpha virt. eigenvalues --    0.04492   0.04934   0.05581   0.05687   0.07131
 Alpha virt. eigenvalues --    0.07480   0.07828   0.08217   0.08577   0.09550
 Alpha virt. eigenvalues --    0.09769   0.10538   0.11023   0.11486   0.12135
 Alpha virt. eigenvalues --    0.12488   0.12773   0.13098   0.13251   0.13304
 Alpha virt. eigenvalues --    0.13956   0.14063   0.14512   0.14658   0.14809
 Alpha virt. eigenvalues --    0.15205   0.15279   0.15482   0.15663   0.15920
 Alpha virt. eigenvalues --    0.16547   0.17019   0.17339   0.17704   0.17796
 Alpha virt. eigenvalues --    0.17952   0.18352   0.18557   0.19046   0.19399
 Alpha virt. eigenvalues --    0.19525   0.20037   0.20565   0.21097   0.21643
 Alpha virt. eigenvalues --    0.22018   0.22247   0.23147   0.23661   0.24122
 Alpha virt. eigenvalues --    0.24670   0.25241   0.26018   0.26342   0.27319
 Alpha virt. eigenvalues --    0.27421   0.28116   0.28481   0.29202   0.29410
 Alpha virt. eigenvalues --    0.29906   0.30261   0.31609   0.31815   0.32496
 Alpha virt. eigenvalues --    0.32822   0.33437   0.33915   0.34201   0.34914
 Alpha virt. eigenvalues --    0.35038   0.35407   0.35987   0.36335   0.36535
 Alpha virt. eigenvalues --    0.36825   0.37416   0.37772   0.37981   0.38885
 Alpha virt. eigenvalues --    0.39254   0.39343   0.40077   0.40859   0.41705
 Alpha virt. eigenvalues --    0.41810   0.43486   0.43741   0.44662   0.44989
 Alpha virt. eigenvalues --    0.45858   0.46940   0.49666   0.50474   0.51497
 Alpha virt. eigenvalues --    0.52364   0.53597   0.53843   0.54763   0.56037
 Alpha virt. eigenvalues --    0.56652   0.56777   0.57503   0.58690   0.59550
 Alpha virt. eigenvalues --    0.59980   0.60217   0.60851   0.61333   0.61498
 Alpha virt. eigenvalues --    0.61903   0.62258   0.62973   0.63716   0.64013
 Alpha virt. eigenvalues --    0.64469   0.65173   0.66008   0.66547   0.67126
 Alpha virt. eigenvalues --    0.67908   0.68358   0.69263   0.69919   0.70916
 Alpha virt. eigenvalues --    0.71365   0.71579   0.72360   0.72549   0.73407
 Alpha virt. eigenvalues --    0.74093   0.74707   0.74977   0.75749   0.76143
 Alpha virt. eigenvalues --    0.76392   0.76489   0.77288   0.78401   0.78613
 Alpha virt. eigenvalues --    0.79950   0.80851   0.82584   0.84867   0.85678
 Alpha virt. eigenvalues --    0.86620   0.86868   0.87768   0.89307   0.90167
 Alpha virt. eigenvalues --    0.90623   0.91437   0.93628   0.93801   0.94769
 Alpha virt. eigenvalues --    0.98160   0.98783   0.99610   1.01804   1.02764
 Alpha virt. eigenvalues --    1.02985   1.04160   1.04718   1.05408   1.07010
 Alpha virt. eigenvalues --    1.07871   1.10106   1.11171   1.11697   1.13523
 Alpha virt. eigenvalues --    1.14636   1.14642   1.15999   1.16714   1.17479
 Alpha virt. eigenvalues --    1.17842   1.18223   1.19290   1.20166   1.20656
 Alpha virt. eigenvalues --    1.21094   1.22417   1.23091   1.23759   1.24795
 Alpha virt. eigenvalues --    1.25272   1.25797   1.26332   1.26998   1.27096
 Alpha virt. eigenvalues --    1.28564   1.29562   1.29890   1.30522   1.31799
 Alpha virt. eigenvalues --    1.32032   1.33247   1.34117   1.34699   1.35431
 Alpha virt. eigenvalues --    1.35829   1.36963   1.37269   1.38012   1.39468
 Alpha virt. eigenvalues --    1.39607   1.40269   1.40764   1.41680   1.42610
 Alpha virt. eigenvalues --    1.43250   1.43989   1.44698   1.45676   1.46112
 Alpha virt. eigenvalues --    1.46368   1.47192   1.47680   1.48479   1.48560
 Alpha virt. eigenvalues --    1.49148   1.49256   1.50147   1.51072   1.52758
 Alpha virt. eigenvalues --    1.53051   1.54349   1.54937   1.55636   1.56259
 Alpha virt. eigenvalues --    1.56783   1.57554   1.57829   1.58400   1.58771
 Alpha virt. eigenvalues --    1.59705   1.59762   1.60458   1.60897   1.62847
 Alpha virt. eigenvalues --    1.62950   1.63652   1.64298   1.65501   1.66575
 Alpha virt. eigenvalues --    1.67425   1.69121   1.69267   1.70853   1.71495
 Alpha virt. eigenvalues --    1.73445   1.73843   1.75940   1.76903   1.77283
 Alpha virt. eigenvalues --    1.78519   1.80302   1.80975   1.82816   1.83910
 Alpha virt. eigenvalues --    1.85685   1.86128   1.88377   1.95033   1.99995
 Alpha virt. eigenvalues --    2.01966   2.06459   2.11432   2.13501   2.18518
 Alpha virt. eigenvalues --    2.23669   2.28099   2.28498   2.34588   2.39630
 Alpha virt. eigenvalues --    2.42712   2.44476   2.45332   2.47043   2.55146
 Alpha virt. eigenvalues --    2.59203   2.76713   2.77945   2.80479   2.82684
 Alpha virt. eigenvalues --    2.83975   2.90078   2.91287   2.93041   2.93993
 Alpha virt. eigenvalues --    2.95380   2.97867   2.98234   3.02873   3.03670
 Alpha virt. eigenvalues --    3.05192   3.07149   3.09472   3.11826   3.12577
 Alpha virt. eigenvalues --    3.13056   3.15493   3.16594   3.19888   3.22112
 Alpha virt. eigenvalues --    3.24701   3.26964   3.31123   3.32107   3.33577
 Alpha virt. eigenvalues --    3.34846   3.36395   3.37219   3.38790   3.41234
 Alpha virt. eigenvalues --    3.41575   3.42203   3.44574   3.44894   3.45408
 Alpha virt. eigenvalues --    3.48031   3.48751   3.49788   3.51364   3.51872
 Alpha virt. eigenvalues --    3.53013   3.53251   3.53595   3.55340   3.56163
 Alpha virt. eigenvalues --    3.56748   3.57757   3.58303   3.58556   3.59034
 Alpha virt. eigenvalues --    3.59685   3.61027   3.62761   3.63701   3.64769
 Alpha virt. eigenvalues --    3.65823   3.67706   3.68642   3.69211   3.69637
 Alpha virt. eigenvalues --    3.70685   3.71460   3.72157   3.73493   3.74493
 Alpha virt. eigenvalues --    3.74610   3.75282   3.77061   3.77333   3.78464
 Alpha virt. eigenvalues --    3.80504   3.81292   3.82841   3.84066   3.86089
 Alpha virt. eigenvalues --    3.88215   3.89214   3.89576   3.90373   3.91525
 Alpha virt. eigenvalues --    3.92786   3.93906   3.94669   3.96826   3.98650
 Alpha virt. eigenvalues --    3.99999   4.01370   4.01830   4.02663   4.05015
 Alpha virt. eigenvalues --    4.05543   4.06485   4.06990   4.07805   4.07924
 Alpha virt. eigenvalues --    4.08703   4.10462   4.11020   4.11627   4.12270
 Alpha virt. eigenvalues --    4.12735   4.12970   4.14834   4.15476   4.15697
 Alpha virt. eigenvalues --    4.16905   4.17865   4.18620   4.19697   4.20034
 Alpha virt. eigenvalues --    4.22003   4.23766   4.25177   4.26704   4.27922
 Alpha virt. eigenvalues --    4.28175   4.30338   4.31029   4.32213   4.32912
 Alpha virt. eigenvalues --    4.33513   4.34068   4.34813   4.38449   4.39373
 Alpha virt. eigenvalues --    4.40384   4.42721   4.44403   4.46162   4.47814
 Alpha virt. eigenvalues --    4.58267   4.60106   4.72336   4.75516   4.82674
 Alpha virt. eigenvalues --    4.85644   4.93185   4.95427   5.01132   5.01992
 Alpha virt. eigenvalues --    5.05242   5.07133   5.07851   5.11734   5.12827
 Alpha virt. eigenvalues --    5.14017   5.14611   5.16681   5.34905   5.39827
 Alpha virt. eigenvalues --    5.41944   5.58832   5.61893   5.65575   5.85343
 Alpha virt. eigenvalues --    5.87854   6.01819   7.01251   7.05070   7.07288
 Alpha virt. eigenvalues --    7.08398   7.09909   7.13105   7.15691   7.19360
 Alpha virt. eigenvalues --    7.27638   7.36539   7.42322   7.46302   7.53489
 Alpha virt. eigenvalues --    7.54431   7.64921  23.96865  23.98057  24.05954
 Alpha virt. eigenvalues --   24.07326  24.10785  24.11735  24.12898  24.15839
 Alpha virt. eigenvalues --   24.18109  24.19737  50.17081  50.20083  50.26072
          Condensed to atoms (all electrons):
               1          2          3          4          5          6
     1  C    9.747680   0.124472   0.066542  -1.779577  -1.795761  -0.233039
     2  C    0.124472   5.477400  -0.014630  -0.148813  -0.077234  -0.007969
     3  O    0.066542  -0.014630   8.230077  -0.026216  -0.001765  -0.059594
     4  C   -1.779577  -0.148813  -0.026216   6.847687   0.738836   0.109163
     5  C   -1.795761  -0.077234  -0.001765   0.738836   6.600613   0.027806
     6  O   -0.233039  -0.007969  -0.059594   0.109163   0.027806   8.313209
     7  C    0.434497  -0.026522  -0.031441  -0.106663  -0.173836  -0.138179
     8  C    0.062429  -0.005842   0.002038   0.010562   0.006771  -0.028516
     9  C   -1.221897   0.034686   0.220115   0.131542   0.300904   0.399946
    10  C   -0.056764   0.003280  -0.066496  -0.007993   0.019217  -0.007545
    11  C    0.182571  -0.000983   0.094623  -0.024190  -0.039686  -0.016345
    12  C   -0.133517  -0.049335   0.003681  -0.077775  -0.010040   0.018633
    13  O    0.185898   0.072204   0.000981   0.044376  -0.100356  -0.012802
    14  H    0.637929   0.000739   0.004196  -0.099833  -0.090280  -0.071457
    15  H    0.101629   0.520773  -0.000225  -0.087869  -0.030704  -0.001818
    16  H   -0.052255   0.436431   0.001607   0.047276  -0.000086   0.001995
    17  H   -0.095906   0.006985   0.001192   0.426877   0.018687   0.005502
    18  H    0.094519   0.012290  -0.000641   0.398770  -0.053169  -0.011316
    19  H   -0.064063  -0.031130   0.002266  -0.006369   0.504987  -0.008788
    20  H   -0.010214  -0.003968   0.000962  -0.010978   0.405125  -0.000311
    21  H    0.016949   0.000332   0.008963  -0.003952  -0.006141  -0.004169
    22  H   -0.010032  -0.000191  -0.002960   0.013257   0.006281   0.010006
    23  H   -0.018765   0.000375   0.001888   0.007201   0.006016  -0.001176
    24  H    0.011348  -0.000198  -0.003336  -0.003634  -0.002893  -0.000313
    25  H   -0.065295   0.007346  -0.081672  -0.035462   0.028466  -0.019048
    26  H    0.003121   0.000214   0.010404  -0.000355  -0.000379  -0.000212
    27  H   -0.004434  -0.000153  -0.000796  -0.000316   0.001400  -0.000030
    28  H    0.000760   0.000719  -0.074076   0.001957   0.001533   0.001082
    29  H   -0.003972  -0.000049  -0.029486  -0.002912   0.003343   0.004807
    30  H   -0.068643  -0.074227  -0.000036   0.024539  -0.003156   0.004279
    31  H    0.013906  -0.025535   0.000665  -0.013733  -0.023256  -0.002739
               7          8          9         10         11         12
     1  C    0.434497   0.062429  -1.221897  -0.056764   0.182571  -0.133517
     2  C   -0.026522  -0.005842   0.034686   0.003280  -0.000983  -0.049335
     3  O   -0.031441   0.002038   0.220115  -0.066496   0.094623   0.003681
     4  C   -0.106663   0.010562   0.131542  -0.007993  -0.024190  -0.077775
     5  C   -0.173836   0.006771   0.300904   0.019217  -0.039686  -0.010040
     6  O   -0.138179  -0.028516   0.399946  -0.007545  -0.016345   0.018633
     7  C    6.970038  -0.008778  -1.325963  -0.200896   0.254274   0.012023
     8  C   -0.008778   5.728259  -0.239760   0.018277  -0.062297   0.008497
     9  C   -1.325963  -0.239760   7.694381   0.341114  -0.507300   0.047681
    10  C   -0.200896   0.018277   0.341114   5.737011  -0.097988   0.002473
    11  C    0.254274  -0.062297  -0.507300  -0.097988   5.539634  -0.021421
    12  C    0.012023   0.008497   0.047681   0.002473  -0.021421   5.782679
    13  O    0.016549  -0.002457  -0.015888   0.002467   0.001105   0.045207
    14  H    0.016818   0.006058  -0.068215  -0.005653   0.009870  -0.026127
    15  H    0.000195  -0.000437  -0.001013   0.000206   0.000427  -0.097728
    16  H    0.000844   0.001114  -0.000199  -0.000771   0.000279  -0.008962
    17  H   -0.012662  -0.005866   0.056735  -0.002358   0.004128  -0.002035
    18  H    0.004865   0.002331  -0.015143   0.000571  -0.000660  -0.021555
    19  H   -0.013079  -0.004059  -0.020002  -0.013648   0.019478  -0.011167
    20  H    0.003201   0.001739   0.004491   0.002681  -0.004402  -0.004553
    21  H    0.415555  -0.041184  -0.023217  -0.002810   0.003902   0.000291
    22  H    0.529051   0.001019  -0.153184  -0.020569   0.015271  -0.000401
    23  H   -0.052669   0.523064  -0.020559  -0.067146   0.000322   0.000175
    24  H   -0.041645   0.424380   0.004158  -0.022226   0.009056   0.000450
    25  H   -0.174436  -0.025847   0.586688   0.031610  -0.036688   0.004189
    26  H   -0.001810  -0.055627   0.008273   0.437585  -0.029879  -0.000002
    27  H   -0.009882  -0.016200  -0.007221   0.494850  -0.091449   0.000287
    28  H   -0.010745   0.008828   0.005888  -0.027709   0.435123   0.001059
    29  H    0.036853  -0.007965  -0.033849  -0.065633   0.478510  -0.002284
    30  H   -0.001870   0.000564  -0.004393  -0.000799   0.001113   0.493463
    31  H    0.000591  -0.000170   0.003398   0.001437  -0.000590   0.406894
              13         14         15         16         17         18
     1  C    0.185898   0.637929   0.101629  -0.052255  -0.095906   0.094519
     2  C    0.072204   0.000739   0.520773   0.436431   0.006985   0.012290
     3  O    0.000981   0.004196  -0.000225   0.001607   0.001192  -0.000641
     4  C    0.044376  -0.099833  -0.087869   0.047276   0.426877   0.398770
     5  C   -0.100356  -0.090280  -0.030704  -0.000086   0.018687  -0.053169
     6  O   -0.012802  -0.071457  -0.001818   0.001995   0.005502  -0.011316
     7  C    0.016549   0.016818   0.000195   0.000844  -0.012662   0.004865
     8  C   -0.002457   0.006058  -0.000437   0.001114  -0.005866   0.002331
     9  C   -0.015888  -0.068215  -0.001013  -0.000199   0.056735  -0.015143
    10  C    0.002467  -0.005653   0.000206  -0.000771  -0.002358   0.000571
    11  C    0.001105   0.009870   0.000427   0.000279   0.004128  -0.000660
    12  C    0.045207  -0.026127  -0.097728  -0.008962  -0.002035  -0.021555
    13  O    8.280926   0.003364  -0.067608  -0.073042  -0.051157  -0.048578
    14  H    0.003364   0.442149   0.001282   0.000303  -0.006810   0.001663
    15  H   -0.067608   0.001282   0.519955  -0.024825  -0.003978   0.008973
    16  H   -0.073042   0.000303  -0.024825   0.499635   0.001919  -0.004128
    17  H   -0.051157  -0.006810  -0.003978   0.001919   0.475169  -0.004662
    18  H   -0.048578   0.001663   0.008973  -0.004128  -0.004662   0.467727
    19  H   -0.007125   0.003830  -0.006496   0.005764   0.003748  -0.006279
    20  H    0.002095  -0.006165   0.002472  -0.002870  -0.000221   0.002476
    21  H    0.000108   0.001445   0.000085   0.000001  -0.001610   0.000204
    22  H   -0.000427  -0.000340  -0.000062   0.000006   0.000156   0.000344
    23  H   -0.000293  -0.000336  -0.000024   0.000030  -0.000528  -0.000048
    24  H    0.000069   0.000481   0.000006   0.000016  -0.000266   0.000056
    25  H   -0.008783  -0.007541   0.001267  -0.003116  -0.013049  -0.000950
    26  H   -0.000009  -0.000129   0.000009  -0.000011   0.000015   0.000007
    27  H    0.000027   0.000002  -0.000013   0.000010  -0.000255  -0.000032
    28  H   -0.000136   0.000307   0.000036  -0.000045  -0.000093   0.000020
    29  H    0.000002  -0.000241  -0.000067   0.000073   0.000319  -0.000075
    30  H    0.001267  -0.001186  -0.015131   0.007518   0.000457  -0.010246
    31  H    0.010862  -0.001596   0.003614  -0.012080   0.000943  -0.000270
              19         20         21         22         23         24
     1  C   -0.064063  -0.010214   0.016949  -0.010032  -0.018765   0.011348
     2  C   -0.031130  -0.003968   0.000332  -0.000191   0.000375  -0.000198
     3  O    0.002266   0.000962   0.008963  -0.002960   0.001888  -0.003336
     4  C   -0.006369  -0.010978  -0.003952   0.013257   0.007201  -0.003634
     5  C    0.504987   0.405125  -0.006141   0.006281   0.006016  -0.002893
     6  O   -0.008788  -0.000311  -0.004169   0.010006  -0.001176  -0.000313
     7  C   -0.013079   0.003201   0.415555   0.529051  -0.052669  -0.041645
     8  C   -0.004059   0.001739  -0.041184   0.001019   0.523064   0.424380
     9  C   -0.020002   0.004491  -0.023217  -0.153184  -0.020559   0.004158
    10  C   -0.013648   0.002681  -0.002810  -0.020569  -0.067146  -0.022226
    11  C    0.019478  -0.004402   0.003902   0.015271   0.000322   0.009056
    12  C   -0.011167  -0.004553   0.000291  -0.000401   0.000175   0.000450
    13  O   -0.007125   0.002095   0.000108  -0.000427  -0.000293   0.000069
    14  H    0.003830  -0.006165   0.001445  -0.000340  -0.000336   0.000481
    15  H   -0.006496   0.002472   0.000085  -0.000062  -0.000024   0.000006
    16  H    0.005764  -0.002870   0.000001   0.000006   0.000030   0.000016
    17  H    0.003748  -0.000221  -0.001610   0.000156  -0.000528  -0.000266
    18  H   -0.006279   0.002476   0.000204   0.000344  -0.000048   0.000056
    19  H    0.467667  -0.019728  -0.000230  -0.000252  -0.000277  -0.000174
    20  H   -0.019728   0.472763   0.000031  -0.000210  -0.000446   0.000176
    21  H   -0.000230   0.000031   0.476325  -0.004295  -0.001558  -0.008403
    22  H   -0.000252  -0.000210  -0.004295   0.457199   0.003133  -0.002886
    23  H   -0.000277  -0.000446  -0.001558   0.003133   0.458584  -0.006006
    24  H   -0.000174   0.000176  -0.008403  -0.002886  -0.006006   0.464076
    25  H   -0.000712   0.000714  -0.005923  -0.016419  -0.003483   0.001354
    26  H    0.000183  -0.000090   0.001546  -0.002724  -0.004618  -0.007912
    27  H   -0.000516   0.000156  -0.001098  -0.002222   0.001728  -0.000781
    28  H   -0.000488  -0.000672   0.001195   0.000110  -0.001736   0.001023
    29  H   -0.005387   0.000346  -0.000682  -0.000934  -0.002776  -0.000797
    30  H    0.004194  -0.005671  -0.000026  -0.000005   0.000076  -0.000023
    31  H   -0.002668  -0.008733  -0.000055   0.000057  -0.000057   0.000015
              25         26         27         28         29         30
     1  C   -0.065295   0.003121  -0.004434   0.000760  -0.003972  -0.068643
     2  C    0.007346   0.000214  -0.000153   0.000719  -0.000049  -0.074227
     3  O   -0.081672   0.010404  -0.000796  -0.074076  -0.029486  -0.000036
     4  C   -0.035462  -0.000355  -0.000316   0.001957  -0.002912   0.024539
     5  C    0.028466  -0.000379   0.001400   0.001533   0.003343  -0.003156
     6  O   -0.019048  -0.000212  -0.000030   0.001082   0.004807   0.004279
     7  C   -0.174436  -0.001810  -0.009882  -0.010745   0.036853  -0.001870
     8  C   -0.025847  -0.055627  -0.016200   0.008828  -0.007965   0.000564
     9  C    0.586688   0.008273  -0.007221   0.005888  -0.033849  -0.004393
    10  C    0.031610   0.437585   0.494850  -0.027709  -0.065633  -0.000799
    11  C   -0.036688  -0.029879  -0.091449   0.435123   0.478510   0.001113
    12  C    0.004189  -0.000002   0.000287   0.001059  -0.002284   0.493463
    13  O   -0.008783  -0.000009   0.000027  -0.000136   0.000002   0.001267
    14  H   -0.007541  -0.000129   0.000002   0.000307  -0.000241  -0.001186
    15  H    0.001267   0.000009  -0.000013   0.000036  -0.000067  -0.015131
    16  H   -0.003116  -0.000011   0.000010  -0.000045   0.000073   0.007518
    17  H   -0.013049   0.000015  -0.000255  -0.000093   0.000319   0.000457
    18  H   -0.000950   0.000007  -0.000032   0.000020  -0.000075  -0.010246
    19  H   -0.000712   0.000183  -0.000516  -0.000488  -0.005387   0.004194
    20  H    0.000714  -0.000090   0.000156  -0.000672   0.000346  -0.005671
    21  H   -0.005923   0.001546  -0.001098   0.001195  -0.000682  -0.000026
    22  H   -0.016419  -0.002724  -0.002222   0.000110  -0.000934  -0.000005
    23  H   -0.003483  -0.004618   0.001728  -0.001736  -0.002776   0.000076
    24  H    0.001354  -0.007912  -0.000781   0.001023  -0.000797  -0.000023
    25  H    0.494157   0.002138   0.000469   0.000965  -0.001643  -0.001179
    26  H    0.002138   0.489978  -0.012750  -0.008991   0.000414   0.000020
    27  H    0.000469  -0.012750   0.484212  -0.004992   0.003299  -0.000009
    28  H    0.000965  -0.008991  -0.004992   0.477012  -0.013780   0.000007
    29  H   -0.001643   0.000414   0.003299  -0.013780   0.499072  -0.000248
    30  H   -0.001179   0.000020  -0.000009   0.000007  -0.000248   0.473501
    31  H    0.000415  -0.000023   0.000005  -0.000038   0.000234  -0.011245
              31
     1  C    0.013906
     2  C   -0.025535
     3  O    0.000665
     4  C   -0.013733
     5  C   -0.023256
     6  O   -0.002739
     7  C    0.000591
     8  C   -0.000170
     9  C    0.003398
    10  C    0.001437
    11  C   -0.000590
    12  C    0.406894
    13  O    0.010862
    14  H   -0.001596
    15  H    0.003614
    16  H   -0.012080
    17  H    0.000943
    18  H   -0.000270
    19  H   -0.002668
    20  H   -0.008733
    21  H   -0.000055
    22  H    0.000057
    23  H   -0.000057
    24  H    0.000015
    25  H    0.000415
    26  H   -0.000023
    27  H    0.000005
    28  H   -0.000038
    29  H    0.000234
    30  H   -0.011245
    31  H    0.500698
 Mulliken charges:
               1
     1  C   -0.070114
     2  C   -0.231468
     3  O   -0.256830
     4  C   -0.365403
     5  C   -0.261241
     6  O   -0.271058
     7  C   -0.364275
     8  C   -0.300926
     9  C   -0.182196
    10  C   -0.425773
    11  C   -0.115806
    12  C   -0.360781
    13  O   -0.278847
    14  H    0.255475
    15  H    0.177068
    16  H    0.177572
    17  H    0.198627
    18  H    0.182940
    19  H    0.210519
    20  H    0.179805
    21  H    0.178422
    22  H    0.182225
    23  H    0.179911
    24  H    0.184830
    25  H    0.341469
    26  H    0.171613
    27  H    0.166702
    28  H    0.205877
    29  H    0.145511
    30  H    0.187097
    31  H    0.159056
 Sum of Mulliken charges =  -0.00000
 Mulliken charges with hydrogens summed into heavy atoms:
               1
     1  C    0.185361
     2  C    0.123172
     3  O   -0.256830
     4  C    0.016164
     5  C    0.129083
     6  O   -0.271058
     7  C   -0.003629
     8  C    0.063815
     9  C    0.159273
    10  C   -0.087458
    11  C    0.235583
    12  C   -0.014628
    13  O   -0.278847
 Electronic spatial extent (au):  <R**2>=           2823.6776
 Charge=             -0.0000 electrons
 Dipole moment (field-independent basis, Debye):
    X=             -0.5606    Y=              0.2246    Z=              2.0608  Tot=              2.1474
 Quadrupole moment (field-independent basis, Debye-Ang):
   XX=            -69.1117   YY=            -76.0054   ZZ=            -84.4900
   XY=             -1.5970   XZ=             -4.2258   YZ=             -0.1956
 Traceless Quadrupole moment (field-independent basis, Debye-Ang):
   XX=              7.4240   YY=              0.5303   ZZ=             -7.9543
   XY=             -1.5970   XZ=             -4.2258   YZ=             -0.1956
 Octapole moment (field-independent basis, Debye-Ang**2):
  XXX=            -10.2680  YYY=             -0.4818  ZZZ=              3.8555  XYY=              0.8717
  XXY=              9.3569  XXZ=              5.5890  XZZ=             -2.3530  YZZ=              1.9070
  YYZ=             -0.8786  XYZ=              8.4601
 Hexadecapole moment (field-independent basis, Debye-Ang**3):
 XXXX=          -2708.8196 YYYY=           -576.4440 ZZZZ=           -363.3529 XXXY=             -5.4786
 XXXZ=             -3.5914 YYYX=             12.6721 YYYZ=             -5.9548 ZZZX=             -5.5723
 ZZZY=             -2.9339 XXYY=           -552.2174 XXZZ=           -539.2838 YYZZ=           -159.0111
 XXYZ=            -17.0589 YYXZ=             -4.9862 ZZXY=             -4.9970
 N-N= 9.072859587981D+02 E-N=-3.256754580790D+03  KE= 6.153272513362D+02
 D1PCM: PCM CHGder 1st derivatives, ID1Alg=3 FixD1E=F DoIter=F DoCFld=F I1PDM=0.
 Calling FoFJK, ICntrl=      2127 FMM=F ISym2X=0 I1Cent= 0 IOpClX= 0 NMat=1 NMatS=1 NMatT=0.
 ***** Axes restored to original set *****
 -------------------------------------------------------------------
 Center     Atomic                   Forces (Hartrees/Bohr)
 Number     Number              X              Y              Z
 -------------------------------------------------------------------
      1        6          -0.001836152   -0.002781643   -0.004327123
      2        6          -0.003020397    0.000239015    0.005756889
      3        8           0.005173241   -0.003697371   -0.009965715
      4        6           0.002175487   -0.007626363    0.000662365
      5        6           0.003878449    0.002922883   -0.001353135
      6        8          -0.005451448    0.004887637    0.008625616
      7        6          -0.000258561   -0.001597390    0.002266826
      8        6           0.002321202   -0.001326955   -0.002866797
      9        6          -0.003705880   -0.005286655    0.005009567
     10        6           0.001792562    0.000584974    0.002033510
     11        6          -0.002479549    0.006216757    0.000538155
     12        6          -0.001526815    0.000187404   -0.001464607
     13        8          -0.005584299    0.001886653   -0.008716613
     14        1           0.001415025    0.000967487    0.005659316
     15        1           0.005126172    0.001747034    0.000908963
     16        1          -0.000477040   -0.003116869   -0.003578556
     17        1          -0.004030766    0.003700515   -0.001169354
     18        1           0.004228083    0.002489053    0.004091454
     19        1          -0.003478211   -0.000052067   -0.004456595
     20        1          -0.000830475   -0.001367652    0.002333944
     21        1           0.000803974    0.002538427    0.001767961
     22        1          -0.001138911    0.000143096   -0.003275899
     23        1           0.002067943   -0.000662635    0.002913447
     24        1          -0.002268933    0.001276611   -0.000076255
     25        1           0.005856042    0.003527508   -0.006115856
     26        1          -0.001976557   -0.001390832    0.001519717
     27        1          -0.000701942    0.000676129   -0.003195376
     28        1          -0.000419584   -0.003620812   -0.002546977
     29        1           0.001963811   -0.000687916    0.006111952
     30        1           0.001304633    0.001791451    0.002823062
     31        1           0.001078896   -0.002567474    0.000086117
 -------------------------------------------------------------------
 Cartesian Forces:  Max     0.009965715 RMS     0.003461527

 GradGradGradGradGradGradGradGradGradGradGradGradGradGradGradGradGradGrad
 Berny optimization.
 FormGI is forming the generalized inverse of G from B-inverse, IUseBI=4.
 Internal  Forces:  Max     0.018591108 RMS     0.002351739
 Search for a local minimum.
 Step number   1 out of a maximum of  186
 All quantities printed in internal units (Hartrees-Bohrs-Radians)
 Mixed Optimization -- RFO/linear search
 Second derivative matrix not updated -- first step.
 ITU=  0
     Eigenvalues ---    0.00409   0.00609   0.00622   0.00720   0.01413
     Eigenvalues ---    0.01414   0.01705   0.02703   0.02725   0.03074
     Eigenvalues ---    0.03266   0.03878   0.04089   0.04500   0.04746
     Eigenvalues ---    0.04757   0.04892   0.04918   0.05056   0.05140
     Eigenvalues ---    0.05281   0.05623   0.05687   0.05983   0.06171
     Eigenvalues ---    0.06230   0.06450   0.07035   0.07614   0.07738
     Eigenvalues ---    0.07845   0.07853   0.07959   0.08099   0.08230
     Eigenvalues ---    0.08820   0.09184   0.10325   0.11284   0.11595
     Eigenvalues ---    0.11697   0.11762   0.11794   0.12398   0.12765
     Eigenvalues ---    0.14656   0.15306   0.16478   0.18408   0.19091
     Eigenvalues ---    0.19971   0.21963   0.22517   0.25000   0.27093
     Eigenvalues ---    0.27646   0.28541   0.28619   0.28832   0.28923
     Eigenvalues ---    0.29263   0.30266   0.35091   0.35185   0.35193
     Eigenvalues ---    0.35230   0.35233   0.35287   0.35312   0.35358
     Eigenvalues ---    0.35419   0.35438   0.35440   0.35444   0.35637
     Eigenvalues ---    0.35739   0.35781   0.35831   0.35979   0.36348
     Eigenvalues ---    0.40113   0.40987   0.41627   0.41658   0.43156
     Eigenvalues ---    0.457931000.000001000.000001000.000001000.00000
     Eigenvalues --- 1000.000001000.000001000.000001000.000001000.00000
     Eigenvalues --- 1000.000001000.000001000.000001000.000001000.00000
     Eigenvalues --- 1000.000001000.000001000.000001000.000001000.00000
     Eigenvalues --- 1000.000001000.000001000.000001000.000001000.00000
     Eigenvalues --- 1000.000001000.000001000.000001000.000001000.00000
     Eigenvalues --- 1000.000001000.000001000.000001000.000001000.00000
     Eigenvalues --- 1000.000001000.000001000.000001000.000001000.00000
     Eigenvalues --- 1000.000001000.000001000.000001000.000001000.00000
     Eigenvalues --- 1000.000001000.000001000.000001000.000001000.00000
     Eigenvalues --- 1000.000001000.000001000.000001000.000001000.00000
     Eigenvalues --- 1000.000001000.000001000.000001000.000001000.00000
     Eigenvalues --- 1000.000001000.000001000.000001000.000001000.00000
     Eigenvalues --- 1000.000001000.000001000.000001000.000001000.00000
     Eigenvalues --- 1000.000001000.000001000.000001000.000001000.00000
     Eigenvalues --- 1000.000001000.000001000.000001000.000001000.00000
     Eigenvalues --- 1000.000001000.000001000.000001000.000001000.00000
     Eigenvalues --- 1000.000001000.000001000.000001000.000001000.00000
     Eigenvalues --- 1000.000001000.000001000.000001000.000001000.00000
     Eigenvalues --- 1000.000001000.000001000.000001000.000001000.00000
 RFO step:  Lambda=-4.71920518D-03 EMin= 4.09141676D-03
 Linear search not attempted -- first point.
 Iteration  1 RMS(Cart)=  0.09630142 RMS(Int)=  0.00158896
 Iteration  2 RMS(Cart)=  0.00468538 RMS(Int)=  0.00008263
 Iteration  3 RMS(Cart)=  0.00000658 RMS(Int)=  0.00008257
 Iteration  4 RMS(Cart)=  0.00000000 RMS(Int)=  0.00008257
 Iteration  1 RMS(Cart)=  0.00005135 RMS(Int)=  0.00001187
 Iteration  2 RMS(Cart)=  0.00002870 RMS(Int)=  0.00001326
 Iteration  3 RMS(Cart)=  0.00001604 RMS(Int)=  0.00001502
 Iteration  4 RMS(Cart)=  0.00000896 RMS(Int)=  0.00001621
 Iteration  5 RMS(Cart)=  0.00000501 RMS(Int)=  0.00001693
 Iteration  6 RMS(Cart)=  0.00000280 RMS(Int)=  0.00001734
 Iteration  7 RMS(Cart)=  0.00000156 RMS(Int)=  0.00001758
 Iteration  8 RMS(Cart)=  0.00000087 RMS(Int)=  0.00001771
 Variable       Old X    -DE/DX   Delta X   Delta X   Delta X     New X
                                 (Linear)    (Quad)   (Total)
    R1        2.89642  -0.00019   0.00000  -0.00086  -0.00077   2.89564
    R2        2.89525  -0.00101   0.00000  -0.00507  -0.00497   2.89028
    R3        2.69360  -0.00168   0.00000  -0.00399  -0.00399   2.68961
    R4        2.04491   0.00588   0.00000   0.01622   0.01622   2.06114
    R5        2.89747   0.00052   0.00000   0.00245   0.00237   2.89984
    R6        2.68558   0.00353   0.00000   0.00969   0.00962   2.69520
    R7        2.05211   0.00540   0.00000   0.01511   0.01511   2.06722
    R8        2.04425   0.00474   0.00000   0.01308   0.01308   2.05733
    R9        2.65656   0.00419   0.00000   0.00881   0.00882   2.66538
   R10        2.68443   0.00272   0.00000   0.00623   0.00624   2.69067
   R11        2.66511   0.00304   0.00000   0.00738   0.00735   2.67246
   R12        2.04114   0.00545   0.00000   0.01496   0.01496   2.05610
   R13        2.05097   0.00631   0.00000   0.01761   0.01761   2.06858
   R14        2.88770  -0.00030   0.00000  -0.00242  -0.00244   2.88526
   R15        2.04652   0.00518   0.00000   0.01433   0.01433   2.06086
   R16        2.04960   0.00281   0.00000   0.00782   0.00782   2.05742
   R17        2.64366   0.00186   0.00000   0.00402   0.00402   2.64768
   R18        2.89031  -0.00149   0.00000  -0.00485  -0.00486   2.88546
   R19        2.87699  -0.00049   0.00000  -0.00215  -0.00217   2.87482
   R20        2.04966   0.00317   0.00000   0.00884   0.00884   2.05850
   R21        2.05362   0.00341   0.00000   0.00955   0.00955   2.06318
   R22        2.88898  -0.00077   0.00000  -0.00186  -0.00188   2.88711
   R23        2.05375   0.00343   0.00000   0.00961   0.00961   2.06336
   R24        2.05171   0.00260   0.00000   0.00727   0.00727   2.05898
   R25        2.03541   0.00914   0.00000   0.02481   0.02481   2.06022
   R26        2.87200   0.00027   0.00000   0.00138   0.00141   2.87340
   R27        2.05299   0.00283   0.00000   0.00793   0.00793   2.06092
   R28        2.05528   0.00326   0.00000   0.00918   0.00918   2.06445
   R29        2.04347   0.00444   0.00000   0.01224   0.01224   2.05571
   R30        2.04999   0.00637   0.00000   0.01775   0.01775   2.06774
   R31        2.05303   0.00355   0.00000   0.00995   0.00995   2.06299
   R32        2.04970   0.00276   0.00000   0.00769   0.00769   2.05739
    A1        1.92248   0.00028   0.00000  -0.00816  -0.00855   1.91393
    A2        2.00676  -0.00175   0.00000  -0.01605  -0.01652   1.99024
    A3        1.86940   0.00050   0.00000   0.01650   0.01658   1.88598
    A4        1.96394  -0.00047   0.00000  -0.01692  -0.01733   1.94661
    A5        1.89861   0.00010   0.00000   0.00754   0.00768   1.90630
    A6        1.79317   0.00158   0.00000   0.02281   0.02302   1.81619
    A7        1.95411   0.00179   0.00000   0.00455   0.00440   1.95851
    A8        1.93766  -0.00095   0.00000  -0.00537  -0.00540   1.93226
    A9        1.93232  -0.00097   0.00000  -0.00563  -0.00556   1.92676
   A10        1.90311   0.00051   0.00000   0.00664   0.00675   1.90985
   A11        1.84208  -0.00097   0.00000  -0.00203  -0.00202   1.84006
   A12        1.89117   0.00059   0.00000   0.00215   0.00211   1.89328
   A13        2.02392  -0.00582   0.00000  -0.03742  -0.03731   1.98662
   A14        1.94681   0.00057   0.00000  -0.00086  -0.00098   1.94583
   A15        1.95250  -0.00142   0.00000  -0.01763  -0.01771   1.93479
   A16        1.90107  -0.00037   0.00000   0.00545   0.00540   1.90647
   A17        1.87788  -0.00081   0.00000  -0.00662  -0.00677   1.87111
   A18        1.90804   0.00163   0.00000   0.01835   0.01832   1.92635
   A19        1.87585   0.00046   0.00000   0.00212   0.00215   1.87800
   A20        1.90454  -0.00034   0.00000  -0.00408  -0.00409   1.90045
   A21        1.91591  -0.00078   0.00000  -0.01653  -0.01650   1.89941
   A22        1.91684  -0.00042   0.00000   0.00007   0.00008   1.91691
   A23        1.90719   0.00115   0.00000   0.00655   0.00647   1.91366
   A24        1.94307   0.00011   0.00000   0.00716   0.00713   1.95020
   A25        1.87608   0.00030   0.00000   0.00660   0.00652   1.88261
   A26        2.12103  -0.01859   0.00000  -0.07299  -0.07299   2.04804
   A27        1.95384  -0.00184   0.00000  -0.01619  -0.01631   1.93753
   A28        1.94693  -0.00027   0.00000  -0.00155  -0.00167   1.94526
   A29        1.90909   0.00126   0.00000   0.00768   0.00777   1.91687
   A30        1.90122   0.00081   0.00000  -0.00059  -0.00058   1.90065
   A31        1.87328   0.00015   0.00000   0.00465   0.00464   1.87792
   A32        1.87643  -0.00001   0.00000   0.00717   0.00714   1.88357
   A33        1.91375   0.00202   0.00000  -0.00093  -0.00093   1.91282
   A34        1.92220  -0.00104   0.00000  -0.00680  -0.00680   1.91540
   A35        1.91634  -0.00054   0.00000   0.00195   0.00193   1.91828
   A36        1.91427  -0.00088   0.00000  -0.00178  -0.00188   1.91240
   A37        1.93031  -0.00029   0.00000   0.00183   0.00190   1.93221
   A38        1.86655   0.00066   0.00000   0.00579   0.00580   1.87235
   A39        1.94954   0.00010   0.00000  -0.00379  -0.00363   1.94591
   A40        1.93403   0.00339   0.00000   0.01331   0.01309   1.94713
   A41        1.82640  -0.00238   0.00000  -0.01149  -0.01154   1.81487
   A42        1.89512  -0.00289   0.00000  -0.01378  -0.01368   1.88144
   A43        1.92956   0.00135   0.00000   0.00739   0.00739   1.93694
   A44        1.92907   0.00058   0.00000   0.00919   0.00925   1.93831
   A45        1.92303  -0.00094   0.00000  -0.00398  -0.00419   1.91884
   A46        1.93921  -0.00055   0.00000  -0.00210  -0.00207   1.93714
   A47        1.91581   0.00089   0.00000   0.00121   0.00129   1.91710
   A48        1.90377   0.00058   0.00000   0.00333   0.00338   1.90715
   A49        1.90546   0.00004   0.00000  -0.00154  -0.00147   1.90399
   A50        1.87569   0.00001   0.00000   0.00326   0.00323   1.87892
   A51        1.94446   0.00233   0.00000   0.00617   0.00614   1.95060
   A52        1.84302  -0.00132   0.00000  -0.00210  -0.00211   1.84091
   A53        1.91024  -0.00001   0.00000  -0.00018  -0.00012   1.91011
   A54        1.94529  -0.00027   0.00000  -0.00196  -0.00189   1.94340
   A55        1.93153  -0.00147   0.00000  -0.00604  -0.00609   1.92544
   A56        1.88639   0.00072   0.00000   0.00432   0.00431   1.89070
   A57        1.91381  -0.00077   0.00000  -0.00985  -0.00992   1.90389
   A58        1.92733   0.00095   0.00000   0.00385   0.00387   1.93120
   A59        1.90458  -0.00029   0.00000   0.00273   0.00273   1.90731
   A60        1.91513  -0.00045   0.00000  -0.00068  -0.00071   1.91443
   A61        1.93753   0.00069   0.00000   0.00227   0.00234   1.93988
   A62        1.86505  -0.00008   0.00000   0.00212   0.00210   1.86715
   A63        1.97807  -0.00432   0.00000  -0.02837  -0.02840   1.94968
    D1        0.49492   0.00118   0.00000   0.02197   0.02201   0.51694
    D2        2.59934  -0.00044   0.00000   0.00061   0.00069   2.60002
    D3       -1.61270  -0.00097   0.00000  -0.00401  -0.00398  -1.61668
    D4       -1.74605   0.00306   0.00000   0.06607   0.06601  -1.68004
    D5        0.35837   0.00143   0.00000   0.04471   0.04469   0.40305
    D6        2.42952   0.00090   0.00000   0.04009   0.04002   2.46953
[...]
 0257915,-0.00029041,0.00001073,0.00020636,0.00000189,0.00045924,-0.000
 39810,0.00058522,-0.00017222,-0.00011841,0.00009745,0.00008980,-0.0000
 9774,0.00003327,0.00002953,-0.00005709,-0.00001084,-0.00098045,-0.0012
 0223,0.00005764,0.00032487,-0.00047843,0.00014726,-0.00000433,0.000035
 24,-0.00003753,0.00002706,-0.00009154,-0.00000984,-0.00002390,0.000134
 67,0.00003716,0.00009928,-0.00039524,0.00062343,-0.00020999,-0.0000843
 7,0.00010769,0.00001384,0.00016433,-0.00007709,-0.09773912,-0.08626188
 ,0.16567282,0.00033287,-0.00001568,0.00010468,0.00005188,-0.00003605,-
 0.00001528,-0.00884450,0.00054253,0.00151286,0.00001232,0.00002316,-0.
 00002196,-0.00003081,0.00005048,0.00003293,-0.00039282,-0.00021309,-0.
 00062977,0.00119632,0.00041237,-0.00032158,-0.00006281,0.00014247,-0.0
 0120702,0.00067536,0.00233205,0.00138782,-0.13483009,-0.09650183,0.075
 67421,-0.01304653,-0.02230702,0.01517101,0.00000270,0.00001522,-0.0000
 2428,-0.00012058,-0.00002174,0.00001757,-0.00005384,-0.00000225,-0.000
 02810,-0.00001672,-0.00000004,0.00000268,-0.00000224,0.00000723,0.0000
 0485,0.00000951,0.00002496,0.00000269,-0.00003358,0.00000060,0.0000047
 3,0.00007183,-0.00008601,-0.00000261,-0.00002371,-0.00000288,-0.000034
 81,0.00020680,0.00010260,0.00018465,-0.00014081,-0.00014477,0.00021881
 ,0.00002213,-0.00013726,-0.00002231,0.00029620,-0.00020995,-0.00043103
 ,0.00006386,-0.00024932,-0.00010084,0.14468094,0.00015040,-0.00000209,
 -0.00000209,0.00001002,-0.00001511,-0.00000383,0.00428508,0.00112996,-
 0.00096807,0.00000126,-0.00000550,-0.00002628,-0.00003554,-0.00003369,
 0.00000382,-0.00031560,0.00020777,0.00005069,0.00080461,-0.00465130,-0
 .00469958,-0.01690756,-0.01814269,0.01566178,0.00107743,-0.00112999,-0
 .00044482,-0.09757869,-0.15801892,0.08852130,0.00549959,0.00860714,-0.
 00674647,0.00000088,0.00001891,0.00000161,-0.00002779,0.00002399,0.000
 01856,-0.00003195,0.00000331,-0.00001484,-0.00000495,0.00000094,0.0000
 0034,-0.00000146,0.00000258,0.00000180,0.00001131,0.00001078,-0.000000
 24,-0.00001713,-0.00000105,0.00000788,0.00001388,0.00000960,0.00000056
 ,0.00000393,0.00000635,0.00000447,-0.00157359,-0.00104874,0.00082536,0
 .00029378,0.00021095,-0.00005313,0.00004394,0.00134957,-0.00008982,0.0
 0058265,0.00094353,0.00056463,-0.00012040,0.00026478,0.00009726,0.1069
 3105,0.17236270,-0.00005850,-0.00000905,-0.00003134,-0.00001130,0.0000
 0449,0.00000666,0.00177338,0.00018863,0.00138645,-0.00000130,-0.000009
 92,0.00000325,0.00001394,-0.00003298,-0.00003260,0.00006652,0.00014564
 ,0.00016657,0.00026378,-0.00298878,-0.00124185,-0.01126731,-0.01149671
 ,0.00863379,0.00002924,-0.00073088,-0.00056780,0.07767847,0.08924897,-
 0.11703870,-0.00047848,0.00182863,-0.00296901,0.00000030,0.00000686,0.
 00001707,0.00002351,0.00001021,-0.00000450,0.00000807,0.00000286,0.000
 00469,0.00000400,0.00000121,-0.00000182,0.00000020,-0.00000158,-0.0000
 0157,0.00000112,-0.00000276,-0.00000189,0.00000474,0.00000129,0.,-0.00
 001944,0.00003024,0.00002423,0.00000285,0.00000073,0.00000815,-0.00046
 533,-0.00066081,0.00049777,-0.00009516,-0.00021974,0.00023474,-0.00011
 878,0.00084660,0.00082460,0.00021043,0.00089976,0.00038215,-0.00003092
 ,0.00011708,-0.00002136,-0.08475936,-0.09468390,0.12353677,0.00012229,
 0.00004443,0.00003168,0.00000305,0.00000225,-0.00001681,0.00333253,-0.
 00045128,0.00062144,0.00000507,0.00000334,-0.00001861,-0.00004451,0.00
 001296,0.00009638,0.00002601,-0.00024871,0.00009642,-0.00018220,0.0000
 7086,-0.00047265,-0.00037442,0.00013223,0.00039644,-0.00027527,0.00009
 473,-0.00016471,-0.08837140,0.01021979,-0.09145145,-0.01542999,0.00615
 855,-0.03063164,0.00000574,-0.00004088,-0.00003651,-0.00002332,-0.0000
 0677,0.00001919,-0.00000423,-0.00001088,-0.00001034,-0.00000587,-0.000
 00494,0.00000796,0.00000027,0.00000235,0.00000328,0.00000039,0.0000002
 5,0.00000256,-0.00001061,-0.00000161,0.00000364,0.00006538,-0.00001462
 ,-0.00008129,0.00001557,0.00000023,0.00003552,-0.00000034,-0.00003798,
 0.00009180,-0.00012275,-0.00023471,-0.00005035,0.00096247,0.00024677,-
 0.00000377,0.00035307,-0.00038577,0.00025016,-0.00003066,-0.00004778,-
 0.00002357,0.00806383,-0.00145287,0.01702834,0.09577275,-0.00008650,-0
 .00005854,0.00003726,-0.00000410,-0.00000070,0.00000924,-0.00106882,0.
 00097316,-0.00121981,-0.00001860,0.00000163,-0.00000251,0.00000701,-0.
 00000182,-0.00003388,0.00005672,0.00024809,0.00015462,0.00027561,0.001
 76625,-0.00059450,-0.01213643,0.00236796,-0.02875468,0.00001279,-0.000
 55259,-0.00026984,0.01135002,-0.05201311,0.02982076,0.00586112,-0.0040
 7813,0.01432047,-0.00000196,0.00002446,0.00001831,0.00001953,0.0000075
 6,-0.00000762,0.00001047,0.00000477,0.00000571,0.00000405,0.00000232,-
 0.00000427,0.00000007,-0.00000116,-0.00000198,0.00000158,-0.00000050,-
 0.00000182,0.00000309,-0.00000227,0.00000202,-0.00006169,0.00001262,0.
 00003725,-0.00000410,0.00000037,-0.00001815,0.00037535,0.00007881,0.00
 023011,0.00006417,-0.00018068,0.00056913,-0.00058334,-0.00506088,-0.00
 288143,0.00034409,0.00131561,0.00075104,-0.00005297,0.00008823,0.00004
 558,0.00909206,-0.00269091,0.01787688,-0.01590280,0.05750248,0.0001728
 4,-0.00004195,0.00006540,0.00001608,-0.00001639,-0.00000493,-0.0008391
 7,-0.00117349,0.00100233,-0.00000539,0.00000328,-0.00002137,0.00000113
 ,-0.00001419,-0.00001935,-0.00026976,-0.00001012,-0.00011814,0.0003984
 7,0.00086820,0.00069384,-0.00559918,0.00095994,-0.01620908,0.00004317,
 0.00006197,0.00011691,-0.09350597,0.03010873,-0.26350837,0.00231813,0.
 00026951,0.00269669,0.00000532,0.00001784,0.00000498,-0.00004232,0.000
 00672,0.00001804,-0.00002258,0.00000241,-0.00001318,-0.00000612,0.0000
 0065,0.00000052,-0.00000133,0.00000338,0.00000206,0.00000449,0.0000113
 3,0.00000014,-0.00001695,-0.00000178,0.00000596,0.00004176,-0.00000847
 ,0.00001829,-0.00000672,-0.00000066,-0.00000317,0.00016593,-0.00014982
 ,0.00026281,-0.00043936,-0.00033466,0.00044430,0.00016401,-0.00338679,
 -0.00015546,0.00039218,0.00011337,0.00052418,-0.00010903,0.00000732,-0
 .00003521,-0.00602122,0.00179291,-0.01405266,0.10271862,-0.02945115,0.
 28635200,0.00046875,-0.00000085,0.00011508,0.00003598,-0.00003728,-0.0
 0001368,-0.00383844,-0.02673239,-0.01029422,-0.00000511,-0.00003780,-0
 .00004029,-0.00006719,0.00000486,-0.00005701,-0.00022018,-0.00025876,-
 0.00036553,-0.00036939,-0.00059642,-0.00004544,-0.00658938,0.00108156,
 -0.00040620,-0.00222773,-0.00046673,0.00328325,0.00138038,0.02719568,0
 .01820782,-0.04856044,0.00837424,0.00249077,0.00000888,0.00003428,0.00
 001842,-0.00008510,0.00002410,0.00003161,-0.00006249,0.00000844,-0.000
 03060,-0.00001461,0.00000138,0.00000261,-0.00000534,0.00000793,0.00000
 691,-0.00000088,0.00005270,-0.00000870,-0.00004581,0.00001183,0.000007
 43,0.00010241,0.00001252,0.00004950,-0.00000566,-0.00000683,-0.0000011
 1,0.00029171,0.00001548,-0.00009148,0.00007482,0.00003837,-0.00006892,
 0.00001889,-0.00016141,0.00009903,0.00002424,0.00198258,0.00086431,-0.
 00001794,-0.00108878,-0.00036017,0.00092295,-0.00099919,-0.00009560,0.
 00146909,-0.00060227,-0.00051741,0.05637696,0.00048173,-0.00001691,0.0
 0008240,0.00006184,-0.00005823,-0.00001944,-0.00770021,-0.02881607,-0.
 00948369,0.00003230,-0.00003906,-0.00004387,-0.00009197,0.00000844,0.0
 0007352,-0.00032251,0.00034953,-0.00102652,-0.00028183,0.00022704,-0.0
 0014907,0.00257189,0.00075969,0.00029477,-0.00171263,0.00172037,0.0056
 1880,0.00123145,-0.00821657,-0.00698044,0.00391055,-0.22841047,-0.1230
 5277,-0.00000138,0.00002503,-0.00003462,-0.00014175,0.00001920,0.00003
 151,-0.00008840,0.00000969,-0.00003891,-0.00002201,0.00000407,0.000002
 04,-0.00000540,0.00001139,0.00000761,0.00000763,0.00006315,-0.00000788
 ,-0.00005248,0.00001840,0.00000572,-0.00006554,-0.00014847,-0.00008433
 ,-0.00001098,0.00000817,-0.00002350,0.00011931,-0.00006992,-0.00009067
 ,0.00000509,-0.00001668,0.00003665,-0.00004927,0.00000109,-0.00010846,
 -0.00015294,-0.00059041,-0.00035366,-0.00009772,-0.00118188,-0.0005122
 9,0.00041995,0.00013331,-0.00011810,-0.00045303,0.00026310,0.00034439,
 0.00250164,0.25683234,0.00027638,-0.00009242,0.00014227,-0.00000160,0.
 00000563,-0.00001263,0.00322901,0.02158371,0.01128001,-0.00007172,0.00
 005419,-0.00004448,-0.00007008,0.00006472,0.00000673,-0.00027235,-0.00
 084645,0.00106505,0.00024188,0.00025872,-0.00013897,0.00114376,0.00004
 947,0.00104905,0.00154570,0.00192997,-0.00302505,-0.00143934,-0.000316
 80,-0.00083489,-0.00131547,-0.13329452,-0.14103298,-0.00000119,-0.0000
 1725,-0.00000945,-0.00000692,-0.00000519,0.00003140,-0.00000064,-0.000
 00152,-0.00000954,-0.00000223,-0.00000640,0.00000607,-0.00000109,0.000
 00048,0.00000322,0.00001017,-0.00001518,0.00000604,-0.00001647,-0.0000
 2059,0.00001820,-0.00002549,-0.00003972,-0.00007952,0.00001872,-0.0000
 0781,0.00003916,-0.00013639,-0.00002855,0.00005700,0.00000183,-0.00001
 893,0.00002870,-0.00004421,0.00035781,0.00030109,-0.00002841,-0.000496
 67,0.00008282,0.00005729,0.00075803,0.00026042,0.00022890,-0.00008059,
 -0.00002009,0.00052256,0.00028442,0.00072390,-0.00491394,0.13325823,0.
 14461305,0.00022166,-0.00041340,-0.00001575,0.00003663,-0.00004961,0.0
 0004945,0.00546897,-0.01139614,0.02549881,-0.00004269,-0.00000925,0.00
 003434,-0.00018915,-0.00021819,-0.00028898,-0.00121923,-0.00084819,-0.
 00087790,-0.00016159,-0.00010857,-0.00003511,0.00121985,-0.00127072,-0
 .00061030,0.00114285,0.00190300,0.00135029,-0.01401374,0.00603737,-0.0
 2889330,-0.09131906,0.02175573,-0.09472675,-0.00004910,0.00010840,0.00
 007957,-0.00005209,0.00002986,0.00000216,-0.00004938,0.00005323,0.0000
 0042,0.00000159,0.00001950,-0.00002474,-0.00000414,0.00000275,-0.00000
 767,0.00001620,0.00002756,-0.00001584,-0.00000793,-0.00000111,0.000005
 03,-0.00019031,0.00000530,0.00047383,-0.00009104,0.00009190,-0.0001108
 1,0.00015255,0.00000853,-0.00007210,-0.00005097,-0.00005975,0.00003225
 ,0.00019627,0.00039599,0.00065323,0.00009614,-0.00026600,0.00032020,-0
 .00013463,-0.00000013,-0.00019255,0.00102585,-0.00063535,0.00027822,-0
 .00528964,0.00302786,0.00096751,0.00096323,-0.00005147,0.00109376,0.10
 223346,-0.00053857,-0.00012222,-0.00010325,0.00001028,-0.00001650,0.00
 002407,-0.00116436,-0.01312350,0.02744986,0.00007187,-0.00001060,0.000
 10541,0.00006945,0.00002854,-0.00000980,-0.00048146,0.00012407,-0.0016
 3062,-0.00013033,-0.00050665,-0.00019730,-0.00040583,0.00050918,0.0011
 9964,0.00174174,0.00208659,0.00434539,0.00677445,-0.00148508,0.0112422
 2,0.02066131,-0.06077954,0.03449416,0.00000119,0.00000894,0.00000173,-
 0.00002772,-0.00001812,-0.00004496,0.00002394,-0.00000941,0.00001650,0
 .00000327,0.00001053,-0.00001283,0.00000238,-0.00000285,-0.00000531,-0
 .00000446,0.00000837,-0.00000967,0.00003056,0.00002134,-0.00002627,-0.
 00007189,-0.00002629,0.00005352,-0.00003808,0.00002890,-0.00007155,0.0
 0010468,-0.00007941,-0.00007674,-0.00006425,0.00008340,-0.00004981,-0.
 00000520,-0.00010051,-0.00031291,-0.00012088,0.00013218,-0.00022701,-0
 .00012074,-0.00012223,-0.00036646,-0.00017012,0.00045274,-0.00025478,0
 .00230364,-0.00001517,0.00001690,-0.01035880,0.00710702,-0.02331809,-0
 .01813778,0.06581864,-0.00003032,0.00010124,0.00007724,-0.00003761,0.0
 0006148,-0.00003712,0.00530257,0.01638737,-0.01789900,-0.00003069,0.00
 002393,-0.00003445,-0.00014977,0.00000645,0.00019817,-0.00048512,-0.00
 193532,0.00218838,0.00021953,0.00027040,0.00040713,0.00036556,0.000290
 91,0.00085124,-0.00109407,-0.00386554,-0.00375071,0.00063733,-0.002089
 97,0.00369354,-0.09207750,0.04046680,-0.25275760,-0.00001435,-0.000160
 44,-0.00010293,0.00006409,-0.00001785,0.00004937,0.00008648,-0.0000513
 5,-0.00001380,-0.00000027,-0.00001874,0.00002092,0.00000189,-0.0000023
 8,0.00000344,0.00000230,-0.00003539,0.00000763,0.00000103,-0.00001641,
 0.00000815,0.00032991,0.00009942,-0.00025543,0.00001033,0.00003664,0.0
 0010742,-0.00015120,0.00011730,0.00008285,0.00001280,-0.00004783,-0.00
 003043,-0.00016328,0.00053362,-0.00006758,-0.00006238,0.00006671,0.000
 07290,0.00005160,0.00029155,0.00015873,-0.00093244,0.00025835,0.000260
 52,0.00102860,-0.00091683,0.00120715,-0.00786596,0.00236529,-0.0145103
 7,0.09504792,-0.05222365,0.28004643,0.00067951,-0.00119188,-0.00097084
 ,0.00181997,0.00304557,0.00750027,-0.00067935,0.00031798,-0.00017697,-
 0.00031273,-0.00053404,-0.00051910,-0.01991575,-0.01484610,-0.02522418
 ,0.00034087,0.00026782,0.00040324,0.00002293,0.00002999,0.00005797,-0.
 00000403,-0.00000729,-0.00001970,0.00017156,-0.00055339,-0.00011373,-0
 .00000403,-0.00001594,-0.00004183,0.00022259,0.00018311,0.00001419,-0.
 11765593,-0.05770513,-0.10081643,0.00025062,0.00041154,-0.00016904,-0.
 00019008,0.00051688,0.00037452,0.00096963,0.00064700,0.00015672,0.0006
 7009,-0.00091286,0.00185480,0.00015869,0.00008672,0.00019568,0.0004436
 7,0.00038874,-0.00009487,-0.00585934,0.00072561,0.00264664,0.00127348,
 -0.00014923,0.00038137,-0.00001619,0.00001728,0.00000761,0.00000779,-0
 .00000515,-0.00000271,0.00000317,-0.00000120,0.00000122,-0.00000936,0.
 00000938,0.00000483,-0.00000331,0.00002126,-0.00001237,-0.00001949,0.0
 0000096,0.00001129,-0.00002812,0.00001625,0.00000080,-0.00000233,-0.00
 001945,-0.00001424,0.00008304,0.00002190,-0.00007564,0.13180812,0.0008
 3597,0.00023966,0.00103410,0.00865444,0.00720010,0.01288657,-0.0001206
 3,-0.00008334,-0.00010265,0.00005861,-0.00086355,0.00021278,0.00039591
 ,0.00027372,0.00104450,-0.00052309,0.00011919,-0.00027151,-0.00001055,
 -0.00000205,-0.00003302,0.00000094,0.00000942,-0.00000616,0.00012540,0
 .00000058,0.00029778,-0.00000181,-0.00000285,0.00000369,0.00005308,0.0
 0004234,-0.00001682,-0.05868585,-0.10072288,-0.08528451,-0.00020099,0.
 00001562,0.00022845,-0.00034496,0.00022938,-0.00030717,0.00045276,0.00
 100765,-0.00070243,-0.00020024,-0.00033827,0.00249013,0.00003180,0.000
 14741,-0.00002124,0.00069832,-0.00125949,0.00037375,0.00044073,0.00093
 441,0.00050198,-0.00022620,-0.00003711,-0.00001721,-0.00000330,0.00000
 008,0.00000114,-0.00002107,0.00000530,-0.00000500,0.00000365,-0.000000
 57,-0.00000312,-0.00000963,-0.00000147,0.00000151,-0.00000548,0.000003
 40,-0.00001883,-0.00000714,-0.00000187,0.00000246,-0.00000358,0.000002
 38,-0.00000209,-0.00000805,-0.00000680,-0.00000224,0.00000854,0.000005
 67,-0.00000599,0.06528270,0.10642493,-0.00023069,-0.00010376,0.0010128
 8,-0.01235343,-0.01473001,-0.02223526,0.00006612,-0.00011278,-0.000008
 03,-0.00038058,-0.00117569,-0.00104146,0.00390331,0.00446490,0.0072738
 1,-0.00029790,0.00013005,-0.00009498,-0.00001039,-0.00000477,-0.000013
 45,0.00000101,0.00000408,0.00000012,0.00006715,0.00009767,0.00013003,-
 0.00000161,-0.00000163,0.00001147,-0.00000663,-0.00001122,-0.00001177,
 -0.09856828,-0.08303058,-0.18894522,-0.00029348,0.00185736,-0.00001113
 ,-0.00040614,0.00026006,-0.00025148,-0.00003799,-0.00001318,0.00168981
 ,0.00076783,0.00333160,-0.00386295,0.00016938,0.00016025,0.00022092,0.
 00045895,0.00030166,0.00042412,0.00205697,-0.00038001,0.00049321,-0.00
 080435,0.00021704,0.00040687,0.00000067,-0.00000239,-0.00000221,-0.000
 00759,0.00000129,-0.00000253,0.00000088,0.00000011,-0.00000092,-0.0000
 0181,-0.00000183,-0.00000029,0.00001428,-0.00000273,-0.00001429,0.0000
 0002,-0.00000053,-0.00000107,0.00000469,-0.00000286,-0.00000053,-0.000
 00377,0.00000226,0.00000135,-0.00000912,-0.00000092,0.00001390,0.10659
 853,0.09023437,0.20684682,-0.00444318,-0.00361488,0.00046073,0.0008583
 9,-0.00452551,-0.00124749,-0.00016863,-0.00032722,-0.00025338,-0.00065
 773,-0.00082254,0.00028662,-0.00995320,0.03294773,0.00330142,-0.002599
 48,0.00249179,-0.00039824,-0.00005276,-0.00004024,-0.00020384,0.000007
 55,0.00003462,-0.00001793,0.00045463,0.00020664,0.00130561,0.00000049,
 -0.00000471,0.00002254,0.00013770,0.00010010,-0.00004604,-0.07210343,0
 .07889878,0.00623591,0.00066274,-0.00022986,0.00013927,0.00008747,0.00
 031199,0.00026502,-0.00074723,0.00051001,-0.00010217,0.00083014,0.0000
 5276,-0.00017199,0.00008839,0.00007390,-0.00006179,0.00032851,0.000067
 27,0.00003064,0.00141117,-0.00032916,-0.00066282,0.00161972,-0.0004958
 4,0.00007188,0.00000692,-0.00001408,-0.00000338,-0.00009903,0.00001840
 ,-0.00001833,0.00001561,-0.00000074,-0.00001085,-0.00002833,-0.0000068
 0,0.00000514,-0.00000327,0.00002196,-0.00010525,-0.00001681,-0.0000087
 1,0.00000308,-0.00000421,0.00000172,-0.00000791,-0.00002027,-0.0000224
 2,-0.00000818,0.00000638,0.00001980,0.00000864,0.00577430,-0.01667030,
 -0.00069602,0.07860745,-0.00089339,0.00118854,0.00037471,0.00461016,-0
 .01236035,-0.00346804,0.00013611,0.00007397,0.00005183,-0.00057521,0.0
 0059352,0.00040532,-0.00086976,0.00267934,0.00029698,0.00006085,-0.000
 02629,0.00014011,0.00000389,0.00003505,0.00002513,0.00000771,-0.000015
 94,0.00000743,-0.00014050,-0.00005635,-0.00020251,-0.00000074,0.000004
 23,-0.00000090,-0.00005986,-0.00005145,0.00001099,0.08133819,-0.292194
 83,-0.02051228,-0.00011252,-0.00160968,0.00207033,-0.00000021,0.000103
 41,-0.00002941,-0.00037080,-0.00012457,0.00078233,0.00027809,0.0014680
 8,-0.00012527,0.00011761,-0.00000532,0.00006357,0.00025920,0.00007074,
 0.00007674,0.00043409,0.00018712,-0.00000050,0.00044389,0.00037485,-0.
 00024828,-0.00000018,-0.00000208,-0.00000269,0.00002175,-0.00000573,0.
 00000240,-0.00000335,0.00000116,0.00000298,0.00001243,0.00000278,-0.00
 000417,-0.00001636,0.00001839,-0.00001240,0.00000843,0.00000296,-0.000
 00253,0.00000583,-0.00000334,0.00000269,0.00000797,0.00001043,0.000003
 55,-0.00000986,-0.00000802,0.00001022,0.00395099,-0.01334099,-0.001487
 81,-0.08864445,0.31299037,0.00167046,0.00105801,0.00061319,-0.01075145
 ,0.02541439,0.00274485,0.00004973,0.00006197,0.00009166,0.00057549,-0.
 00128909,-0.00160515,0.00193256,-0.00797852,-0.00181685,0.00077469,-0.
 00077006,0.00027123,0.00001640,-0.00000013,0.00009263,-0.00000706,-0.0
 0000637,0.00000499,-0.00003822,-0.00004040,-0.00045175,-0.00000193,-0.
 00000221,-0.00000071,-0.00004282,-0.00002741,0.00000400,0.00709430,-0.
 02217169,-0.04852363,-0.00098368,0.00589783,-0.00506497,-0.00028630,0.
 00014881,-0.00005313,0.00122882,-0.00011158,-0.00027204,-0.00095045,0.
 00001628,0.00131376,0.00002262,0.00012456,0.00027645,0.00023979,0.0001
 6233,0.00028382,-0.00010139,0.00045524,0.00025470,-0.00043522,-0.00017
 267,0.00006946,-0.00000283,0.00000386,-0.00000033,0.00003546,-0.000008
 50,0.00000486,-0.00000518,0.00000020,0.00000347,0.00000686,0.00000042,
 -0.00000145,0.00003442,-0.00002053,0.00003856,0.00000419,0.00000288,-0
 .00000117,0.00000244,-0.00000147,0.00000196,0.00000329,0.00000504,0.00
 000244,-0.00000609,-0.00000745,0.00000430,0.00804197,-0.02251323,-0.00
 202774,-0.00812089,0.02176949,0.05374258\\0.00047492,0.00175107,-0.003
 05177,0.00001315,0.00000126,-0.00001354,-0.00000032,0.00000558,-0.0000
 0415,0.00000141,0.00001295,0.00001124,-0.00023017,-0.00038679,0.002200
 31,-0.00058413,-0.00393516,0.00074686,0.00001366,0.00000102,0.00000422
 ,-0.00000318,-0.00000024,-0.00000010,0.00033266,0.00257305,0.00011107,
 0.00000085,0.00000001,-0.00000266,-0.00000236,-0.00000720,-0.00000440,
 -0.00001003,-0.00000121,0.00001087,-0.00000848,-0.00001201,-0.00000468
 ,0.00000079,-0.00001059,0.00000347,-0.00000077,0.00000123,0.00001126,0
 .00000355,0.00000647,-0.00000104,0.00000730,0.00000049,0.00001089,0.00
 000523,-0.00000434,0.00000920,0.00000073,-0.00000309,-0.00000321,0.000
 00085,-0.00000451,-0.00000142,-0.00000287,0.00000360,0.00000444,-0.000
 00126,0.00000690,-0.00000066,-0.00000136,-0.00000197,-0.00000407,0.000
 00016,0.00000695,-0.00000168,-0.00000248,0.00000225,0.00000157,-0.0000
 0188,0.00000148,-0.00000931,0.00000010,0.00000708,-0.00000530,-0.00000
 113,0.00000097,-0.00000873,-0.00000230,0.00000104,-0.00000702,0.000002
 51,-0.00000850,0.00000028,-0.00000513,-0.00000779,-0.00000194\\\@


 FLOATING POINT NUMBERS ARE LIKE SANDPILES:
 EVERY TIME THAT YOU MOVE ONE, YOU LOSE A LITTLE SAND 
 AND YOU PICK UP A LITTLE DIRT.
 Job cpu time:       0 days 14 hours  5 minutes 31.9 seconds.
 Elapsed time:       0 days  0 hours 52 minutes 51.9 seconds.
 File lengths (MBytes):  RWF=    687 Int=      0 D2E=      0 Chk=     33 Scr=      1
 Normal termination of Gaussian 16 at Sun Nov  4 22:52:51 2018.
