 Entering Gaussian System, Link 0=g16
 Initial command:
 /apps/gaussian/g16a03/g16/l1.exe "/jobfs/local/2012026.r-man2/Gau-9363.inp" -scrdir="/jobfs/local/2012026.r-man2/"
 Entering Link 1 = /apps/gaussian/g16a03/g16/l1.exe PID=      9364.
  
 Copyright (c) 1988,1990,1992,1993,1995,1998,2003,2009,2016,
            Gaussian, Inc.  All Rights Reserved.
  
 This is part of the Gaussian(R) 16 program.  It is based on
 the Gaussian(R) 09 system (copyright 2009, Gaussian, Inc.),
 the Gaussian(R) 03 system (copyright 2003, Gaussian, Inc.),
 the Gaussian(R) 98 system (copyright 1998, Gaussian, Inc.),
 the Gaussian(R) 94 system (copyright 1995, Gaussian, Inc.),
 the Gaussian 92(TM) system (copyright 1992, Gaussian, Inc.),
 the Gaussian 90(TM) system (copyright 1990, Gaussian, Inc.),
 the Gaussian 88(TM) system (copyright 1988, Gaussian, Inc.),
 the Gaussian 86(TM) system (copyright 1986, Carnegie Mellon
 University), and the Gaussian 82(TM) system (copyright 1983,
 Carnegie Mellon University). Gaussian is a federally registered
 trademark of Gaussian, Inc.
  
 This software contains proprietary and confidential information,
 including trade secrets, belonging to Gaussian, Inc.
  
 This software is provided under written license and may be
 used, copied, transmitted, or stored only in accord with that
 written license.
  
 The following legend is applicable only to US Government
 contracts under FAR:
  
                    RESTRICTED RIGHTS LEGEND
  
 Use, reproduction and disclosure by the US Government is
 subject to restrictions as set forth in subparagraphs (a)
 and (c) of the Commercial Computer Software - Restricted
 Rights clause in FAR 52.227-19.
  
 Gaussian, Inc.
 340 Quinnipiac St., Bldg. 40, Wallingford CT 06492
  
  
 ---------------------------------------------------------------
 Warning -- This program may not be used in any manner that
 competes with the business of Gaussian, Inc. or will provide
 assistance to any competitor of Gaussian, Inc.  The licensee
 of this program is prohibited from giving any competitor of
 Gaussian, Inc. access to this program.  By using this program,
 the user acknowledges that Gaussian, Inc. is engaged in the
 business of creating and licensing software in the field of
 computational chemistry and represents and warrants to the
 licensee that it is not a competitor of Gaussian, Inc. and that
 it will not use this program in any manner prohibited above.
 ---------------------------------------------------------------
  

 Cite this work as:
 Gaussian 16, Revision A.03,
 M. J. Frisch, G. W. Trucks, H. B. Schlegel, G. E. Scuseria, 
 M. A. Robb, J. R. Cheeseman, G. Scalmani, V. Barone, 
 G. A. Petersson, H. Nakatsuji, X. Li, M. Caricato, A. V. Marenich, 
 J. Bloino, B. G. Janesko, R. Gomperts, B. Mennucci, H. P. Hratchian, 
 J. V. Ortiz, A. F. Izmaylov, J. L. Sonnenberg, D. Williams-Young, 
 F. Ding, F. Lipparini, F. Egidi, J. Goings, B. Peng, A. Petrone, 
 T. Henderson, D. Ranasinghe, V. G. Zakrzewski, J. Gao, N. Rega, 
 G. Zheng, W. Liang, M. Hada, M. Ehara, K. Toyota, R. Fukuda, 
 J. Hasegawa, M. Ishida, T. Nakajima, Y. Honda, O. Kitao, H. Nakai, 
 T. Vreven, K. Throssell, J. A. Montgomery, Jr., J. E. Peralta, 
 F. Ogliaro, M. J. Bearpark, J. J. Heyd, E. N. Brothers, K. N. Kudin, 
 V. N. Staroverov, T. A. Keith, R. Kobayashi, J. Normand, 
 K. Raghavachari, A. P. Rendell, J. C. Burant, S. S. Iyengar, 
 J. Tomasi, M. Cossi, J. M. Millam, M. Klene, C. Adamo, R. Cammi, 
 J. W. Ochterski, R. L. Martin, K. Morokuma, O. Farkas, 
 J. B. Foresman, and D. J. Fox, Gaussian, Inc., Wallingford CT, 2016.
 
 ******************************************
 Gaussian 16:  ES64L-G16RevA.03 25-Dec-2016
                 4-Nov-2018 
 ******************************************
 %mem=6000mb
 %nproc=24
 Will use up to   24 processors via shared memory.
 %chk=D_a1-4_2SO_PSI.inp_extract_24.chk
 ----------------------------------------------------------------------
 #M062X/6-311++G(2d,2p) opt=ModRedundant freq=noraman SCRF=(Solvent=Wat
 er)
 ----------------------------------------------------------------------
 1/18=120,19=15,26=3,38=1/1,3;
 2/9=110,12=2,17=6,18=5,40=1/2;
 3/5=4,6=6,7=1212,11=2,25=1,30=1,70=2201,71=1,72=1,74=-55/1,2,3;
 4//1;
 5/5=2,38=5,53=1/2;
 6/7=2,8=2,9=2,10=2,28=1/1;
 7//1,2,3,16;
 1/18=20,19=15,26=3/3(2);
 2/9=110/2;
 99//99;
 2/9=110/2;
 3/5=4,6=6,7=1212,11=2,25=1,30=1,70=2205,71=1,72=1,74=-55/1,2,3;
 4/5=5,16=3,69=1/1;
 5/5=2,38=5,53=1/2;
 7//1,2,3,16;
 1/18=20,19=15,26=3/3(-5);
 2/9=110/2;
 6/7=2,8=2,9=2,10=2,19=2,28=1/1;
 99/9=1/99;
 -----------------------------
 D_a1-4_2SO_PSI.inp_extract_24
 -----------------------------
 Symbolic Z-matrix:
 Charge =  0 Multiplicity = 1
 C                     0.99703  -0.01138   0.47803 
 C                     3.7869    0.323    -0.46998 
 O                    -1.81536  -0.30776   1.29142 
 C                     1.71271   1.29201   0.12506 
 C                     1.93457  -1.20261   0.23903 
 O                    -0.17259  -0.11065  -0.32328 
 C                    -2.21188  -1.15464  -0.93757 
 C                    -3.00239   0.10868  -1.28235 
 C                    -1.20661  -0.90702   0.17629 
 C                    -3.60142   0.70517  -0.00852 
 C                    -2.51879   0.90161   1.03949 
 C                     3.37875  -0.78293   0.50894 
 O                     2.66965   1.09211  -0.89169 
 H                     0.70175   0.03674   1.51872 
 H                     4.52607   0.98383  -0.02695 
 H                     4.20613  -0.10041  -1.37293 
 H                     1.00619   2.02262  -0.24119 
 H                     2.19917   1.70042   1.00556 
 H                     1.83636  -1.51919  -0.79511 
 H                     1.65443  -2.04345   0.86338 
 H                    -1.68843  -1.54582  -1.80329 
 H                    -2.8947   -1.92624  -0.59266 
 H                    -2.35242   0.83842  -1.75755 
 H                    -3.78477  -0.13079  -1.99596 
 H                    -0.80689  -1.83972   0.54787 
 H                    -4.07697   1.66078  -0.21047 
 H                    -4.36413   0.03824   0.38689 
 H                    -2.93789   1.19678   1.99152 
 H                    -1.8171    1.66785   0.72744 
 H                     3.47229  -0.43653   1.53421 
 H                     4.05402  -1.62446   0.39847 
 
 The following ModRedundant input section has been read:
 D       5       1       6       9 F                                           
 

 GradGradGradGradGradGradGradGradGradGradGradGradGradGradGradGradGradGrad
 Berny optimization.
 Initialization pass.
                           ----------------------------
                           !    Initial Parameters    !
                           ! (Angstroms and Degrees)  !
 --------------------------                            --------------------------
 ! Name  Definition              Value          Derivative Info.                !
 --------------------------------------------------------------------------------
 ! R1    R(1,4)                  1.5283         estimate D2E/DX2                !
 ! R2    R(1,5)                  1.5346         estimate D2E/DX2                !
 ! R3    R(1,6)                  1.4213         estimate D2E/DX2                !
 ! R4    R(1,14)                 1.0828         estimate D2E/DX2                !
 ! R5    R(2,12)                 1.5323         estimate D2E/DX2                !
 ! R6    R(2,13)                 1.4204         estimate D2E/DX2                !
 ! R7    R(2,15)                 1.086          estimate D2E/DX2                !
 ! R8    R(2,16)                 1.0818         estimate D2E/DX2                !
 ! R9    R(3,9)                  1.4047         estimate D2E/DX2                !
 ! R10   R(3,11)                 1.4216         estimate D2E/DX2                !
 ! R11   R(4,13)                 1.4105         estimate D2E/DX2                !
 ! R12   R(4,17)                 1.0803         estimate D2E/DX2                !
 ! R13   R(4,18)                 1.0857         estimate D2E/DX2                !
 ! R14   R(5,12)                 1.5279         estimate D2E/DX2                !
 ! R15   R(5,19)                 1.086          estimate D2E/DX2                !
 ! R16   R(5,20)                 1.0841         estimate D2E/DX2                !
 ! R17   R(6,9)                  1.3975         estimate D2E/DX2                !
 ! R18   R(7,8)                  1.5296         estimate D2E/DX2                !
 ! R19   R(7,9)                  1.5207         estimate D2E/DX2                !
 ! R20   R(7,21)                 1.0847         estimate D2E/DX2                !
 ! R21   R(7,22)                 1.0865         estimate D2E/DX2                !
 ! R22   R(8,10)                 1.5288         estimate D2E/DX2                !
 ! R23   R(8,23)                 1.0866         estimate D2E/DX2                !
 ! R24   R(8,24)                 1.0857         estimate D2E/DX2                !
 ! R25   R(9,25)                 1.0806         estimate D2E/DX2                !
 ! R26   R(10,11)                1.5195         estimate D2E/DX2                !
 ! R27   R(10,26)                1.0863         estimate D2E/DX2                !
 ! R28   R(10,27)                1.0876         estimate D2E/DX2                !
 ! R29   R(11,28)                1.0813         estimate D2E/DX2                !
 ! R30   R(11,29)                1.0848         estimate D2E/DX2                !
 ! R31   R(12,30)                1.0862         estimate D2E/DX2                !
 ! R32   R(12,31)                1.0846         estimate D2E/DX2                !
 ! A1    A(4,1,5)              109.8738         estimate D2E/DX2                !
 ! A2    A(4,1,6)              108.345          estimate D2E/DX2                !
 ! A3    A(4,1,14)             108.1664         estimate D2E/DX2                !
 ! A4    A(5,1,6)              111.1448         estimate D2E/DX2                !
 ! A5    A(5,1,14)             110.5339         estimate D2E/DX2                !
 ! A6    A(6,1,14)             108.6958         estimate D2E/DX2                !
 ! A7    A(12,2,13)            111.7743         estimate D2E/DX2                !
 ! A8    A(12,2,15)            111.0924         estimate D2E/DX2                !
 ! A9    A(12,2,16)            110.7302         estimate D2E/DX2                !
 ! A10   A(13,2,15)            109.0871         estimate D2E/DX2                !
 ! A11   A(13,2,16)            105.5999         estimate D2E/DX2                !
 ! A12   A(15,2,16)            108.3547         estimate D2E/DX2                !
 ! A13   A(9,3,11)             115.8922         estimate D2E/DX2                !
 ! A14   A(1,4,13)             111.3048         estimate D2E/DX2                !
 ! A15   A(1,4,17)             110.4148         estimate D2E/DX2                !
 ! A16   A(1,4,18)             110.0802         estimate D2E/DX2                !
 ! A17   A(13,4,17)            107.1678         estimate D2E/DX2                !
 ! A18   A(13,4,18)            109.5082         estimate D2E/DX2                !
 ! A19   A(17,4,18)            108.2741         estimate D2E/DX2                !
 ! A20   A(1,5,12)             109.6758         estimate D2E/DX2                !
 ! A21   A(1,5,19)             108.6233         estimate D2E/DX2                !
 ! A22   A(1,5,20)             110.7619         estimate D2E/DX2                !
 ! A23   A(12,5,19)            109.498          estimate D2E/DX2                !
 ! A24   A(12,5,20)            110.8265         estimate D2E/DX2                !
 ! A25   A(19,5,20)            107.3949         estimate D2E/DX2                !
 ! A26   A(1,6,9)              116.5627         estimate D2E/DX2                !
 ! A27   A(8,7,9)              111.8539         estimate D2E/DX2                !
 ! A28   A(8,7,21)             111.5531         estimate D2E/DX2                !
 ! A29   A(8,7,22)             109.468          estimate D2E/DX2                !
 ! A30   A(9,7,21)             108.9245         estimate D2E/DX2                !
 ! A31   A(9,7,22)             107.3708         estimate D2E/DX2                !
 ! A32   A(21,7,22)            107.489          estimate D2E/DX2                !
 ! A33   A(7,8,10)             109.6899         estimate D2E/DX2                !
 ! A34   A(7,8,23)             110.1259         estimate D2E/DX2                !
 ! A35   A(7,8,24)             109.7799         estimate D2E/DX2                !
 ! A36   A(10,8,23)            109.6779         estimate D2E/DX2                !
 ! A37   A(10,8,24)            110.5706         estimate D2E/DX2                !
 ! A38   A(23,8,24)            106.9609         estimate D2E/DX2                !
 ! A39   A(3,9,6)              111.182          estimate D2E/DX2                !
 ! A40   A(3,9,7)              111.3742         estimate D2E/DX2                !
 ! A41   A(3,9,25)             104.805          estimate D2E/DX2                !
 ! A42   A(6,9,7)              108.6677         estimate D2E/DX2                !
 ! A43   A(6,9,25)             109.9422         estimate D2E/DX2                !
 ! A44   A(7,9,25)             110.8446         estimate D2E/DX2                !
 ! A45   A(8,10,11)            110.2388         estimate D2E/DX2                !
 ! A46   A(8,10,26)            111.0905         estimate D2E/DX2                !
 ! A47   A(8,10,27)            109.7826         estimate D2E/DX2                !
 ! A48   A(11,10,26)           109.0495         estimate D2E/DX2                !
 ! A49   A(11,10,27)           109.1578         estimate D2E/DX2                !
 ! A50   A(26,10,27)           107.4585         estimate D2E/DX2                !
 ! A51   A(3,11,10)            111.3948         estimate D2E/DX2                !
 ! A52   A(3,11,28)            105.5453         estimate D2E/DX2                !
 ! A53   A(3,11,29)            109.378          estimate D2E/DX2                !
 ! A54   A(10,11,28)           111.4933         estimate D2E/DX2                !
 ! A55   A(10,11,29)           110.7175         estimate D2E/DX2                !
 ! A56   A(28,11,29)           108.1293         estimate D2E/DX2                !
 ! A57   A(2,12,5)             109.7035         estimate D2E/DX2                !
 ! A58   A(2,12,30)            110.481          estimate D2E/DX2                !
 ! A59   A(2,12,31)            109.2129         estimate D2E/DX2                !
 ! A60   A(5,12,30)            109.6166         estimate D2E/DX2                !
 ! A61   A(5,12,31)            110.9376         estimate D2E/DX2                !
 ! A62   A(30,12,31)           106.8548         estimate D2E/DX2                !
 ! A63   A(2,13,4)             113.351          estimate D2E/DX2                !
 ! D1    D(5,1,4,13)            29.8067         estimate D2E/DX2                !
 ! D2    D(5,1,4,17)           148.7014         estimate D2E/DX2                !
 ! D3    D(5,1,4,18)           -91.8074         estimate D2E/DX2                !
 ! D4    D(6,1,4,13)           -91.7923         estimate D2E/DX2                !
 ! D5    D(6,1,4,17)            27.1024         estimate D2E/DX2                !
 ! D6    D(6,1,4,18)           146.5936         estimate D2E/DX2                !
 ! D7    D(14,1,4,13)          150.5473         estimate D2E/DX2                !
 ! D8    D(14,1,4,17)          -90.5579         estimate D2E/DX2                !
 ! D9    D(14,1,4,18)           28.9332         estimate D2E/DX2                !
 ! D10   D(4,1,5,12)            32.0538         estimate D2E/DX2                !
 ! D11   D(4,1,5,19)           -87.5866         estimate D2E/DX2                !
 ! D12   D(4,1,5,20)           154.6943         estimate D2E/DX2                !
 ! D13   D(6,1,5,12)           151.9637         estimate D2E/DX2                !
 ! D14   D(6,1,5,19)            32.3233         estimate D2E/DX2                !
 ! D15   D(6,1,5,20)           -85.3958         estimate D2E/DX2                !
 ! D16   D(14,1,5,12)          -87.2479         estimate D2E/DX2                !
 ! D17   D(14,1,5,19)          153.1117         estimate D2E/DX2                !
 ! D18   D(14,1,5,20)           35.3926         estimate D2E/DX2                !
 ! D19   D(4,1,6,9)           -155.7904         estimate D2E/DX2                !
 ! D20   D(5,1,6,9)             83.3955         Frozen                          !
 ! D21   D(14,1,6,9)           -38.4691         estimate D2E/DX2                !
 ! D22   D(13,2,12,5)           27.9611         estimate D2E/DX2                !
 ! D23   D(13,2,12,30)         -92.9981         estimate D2E/DX2                !
 ! D24   D(13,2,12,31)         149.7482         estimate D2E/DX2                !
 ! D25   D(15,2,12,5)          150.0672         estimate D2E/DX2                !
 ! D26   D(15,2,12,30)          29.108          estimate D2E/DX2                !
 ! D27   D(15,2,12,31)         -88.1456         estimate D2E/DX2                !
 ! D28   D(16,2,12,5)          -89.478          estimate D2E/DX2                !
 ! D29   D(16,2,12,30)         149.5628         estimate D2E/DX2                !
 ! D30   D(16,2,12,31)          32.3091         estimate D2E/DX2                !
 ! D31   D(12,2,13,4)           36.4304         estimate D2E/DX2                !
 ! D32   D(15,2,13,4)          -86.8192         estimate D2E/DX2                !
 ! D33   D(16,2,13,4)          156.9125         estimate D2E/DX2                !
 ! D34   D(11,3,9,6)            66.1036         estimate D2E/DX2                !
 ! D35   D(11,3,9,7)           -55.2481         estimate D2E/DX2                !
 ! D36   D(11,3,9,25)         -175.1609         estimate D2E/DX2                !
 ! D37   D(9,3,11,10)           57.2442         estimate D2E/DX2                !
 ! D38   D(9,3,11,28)          178.4047         estimate D2E/DX2                !
 ! D39   D(9,3,11,29)          -65.4777         estimate D2E/DX2                !
 ! D40   D(1,4,13,2)           -69.0362         estimate D2E/DX2                !
 ! D41   D(17,4,13,2)          170.1441         estimate D2E/DX2                !
 ! D42   D(18,4,13,2)           52.9102         estimate D2E/DX2                !
 ! D43   D(1,5,12,2)           -62.3396         estimate D2E/DX2                !
 ! D44   D(1,5,12,30)           59.1401         estimate D2E/DX2                !
 ! D45   D(1,5,12,31)          176.9113         estimate D2E/DX2                !
 ! D46   D(19,5,12,2)           56.7638         estimate D2E/DX2                !
 ! D47   D(19,5,12,30)         178.2435         estimate D2E/DX2                !
 ! D48   D(19,5,12,31)         -63.9852         estimate D2E/DX2                !
 ! D49   D(20,5,12,2)          175.0582         estimate D2E/DX2                !
 ! D50   D(20,5,12,30)         -63.4621         estimate D2E/DX2                !
 ! D51   D(20,5,12,31)          54.3091         estimate D2E/DX2                !
 ! D52   D(1,6,9,3)             70.2141         estimate D2E/DX2                !
 ! D53   D(1,6,9,7)           -166.864          estimate D2E/DX2                !
 ! D54   D(1,6,9,25)           -45.3884         estimate D2E/DX2                !
 ! D55   D(9,7,8,10)           -51.815          estimate D2E/DX2                !
 ! D56   D(9,7,8,23)            68.9849         estimate D2E/DX2                !
 ! D57   D(9,7,8,24)          -173.5016         estimate D2E/DX2                !
 ! D58   D(21,7,8,10)         -174.099          estimate D2E/DX2                !
 ! D59   D(21,7,8,23)          -53.2991         estimate D2E/DX2                !
 ! D60   D(21,7,8,24)           64.2144         estimate D2E/DX2                !
 ! D61   D(22,7,8,10)           67.0632         estimate D2E/DX2                !
 ! D62   D(22,7,8,23)         -172.1369         estimate D2E/DX2                !
 ! D63   D(22,7,8,24)          -54.6234         estimate D2E/DX2                !
 ! D64   D(8,7,9,3)             51.9233         estimate D2E/DX2                !
 ! D65   D(8,7,9,6)            -70.8827         estimate D2E/DX2                !
 ! D66   D(8,7,9,25)           168.1957         estimate D2E/DX2                !
 ! D67   D(21,7,9,3)           175.6981         estimate D2E/DX2                !
 ! D68   D(21,7,9,6)            52.8922         estimate D2E/DX2                !
 ! D69   D(21,7,9,25)          -68.0294         estimate D2E/DX2                !
 ! D70   D(22,7,9,3)           -68.1897         estimate D2E/DX2                !
 ! D71   D(22,7,9,6)           169.0043         estimate D2E/DX2                !
 ! D72   D(22,7,9,25)           48.0827         estimate D2E/DX2                !
 ! D73   D(7,8,10,11)           52.8537         estimate D2E/DX2                !
 ! D74   D(7,8,10,26)          173.8534         estimate D2E/DX2                !
 ! D75   D(7,8,10,27)          -67.4322         estimate D2E/DX2                !
 ! D76   D(23,8,10,11)         -68.2168         estimate D2E/DX2                !
 ! D77   D(23,8,10,26)          52.783          estimate D2E/DX2                !
 ! D78   D(23,8,10,27)         171.4973         estimate D2E/DX2                !
 ! D79   D(24,8,10,11)         174.0652         estimate D2E/DX2                !
 ! D80   D(24,8,10,26)         -64.935          estimate D2E/DX2                !
 ! D81   D(24,8,10,27)          53.7793         estimate D2E/DX2                !
 ! D82   D(8,10,11,3)          -54.738          estimate D2E/DX2                !
 ! D83   D(8,10,11,28)        -172.3593         estimate D2E/DX2                !
 ! D84   D(8,10,11,29)          67.2117         estimate D2E/DX2                !
 ! D85   D(26,10,11,3)        -176.9497         estimate D2E/DX2                !
 ! D86   D(26,10,11,28)         65.4291         estimate D2E/DX2                !
 ! D87   D(26,10,11,29)        -54.9999         estimate D2E/DX2                !
 ! D88   D(27,10,11,3)          65.9233         estimate D2E/DX2                !
 ! D89   D(27,10,11,28)        -51.698          estimate D2E/DX2                !
 ! D90   D(27,10,11,29)       -172.127          estimate D2E/DX2                !
 --------------------------------------------------------------------------------
 Trust Radius=3.00D-01 FncErr=1.00D-07 GrdErr=1.00D-06 EigMax=2.50D+02 EigMin=1.00D-04
 Number of steps in this run=    186 maximum allowed number of steps=    186.
 GradGradGradGradGradGradGradGradGradGradGradGradGradGradGradGradGradGrad

                          Input orientation:                          
 ---------------------------------------------------------------------
 Center     Atomic      Atomic             Coordinates (Angstroms)
 Number     Number       Type             X           Y           Z
 ---------------------------------------------------------------------
      1          6           0        0.997033   -0.011377    0.478030
      2          6           0        3.786902    0.322999   -0.469975
      3          8           0       -1.815356   -0.307764    1.291417
      4          6           0        1.712713    1.292011    0.125056
      5          6           0        1.934573   -1.202614    0.239025
      6          8           0       -0.172593   -0.110653   -0.323277
      7          6           0       -2.211878   -1.154638   -0.937573
      8          6           0       -3.002389    0.108683   -1.282346
      9          6           0       -1.206611   -0.907015    0.176285
     10          6           0       -3.601418    0.705168   -0.008522
     11          6           0       -2.518788    0.901612    1.039492
     12          6           0        3.378745   -0.782926    0.508941
     13          8           0        2.669649    1.092107   -0.891690
     14          1           0        0.701749    0.036738    1.518718
     15          1           0        4.526074    0.983830   -0.026950
     16          1           0        4.206126   -0.100411   -1.372930
     17          1           0        1.006190    2.022624   -0.241185
     18          1           0        2.199173    1.700424    1.005561
     19          1           0        1.836363   -1.519193   -0.795113
     20          1           0        1.654432   -2.043451    0.863376
     21          1           0       -1.688434   -1.545822   -1.803293
     22          1           0       -2.894704   -1.926241   -0.592664
     23          1           0       -2.352424    0.838415   -1.757551
     24          1           0       -3.784770   -0.130785   -1.995962
     25          1           0       -0.806890   -1.839715    0.547866
     26          1           0       -4.076970    1.660775   -0.210474
     27          1           0       -4.364134    0.038235    0.386890
     28          1           0       -2.937888    1.196782    1.991516
     29          1           0       -1.817096    1.667852    0.727438
     30          1           0        3.472289   -0.436530    1.534210
     31          1           0        4.054023   -1.624464    0.398467
 ---------------------------------------------------------------------
                    Distance matrix (angstroms):
                    1          2          3          4          5
     1  C    0.000000
     2  C    2.965449   0.000000
     3  O    2.942614   5.906408   0.000000
     4  C    1.528270   2.365440   4.045609   0.000000
     5  C    1.534650   2.502259   3.996280   2.507063   0.000000
     6  O    1.421258   3.985872   2.311874   2.392247   2.438998
     7  C    3.688914   6.195758   2.417193   4.745280   4.310422
     8  C    4.371352   6.841078   2.864739   5.060952   5.329884
     9  C    2.397762   5.183219   1.404703   3.655242   3.155686
    10  C    4.679308   7.412575   2.430204   5.348104   5.860726
    11  C    3.675566   6.509609   1.421574   4.346747   4.990084
    12  C    2.503756   1.532299   5.274157   2.688567   1.527948
    13  O    2.427232   1.420431   5.180817   1.410482   2.661691
    14  H    1.082838   3.681713   2.550719   2.130740   2.166440
    15  H    3.701293   1.085976   6.604547   2.834269   3.401052
    16  H    3.705706   1.081828   6.587867   3.224889   2.995531
    17  H    2.157432   3.267021   3.967455   1.080325   3.390377
    18  H    2.157242   2.568149   4.497886   1.085695   3.014170
    19  H    2.144499   2.702589   4.376782   2.960552   1.085960
    20  H    2.170251   3.453308   3.903237   3.416697   1.084113
    21  H    3.843265   5.937132   3.335585   4.831110   4.173132
    22  H    4.467517   7.051099   2.708177   5.665736   4.953510
    23  H    4.115681   6.294031   3.301269   4.502810   5.150773
    24  H    5.385214   7.737233   3.836245   6.061797   6.233367
    25  H    2.569404   5.178442   1.979077   4.041643   2.831413
    26  H    5.386616   7.981069   3.353464   5.811110   6.673807
    27  H    5.362171   8.200896   2.726564   6.210361   6.421470
    28  H    4.385646   7.214238   2.003466   5.012069   5.706943
    29  H    3.286539   5.886189   2.054540   3.600510   4.749015
    30  H    2.724548   2.166246   5.294782   2.840718   2.151502
    31  H    3.457393   2.148990   6.081173   3.749975   2.166898
                    6          7          8          9         10
     6  O    0.000000
     7  C    2.371908   0.000000
     8  C    2.995942   1.529626   0.000000
     9  C    1.397479   1.520710   2.526671   0.000000
    10  C    3.538570   2.500567   1.528809   2.892817   0.000000
    11  C    2.895937   2.868997   2.500708   2.395426   1.519543
    12  C    3.708981   5.786678   6.687492   4.599081   7.155758
    13  O    3.138163   5.373944   5.769900   4.490262   6.344761
    14  H    2.044295   3.992739   4.644542   2.516870   4.614814
    15  H    4.833547   7.127572   7.682425   6.039890   8.132289
    16  H    4.502783   6.518566   7.212116   5.687565   7.966700
    17  H    2.438676   4.575578   4.562444   3.695072   4.797903
    18  H    3.266663   5.602189   5.901221   4.368730   5.972081
    19  H    2.498503   4.067118   5.128440   3.252394   5.927560
    20  H    2.912366   4.356806   5.560736   3.154227   5.994920
    21  H    2.558893   1.084661   2.176063   2.135171   3.456540
    22  H    3.283111   1.086547   2.151319   2.116545   2.786571
    23  H    2.776605   2.159717   1.086638   2.845898   2.153333
    24  H    3.980716   2.154635   1.085685   3.459493   2.163875
    25  H    2.037370   2.156351   3.459212   1.080638   3.820391
    26  H    4.288921   3.454532   2.170858   3.870670   1.086333
    27  H    4.253883   2.794522   2.155380   3.302696   1.087606
    28  H    3.835950   3.825680   3.450550   3.273888   2.163818
    29  H    2.640355   3.300691   2.806271   2.703036   2.156897
    30  H    4.103854   6.239803   7.081787   4.894632   7.329449
    31  H    4.547177   6.423959   7.458008   5.313979   8.012403
                   11         12         13         14         15
    11  C    0.000000
    12  C    6.156301   0.000000
    13  O    5.539461   2.445472   0.000000
    14  H    3.368905   2.976207   3.285803   0.000000
    15  H    7.125597   2.173700   2.050808   4.232202   0.000000
    16  H    7.214451   2.166062   2.003610   4.545448   1.757728
    17  H    3.914367   3.750042   2.013980   2.670896   3.676217
    18  H    4.785228   2.793752   2.047183   2.296401   2.644627
    19  H    5.309747   2.149788   2.742732   3.010330   3.753631
    20  H    5.110790   2.165133   3.733985   2.379971   4.266549
    21  H    3.841985   5.621809   5.175189   4.387850   6.940796
    22  H    3.286639   6.471234   6.337339   4.609305   7.991026
    23  H    2.802699   6.372757   5.102479   4.550230   7.094354
    24  H    3.447105   7.616809   6.661412   5.701745   8.613333
    25  H    3.269123   4.317159   4.770139   2.596078   6.061627
    26  H    2.136978   7.878891   6.804727   5.335144   8.631587
    27  H    2.139302   7.787257   7.226307   5.190781   8.949928
    28  H    1.081258   6.783592   6.306212   3.849181   7.735004
    29  H    1.084838   5.748984   4.804575   3.103423   6.424390
    30  H    6.158602   1.086240   2.977575   2.810714   2.359048
    31  H    7.070631   1.084616   3.310703   3.905419   2.684587
                   16         17         18         19         20
    16  H    0.000000
    17  H    4.003463   0.000000
    18  H    3.595565   1.755391   0.000000
    19  H    2.821806   3.679741   3.706749   0.000000
    20  H    3.909937   4.263008   3.785969   1.748866   0.000000
    21  H    6.084428   4.736559   5.791482   3.666242   4.305056
    22  H    7.373212   5.561838   6.454038   4.752859   4.777911
    23  H    6.636558   3.870659   5.393967   4.902095   5.588319
    24  H    8.015205   5.538024   6.940464   5.913278   6.435761
    25  H    5.643134   4.339069   4.666742   2.982132   2.489811
    26  H    8.547676   5.096116   6.392987   6.739548   6.908213
    27  H    8.750174   5.759571   6.798722   6.501452   6.386203
    28  H    8.002446   4.606812   5.255013   6.159163   5.732470
    29  H    6.619479   3.005834   4.026019   5.081651   5.083675
    30  H    3.017110   3.909106   2.543003   3.045350   2.517304
    31  H    2.341734   4.795799   3.855374   2.520661   2.479864
                   21         22         23         24         25
    21  H    0.000000
    22  H    1.750837   0.000000
    23  H    2.475391   3.048664   0.000000
    24  H    2.536548   2.446452   1.745796   0.000000
    25  H    2.528130   2.380601   3.856942   4.273087   0.000000
    26  H    4.304003   3.796117   2.458410   2.546181   4.849942
    27  H    3.803355   2.641575   3.047276   2.458092   4.025741
    28  H    4.845987   4.053779   3.811391   4.287146   3.980652
    29  H    4.092536   3.977614   2.673895   3.811003   3.654557
    30  H    6.245200   6.876149   6.810907   8.075921   4.610117
    31  H    6.150589   7.025540   7.194216   8.331329   4.867970
                   26         27         28         29         30
    26  H    0.000000
    27  H    1.752696   0.000000
    28  H    2.522213   2.439515   0.000000
    29  H    2.446786   3.042865   1.753846   0.000000
    30  H    8.027074   7.934184   6.630777   5.749513   0.000000
    31  H    8.790714   8.580797   7.706105   6.739258   1.743420
                   31
    31  H    0.000000
 Stoichiometry    C10H18O3
 Framework group  C1[X(C10H18O3)]
 Deg. of freedom    87
 Full point group                 C1      NOp   1
 Largest Abelian subgroup         C1      NOp   1
 Largest concise Abelian subgroup C1      NOp   1
                         Standard orientation:                         
 ---------------------------------------------------------------------
 Center     Atomic      Atomic             Coordinates (Angstroms)
 Number     Number       Type             X           Y           Z
 ---------------------------------------------------------------------
      1          6           0        0.997033    0.011377   -0.478030
      2          6           0        3.786902   -0.322999    0.469975
      3          8           0       -1.815356    0.307764   -1.291417
      4          6           0        1.712713   -1.292011   -0.125056
      5          6           0        1.934573    1.202614   -0.239025
      6          8           0       -0.172593    0.110653    0.323277
      7          6           0       -2.211878    1.154638    0.937573
      8          6           0       -3.002389   -0.108683    1.282346
      9          6           0       -1.206611    0.907015   -0.176285
     10          6           0       -3.601418   -0.705168    0.008522
     11          6           0       -2.518788   -0.901612   -1.039492
     12          6           0        3.378745    0.782926   -0.508941
     13          8           0        2.669649   -1.092107    0.891690
     14          1           0        0.701749   -0.036738   -1.518718
     15          1           0        4.526074   -0.983830    0.026950
     16          1           0        4.206126    0.100411    1.372930
     17          1           0        1.006190   -2.022624    0.241185
     18          1           0        2.199173   -1.700424   -1.005561
     19          1           0        1.836363    1.519193    0.795113
     20          1           0        1.654432    2.043451   -0.863376
     21          1           0       -1.688434    1.545822    1.803293
     22          1           0       -2.894704    1.926241    0.592664
     23          1           0       -2.352424   -0.838415    1.757551
     24          1           0       -3.784770    0.130785    1.995962
     25          1           0       -0.806890    1.839715   -0.547866
     26          1           0       -4.076970   -1.660775    0.210474
     27          1           0       -4.364134   -0.038235   -0.386890
     28          1           0       -2.937888   -1.196782   -1.991516
     29          1           0       -1.817096   -1.667852   -0.727438
     30          1           0        3.472289    0.436530   -1.534210
     31          1           0        4.054023    1.624464   -0.398467
 ---------------------------------------------------------------------
 Rotational constants (GHZ):           1.9283769           0.4002886           0.3922995
 Standard basis: 6-311++G(2d,2p) (5D, 7F)
 There are   557 symmetry adapted cartesian basis functions of A   symmetry.
 There are   531 symmetry adapted basis functions of A   symmetry.
   531 basis functions,   762 primitive gaussians,   557 cartesian basis functions
    51 alpha electrons       51 beta electrons
       nuclear repulsion energy       893.8012733082 Hartrees.
 NAtoms=   31 NActive=   31 NUniq=   31 SFac= 1.00D+00 NAtFMM=   60 NAOKFM=F Big=F
 Integral buffers will be    131072 words long.
 Raffenetti 2 integral format.
 Two-electron integral symmetry is turned on.
 ------------------------------------------------------------------------------
 Polarizable Continuum Model (PCM)
 =================================
 Model                : PCM.
 Atomic radii         : UFF (Universal Force Field).
 Polarization charges : Total charges.
 Charge compensation  : None.
 Solution method      : On-the-fly selection.
 Cavity type          : Scaled VdW (van der Waals Surface) (Alpha=1.100).
 Cavity algorithm     : GePol (No added spheres)
                        Default sphere list used, NSphG=   31.
                        Lebedev-Laikov grids with approx.  5.0 points / Ang**2.
                        Smoothing algorithm: York/Karplus (Gamma=1.0000).
                        Polarization charges: spherical gaussians, with
                                              point-specific exponents (IZeta= 3).
                        Self-potential: point-specific (ISelfS= 7).
                        Self-field    : sphere-specific E.n sum rule (ISelfD= 2).
 1st derivatives      : Analytical E(r).r(x)/FMM algorithm (CHGder, D1EAlg=3).
                        Cavity 1st derivative terms included.
 Solvent              : Water, Eps=  78.355300 Eps(inf)=   1.777849
 ------------------------------------------------------------------------------
 One-electron integrals computed using PRISM.
 NBasis=   531 RedAO= T EigKep=  4.74D-06  NBF=   531
 NBsUse=   531 1.00D-06 EigRej= -1.00D+00 NBFU=   531
 ExpMin= 3.60D-02 ExpMax= 8.59D+03 ExpMxC= 1.30D+03 IAcc=3 IRadAn=         5 AccDes= 0.00D+00
 Harris functional with IExCor= 1009 and IRadAn=       5 diagonalized for initial guess.
 HarFok:  IExCor= 1009 AccDes= 0.00D+00 IRadAn=         5 IDoV= 1 UseB2=F ITyADJ=14
 ICtDFT=  3500011 ScaDFX=  1.000000  1.000000  1.000000  1.000000
 FoFCou: FMM=F IPFlag=           0 FMFlag=      100000 FMFlg1=           0
         NFxFlg=           0 DoJE=T BraDBF=F KetDBF=T FulRan=T
         wScrn=  0.000000 ICntrl=       500 IOpCl=  0 I1Cent=   200000004 NGrid=           0
         NMat0=    1 NMatS0=      1 NMatT0=    0 NMatD0=    1 NMtDS0=    0 NMtDT0=    0
 Petite list used in FoFCou.
 Requested convergence on RMS density matrix=1.00D-08 within 128 cycles.
 Requested convergence on MAX density matrix=1.00D-06.
 Requested convergence on             energy=1.00D-06.
 No special actions if energy rises.
 Inv3:  Mode=1 IEnd=    13066707.
 Iteration    1 A*A^-1 deviation from unit magnitude is 3.33D-15 for   2087.
 Iteration    1 A*A^-1 deviation from orthogonality  is 2.36D-15 for   2050    985.
 Iteration    1 A^-1*A deviation from unit magnitude is 3.33D-15 for   2087.
 Iteration    1 A^-1*A deviation from orthogonality  is 2.35D-15 for   2061   1337.
 Error on total polarization charges =  0.01478
 SCF Done:  E(RM062X) =  -617.494933471     A.U. after   12 cycles
            NFock= 12  Conv=0.39D-08     -V/T= 2.0035

 **********************************************************************

            Population analysis using the SCF density.

 **********************************************************************

 Orbital symmetries:
       Occupied  (A) (A) (A) (A) (A) (A) (A) (A) (A) (A) (A) (A)
                 (A) (A) (A) (A) (A) (A) (A) (A) (A) (A) (A) (A)
                 (A) (A) (A) (A) (A) (A) (A) (A) (A) (A) (A) (A)
                 (A) (A) (A) (A) (A) (A) (A) (A) (A) (A) (A) (A)
                 (A) (A) (A)
       Virtual   (A) (A) (A) (A) (A) (A) (A) (A) (A) (A) (A) (A)
                 (A) (A) (A) (A) (A) (A) (A) (A) (A) (A) (A) (A)
                 (A) (A) (A) (A) (A) (A) (A) (A) (A) (A) (A) (A)
                 (A) (A) (A) (A) (A) (A) (A) (A) (A) (A) (A) (A)
                 (A) (A) (A) (A) (A) (A) (A) (A) (A) (A) (A) (A)
                 (A) (A) (A) (A) (A) (A) (A) (A) (A) (A) (A) (A)
                 (A) (A) (A) (A) (A) (A) (A) (A) (A) (A) (A) (A)
                 (A) (A) (A) (A) (A) (A) (A) (A) (A) (A) (A) (A)
                 (A) (A) (A) (A) (A) (A) (A) (A) (A) (A) (A) (A)
                 (A) (A) (A) (A) (A) (A) (A) (A) (A) (A) (A) (A)
                 (A) (A) (A) (A) (A) (A) (A) (A) (A) (A) (A) (A)
                 (A) (A) (A) (A) (A) (A) (A) (A) (A) (A) (A) (A)
                 (A) (A) (A) (A) (A) (A) (A) (A) (A) (A) (A) (A)
                 (A) (A) (A) (A) (A) (A) (A) (A) (A) (A) (A) (A)
                 (A) (A) (A) (A) (A) (A) (A) (A) (A) (A) (A) (A)
                 (A) (A) (A) (A) (A) (A) (A) (A) (A) (A) (A) (A)
                 (A) (A) (A) (A) (A) (A) (A) (A) (A) (A) (A) (A)
                 (A) (A) (A) (A) (A) (A) (A) (A) (A) (A) (A) (A)
                 (A) (A) (A) (A) (A) (A) (A) (A) (A) (A) (A) (A)
                 (A) (A) (A) (A) (A) (A) (A) (A) (A) (A) (A) (A)
                 (A) (A) (A) (A) (A) (A) (A) (A) (A) (A) (A) (A)
                 (A) (A) (A) (A) (A) (A) (A) (A) (A) (A) (A) (A)
                 (A) (A) (A) (A) (A) (A) (A) (A) (A) (A) (A) (A)
                 (A) (A) (A) (A) (A) (A) (A) (A) (A) (A) (A) (A)
                 (A) (A) (A) (A) (A) (A) (A) (A) (A) (A) (A) (A)
                 (A) (A) (A) (A) (A) (A) (A) (A) (A) (A) (A) (A)
                 (A) (A) (A) (A) (A) (A) (A) (A) (A) (A) (A) (A)
                 (A) (A) (A) (A) (A) (A) (A) (A) (A) (A) (A) (A)
                 (A) (A) (A) (A) (A) (A) (A) (A) (A) (A) (A) (A)
                 (A) (A) (A) (A) (A) (A) (A) (A) (A) (A) (A) (A)
                 (A) (A) (A) (A) (A) (A) (A) (A) (A) (A) (A) (A)
                 (A) (A) (A) (A) (A) (A) (A) (A) (A) (A) (A) (A)
                 (A) (A) (A) (A) (A) (A) (A) (A) (A) (A) (A) (A)
                 (A) (A) (A) (A) (A) (A) (A) (A) (A) (A) (A) (A)
                 (A) (A) (A) (A) (A) (A) (A) (A) (A) (A) (A) (A)
                 (A) (A) (A) (A) (A) (A) (A) (A) (A) (A) (A) (A)
                 (A) (A) (A) (A) (A) (A) (A) (A) (A) (A) (A) (A)
                 (A) (A) (A) (A) (A) (A) (A) (A) (A) (A) (A) (A)
                 (A) (A) (A) (A) (A) (A) (A) (A) (A) (A) (A) (A)
                 (A) (A) (A) (A) (A) (A) (A) (A) (A) (A) (A) (A)
 The electronic state is 1-A.
 Alpha  occ. eigenvalues --  -19.62758 -19.62664 -19.62551 -10.63265 -10.58585
 Alpha  occ. eigenvalues --  -10.57847 -10.57802 -10.57577 -10.53247 -10.53113
 Alpha  occ. eigenvalues --  -10.52943 -10.52904 -10.52727  -1.20128  -1.16471
 Alpha  occ. eigenvalues --   -1.13336  -0.90765  -0.89595  -0.87444  -0.84501
 Alpha  occ. eigenvalues --   -0.75006  -0.74484  -0.73195  -0.71269  -0.64890
 Alpha  occ. eigenvalues --   -0.62660  -0.60112  -0.59369  -0.58059  -0.55880
 Alpha  occ. eigenvalues --   -0.54748  -0.53595  -0.52708  -0.50441  -0.49658
 Alpha  occ. eigenvalues --   -0.47244  -0.46488  -0.46068  -0.45328  -0.44980
 Alpha  occ. eigenvalues --   -0.43521  -0.42760  -0.42141  -0.41048  -0.39516
 Alpha  occ. eigenvalues --   -0.38482  -0.36993  -0.35835  -0.34431  -0.33285
 Alpha  occ. eigenvalues --   -0.31978
 Alpha virt. eigenvalues --   -0.00118   0.00758   0.00950   0.01025   0.02207
 Alpha virt. eigenvalues --    0.02422   0.02606   0.03351   0.03724   0.04390
 Alpha virt. eigenvalues --    0.04431   0.04590   0.05316   0.06011   0.07012
 Alpha virt. eigenvalues --    0.07549   0.07804   0.07936   0.09039   0.09566
 Alpha virt. eigenvalues --    0.09994   0.10438   0.10888   0.11484   0.12156
 Alpha virt. eigenvalues --    0.12228   0.12666   0.12765   0.12905   0.13388
 Alpha virt. eigenvalues --    0.13736   0.13815   0.14116   0.14540   0.14732
 Alpha virt. eigenvalues --    0.15268   0.15338   0.15587   0.16072   0.16376
 Alpha virt. eigenvalues --    0.16750   0.16986   0.17230   0.17283   0.17491
 Alpha virt. eigenvalues --    0.18191   0.18480   0.18586   0.19066   0.19793
 Alpha virt. eigenvalues --    0.20092   0.20350   0.20403   0.20994   0.21499
 Alpha virt. eigenvalues --    0.21862   0.22349   0.22589   0.23507   0.23692
 Alpha virt. eigenvalues --    0.24369   0.24719   0.25427   0.25658   0.27127
 Alpha virt. eigenvalues --    0.27379   0.27849   0.28545   0.28792   0.29652
 Alpha virt. eigenvalues --    0.30101   0.30487   0.30925   0.31606   0.32288
 Alpha virt. eigenvalues --    0.32305   0.32763   0.34185   0.34217   0.34569
 Alpha virt. eigenvalues --    0.34856   0.35325   0.35742   0.35951   0.36311
 Alpha virt. eigenvalues --    0.36920   0.37311   0.37461   0.38043   0.38474
 Alpha virt. eigenvalues --    0.39030   0.39040   0.39754   0.40933   0.41133
 Alpha virt. eigenvalues --    0.41731   0.42856   0.43830   0.44375   0.44655
 Alpha virt. eigenvalues --    0.45969   0.48474   0.49002   0.50066   0.50786
 Alpha virt. eigenvalues --    0.51557   0.53326   0.53412   0.53778   0.54201
 Alpha virt. eigenvalues --    0.55638   0.56798   0.57833   0.58100   0.58612
 Alpha virt. eigenvalues --    0.59421   0.59939   0.60829   0.61480   0.61730
 Alpha virt. eigenvalues --    0.61842   0.62200   0.62995   0.63377   0.63899
 Alpha virt. eigenvalues --    0.64275   0.64741   0.65446   0.65963   0.66591
 Alpha virt. eigenvalues --    0.67196   0.67690   0.69342   0.69407   0.69691
 Alpha virt. eigenvalues --    0.70591   0.71332   0.71998   0.72652   0.73032
 Alpha virt. eigenvalues --    0.73588   0.73897   0.74166   0.75191   0.75594
 Alpha virt. eigenvalues --    0.75909   0.76948   0.77599   0.77705   0.78888
 Alpha virt. eigenvalues --    0.79508   0.83638   0.84391   0.84771   0.85942
 Alpha virt. eigenvalues --    0.86374   0.87186   0.88111   0.88609   0.89221
 Alpha virt. eigenvalues --    0.90854   0.92071   0.93037   0.95417   0.96004
 Alpha virt. eigenvalues --    0.96466   0.98507   0.99279   1.01110   1.01790
 Alpha virt. eigenvalues --    1.02505   1.02959   1.04593   1.05603   1.06029
 Alpha virt. eigenvalues --    1.07605   1.08100   1.10236   1.11722   1.12134
 Alpha virt. eigenvalues --    1.13342   1.14396   1.14888   1.16224   1.16658
 Alpha virt. eigenvalues --    1.17775   1.18264   1.18521   1.19993   1.20777
 Alpha virt. eigenvalues --    1.22005   1.22724   1.23327   1.24354   1.24488
 Alpha virt. eigenvalues --    1.24966   1.25478   1.26971   1.27252   1.27372
 Alpha virt. eigenvalues --    1.27774   1.28551   1.29416   1.30561   1.30669
 Alpha virt. eigenvalues --    1.32213   1.32320   1.32951   1.33458   1.34697
 Alpha virt. eigenvalues --    1.34712   1.35725   1.37127   1.37453   1.37725
 Alpha virt. eigenvalues --    1.38327   1.39333   1.39957   1.40623   1.41357
 Alpha virt. eigenvalues --    1.42334   1.42648   1.44062   1.44405   1.45174
 Alpha virt. eigenvalues --    1.45449   1.46672   1.47089   1.47563   1.47756
 Alpha virt. eigenvalues --    1.48327   1.49323   1.50234   1.50679   1.52033
 Alpha virt. eigenvalues --    1.52959   1.53844   1.54773   1.55004   1.55438
 Alpha virt. eigenvalues --    1.56143   1.56585   1.57203   1.58009   1.58334
 Alpha virt. eigenvalues --    1.59332   1.59633   1.60610   1.61488   1.61776
 Alpha virt. eigenvalues --    1.63401   1.64176   1.64850   1.65320   1.65910
 Alpha virt. eigenvalues --    1.68337   1.69008   1.69636   1.70271   1.71717
 Alpha virt. eigenvalues --    1.72136   1.73022   1.74742   1.75456   1.76051
 Alpha virt. eigenvalues --    1.77845   1.79531   1.80692   1.81626   1.83585
 Alpha virt. eigenvalues --    1.85523   1.86564   1.88707   1.98400   2.00020
 Alpha virt. eigenvalues --    2.02498   2.06786   2.11512   2.14827   2.19113
 Alpha virt. eigenvalues --    2.22705   2.25328   2.28949   2.33037   2.40608
 Alpha virt. eigenvalues --    2.42034   2.42307   2.44614   2.45650   2.51399
 Alpha virt. eigenvalues --    2.60362   2.76293   2.77713   2.79987   2.80820
 Alpha virt. eigenvalues --    2.83880   2.87032   2.90243   2.91281   2.92790
 Alpha virt. eigenvalues --    2.93673   2.95943   2.98561   3.01452   3.02920
 Alpha virt. eigenvalues --    3.03692   3.06362   3.08150   3.09854   3.10911
 Alpha virt. eigenvalues --    3.12939   3.14645   3.15487   3.19887   3.22210
 Alpha virt. eigenvalues --    3.23255   3.30226   3.31563   3.31784   3.33678
 Alpha virt. eigenvalues --    3.34483   3.35804   3.36315   3.38992   3.40419
 Alpha virt. eigenvalues --    3.41324   3.43603   3.43634   3.44331   3.45517
 Alpha virt. eigenvalues --    3.46288   3.48353   3.49825   3.51066   3.51521
 Alpha virt. eigenvalues --    3.52269   3.53070   3.53739   3.54688   3.55688
 Alpha virt. eigenvalues --    3.56937   3.57289   3.57962   3.58499   3.59412
 Alpha virt. eigenvalues --    3.60620   3.62593   3.62885   3.63582   3.64446
 Alpha virt. eigenvalues --    3.65643   3.66969   3.67998   3.68219   3.69464
 Alpha virt. eigenvalues --    3.70683   3.70805   3.72847   3.73457   3.74519
 Alpha virt. eigenvalues --    3.74704   3.75875   3.76601   3.77582   3.79244
 Alpha virt. eigenvalues --    3.79970   3.81584   3.82204   3.83228   3.83837
 Alpha virt. eigenvalues --    3.85805   3.88278   3.90103   3.91400   3.92786
 Alpha virt. eigenvalues --    3.92949   3.94286   3.96194   3.97130   3.98653
 Alpha virt. eigenvalues --    4.00017   4.00720   4.02019   4.03098   4.04060
 Alpha virt. eigenvalues --    4.05404   4.06441   4.07321   4.07631   4.08106
 Alpha virt. eigenvalues --    4.08537   4.09221   4.10208   4.10590   4.11812
 Alpha virt. eigenvalues --    4.12166   4.13512   4.13842   4.14405   4.15001
 Alpha virt. eigenvalues --    4.15546   4.17291   4.18393   4.18665   4.20071
 Alpha virt. eigenvalues --    4.21842   4.22494   4.24301   4.25496   4.26125
 Alpha virt. eigenvalues --    4.28113   4.29634   4.31242   4.31691   4.32717
 Alpha virt. eigenvalues --    4.33022   4.33458   4.35613   4.36664   4.37432
 Alpha virt. eigenvalues --    4.39777   4.41781   4.42719   4.46425   4.50006
 Alpha virt. eigenvalues --    4.58216   4.61285   4.72632   4.75899   4.81663
 Alpha virt. eigenvalues --    4.85030   4.93284   4.95336   5.00855   5.01322
 Alpha virt. eigenvalues --    5.04783   5.06794   5.07923   5.11800   5.12757
 Alpha virt. eigenvalues --    5.14091   5.14733   5.16280   5.32472   5.37286
 Alpha virt. eigenvalues --    5.41847   5.58095   5.61021   5.65082   5.85169
 Alpha virt. eigenvalues --    5.88077   6.06560   7.03732   7.05828   7.07092
 Alpha virt. eigenvalues --    7.07711   7.09994   7.11512   7.13108   7.19481
 Alpha virt. eigenvalues --    7.26510   7.35128   7.36707   7.46109   7.53305
 Alpha virt. eigenvalues --    7.54409   7.66322  23.96089  23.97898  24.05782
 Alpha virt. eigenvalues --   24.06671  24.10828  24.11789  24.11956  24.15237
 Alpha virt. eigenvalues --   24.17321  24.21542  50.17285  50.18721  50.25349
          Condensed to atoms (all electrons):
               1          2          3          4          5          6
     1  C    8.954389   0.084179   0.029074  -0.817838  -1.850818  -0.085626
     2  C    0.084179   5.630619  -0.001739  -0.149584  -0.028157   0.015776
     3  O    0.029074  -0.001739   8.212720  -0.022497  -0.014013  -0.054437
     4  C   -0.817838  -0.149584  -0.022497   6.423108   0.176439  -0.087751
     5  C   -1.850818  -0.028157  -0.014013   0.176439   7.262356  -0.065234
     6  O   -0.085626   0.015776  -0.054437  -0.087751  -0.065234   8.300053
     7  C    0.132693  -0.004757  -0.020270  -0.080114  -0.030514  -0.089157
     8  C    0.034584   0.001552  -0.005075  -0.018391  -0.002182  -0.021494
     9  C   -1.080042   0.043701   0.281865   0.068914   0.381035   0.371208
    10  C    0.065206  -0.001483  -0.047907  -0.010865  -0.018033  -0.019073
    11  C    0.129911   0.002691   0.094038   0.017427  -0.047613  -0.016735
    12  C    0.280507  -0.276175   0.003456   0.035842  -0.340061  -0.019625
    13  O   -0.013049   0.097234  -0.000060   0.103388  -0.043317   0.022414
    14  H    0.560263  -0.001598  -0.000965  -0.053890  -0.097912  -0.024101
    15  H    0.041651   0.522720   0.000071  -0.025046  -0.033233  -0.000248
    16  H   -0.019639   0.405845  -0.000034   0.025105  -0.010302   0.001083
    17  H    0.069166   0.017711  -0.000382   0.348008  -0.027021  -0.008646
    18  H   -0.100067   0.037147   0.000902   0.462586   0.017256   0.012613
    19  H   -0.119745  -0.034020  -0.000716  -0.019993   0.517282   0.001348
    20  H   -0.049134  -0.003425   0.000921   0.013057   0.418013   0.000487
    21  H   -0.006460   0.001172   0.007136   0.002658   0.003415  -0.000367
    22  H    0.002276  -0.000209  -0.005207  -0.000403  -0.000735   0.008471
    23  H   -0.017536   0.000384   0.002668  -0.000031   0.005600  -0.005945
    24  H    0.005451  -0.000087  -0.004271  -0.002091  -0.000666   0.000786
    25  H    0.020290   0.004058  -0.067470   0.000521   0.008220  -0.022985
    26  H    0.003531   0.000127   0.009302   0.001388  -0.001135   0.000649
    27  H   -0.004324  -0.000028  -0.001986  -0.000712   0.000469  -0.000632
    28  H    0.013584   0.000284  -0.073937   0.000816  -0.002522   0.000292
    29  H   -0.074041  -0.002809  -0.034586   0.010500   0.031014   0.022378
    30  H   -0.059720  -0.086831  -0.000314  -0.010770   0.006021   0.002289
    31  H   -0.000670  -0.016100   0.000109   0.003395  -0.017546  -0.002152
               7          8          9         10         11         12
     1  C    0.132693   0.034584  -1.080042   0.065206   0.129911   0.280507
     2  C   -0.004757   0.001552   0.043701  -0.001483   0.002691  -0.276175
     3  O   -0.020270  -0.005075   0.281865  -0.047907   0.094038   0.003456
     4  C   -0.080114  -0.018391   0.068914  -0.010865   0.017427   0.035842
     5  C   -0.030514  -0.002182   0.381035  -0.018033  -0.047613  -0.340061
     6  O   -0.089157  -0.021494   0.371208  -0.019073  -0.016735  -0.019625
     7  C    6.565349  -0.043518  -0.896600  -0.159949   0.207336   0.016694
     8  C   -0.043518   5.655275  -0.101813   0.010022  -0.023778   0.002702
     9  C   -0.896600  -0.101813   7.104997   0.211293  -0.493175  -0.150905
    10  C   -0.159949   0.010022   0.211293   5.661692  -0.049678  -0.005066
    11  C    0.207336  -0.023778  -0.493175  -0.049678   5.530040   0.006236
    12  C    0.016694   0.002702  -0.150905  -0.005066   0.006236   6.001108
    13  O    0.002589   0.000257   0.004004   0.000408  -0.000035   0.014353
    14  H   -0.008625  -0.004820  -0.043725  -0.001676   0.011176   0.013768
    15  H   -0.000416   0.000024  -0.002022   0.000070   0.000305  -0.101889
    16  H    0.000164   0.000003  -0.000032  -0.000058  -0.000123   0.020884
    17  H   -0.008510  -0.001048  -0.024360   0.005144   0.004579   0.000953
    18  H    0.004731   0.000127   0.017694  -0.000725   0.002146  -0.053719
    19  H   -0.010213   0.002104   0.007831   0.000178  -0.002720   0.002233
    20  H    0.009776   0.001957  -0.001682   0.000045   0.003626   0.011073
    21  H    0.431980  -0.041905  -0.025060  -0.002892   0.003952  -0.001102
    22  H    0.551041  -0.005659  -0.156812  -0.022401   0.015903   0.000797
    23  H   -0.042136   0.522502  -0.013880  -0.073985   0.001875  -0.000250
    24  H   -0.062669   0.418506   0.028973  -0.014762   0.006362   0.000210
    25  H   -0.119579  -0.012369   0.511339   0.016424  -0.024159  -0.021863
    26  H   -0.006952  -0.042713   0.006395   0.434562  -0.032865  -0.000072
    27  H   -0.005390  -0.025516  -0.000910   0.501310  -0.093070  -0.000139
    28  H   -0.000043   0.006082  -0.014762  -0.020379   0.442691  -0.000018
    29  H    0.029395   0.002173   0.020480  -0.094918   0.455569  -0.000037
    30  H   -0.000232   0.000168   0.002160   0.000045  -0.001094   0.524353
    31  H    0.000364  -0.000093   0.000278  -0.000083  -0.000003   0.384672
              13         14         15         16         17         18
     1  C   -0.013049   0.560263   0.041651  -0.019639   0.069166  -0.100067
     2  C    0.097234  -0.001598   0.522720   0.405845   0.017711   0.037147
     3  O   -0.000060  -0.000965   0.000071  -0.000034  -0.000382   0.000902
     4  C    0.103388  -0.053890  -0.025046   0.025105   0.348008   0.462586
     5  C   -0.043317  -0.097912  -0.033233  -0.010302  -0.027021   0.017256
     6  O    0.022414  -0.024101  -0.000248   0.001083  -0.008646   0.012613
     7  C    0.002589  -0.008625  -0.000416   0.000164  -0.008510   0.004731
     8  C    0.000257  -0.004820   0.000024   0.000003  -0.001048   0.000127
     9  C    0.004004  -0.043725  -0.002022  -0.000032  -0.024360   0.017694
    10  C    0.000408  -0.001676   0.000070  -0.000058   0.005144  -0.000725
    11  C   -0.000035   0.011176   0.000305  -0.000123   0.004579   0.002146
    12  C    0.014353   0.013768  -0.101889   0.020884   0.000953  -0.053719
    13  O    8.382036   0.002988  -0.067964  -0.077442  -0.083723  -0.032556
    14  H    0.002988   0.412596   0.000213   0.000650   0.003402  -0.009549
    15  H   -0.067964   0.000213   0.526103  -0.028442  -0.000220   0.008816
    16  H   -0.077442   0.000650  -0.028442   0.510292  -0.000652  -0.003752
    17  H   -0.083723   0.003402  -0.000220  -0.000652   0.507360  -0.012055
    18  H   -0.032556  -0.009549   0.008816  -0.003752  -0.012055   0.473085
    19  H   -0.004714   0.001989  -0.003880   0.005074   0.003193  -0.001340
    20  H    0.002079  -0.007084   0.001734  -0.002052  -0.002029   0.002763
    21  H    0.000893  -0.000526   0.000065  -0.000052  -0.000510   0.000221
    22  H    0.000035  -0.000853  -0.000028   0.000040  -0.000522   0.000260
    23  H    0.000372  -0.000702  -0.000007   0.000060  -0.003072   0.000504
    24  H   -0.000008   0.000083  -0.000005   0.000002   0.000439  -0.000040
    25  H   -0.001474   0.000426  -0.000082  -0.000191   0.004603  -0.001949
    26  H    0.000020   0.000137   0.000011  -0.000003   0.000868  -0.000094
    27  H    0.000003  -0.000025   0.000002  -0.000005  -0.000040  -0.000062
    28  H    0.000038  -0.000254   0.000017  -0.000019   0.002054  -0.000064
    29  H    0.000860  -0.004982  -0.000556   0.000328  -0.015952   0.000787
    30  H   -0.000143  -0.003086  -0.014655   0.008085  -0.002011  -0.007088
    31  H    0.009331  -0.001437   0.001929  -0.010695   0.002431  -0.001236
              19         20         21         22         23         24
     1  C   -0.119745  -0.049134  -0.006460   0.002276  -0.017536   0.005451
     2  C   -0.034020  -0.003425   0.001172  -0.000209   0.000384  -0.000087
     3  O   -0.000716   0.000921   0.007136  -0.005207   0.002668  -0.004271
     4  C   -0.019993   0.013057   0.002658  -0.000403  -0.000031  -0.002091
     5  C    0.517282   0.418013   0.003415  -0.000735   0.005600  -0.000666
     6  O    0.001348   0.000487  -0.000367   0.008471  -0.005945   0.000786
     7  C   -0.010213   0.009776   0.431980   0.551041  -0.042136  -0.062669
     8  C    0.002104   0.001957  -0.041905  -0.005659   0.522502   0.418506
     9  C    0.007831  -0.001682  -0.025060  -0.156812  -0.013880   0.028973
    10  C    0.000178   0.000045  -0.002892  -0.022401  -0.073985  -0.014762
    11  C   -0.002720   0.003626   0.003952   0.015903   0.001875   0.006362
    12  C    0.002233   0.011073  -0.001102   0.000797  -0.000250   0.000210
    13  O   -0.004714   0.002079   0.000893   0.000035   0.000372  -0.000008
    14  H    0.001989  -0.007084  -0.000526  -0.000853  -0.000702   0.000083
    15  H   -0.003880   0.001734   0.000065  -0.000028  -0.000007  -0.000005
    16  H    0.005074  -0.002052  -0.000052   0.000040   0.000060   0.000002
    17  H    0.003193  -0.002029  -0.000510  -0.000522  -0.003072   0.000439
    18  H   -0.001340   0.002763   0.000221   0.000260   0.000504  -0.000040
    19  H    0.459521  -0.022387  -0.002342  -0.000361  -0.000400   0.000359
    20  H   -0.022387   0.491893   0.000498   0.001239   0.000441  -0.000143
    21  H   -0.002342   0.000498   0.473043  -0.003697  -0.001762  -0.008722
    22  H   -0.000361   0.001239  -0.003697   0.452609   0.002417  -0.003156
    23  H   -0.000400   0.000441  -0.001762   0.002417   0.462651  -0.007661
    24  H    0.000359  -0.000143  -0.008722  -0.003156  -0.007661   0.468813
    25  H    0.002844  -0.011297  -0.006817  -0.017876  -0.004740   0.003374
    26  H   -0.000030   0.000013   0.001253  -0.003081  -0.005423  -0.005949
    27  H    0.000046  -0.000158  -0.001746  -0.001415   0.002146  -0.003844
    28  H   -0.000061   0.000138   0.001098   0.000304  -0.002713   0.001577
    29  H    0.000173  -0.000243  -0.000302  -0.000299   0.001885  -0.002104
    30  H    0.001616  -0.004581  -0.000092  -0.000003  -0.000001   0.000012
    31  H    0.002785  -0.011035   0.000073  -0.000037   0.000006   0.000002
              25         26         27         28         29         30
     1  C    0.020290   0.003531  -0.004324   0.013584  -0.074041  -0.059720
     2  C    0.004058   0.000127  -0.000028   0.000284  -0.002809  -0.086831
     3  O   -0.067470   0.009302  -0.001986  -0.073937  -0.034586  -0.000314
     4  C    0.000521   0.001388  -0.000712   0.000816   0.010500  -0.010770
     5  C    0.008220  -0.001135   0.000469  -0.002522   0.031014   0.006021
     6  O   -0.022985   0.000649  -0.000632   0.000292   0.022378   0.002289
     7  C   -0.119579  -0.006952  -0.005390  -0.000043   0.029395  -0.000232
     8  C   -0.012369  -0.042713  -0.025516   0.006082   0.002173   0.000168
     9  C    0.511339   0.006395  -0.000910  -0.014762   0.020480   0.002160
    10  C    0.016424   0.434562   0.501310  -0.020379  -0.094918   0.000045
    11  C   -0.024159  -0.032865  -0.093070   0.442691   0.455569  -0.001094
    12  C   -0.021863  -0.000072  -0.000139  -0.000018  -0.000037   0.524353
    13  O   -0.001474   0.000020   0.000003   0.000038   0.000860  -0.000143
    14  H    0.000426   0.000137  -0.000025  -0.000254  -0.004982  -0.003086
    15  H   -0.000082   0.000011   0.000002   0.000017  -0.000556  -0.014655
    16  H   -0.000191  -0.000003  -0.000005  -0.000019   0.000328   0.008085
    17  H    0.004603   0.000868  -0.000040   0.002054  -0.015952  -0.002011
    18  H   -0.001949  -0.000094  -0.000062  -0.000064   0.000787  -0.007088
    19  H    0.002844  -0.000030   0.000046  -0.000061   0.000173   0.001616
    20  H   -0.011297   0.000013  -0.000158   0.000138  -0.000243  -0.004581
    21  H   -0.006817   0.001253  -0.001746   0.001098  -0.000302  -0.000092
    22  H   -0.017876  -0.003081  -0.001415   0.000304  -0.000299  -0.000003
    23  H   -0.004740  -0.005423   0.002146  -0.002713   0.001885  -0.000001
    24  H    0.003374  -0.005949  -0.003844   0.001577  -0.002104   0.000012
    25  H    0.466314   0.002177  -0.000743   0.000466  -0.002158   0.000057
    26  H    0.002177   0.491297  -0.012709  -0.008388  -0.002559  -0.000011
    27  H   -0.000743  -0.012709   0.483985  -0.006780   0.004836   0.000006
    28  H    0.000466  -0.008388  -0.006780   0.480439  -0.021851  -0.000097
    29  H   -0.002158  -0.002559   0.004836  -0.021851   0.549756   0.000659
    30  H    0.000057  -0.000011   0.000006  -0.000097   0.000659   0.462059
    31  H    0.000861  -0.000007   0.000007   0.000017  -0.000070  -0.006778
              31
     1  C   -0.000670
     2  C   -0.016100
     3  O    0.000109
     4  C    0.003395
     5  C   -0.017546
     6  O   -0.002152
     7  C    0.000364
     8  C   -0.000093
     9  C    0.000278
    10  C   -0.000083
    11  C   -0.000003
    12  C    0.384672
    13  O    0.009331
    14  H   -0.001437
    15  H    0.001929
    16  H   -0.010695
    17  H    0.002431
    18  H   -0.001236
    19  H    0.002785
    20  H   -0.011035
    21  H    0.000073
    22  H   -0.000037
    23  H    0.000006
    24  H    0.000002
    25  H    0.000861
    26  H   -0.000007
    27  H    0.000007
    28  H    0.000017
    29  H   -0.000070
    30  H   -0.006778
    31  H    0.491232
 Mulliken charges:
               1
     1  C   -0.128047
     2  C   -0.258198
     3  O   -0.286395
     4  C   -0.393175
     5  C   -0.196105
     6  O   -0.235638
     7  C   -0.362467
     8  C   -0.307663
     9  C   -0.056386
    10  C   -0.362466
    11  C   -0.150815
    12  C   -0.348921
    13  O   -0.318818
    14  H    0.258121
    15  H    0.174961
    16  H    0.175880
    17  H    0.220840
    18  H    0.182661
    19  H    0.214346
    20  H    0.155501
    21  H    0.176898
    22  H    0.187362
    23  H    0.176736
    24  H    0.181232
    25  H    0.273776
    26  H    0.170264
    27  H    0.167425
    28  H    0.201989
    29  H    0.126677
    30  H    0.189976
    31  H    0.170450
 Sum of Mulliken charges =  -0.00000
 Mulliken charges with hydrogens summed into heavy atoms:
               1
     1  C    0.130073
     2  C    0.092643
     3  O   -0.286395
     4  C    0.010325
     5  C    0.173742
     6  O   -0.235638
     7  C    0.001793
     8  C    0.050304
     9  C    0.217390
    10  C   -0.024778
    11  C    0.177851
    12  C    0.011506
    13  O   -0.318818
 Electronic spatial extent (au):  <R**2>=           3069.7420
 Charge=              0.0000 electrons
 Dipole moment (field-independent basis, Debye):
    X=              0.0897    Y=              0.9026    Z=             -1.3586  Tot=              1.6335
 Quadrupole moment (field-independent basis, Debye-Ang):
   XX=            -70.3477   YY=            -77.5150   ZZ=            -84.3502
   XY=              5.5570   XZ=             -6.9633   YZ=              4.5029
 Traceless Quadrupole moment (field-independent basis, Debye-Ang):
   XX=              7.0566   YY=             -0.1107   ZZ=             -6.9459
   XY=              5.5570   XZ=             -6.9633   YZ=              4.5029
 Octapole moment (field-independent basis, Debye-Ang**2):
  XXX=             12.7957  YYY=              0.7753  ZZZ=             -0.0248  XYY=             -5.4943
  XXY=              5.5919  XXZ=             -3.9464  XZZ=              0.4548  YZZ=             -0.3477
  YYZ=             -4.4400  XYZ=              2.4375
 Hexadecapole moment (field-independent basis, Debye-Ang**3):
 XXXX=          -3015.8721 YYYY=           -495.1204 ZZZZ=           -422.3279 XXXY=             34.7708
 XXXZ=              0.5517 YYYX=              1.1971 YYYZ=             -2.4448 ZZZX=              3.9686
 ZZZY=             10.9598 XXYY=           -611.8536 XXZZ=           -606.5870 YYZZ=           -155.2526
 XXYZ=             34.2128 YYXZ=             -4.9861 ZZXY=             11.8442
 N-N= 8.938012733082D+02 E-N=-3.229624894275D+03  KE= 6.153411237786D+02
 D1PCM: PCM CHGder 1st derivatives, ID1Alg=3 FixD1E=F DoIter=F DoCFld=F I1PDM=0.
 Calling FoFJK, ICntrl=      2127 FMM=F ISym2X=0 I1Cent= 0 IOpClX= 0 NMat=1 NMatS=1 NMatT=0.
 ***** Axes restored to original set *****
 -------------------------------------------------------------------
 Center     Atomic                   Forces (Hartrees/Bohr)
 Number     Number              X              Y              Z
 -------------------------------------------------------------------
      1        6           0.000247104   -0.001344858   -0.002359490
      2        6          -0.004804542   -0.001360135    0.004189376
      3        8           0.000409766   -0.004982105    0.010242783
      4        6           0.003768478   -0.005940147    0.000010905
      5        6           0.001567885    0.002965729    0.001783206
      6        8          -0.000110068    0.006101095   -0.010491765
      7        6           0.000631404    0.002670341   -0.000413769
      8        6           0.000730743   -0.001193775    0.003701878
      9        6          -0.003351733    0.005648401   -0.002491681
     10        6           0.002549588    0.000618304   -0.001039393
     11        6          -0.001315584   -0.003847977   -0.005417870
     12        6          -0.000807142   -0.000004922   -0.001731622
     13        8          -0.002527705    0.002323042   -0.008722004
     14        1          -0.001914624   -0.000062306    0.006818180
     15        1           0.003968593    0.002520245    0.002922030
     16        1           0.001526598   -0.002241431   -0.003934255
     17        1          -0.004334887    0.002396939   -0.001726703
     18        1           0.002053518    0.001936758    0.005605954
     19        1          -0.000854728    0.000315485   -0.003866915
     20        1          -0.000831788   -0.002394395    0.001987835
     21        1           0.001770756   -0.000839682   -0.002522167
     22        1          -0.002190304   -0.002048104    0.001583871
     23        1           0.002901372    0.002071259   -0.000716695
     24        1          -0.001882847   -0.000663714   -0.001625883
     25        1           0.002449163   -0.006982179    0.003382768
     26        1          -0.001388250    0.002357115   -0.000807263
     27        1          -0.001777501   -0.002444755    0.001386322
     28        1          -0.001825083    0.001111765    0.003857999
     29        1           0.003894672    0.004294284   -0.002951038
     30        1          -0.000188769    0.001283184    0.003250386
     31        1           0.001635916   -0.002263461    0.000095019
 -------------------------------------------------------------------
 Cartesian Forces:  Max     0.010491765 RMS     0.003302977

 GradGradGradGradGradGradGradGradGradGradGradGradGradGradGradGradGradGrad
 Berny optimization.
 FormGI is forming the generalized inverse of G from B-inverse, IUseBI=4.
 Internal  Forces:  Max     0.011533420 RMS     0.002014111
 Search for a local minimum.
 Step number   1 out of a maximum of  186
 All quantities printed in internal units (Hartrees-Bohrs-Radians)
 Mixed Optimization -- RFO/linear search
 Second derivative matrix not updated -- first step.
 ITU=  0
     Eigenvalues ---    0.00423   0.00608   0.00623   0.00727   0.01413
     Eigenvalues ---    0.01449   0.01725   0.02702   0.02780   0.03075
     Eigenvalues ---    0.03355   0.04095   0.04177   0.04612   0.04705
     Eigenvalues ---    0.04748   0.04888   0.04908   0.05097   0.05140
     Eigenvalues ---    0.05253   0.05593   0.05684   0.06009   0.06168
     Eigenvalues ---    0.06228   0.06606   0.07008   0.07604   0.07811
     Eigenvalues ---    0.07857   0.07858   0.07969   0.08123   0.08223
     Eigenvalues ---    0.08823   0.09273   0.10200   0.11177   0.11602
     Eigenvalues ---    0.11671   0.11763   0.11780   0.12401   0.12687
     Eigenvalues ---    0.14704   0.14733   0.16482   0.17744   0.19169
     Eigenvalues ---    0.19853   0.21950   0.22483   0.25000   0.27112
     Eigenvalues ---    0.27511   0.28590   0.28653   0.28858   0.28940
     Eigenvalues ---    0.29492   0.30354   0.35091   0.35204   0.35215
     Eigenvalues ---    0.35240   0.35251   0.35282   0.35284   0.35315
     Eigenvalues ---    0.35316   0.35416   0.35437   0.35442   0.35502
     Eigenvalues ---    0.35654   0.35774   0.35843   0.35917   0.35955
     Eigenvalues ---    0.40155   0.40852   0.41620   0.42272   0.43325
     Eigenvalues ---    0.460411000.000001000.000001000.000001000.00000
     Eigenvalues --- 1000.000001000.000001000.000001000.000001000.00000
     Eigenvalues --- 1000.000001000.000001000.000001000.000001000.00000
     Eigenvalues --- 1000.000001000.000001000.000001000.000001000.00000
     Eigenvalues --- 1000.000001000.000001000.000001000.000001000.00000
     Eigenvalues --- 1000.000001000.000001000.000001000.000001000.00000
     Eigenvalues --- 1000.000001000.000001000.000001000.000001000.00000
     Eigenvalues --- 1000.000001000.000001000.000001000.000001000.00000
     Eigenvalues --- 1000.000001000.000001000.000001000.000001000.00000
     Eigenvalues --- 1000.000001000.000001000.000001000.000001000.00000
     Eigenvalues --- 1000.000001000.000001000.000001000.000001000.00000
     Eigenvalues --- 1000.000001000.000001000.000001000.000001000.00000
     Eigenvalues --- 1000.000001000.000001000.000001000.000001000.00000
     Eigenvalues --- 1000.000001000.000001000.000001000.000001000.00000
     Eigenvalues --- 1000.000001000.000001000.000001000.000001000.00000
     Eigenvalues --- 1000.000001000.000001000.000001000.000001000.00000
     Eigenvalues --- 1000.000001000.000001000.000001000.000001000.00000
     Eigenvalues --- 1000.000001000.000001000.000001000.000001000.00000
     Eigenvalues --- 1000.000001000.000001000.000001000.000001000.00000
     Eigenvalues --- 1000.000001000.000001000.000001000.000001000.00000
 RFO step:  Lambda=-3.22725282D-03 EMin= 4.22861456D-03
 Linear search not attempted -- first point.
 Iteration  1 RMS(Cart)=  0.04840448 RMS(Int)=  0.00054859
 Iteration  2 RMS(Cart)=  0.00166072 RMS(Int)=  0.00005256
 Iteration  3 RMS(Cart)=  0.00000085 RMS(Int)=  0.00005256
 Iteration  1 RMS(Cart)=  0.00000940 RMS(Int)=  0.00000219
 Iteration  2 RMS(Cart)=  0.00000522 RMS(Int)=  0.00000244
 Iteration  3 RMS(Cart)=  0.00000290 RMS(Int)=  0.00000277
 Iteration  4 RMS(Cart)=  0.00000161 RMS(Int)=  0.00000298
 Iteration  5 RMS(Cart)=  0.00000089 RMS(Int)=  0.00000311
 Variable       Old X    -DE/DX   Delta X   Delta X   Delta X     New X
                                 (Linear)    (Quad)   (Total)
    R1        2.88801  -0.00027   0.00000  -0.00104  -0.00103   2.88698
    R2        2.90007  -0.00081   0.00000  -0.00397  -0.00397   2.89610
    R3        2.68579   0.00108   0.00000   0.00254   0.00254   2.68833
    R4        2.04627   0.00707   0.00000   0.01966   0.01966   2.06593
    R5        2.89562   0.00061   0.00000   0.00277   0.00277   2.89839
    R6        2.68423   0.00343   0.00000   0.00921   0.00921   2.69344
    R7        2.05220   0.00543   0.00000   0.01524   0.01524   2.06744
    R8        2.04436   0.00475   0.00000   0.01316   0.01316   2.05752
    R9        2.65450   0.00360   0.00000   0.00758   0.00759   2.66210
   R10        2.68639   0.00308   0.00000   0.00708   0.00708   2.69347
   R11        2.66543   0.00283   0.00000   0.00662   0.00662   2.67205
   R12        2.04152   0.00504   0.00000   0.01389   0.01389   2.05541
   R13        2.05167   0.00620   0.00000   0.01738   0.01738   2.06905
   R14        2.88740  -0.00034   0.00000  -0.00240  -0.00241   2.88499
   R15        2.05217   0.00367   0.00000   0.01030   0.01030   2.06246
   R16        2.04868   0.00322   0.00000   0.00898   0.00898   2.05766
   R17        2.64085   0.00341   0.00000   0.00736   0.00736   2.64822
   R18        2.89057  -0.00146   0.00000  -0.00471  -0.00472   2.88586
   R19        2.87373  -0.00066   0.00000  -0.00252  -0.00254   2.87119
   R20        2.04971   0.00317   0.00000   0.00887   0.00887   2.05858
   R21        2.05328   0.00333   0.00000   0.00938   0.00938   2.06266
   R22        2.88903  -0.00090   0.00000  -0.00240  -0.00241   2.88662
   R23        2.05345   0.00344   0.00000   0.00969   0.00969   2.06313
   R24        2.05165   0.00257   0.00000   0.00722   0.00722   2.05887
   R25        2.04211   0.00809   0.00000   0.02234   0.02234   2.06445
   R26        2.87152   0.00011   0.00000   0.00068   0.00070   2.87222
   R27        2.05287   0.00283   0.00000   0.00796   0.00796   2.06084
   R28        2.05528   0.00325   0.00000   0.00917   0.00917   2.06445
   R29        2.04328   0.00441   0.00000   0.01219   0.01219   2.05547
   R30        2.05005   0.00640   0.00000   0.01791   0.01791   2.06796
   R31        2.05270   0.00346   0.00000   0.00973   0.00973   2.06243
   R32        2.04963   0.00277   0.00000   0.00773   0.00773   2.05736
    A1        1.91766   0.00046   0.00000  -0.00695  -0.00707   1.91059
    A2        1.89098  -0.00096   0.00000  -0.00490  -0.00490   1.88608
    A3        1.88786   0.00075   0.00000   0.00819   0.00824   1.89610
    A4        1.93984   0.00054   0.00000  -0.00174  -0.00175   1.93809
    A5        1.92918  -0.00104   0.00000   0.00126   0.00129   1.93047
    A6        1.89710   0.00026   0.00000   0.00439   0.00438   1.90148
    A7        1.95083   0.00186   0.00000   0.00512   0.00502   1.95585
    A8        1.93893  -0.00116   0.00000  -0.00636  -0.00639   1.93254
    A9        1.93261  -0.00089   0.00000  -0.00586  -0.00582   1.92679
   A10        1.90393   0.00045   0.00000   0.00755   0.00763   1.91156
   A11        1.84307  -0.00086   0.00000  -0.00207  -0.00205   1.84101
   A12        1.89115   0.00061   0.00000   0.00197   0.00192   1.89307
   A13        2.02270  -0.00573   0.00000  -0.03722  -0.03713   1.98557
   A14        1.94264   0.00063   0.00000   0.00044   0.00027   1.94290
   A15        1.92710  -0.00162   0.00000  -0.01650  -0.01649   1.91061
   A16        1.92126  -0.00064   0.00000  -0.00026  -0.00028   1.92098
   A17        1.87043  -0.00031   0.00000  -0.00049  -0.00052   1.86991
   A18        1.91128   0.00127   0.00000   0.01319   0.01323   1.92450
   A19        1.88974   0.00070   0.00000   0.00390   0.00385   1.89359
   A20        1.91420  -0.00060   0.00000  -0.00612  -0.00629   1.90791
   A21        1.89583  -0.00029   0.00000  -0.00855  -0.00852   1.88732
   A22        1.93316  -0.00007   0.00000   0.00134   0.00142   1.93458
   A23        1.91110   0.00085   0.00000   0.00325   0.00324   1.91434
   A24        1.93429  -0.00014   0.00000   0.00280   0.00284   1.93713
   A25        1.87439   0.00027   0.00000   0.00736   0.00733   1.88172
   A26        2.03440  -0.01153   0.00000  -0.04555  -0.04555   1.98886
   A27        1.95222  -0.00164   0.00000  -0.01494  -0.01509   1.93713
   A28        1.94697  -0.00030   0.00000  -0.00154  -0.00164   1.94533
   A29        1.91058   0.00120   0.00000   0.00743   0.00752   1.91810
   A30        1.90109   0.00073   0.00000  -0.00081  -0.00079   1.90030
   A31        1.87397   0.00008   0.00000   0.00385   0.00386   1.87783
   A32        1.87604   0.00001   0.00000   0.00707   0.00704   1.88308
   A33        1.91445   0.00192   0.00000  -0.00157  -0.00157   1.91288
   A34        1.92206  -0.00099   0.00000  -0.00652  -0.00653   1.91553
   A35        1.91602  -0.00055   0.00000   0.00166   0.00165   1.91767
   A36        1.91424  -0.00084   0.00000  -0.00177  -0.00186   1.91238
   A37        1.92982  -0.00025   0.00000   0.00230   0.00237   1.93219
   A38        1.86682   0.00064   0.00000   0.00599   0.00600   1.87282
   A39        1.94049   0.00034   0.00000  -0.00244  -0.00228   1.93821
   A40        1.94385   0.00332   0.00000   0.01195   0.01173   1.95558
   A41        1.82919  -0.00221   0.00000  -0.00961  -0.00962   1.81957
   A42        1.89661  -0.00329   0.00000  -0.01622  -0.01614   1.88047
   A43        1.91885   0.00186   0.00000   0.01294   0.01293   1.93178
   A44        1.93460   0.00013   0.00000   0.00427   0.00435   1.93895
   A45        1.92403  -0.00103   0.00000  -0.00547  -0.00568   1.91835
   A46        1.93889  -0.00051   0.00000  -0.00162  -0.00158   1.93731
   A47        1.91607   0.00091   0.00000   0.00147   0.00155   1.91762
   A48        1.90327   0.00061   0.00000   0.00365   0.00370   1.90697
   A49        1.90516   0.00005   0.00000  -0.00141  -0.00135   1.90381
   A50        1.87551  -0.00000   0.00000   0.00362   0.00359   1.87909
   A51        1.94421   0.00233   0.00000   0.00600   0.00594   1.95014
   A52        1.84211  -0.00133   0.00000  -0.00198  -0.00199   1.84012
   A53        1.90901   0.00019   0.00000   0.00174   0.00181   1.91081
   A54        1.94592  -0.00028   0.00000  -0.00189  -0.00182   1.94411
   A55        1.93238  -0.00165   0.00000  -0.00775  -0.00780   1.92459
   A56        1.88721   0.00075   0.00000   0.00426   0.00424   1.89146
   A57        1.91469  -0.00055   0.00000  -0.00936  -0.00945   1.90524
   A58        1.92826   0.00066   0.00000   0.00305   0.00304   1.93130
   A59        1.90612  -0.00007   0.00000   0.00414   0.00417   1.91029
   A60        1.91317  -0.00041   0.00000  -0.00183  -0.00184   1.91133
   A61        1.93623   0.00045   0.00000   0.00227   0.00234   1.93856
   A62        1.86497  -0.00005   0.00000   0.00215   0.00212   1.86709
   A63        1.97835  -0.00449   0.00000  -0.02762  -0.02766   1.95069
    D1        0.52022   0.00169   0.00000   0.01459   0.01460   0.53483
    D2        2.59533   0.00064   0.00000   0.00351   0.00354   2.59887
    D3       -1.60234   0.00009   0.00000  -0.00222  -0.00216  -1.60450
    D4       -1.60208   0.00135   0.00000   0.02405   0.02403  -1.57805
    D5        0.47303   0.00031   0.00000   0.01298   0.01297   0.48599
    D6        2.55854  -0.00025   0.00000   0.00725   0.00726   2.56580
    D7        2.62755   0.00115   0.00000   0.01703   0.01700   2.64455
    D8       -1.58053   0.00011   0.00000   0.00596   0.00594  -1.57459
    D9        0.50498  -0.00045   0.00000   0.00023   0.00024   0.50522
[...]
 ,-0.00000716,0.00029323,0.00001460,0.00000385,0.00001499,0.00001925,-0
 .00001061,-0.00000161,-0.00005922,-0.00014269,0.00000134,0.00013359,0.
 00006844,0.00001792,0.00004320,-0.00000645,-0.00014101,-0.00033166,-0.
 00019675,0.00015473,0.00088083,-0.00014409,0.00050568,0.00033074,-0.00
 045427,0.00089151,0.00021551,-0.00002169,0.00000732,-0.00074342,0.0013
 2616,-0.00020976,0.02689250,-0.06978163,0.08792207,0.00022717,-0.00000
 814,0.00013856,0.00002664,-0.00000346,0.00000013,-0.00525251,0.0017036
 2,-0.00432820,0.00001279,0.00005050,-0.00004065,-0.00002638,-0.0000287
 9,-0.00002317,-0.00055741,-0.00018995,0.00017730,0.00038433,-0.0000094
 6,0.00241963,-0.00544990,0.00943515,-0.00129795,0.00131255,-0.00080686
 ,-0.00137651,-0.09171197,0.09443785,-0.01702162,-0.00809782,0.02287731
 ,-0.00052972,-0.00000132,0.00002320,0.00000993,-0.00006302,-0.00001556
 ,0.00003328,0.00003401,0.00002262,0.00000926,-0.00000612,-0.00000554,-
 0.00000111,-0.00000488,0.00000213,0.00000229,0.00000585,0.00000369,0.0
 0000334,-0.00002289,-0.00001929,0.00000141,-0.00000101,0.00000558,0.00
 000019,0.00000564,-0.00000073,0.00000236,-0.00004994,0.00058188,-0.000
 20528,-0.00003322,0.00034479,-0.00010695,0.00016009,-0.00011394,-0.000
 45790,0.00036792,-0.00039822,0.00008644,-0.00003677,0.00006942,0.00015
 246,0.09710225,-0.00015891,0.00000559,-0.00009452,-0.00002001,0.000002
 67,-0.00000168,-0.00025144,0.00163285,-0.00069782,-0.00001348,-0.00001
 973,0.00003944,0.00002440,0.00002073,0.00001223,0.00036009,0.00008395,
 0.00009732,0.00079529,0.00071540,-0.00312341,0.00359199,-0.00975496,0.
 00228055,-0.00091032,-0.00000047,-0.00022906,0.09673452,-0.26544069,0.
 03699096,-0.00205980,0.00224897,-0.00032206,0.00000281,-0.00001715,-0.
 00000680,0.00004206,0.00000511,-0.00002027,0.00000067,-0.00000352,0.00
 000319,0.00000444,0.00000361,0.00000077,0.00000351,-0.00000189,-0.0000
 0131,-0.00000326,-0.00000789,0.00000044,0.00001771,0.00001516,-0.00000
 089,0.00000047,-0.00000285,0.00000005,-0.00000268,0.00000062,-0.000002
 15,0.00068368,-0.00063267,0.00034550,-0.00021868,0.00034047,-0.0000219
 2,0.00006992,0.00074964,-0.00014492,-0.00038200,0.00006741,0.00001536,
 0.00002797,-0.00000037,0.00014028,-0.10678069,0.28607683,0.00006509,-0
 .00000903,-0.00001713,0.00001213,-0.00000290,0.00000218,-0.00669972,0.
 00188525,-0.00279006,0.00002581,0.00002720,0.00001590,0.00000620,-0.00
 000487,0.00000570,-0.00027237,-0.00003512,0.00044157,0.00202423,-0.001
 51997,-0.00576874,0.01273517,-0.02771846,0.00570260,0.00041581,-0.0007
 7000,-0.00236094,-0.01777310,0.03694829,-0.05333097,-0.00478945,0.0208
 2799,-0.00157468,0.00000189,0.00000399,0.00000151,-0.00003170,-0.00000
 996,0.00001542,0.00004325,0.00001914,0.00004796,-0.00000250,-0.0000014
 4,-0.00000056,-0.00000224,0.00000103,0.00000049,-0.00000144,-0.0000003
 5,-0.00000087,-0.00000536,-0.00000015,-0.00000095,-0.00000637,0.000006
 67,0.00000249,0.00000035,0.00000220,-0.00000258,0.00109406,-0.00158273
 ,0.00034435,-0.00018701,0.00004260,-0.00001765,-0.00034567,0.00079271,
 0.00128209,-0.00084898,0.00053729,0.00118368,0.00003254,0.00018914,0.0
 0034048,0.01829095,-0.03884320,0.05794366,0.00021646,-0.00000113,0.000
 04841,0.00002059,-0.00000508,0.00000826,0.00240063,0.00065550,0.000925
 05,0.00006473,-0.00000980,-0.00001539,-0.00001540,-0.00001406,-0.00000
 579,-0.00008052,0.00019871,0.00003348,0.00003538,-0.00061427,-0.000236
 94,-0.00788476,-0.00639083,0.00459540,-0.00025628,-0.00010200,0.000002
 91,-0.17693226,-0.10824526,0.06765802,-0.02019556,-0.01739810,0.008212
 96,-0.00000290,0.00001390,0.00000456,-0.00005493,0.00001276,0.00001175
 ,0.00002209,-0.00000738,-0.00000213,-0.00000431,-0.00000276,-0.0000017
 9,-0.00000520,0.00000311,0.00000041,0.00001581,0.00002847,-0.00001981,
 -0.00001260,-0.00000767,-0.00000155,-0.00000373,0.00000204,0.00000113,
 -0.00000066,0.00000282,0.00000111,0.00017983,0.00017551,-0.00004291,-0
 .00022657,0.00044622,-0.00001478,0.00032359,0.00097729,0.00182486,0.00
 068102,0.00034548,-0.00009535,-0.00009068,0.00002795,-0.00000154,0.010
 39205,0.00752683,-0.00508508,0.19306679,0.00014926,-0.00003568,0.00011
 232,0.00001452,-0.00000272,0.00000297,0.00010380,0.00196753,-0.0001297
 5,0.00001969,0.00001140,-0.00002757,-0.00001464,-0.00000939,-0.0000081
 0,-0.00032870,0.00001684,0.00011102,0.00031252,0.00119832,-0.00009189,
 0.00969317,0.00733373,-0.00465368,0.00026498,-0.00016091,-0.00046193,-
 0.11015978,-0.14448616,0.05829915,-0.00181095,-0.00429858,0.00122932,-
 0.00000135,0.00000905,0.00000341,-0.00003271,0.00000245,0.00001257,0.0
 0003510,0.00000172,-0.00000493,-0.00000309,-0.00000205,-0.00000084,-0.
 00000311,0.00000132,0.00000083,0.00001322,0.00000844,-0.00000648,-0.00
 001055,-0.00001051,0.00000198,0.00000004,0.00000038,-0.00000043,0.0000
 0164,0.00000051,0.00000142,-0.00019734,0.00012533,0.00003776,-0.000328
 34,-0.00002614,-0.00002338,0.00142525,-0.00001688,-0.00230436,-0.00030
 720,0.00049046,0.00072221,-0.00005893,0.00002246,0.00005552,-0.0204770
 9,-0.01655118,0.00980738,0.12203441,0.15317029,0.00002822,-0.00008675,
 -0.00003116,0.00000372,-0.00000162,0.00000648,0.00243712,-0.00010757,0
 .00076436,0.00003954,-0.00001689,0.00000409,0.00001304,0.00000758,0.00
 002883,0.00008603,0.00017943,0.00019418,-0.00080628,0.00113651,0.00102
 328,0.02162420,0.01821401,-0.01358385,-0.00007751,-0.00021193,-0.00027
 302,0.06854200,0.05937722,-0.08274107,-0.01882506,-0.01636321,0.007697
 00,0.00000293,-0.00000483,-0.00000228,-0.00001986,0.00001158,0.0000017
 3,0.00003228,-0.00001293,0.00003194,-0.00000050,0.00000023,-0.00000085
 ,-0.00000219,0.00000121,-0.00000054,0.00001093,0.00001699,-0.00002055,
 0.00000136,0.00000122,-0.00000072,-0.00000789,0.00000289,-0.00000121,-
 0.00000140,0.00000254,-0.00000131,-0.00041669,-0.00014510,0.00002311,-
 0.00003293,-0.00066749,0.00033389,0.00214925,-0.00312202,-0.00456766,-
 0.00076002,0.00041066,0.00105180,0.00007361,0.00003271,0.00010256,0.00
 317721,0.00279706,-0.00253143,-0.07408055,-0.06153514,0.09386357,0.000
 56491,-0.00001452,0.00026520,0.00004915,-0.00001091,0.00001496,-0.0081
 0416,0.01134580,0.01508786,0.00010289,-0.00000509,-0.00003833,-0.00006
 062,-0.00003788,-0.00003117,-0.00043223,0.00050167,0.00013680,-0.00034
 648,0.00028431,0.00021907,-0.00446022,0.00003965,-0.00279662,-0.000506
 40,0.00136159,-0.00261485,0.01016367,-0.00830336,-0.02450433,-0.080141
 47,0.02153422,0.08051858,0.00000050,0.00003641,0.00001414,-0.00013203,
 0.00001180,0.00003195,0.00001271,0.00000393,-0.00000481,-0.00001283,-0
 .00000817,-0.00000261,-0.00001281,0.00000619,0.00000199,0.00002851,0.0
 0006282,-0.00003080,-0.00004497,-0.00002441,-0.00000786,-0.00000390,0.
 00000784,-0.00000506,0.00000708,0.00000366,0.00000563,0.00017170,-0.00
 007803,0.00013737,0.00004940,-0.00005828,0.00004285,0.00007371,0.00013
 284,-0.00011926,0.00051079,-0.00066037,-0.00147104,-0.00026731,0.00048
 125,0.00070615,0.00073269,0.00046108,0.00105778,0.00123740,-0.00000918
 ,0.00093594,0.08736069,-0.00021232,0.00004499,-0.00015640,-0.00000928,
 0.00000089,0.00001486,0.01972544,-0.02165863,-0.03246802,0.00007573,-0
 .00008268,0.00007182,0.00000738,-0.00000632,0.00002748,0.00053199,0.00
 161571,-0.00031740,0.00038706,-0.00009663,0.00008553,-0.00001870,0.000
 88599,0.00006236,-0.00020532,-0.00464113,0.00539101,-0.00094776,0.0002
 5961,-0.00303409,0.01806451,-0.06498751,-0.05731962,-0.00000843,-0.000
 00025,-0.00002227,0.00001882,0.00003267,-0.00003104,-0.00003783,-0.000
 03701,0.00001786,0.00000470,0.00000585,-0.00000190,0.00000053,0.000000
 27,-0.00000325,0.00001899,0.00003484,-0.00002741,0.00001960,0.00002470
 ,-0.00000714,-0.00000884,-0.00000735,-0.00000048,-0.00000726,0.0000210
 1,-0.00001723,-0.00015008,0.00008814,-0.00018114,-0.00001482,0.0000038
 8,-0.00000350,0.00014051,-0.00002516,-0.00032186,0.00012564,0.00023399
 ,0.00004911,0.00063840,-0.00086137,-0.00133191,-0.00025440,0.00010420,
 -0.00019475,0.00051957,0.00004927,-0.00006305,-0.03232026,0.08126585,-
 0.00022599,-0.00004645,-0.00007760,-0.00003081,0.00000431,-0.00000858,
 -0.00213360,0.00132201,0.00829461,-0.00006521,-0.00000186,0.00002708,0
 .00004110,0.00003937,0.00000822,0.00020851,-0.00034549,0.00007093,-0.0
 0013245,0.00054686,0.00018510,-0.00494030,0.00019974,-0.00121521,-0.00
 121371,0.00200254,0.00154378,0.00782285,-0.00474636,-0.01807118,0.0848
 2270,-0.06796519,-0.27423620,0.00000432,-0.00002750,-0.00000494,0.0000
 6828,-0.00000348,-0.00002156,0.00003044,-0.00002092,-0.00004664,0.0000
 0603,0.00000460,0.00000210,0.00000637,-0.00000291,-0.00000084,-0.00000
 558,-0.00002831,0.00001247,0.00002293,0.00001491,0.00000399,0.00000456
 ,-0.00000437,0.00000042,-0.00000484,-0.00000641,0.00000155,0.00012459,
 -0.00007875,0.00001942,-0.00000075,-0.00007779,0.00002900,-0.00002187,
 0.00015735,0.00027990,0.00053396,-0.00082158,-0.00122967,-0.00001181,0
 .00013943,0.00013125,-0.00007968,0.00035521,0.00022466,0.00003217,-0.0
 0019703,0.00118734,-0.08766107,0.07152592,0.29059273,0.00013777,0.0002
 3662,0.00010985,-0.00005491,0.00001842,-0.00004152,0.01358031,0.015852
 80,-0.00662128,-0.00024598,0.00012995,-0.00001103,-0.00003975,0.000048
 90,-0.00012924,-0.00165207,0.00126690,0.00093947,-0.00005088,0.0001242
 3,-0.00005835,0.00092197,0.00054734,0.00112326,0.00103930,-0.00024947,
 -0.00031504,-0.01901505,-0.01616951,0.00815963,-0.17563650,-0.11643708
 ,0.05703941,-0.00000663,-0.00000990,-0.00001459,0.00017434,-0.00002471
 ,-0.00001267,0.00003520,0.00009634,-0.00032284,0.00001194,0.00000382,0
 .00000671,0.00001784,-0.00001104,0.00000182,0.00007729,-0.00015939,0.0
 0017196,0.00004759,-0.00004239,0.00002946,0.00003735,-0.00004910,-0.00
 000469,0.00000046,-0.00002100,0.00000574,0.00007996,-0.00008693,0.0000
 3681,-0.00006239,0.00005320,0.00001581,0.00041814,-0.00009995,-0.00068
 624,0.00011849,0.00030934,-0.00006007,-0.00016117,-0.00016638,-0.00000
 088,0.00056776,0.00044243,0.00024915,-0.00288119,-0.00031739,-0.004128
 35,-0.00651238,-0.00609587,0.00278259,0.18904289,0.00064927,-0.0001942
 6,-0.00009375,0.00004360,-0.00001419,0.00003684,-0.00845807,-0.0398044
 0,0.01119328,0.00024230,-0.00004327,0.00003375,-0.00004617,-0.00003470
 ,0.00005493,0.00120493,0.00250907,-0.00100582,0.00049149,-0.00019422,-
 0.00051467,0.00019070,-0.00018046,0.00033949,-0.00487459,-0.00013675,0
 .00587158,-0.00302992,0.00027198,0.00084622,-0.11217478,-0.14876916,0.
 04622979,-0.00000958,0.00003608,-0.00000776,-0.00015133,0.00007277,0.0
 0000384,0.00006182,-0.00016090,0.00006318,-0.00000934,-0.00000209,-0.0
 0000668,-0.00001530,0.00000850,-0.00000149,0.00006443,0.00012342,-0.00
 002000,-0.00000073,-0.00001677,-0.00001161,-0.00002879,0.00000915,-0.0
 0000445,-0.00001038,0.00003076,-0.00001263,-0.00011222,0.00000211,-0.0
 0023884,0.00004857,0.00005728,0.00006982,-0.00001179,-0.00015053,-0.00
 029139,0.00009969,0.00010648,-0.00009302,0.00038922,-0.00001296,-0.000
 40781,-0.00043985,0.00035657,-0.00039719,-0.00017005,0.00119254,0.0001
 4530,0.00526394,0.00772737,-0.00194266,0.12080778,0.17721351,0.0002322
 2,0.00003839,0.00036596,0.00002407,-0.00000047,0.00000475,0.00024424,0
 .00851112,0.00107326,0.00002206,-0.00005949,-0.00000271,-0.00004709,-0
 .00004617,-0.00009105,0.00019652,-0.00129735,-0.00003263,-0.00016488,-
 0.00017096,-0.00000948,-0.00029102,-0.00024877,0.00188801,0.00042601,-
 0.00144675,-0.00137635,-0.01700561,-0.01510622,0.00687028,0.05695639,0
 .05074231,-0.07966569,-0.00001481,0.00003076,0.00001113,-0.00005840,-0
 .00000091,0.00000621,-0.00006429,0.00009849,-0.00010346,-0.00000585,-0
 .00000374,-0.00000283,-0.00000578,0.00000327,0.00000192,-0.00004261,0.
 00006440,-0.00005215,-0.00005673,0.00000580,-0.00001711,0.00001609,-0.
 00000735,-0.00000259,0.00000106,0.00000696,0.00000084,0.00006479,-0.00
 001861,0.00007649,0.00003851,0.00007438,-0.00001557,0.00030765,0.00049
 592,-0.00009797,0.00019136,0.00028955,0.00006457,-0.00000919,0.0001517
 9,0.00003455,0.00096808,0.00042860,0.00084341,-0.00375410,-0.00095028,
 -0.00255799,0.02012020,0.01825288,-0.00770720,-0.05827134,-0.05983230,
 0.08049679,0.00123137,-0.00048303,-0.00127654,-0.00304051,0.00329005,0
 .01052287,0.00001020,0.00002587,0.00002926,-0.00011652,0.00031289,-0.0
 0009216,-0.00199264,-0.01300117,-0.03144221,0.00015309,0.00031081,0.00
 047301,0.00001947,0.00003057,-0.00001049,-0.00000579,-0.00000056,-0.00
 000463,0.00003617,-0.00011249,0.00002688,0.00000226,-0.00000061,0.0000
 0040,-0.00000980,0.00000540,0.00000933,-0.04816406,0.00093621,-0.00370
 530,0.00052475,-0.00014182,-0.00002898,-0.00019494,0.00010497,0.000401
 06,0.00062498,0.00039284,0.00011325,0.00020052,-0.00209258,0.00183392,
 0.00001484,-0.00004979,0.00010003,-0.00005654,0.00052329,-0.00035205,-
 0.00595882,-0.00190092,-0.00114875,0.00127993,0.00022962,0.00074094,0.
 00000180,-0.00000180,0.00000201,0.00000620,0.00000218,0.00000583,-0.00
 000056,0.00000157,-0.00000158,0.00000023,0.00000204,-0.00000086,0.0000
 2369,0.00002836,-0.00003824,0.00000028,-0.00000042,0.00000097,0.000000
 68,-0.00000006,0.00000008,-0.00000035,0.00000102,-0.00000010,-0.000002
 68,0.00000194,0.00000021,0.05473835,0.00072510,0.00011010,0.00076840,-
 0.00140917,0.00899282,0.02354235,-0.00010697,0.00003033,0.00005569,0.0
 0018948,-0.00054029,0.00021846,-0.00061308,-0.00465298,-0.01040947,-0.
 00029826,0.00000204,-0.00002288,-0.00001412,0.00000144,0.00001906,-0.0
 0000457,-0.00001013,-0.00000664,0.00021946,0.00008712,-0.00012552,0.00
 000375,0.00000527,-0.00000236,0.00003448,-0.00003740,0.00000882,0.0005
 6523,-0.08770578,-0.09373309,-0.00003338,-0.00051521,0.00020450,-0.000
 29510,0.00021951,-0.00020352,0.00056058,0.00150007,-0.00044420,-0.0010
 0244,-0.00217367,0.00314728,-0.00001244,0.00011257,0.00000265,0.000661
 68,-0.00045802,0.00029957,-0.00235613,0.00023508,0.00016564,0.00036750
 ,-0.00001457,0.00012430,0.00000203,0.00000102,0.00000098,-0.00001587,-
 0.00000230,-0.00000627,0.00000012,-0.00000168,0.00000330,-0.00000719,0
 .00000425,-0.00000278,0.00001556,0.00000737,-0.00000486,-0.00000452,0.
 00000289,-0.00000116,-0.00000227,-0.00000171,0.00000030,-0.00000746,0.
 00000459,0.00000359,0.00000429,-0.00000412,-0.00000270,0.00392348,0.09
 451238,0.00009525,-0.00062577,0.00046870,0.00178257,-0.00941420,-0.018
 90205,-0.00006495,0.00001951,0.00003298,0.00047924,-0.00107864,-0.0012
 8021,-0.00193375,-0.00251094,-0.00589076,-0.00019280,0.00005165,0.0000
 7022,-0.00000342,0.00001242,0.00000679,-0.00000406,-0.00000724,-0.0000
 0550,0.00012248,0.00004834,-0.00006389,0.00000128,0.00000332,-0.000001
 79,0.00001938,-0.00002335,0.00000684,-0.00262094,-0.09068830,-0.272376
 11,-0.00081682,0.00177033,-0.00007678,-0.00054818,0.00031385,-0.000237
 90,-0.00034142,0.00007985,0.00161068,0.00070250,0.00317676,-0.00150327
 ,-0.00001258,0.00018171,0.00033407,0.00018636,0.00042652,0.00059783,-0
 .00109715,-0.00047887,0.00103964,-0.00041367,-0.00007801,0.00036088,0.
 00000005,0.00000036,0.00000077,-0.00000612,-0.00000192,-0.00000198,0.0
 0000053,-0.00000137,0.00000144,-0.00000499,0.00000288,-0.00000166,0.00
 002422,0.00001593,-0.00001155,-0.00000240,0.00000202,-0.00000085,-0.00
 000146,-0.00000107,0.00000003,-0.00000511,0.00000323,0.00000253,0.0000
 0180,-0.00000251,-0.00000160,0.00391530,0.09944901,0.29633223,-0.00222
 186,-0.00472536,-0.00183768,0.00608823,-0.00708057,-0.00025701,-0.0003
 8431,0.00007532,0.00027355,-0.00059734,-0.00082959,0.00024581,-0.02003
 296,0.02431860,0.00250277,-0.00336458,0.00105785,-0.00058144,-0.000079
 78,-0.00005986,0.00011169,-0.00000101,-0.00003769,-0.00002099,0.000984
 77,0.00083715,-0.00074648,0.00001480,0.00001653,-0.00001105,0.00013548
 ,-0.00013892,0.00001736,-0.15775941,0.13388261,0.00518254,0.00099294,-
 0.00155369,0.00132294,-0.00002544,0.00025092,0.00029513,-0.00094227,0.
 00017443,-0.00056244,0.00124117,-0.00005271,-0.00013664,0.00008039,0.0
 0006742,-0.00013676,0.00014325,0.00001479,-0.00003661,0.00132218,0.000
 00502,-0.00023602,0.00136045,-0.00002716,0.00061900,0.00000408,0.00000
 381,-0.00000315,-0.00007433,-0.00002012,-0.00004206,-0.00000055,-0.000
 01872,0.00001943,-0.00003389,0.00001045,-0.00000846,0.00006135,-0.0000
 8537,0.00009583,-0.00001686,0.00001180,-0.00000435,-0.00000950,-0.0000
 0717,0.00000178,-0.00002763,0.00001128,0.00001636,0.00001299,-0.000016
 79,-0.00001776,0.00067438,-0.00108980,0.00073885,0.17245527,-0.0022452
 9,-0.00094505,-0.00068407,0.01423801,-0.01420447,-0.00263164,-0.000025
 36,-0.00000907,0.00003848,-0.00131433,0.00008301,0.00044295,-0.0093523
 6,0.01118726,0.00126906,-0.00107796,0.00047741,-0.00032706,-0.00001093
 ,-0.00001750,0.00000775,0.00000049,-0.00000288,-0.00000113,0.00011122,
 0.00019689,-0.00012198,0.00000328,0.00000151,-0.00000331,0.00001100,-0
 .00001514,0.00000156,0.13553154,-0.20836544,-0.00622222,0.00029285,-0.
 00334538,0.00265468,-0.00001189,0.00018991,0.00013044,-0.00104762,-0.0
 0048970,0.00044240,0.00028584,0.00160481,0.00002853,0.00011254,0.00002
 293,0.00001954,0.00020373,0.00009948,0.00010152,0.00080555,0.00026453,
 0.00011642,0.00082601,0.00066043,0.00021343,0.00000034,-0.00000002,0.0
 0000028,-0.00000822,-0.00000442,-0.00000557,-0.00000132,-0.00000437,0.
 00000279,-0.00000394,-0.00000103,0.00000055,0.00001366,-0.00002925,0.0
 0002417,-0.00000127,0.00000069,0.00000040,0.00000008,-0.00000013,0.000
 00109,-0.00000107,0.00000023,0.00000120,-0.00000224,0.00000118,-0.0000
 0251,0.00766212,-0.00971100,-0.00064549,-0.14499445,0.22235457,-0.0005
 4329,-0.00072917,0.00062872,-0.01518010,0.01528203,-0.00032978,-0.0000
 4650,0.00000006,0.00002614,0.00114406,-0.00088872,-0.00122063,-0.00474
 926,0.00579371,-0.00056642,-0.00045956,0.00010532,-0.00005111,-0.00000
 476,-0.00000175,0.00000610,-0.00000189,-0.00000254,-0.00000320,0.00009
 030,0.00011745,-0.00006333,0.00000169,0.00000090,0.00000037,0.00001954
 ,-0.00001199,0.00000228,0.00710810,-0.00816900,-0.04737237,-0.00089755
 ,0.00543791,-0.00361593,-0.00029765,0.00019267,-0.00003788,0.00068269,
 0.00048856,0.00008202,-0.00086321,-0.00021401,0.00080827,-0.00009309,0
 .00009371,0.00022827,0.00013381,0.00019813,0.00038517,0.00039555,0.000
 42537,0.00024205,0.00043784,-0.00020144,0.00017560,-0.00000061,0.00000
 012,-0.00000064,-0.00000493,-0.00000181,-0.00000337,-0.00000054,-0.000
 00217,0.00000152,-0.00000385,0.00000043,-0.00000081,0.00001271,-0.0000
 1007,0.00000562,-0.00000167,0.00000103,-0.00000072,-0.00000130,-0.0000
 0097,-0.00000055,-0.00000355,0.00000039,0.00000252,0.00000465,-0.00000
 347,-0.00000180,0.01992654,-0.02304843,-0.00050973,-0.00680416,0.00514
 775,0.05118362\\-0.00078869,-0.00027247,0.00110637,-0.00000474,-0.0000
 0812,0.00000244,0.00001240,-0.00000941,-0.00001772,-0.00000029,-0.0000
 1294,-0.00000652,0.00044492,0.00045232,-0.00066942,0.00076933,-0.00100
 032,-0.00086652,-0.00000774,0.00000346,0.00000581,0.00000637,-0.000003
 94,0.00000178,-0.00042762,0.00085150,0.00044943,-0.00000258,0.00000310
 ,-0.00000204,-0.00000495,-0.00000113,-0.00000614,0.00000175,0.00000325
 ,0.00000290,-0.00000362,0.00000223,0.00000639,-0.00000091,0.00000148,-
 0.00000056,0.00000286,-0.00000316,0.,0.00000142,-0.00000782,0.00000251
 ,0.00000046,-0.00000047,-0.00000343,-0.00000031,0.00000088,0.00000091,
 -0.00000101,-0.00000453,0.00000379,-0.00000127,0.00000041,0.00000587,0
 .00000247,-0.00000036,0.00000133,-0.00000010,-0.00000216,-0.00000148,0
 .00000154,0.00000174,-0.00000491,0.00000021,-0.00000151,-0.00000230,-0
 .00000412,-0.00000814,0.00000415,0.00000113,0.00000213,-0.00000695,-0.
 00000063,0.00000463,-0.00000090,0.00000167,0.00000513,-0.00000416,0.00
 000205,0.00000600,-0.00000576,-0.00000025,0.00000069,0.00000153,0.0000
 0027,-0.00000248,0.00000364\\\@


 THE WORLD OF CHEMICAL REACTIONS IS LIKE A STAGE,
 ON WHICH SCENE AFTER SCENE IS CEASELESSLY PLAYED.
 THE ACTORS ON IT ARE THE ELEMENTS.
   -- CLEMENS WINKLER   BER. 30,13(1897)
 (DISCOVERER OF GERMANIUM, FEB 6, 1886)
 Job cpu time:       0 days 14 hours 12 minutes 35.4 seconds.
 Elapsed time:       0 days  0 hours 53 minutes 18.6 seconds.
 File lengths (MBytes):  RWF=    695 Int=      0 D2E=      0 Chk=     33 Scr=      1
 Normal termination of Gaussian 16 at Sun Nov  4 22:51:00 2018.
