 Entering Gaussian System, Link 0=g16
 Initial command:
 /apps/gaussian/g16a03/g16/l1.exe "/jobfs/local/2012021.r-man2/Gau-15003.inp" -scrdir="/jobfs/local/2012021.r-man2/"
 Entering Link 1 = /apps/gaussian/g16a03/g16/l1.exe PID=     15004.
  
 Copyright (c) 1988,1990,1992,1993,1995,1998,2003,2009,2016,
            Gaussian, Inc.  All Rights Reserved.
  
 This is part of the Gaussian(R) 16 program.  It is based on
 the Gaussian(R) 09 system (copyright 2009, Gaussian, Inc.),
 the Gaussian(R) 03 system (copyright 2003, Gaussian, Inc.),
 the Gaussian(R) 98 system (copyright 1998, Gaussian, Inc.),
 the Gaussian(R) 94 system (copyright 1995, Gaussian, Inc.),
 the Gaussian 92(TM) system (copyright 1992, Gaussian, Inc.),
 the Gaussian 90(TM) system (copyright 1990, Gaussian, Inc.),
 the Gaussian 88(TM) system (copyright 1988, Gaussian, Inc.),
 the Gaussian 86(TM) system (copyright 1986, Carnegie Mellon
 University), and the Gaussian 82(TM) system (copyright 1983,
 Carnegie Mellon University). Gaussian is a federally registered
 trademark of Gaussian, Inc.
  
 This software contains proprietary and confidential information,
 including trade secrets, belonging to Gaussian, Inc.
  
 This software is provided under written license and may be
 used, copied, transmitted, or stored only in accord with that
 written license.
  
 The following legend is applicable only to US Government
 contracts under FAR:
  
                    RESTRICTED RIGHTS LEGEND
  
 Use, reproduction and disclosure by the US Government is
 subject to restrictions as set forth in subparagraphs (a)
 and (c) of the Commercial Computer Software - Restricted
 Rights clause in FAR 52.227-19.
  
 Gaussian, Inc.
 340 Quinnipiac St., Bldg. 40, Wallingford CT 06492
  
  
 ---------------------------------------------------------------
 Warning -- This program may not be used in any manner that
 competes with the business of Gaussian, Inc. or will provide
 assistance to any competitor of Gaussian, Inc.  The licensee
 of this program is prohibited from giving any competitor of
 Gaussian, Inc. access to this program.  By using this program,
 the user acknowledges that Gaussian, Inc. is engaged in the
 business of creating and licensing software in the field of
 computational chemistry and represents and warrants to the
 licensee that it is not a competitor of Gaussian, Inc. and that
 it will not use this program in any manner prohibited above.
 ---------------------------------------------------------------
  

 Cite this work as:
 Gaussian 16, Revision A.03,
 M. J. Frisch, G. W. Trucks, H. B. Schlegel, G. E. Scuseria, 
 M. A. Robb, J. R. Cheeseman, G. Scalmani, V. Barone, 
 G. A. Petersson, H. Nakatsuji, X. Li, M. Caricato, A. V. Marenich, 
 J. Bloino, B. G. Janesko, R. Gomperts, B. Mennucci, H. P. Hratchian, 
 J. V. Ortiz, A. F. Izmaylov, J. L. Sonnenberg, D. Williams-Young, 
 F. Ding, F. Lipparini, F. Egidi, J. Goings, B. Peng, A. Petrone, 
 T. Henderson, D. Ranasinghe, V. G. Zakrzewski, J. Gao, N. Rega, 
 G. Zheng, W. Liang, M. Hada, M. Ehara, K. Toyota, R. Fukuda, 
 J. Hasegawa, M. Ishida, T. Nakajima, Y. Honda, O. Kitao, H. Nakai, 
 T. Vreven, K. Throssell, J. A. Montgomery, Jr., J. E. Peralta, 
 F. Ogliaro, M. J. Bearpark, J. J. Heyd, E. N. Brothers, K. N. Kudin, 
 V. N. Staroverov, T. A. Keith, R. Kobayashi, J. Normand, 
 K. Raghavachari, A. P. Rendell, J. C. Burant, S. S. Iyengar, 
 J. Tomasi, M. Cossi, J. M. Millam, M. Klene, C. Adamo, R. Cammi, 
 J. W. Ochterski, R. L. Martin, K. Morokuma, O. Farkas, 
 J. B. Foresman, and D. J. Fox, Gaussian, Inc., Wallingford CT, 2016.
 
 ******************************************
 Gaussian 16:  ES64L-G16RevA.03 25-Dec-2016
                 4-Nov-2018 
 ******************************************
 %mem=6000mb
 %nproc=24
 Will use up to   24 processors via shared memory.
 %chk=D_a1-4_2SO_PSI.inp_extract_1.chk
 ----------------------------------------------------------------------
 #M062X/6-311++G(2d,2p) opt=ModRedundant freq=noraman SCRF=(Solvent=Wat
 er)
 ----------------------------------------------------------------------
 1/18=120,19=15,26=3,38=1/1,3;
 2/9=110,12=2,17=6,18=5,40=1/2;
 3/5=4,6=6,7=1212,11=2,25=1,30=1,70=2201,71=1,72=1,74=-55/1,2,3;
 4//1;
 5/5=2,38=5,53=1/2;
 6/7=2,8=2,9=2,10=2,28=1/1;
 7//1,2,3,16;
 1/18=20,19=15,26=3/3(2);
 2/9=110/2;
 99//99;
 2/9=110/2;
 3/5=4,6=6,7=1212,11=2,25=1,30=1,70=2205,71=1,72=1,74=-55/1,2,3;
 4/5=5,16=3,69=1/1;
 5/5=2,38=5,53=1/2;
 7//1,2,3,16;
 1/18=20,19=15,26=3/3(-5);
 2/9=110/2;
 6/7=2,8=2,9=2,10=2,19=2,28=1/1;
 99/9=1/99;
 ----------------------------
 D_a1-4_2SO_PSI.inp_extract_1
 ----------------------------
 Symbolic Z-matrix:
 Charge =  0 Multiplicity = 1
 C                     1.01717   0.09154  -0.47737 
 C                     3.7714   -0.39059   0.50677 
 O                    -1.81231  -0.03849  -1.32602 
 C                     1.64766  -1.24701  -0.08685 
 C                     2.00848   1.22893  -0.21273 
 O                    -0.17435   0.29258   0.27178 
 C                    -2.27606   1.34791   0.59982 
 C                    -3.00592   0.18235   1.26923 
 C                    -1.24819   0.86739  -0.41264 
 C                    -3.56237  -0.75792   0.20006 
 C                    -2.46001  -1.17079  -0.76074 
 C                     3.43194   0.73924  -0.47243 
 O                     2.60806  -1.08443   0.93354 
 H                     0.7627    0.04947  -1.52883 
 H                     4.46444  -1.09874   0.0623 
 H                     4.22002   0.00533   1.40798 
 H                     0.89536  -1.9244    0.28975 
 H                     2.11568  -1.70487  -0.95318 
 H                     1.91418   1.53661   0.82423 
 H                     1.77107   2.08947  -0.8289 
 H                    -1.78173   1.98052   1.32911 
 H                    -2.9935    1.9646    0.06542 
 H                    -2.32492  -0.36276   1.91733 
 H                    -3.80564   0.56204   1.89769 
 H                    -0.89369   1.68829  -1.02044 
 H                    -3.99339  -1.64859   0.64842 
 H                    -4.35203  -0.25736  -0.35559 
 H                    -2.85377  -1.72782  -1.59963 
 H                    -1.72618  -1.79137  -0.25795 
 H                     3.51672   0.39154  -1.49814 
 H                     4.14868   1.54438  -0.35255 
 
 The following ModRedundant input section has been read:
 D       5       1       6       9 F                                           
 

 GradGradGradGradGradGradGradGradGradGradGradGradGradGradGradGradGradGrad
 Berny optimization.
 Initialization pass.
                           ----------------------------
                           !    Initial Parameters    !
                           ! (Angstroms and Degrees)  !
 --------------------------                            --------------------------
 ! Name  Definition              Value          Derivative Info.                !
 --------------------------------------------------------------------------------
 ! R1    R(1,4)                  1.5303         estimate D2E/DX2                !
 ! R2    R(1,5)                  1.5318         estimate D2E/DX2                !
 ! R3    R(1,6)                  1.4217         estimate D2E/DX2                !
 ! R4    R(1,14)                 1.0826         estimate D2E/DX2                !
 ! R5    R(2,12)                 1.5332         estimate D2E/DX2                !
 ! R6    R(2,13)                 1.4202         estimate D2E/DX2                !
 ! R7    R(2,15)                 1.086          estimate D2E/DX2                !
 ! R8    R(2,16)                 1.0817         estimate D2E/DX2                !
 ! R9    R(3,9)                  1.4047         estimate D2E/DX2                !
 ! R10   R(3,11)                 1.4217         estimate D2E/DX2                !
 ! R11   R(4,13)                 1.4107         estimate D2E/DX2                !
 ! R12   R(4,17)                 1.0801         estimate D2E/DX2                !
 ! R13   R(4,18)                 1.0859         estimate D2E/DX2                !
 ! R14   R(5,12)                 1.5276         estimate D2E/DX2                !
 ! R15   R(5,19)                 1.0857         estimate D2E/DX2                !
 ! R16   R(5,20)                 1.0847         estimate D2E/DX2                !
 ! R17   R(6,9)                  1.3971         estimate D2E/DX2                !
 ! R18   R(7,8)                  1.5295         estimate D2E/DX2                !
 ! R19   R(7,9)                  1.5207         estimate D2E/DX2                !
 ! R20   R(7,21)                 1.0846         estimate D2E/DX2                !
 ! R21   R(7,22)                 1.0866         estimate D2E/DX2                !
 ! R22   R(8,10)                 1.5287         estimate D2E/DX2                !
 ! R23   R(8,23)                 1.0867         estimate D2E/DX2                !
 ! R24   R(8,24)                 1.0857         estimate D2E/DX2                !
 ! R25   R(9,25)                 1.0812         estimate D2E/DX2                !
 ! R26   R(10,11)                1.5195         estimate D2E/DX2                !
 ! R27   R(10,26)                1.0863         estimate D2E/DX2                !
 ! R28   R(10,27)                1.0876         estimate D2E/DX2                !
 ! R29   R(11,28)                1.0812         estimate D2E/DX2                !
 ! R30   R(11,29)                1.0846         estimate D2E/DX2                !
 ! R31   R(12,30)                1.0864         estimate D2E/DX2                !
 ! R32   R(12,31)                1.0846         estimate D2E/DX2                !
 ! A1    A(4,1,5)              109.8018         estimate D2E/DX2                !
 ! A2    A(4,1,6)              109.5431         estimate D2E/DX2                !
 ! A3    A(4,1,14)             108.1015         estimate D2E/DX2                !
 ! A4    A(5,1,6)              110.263          estimate D2E/DX2                !
 ! A5    A(5,1,14)             110.4113         estimate D2E/DX2                !
 ! A6    A(6,1,14)             108.6785         estimate D2E/DX2                !
 ! A7    A(12,2,13)            111.7521         estimate D2E/DX2                !
 ! A8    A(12,2,15)            111.1273         estimate D2E/DX2                !
 ! A9    A(12,2,16)            110.7438         estimate D2E/DX2                !
 ! A10   A(13,2,15)            109.0972         estimate D2E/DX2                !
 ! A11   A(13,2,16)            105.5561         estimate D2E/DX2                !
 ! A12   A(15,2,16)            108.3589         estimate D2E/DX2                !
 ! A13   A(9,3,11)             115.9799         estimate D2E/DX2                !
 ! A14   A(1,4,13)             111.3636         estimate D2E/DX2                !
 ! A15   A(1,4,17)             110.523          estimate D2E/DX2                !
 ! A16   A(1,4,18)             110.0471         estimate D2E/DX2                !
 ! A17   A(13,4,17)            107.1128         estimate D2E/DX2                !
 ! A18   A(13,4,18)            109.4051         estimate D2E/DX2                !
 ! A19   A(17,4,18)            108.2958         estimate D2E/DX2                !
 ! A20   A(1,5,12)             109.6121         estimate D2E/DX2                !
 ! A21   A(1,5,19)             108.6154         estimate D2E/DX2                !
 ! A22   A(1,5,20)             110.4439         estimate D2E/DX2                !
 ! A23   A(12,5,19)            109.5206         estimate D2E/DX2                !
 ! A24   A(12,5,20)            111.205          estimate D2E/DX2                !
 ! A25   A(19,5,20)            107.3797         estimate D2E/DX2                !
 ! A26   A(1,6,9)              116.3719         estimate D2E/DX2                !
 ! A27   A(8,7,9)              111.9094         estimate D2E/DX2                !
 ! A28   A(8,7,21)             111.5721         estimate D2E/DX2                !
 ! A29   A(8,7,22)             109.432          estimate D2E/DX2                !
 ! A30   A(9,7,21)             108.8997         estimate D2E/DX2                !
 ! A31   A(9,7,22)             107.349          estimate D2E/DX2                !
 ! A32   A(21,7,22)            107.4937         estimate D2E/DX2                !
 ! A33   A(7,8,10)             109.6527         estimate D2E/DX2                !
 ! A34   A(7,8,23)             110.1354         estimate D2E/DX2                !
 ! A35   A(7,8,24)             109.7762         estimate D2E/DX2                !
 ! A36   A(10,8,23)            109.6754         estimate D2E/DX2                !
 ! A37   A(10,8,24)            110.5998         estimate D2E/DX2                !
 ! A38   A(23,8,24)            106.967          estimate D2E/DX2                !
 ! A39   A(3,9,6)              111.2159         estimate D2E/DX2                !
 ! A40   A(3,9,7)              111.4234         estimate D2E/DX2                !
 ! A41   A(3,9,25)             104.8201         estimate D2E/DX2                !
 ! A42   A(6,9,7)              108.8667         estimate D2E/DX2                !
 ! A43   A(6,9,25)             109.6184         estimate D2E/DX2                !
 ! A44   A(7,9,25)             110.8538         estimate D2E/DX2                !
 ! A45   A(8,10,11)            110.2003         estimate D2E/DX2                !
 ! A46   A(8,10,26)            111.1037         estimate D2E/DX2                !
 ! A47   A(8,10,27)            109.7874         estimate D2E/DX2                !
 ! A48   A(11,10,26)           109.0291         estimate D2E/DX2                !
 ! A49   A(11,10,27)           109.1934         estimate D2E/DX2                !
 ! A50   A(26,10,27)           107.4655         estimate D2E/DX2                !
 ! A51   A(3,11,10)            111.4401         estimate D2E/DX2                !
 ! A52   A(3,11,28)            105.5296         estimate D2E/DX2                !
 ! A53   A(3,11,29)            109.3767         estimate D2E/DX2                !
 ! A54   A(10,11,28)           111.4925         estimate D2E/DX2                !
 ! A55   A(10,11,29)           110.6827         estimate D2E/DX2                !
 ! A56   A(28,11,29)           108.1369         estimate D2E/DX2                !
 ! A57   A(2,12,5)             109.5103         estimate D2E/DX2                !
 ! A58   A(2,12,30)            110.48           estimate D2E/DX2                !
 ! A59   A(2,12,31)            109.2776         estimate D2E/DX2                !
 ! A60   A(5,12,30)            109.6239         estimate D2E/DX2                !
 ! A61   A(5,12,31)            111.0414         estimate D2E/DX2                !
 ! A62   A(30,12,31)           106.8806         estimate D2E/DX2                !
 ! A63   A(2,13,4)             113.3674         estimate D2E/DX2                !
 ! D1    D(5,1,4,13)            27.8766         estimate D2E/DX2                !
 ! D2    D(5,1,4,17)           146.8109         estimate D2E/DX2                !
 ! D3    D(5,1,4,18)           -93.6238         estimate D2E/DX2                !
 ! D4    D(6,1,4,13)           -93.3488         estimate D2E/DX2                !
 ! D5    D(6,1,4,17)            25.5855         estimate D2E/DX2                !
 ! D6    D(6,1,4,18)           145.1508         estimate D2E/DX2                !
 ! D7    D(14,1,4,13)          148.3854         estimate D2E/DX2                !
 ! D8    D(14,1,4,17)          -92.6803         estimate D2E/DX2                !
 ! D9    D(14,1,4,18)           26.885          estimate D2E/DX2                !
 ! D10   D(4,1,5,12)            34.0125         estimate D2E/DX2                !
 ! D11   D(4,1,5,19)           -85.613          estimate D2E/DX2                !
 ! D12   D(4,1,5,20)           156.8745         estimate D2E/DX2                !
 ! D13   D(6,1,5,12)           154.8043         estimate D2E/DX2                !
 ! D14   D(6,1,5,19)            35.1788         estimate D2E/DX2                !
 ! D15   D(6,1,5,20)           -82.3337         estimate D2E/DX2                !
 ! D16   D(14,1,5,12)          -85.0875         estimate D2E/DX2                !
 ! D17   D(14,1,5,19)          155.287          estimate D2E/DX2                !
 ! D18   D(14,1,5,20)           37.7745         estimate D2E/DX2                !
 ! D19   D(4,1,6,9)           -140.6581         estimate D2E/DX2                !
 ! D20   D(5,1,6,9)             98.3953         Frozen                          !
 ! D21   D(14,1,6,9)           -22.7519         estimate D2E/DX2                !
 ! D22   D(13,2,12,5)           26.7809         estimate D2E/DX2                !
 ! D23   D(13,2,12,30)         -94.0613         estimate D2E/DX2                !
 ! D24   D(13,2,12,31)         148.6153         estimate D2E/DX2                !
 ! D25   D(15,2,12,5)          148.9093         estimate D2E/DX2                !
 ! D26   D(15,2,12,30)          28.0671         estimate D2E/DX2                !
 ! D27   D(15,2,12,31)         -89.2563         estimate D2E/DX2                !
 ! D28   D(16,2,12,5)          -90.5982         estimate D2E/DX2                !
 ! D29   D(16,2,12,30)         148.5596         estimate D2E/DX2                !
 ! D30   D(16,2,12,31)          31.2362         estimate D2E/DX2                !
 ! D31   D(12,2,13,4)           37.6819         estimate D2E/DX2                !
 ! D32   D(15,2,13,4)          -85.6043         estimate D2E/DX2                !
 ! D33   D(16,2,13,4)          158.1407         estimate D2E/DX2                !
 ! D34   D(11,3,9,6)            66.7488         estimate D2E/DX2                !
 ! D35   D(11,3,9,7)           -54.9153         estimate D2E/DX2                !
 ! D36   D(11,3,9,25)         -174.8743         estimate D2E/DX2                !
 ! D37   D(9,3,11,10)           57.0455         estimate D2E/DX2                !
 ! D38   D(9,3,11,28)          178.2207         estimate D2E/DX2                !
 ! D39   D(9,3,11,29)          -65.6618         estimate D2E/DX2                !
 ! D40   D(1,4,13,2)           -68.6657         estimate D2E/DX2                !
 ! D41   D(17,4,13,2)          170.3822         estimate D2E/DX2                !
 ! D42   D(18,4,13,2)           53.2077         estimate D2E/DX2                !
 ! D43   D(1,5,12,2)           -62.8145         estimate D2E/DX2                !
 ! D44   D(1,5,12,30)           58.5457         estimate D2E/DX2                !
 ! D45   D(1,5,12,31)          176.4161         estimate D2E/DX2                !
 ! D46   D(19,5,12,2)           56.2544         estimate D2E/DX2                !
 ! D47   D(19,5,12,30)         177.6146         estimate D2E/DX2                !
 ! D48   D(19,5,12,31)         -64.515          estimate D2E/DX2                !
 ! D49   D(20,5,12,2)          174.7754         estimate D2E/DX2                !
 ! D50   D(20,5,12,30)         -63.8644         estimate D2E/DX2                !
 ! D51   D(20,5,12,31)          54.006          estimate D2E/DX2                !
 ! D52   D(1,6,9,3)             72.0069         estimate D2E/DX2                !
 ! D53   D(1,6,9,7)           -164.8512         estimate D2E/DX2                !
 ! D54   D(1,6,9,25)           -43.4392         estimate D2E/DX2                !
 ! D55   D(9,7,8,10)           -51.8707         estimate D2E/DX2                !
 ! D56   D(9,7,8,23)            68.9083         estimate D2E/DX2                !
 ! D57   D(9,7,8,24)          -173.5672         estimate D2E/DX2                !
 ! D58   D(21,7,8,10)         -174.1764         estimate D2E/DX2                !
 ! D59   D(21,7,8,23)          -53.3974         estimate D2E/DX2                !
 ! D60   D(21,7,8,24)           64.1271         estimate D2E/DX2                !
 ! D61   D(22,7,8,10)           66.9914         estimate D2E/DX2                !
 ! D62   D(22,7,8,23)         -172.2296         estimate D2E/DX2                !
 ! D63   D(22,7,8,24)          -54.7051         estimate D2E/DX2                !
 ! D64   D(8,7,9,3)             51.7415         estimate D2E/DX2                !
 ! D65   D(8,7,9,6)            -71.2761         estimate D2E/DX2                !
 ! D66   D(8,7,9,25)           168.0689         estimate D2E/DX2                !
 ! D67   D(21,7,9,3)           175.5608         estimate D2E/DX2                !
 ! D68   D(21,7,9,6)            52.5431         estimate D2E/DX2                !
 ! D69   D(21,7,9,25)          -68.1118         estimate D2E/DX2                !
 ! D70   D(22,7,9,3)           -68.346          estimate D2E/DX2                !
 ! D71   D(22,7,9,6)           168.6363         estimate D2E/DX2                !
 ! D72   D(22,7,9,25)           47.9814         estimate D2E/DX2                !
 ! D73   D(7,8,10,11)           52.991          estimate D2E/DX2                !
 ! D74   D(7,8,10,26)          173.9482         estimate D2E/DX2                !
 ! D75   D(7,8,10,27)          -67.3177         estimate D2E/DX2                !
 ! D76   D(23,8,10,11)         -68.0661         estimate D2E/DX2                !
 ! D77   D(23,8,10,26)          52.891          estimate D2E/DX2                !
 ! D78   D(23,8,10,27)         171.6252         estimate D2E/DX2                !
 ! D79   D(24,8,10,11)         174.1924         estimate D2E/DX2                !
 ! D80   D(24,8,10,26)         -64.8505         estimate D2E/DX2                !
 ! D81   D(24,8,10,27)          53.8837         estimate D2E/DX2                !
 ! D82   D(8,10,11,3)          -54.7755         estimate D2E/DX2                !
 ! D83   D(8,10,11,28)        -172.406          estimate D2E/DX2                !
 ! D84   D(8,10,11,29)          67.1796         estimate D2E/DX2                !
 ! D85   D(26,10,11,3)        -176.9658         estimate D2E/DX2                !
 ! D86   D(26,10,11,28)         65.4038         estimate D2E/DX2                !
 ! D87   D(26,10,11,29)        -55.0107         estimate D2E/DX2                !
 ! D88   D(27,10,11,3)          65.8903         estimate D2E/DX2                !
 ! D89   D(27,10,11,28)        -51.7402         estimate D2E/DX2                !
 ! D90   D(27,10,11,29)       -172.1547         estimate D2E/DX2                !
 --------------------------------------------------------------------------------
 Trust Radius=3.00D-01 FncErr=1.00D-07 GrdErr=1.00D-06 EigMax=2.50D+02 EigMin=1.00D-04
 Number of steps in this run=    186 maximum allowed number of steps=    186.
 GradGradGradGradGradGradGradGradGradGradGradGradGradGradGradGradGradGrad

                          Input orientation:                          
 ---------------------------------------------------------------------
 Center     Atomic      Atomic             Coordinates (Angstroms)
 Number     Number       Type             X           Y           Z
 ---------------------------------------------------------------------
      1          6           0        1.017174    0.091538   -0.477372
      2          6           0        3.771397   -0.390590    0.506771
      3          8           0       -1.812306   -0.038485   -1.326023
      4          6           0        1.647664   -1.247009   -0.086854
      5          6           0        2.008485    1.228930   -0.212729
      6          8           0       -0.174347    0.292582    0.271776
      7          6           0       -2.276057    1.347914    0.599821
      8          6           0       -3.005917    0.182351    1.269234
      9          6           0       -1.248187    0.867393   -0.412643
     10          6           0       -3.562368   -0.757918    0.200055
     11          6           0       -2.460009   -1.170794   -0.760742
     12          6           0        3.431939    0.739243   -0.472426
     13          8           0        2.608060   -1.084432    0.933536
     14          1           0        0.762704    0.049470   -1.528834
     15          1           0        4.464443   -1.098736    0.062303
     16          1           0        4.220019    0.005328    1.407975
     17          1           0        0.895360   -1.924399    0.289754
     18          1           0        2.115676   -1.704871   -0.953181
     19          1           0        1.914184    1.536611    0.824230
     20          1           0        1.771073    2.089467   -0.828897
     21          1           0       -1.781733    1.980520    1.329105
     22          1           0       -2.993498    1.964599    0.065421
     23          1           0       -2.324916   -0.362757    1.917326
     24          1           0       -3.805644    0.562039    1.897686
     25          1           0       -0.893689    1.688290   -1.020438
     26          1           0       -3.993391   -1.648593    0.648421
     27          1           0       -4.352032   -0.257363   -0.355593
     28          1           0       -2.853767   -1.727822   -1.599634
     29          1           0       -1.726183   -1.791369   -0.257953
     30          1           0        3.516723    0.391540   -1.498135
     31          1           0        4.148683    1.544380   -0.352549
 ---------------------------------------------------------------------
                    Distance matrix (angstroms):
                    1          2          3          4          5
     1  C    0.000000
     2  C    2.964242   0.000000
     3  O    2.956869   5.887347   0.000000
     4  C    1.530271   2.365605   3.868780   0.000000
     5  C    1.531794   2.499677   4.176626   2.505257   0.000000
     6  O    1.421747   4.011339   2.312029   2.412194   2.424097
     7  C    3.685674   6.293072   2.417859   4.754023   4.362533
     8  C    4.386814   6.844092   2.865106   5.053500   5.332520
     9  C    2.395413   5.255860   1.404674   3.600387   3.282771
    10  C    4.706664   7.349361   2.430888   5.240798   5.928942
    11  C    3.710065   6.406694   1.421684   4.163281   5.101611
    12  C    2.500127   1.533160   5.369878   2.697684   1.527566
    13  O    2.429915   1.420175   5.073386   1.410669   2.650482
    14  H    1.082634   3.659177   2.584482   2.131506   2.162228
    15  H    3.686688   1.085972   6.515302   2.824620   3.394908
    16  H    3.717550   1.081749   6.623112   3.227983   3.002460
    17  H    2.160399   3.266689   3.674080   1.080117   3.381571
    18  H    2.158746   2.569087   4.283094   1.085908   3.027697
    19  H    2.141735   2.695204   4.581620   2.941028   1.085746
    20  H    2.164175   3.454850   4.197132   3.420224   1.084690
    21  H    3.829555   6.093903   3.335719   4.917585   4.160275
    22  H    4.459649   7.176734   2.709922   5.646060   5.063439
    23  H    4.136487   6.257433   3.299581   4.536522   5.084188
    24  H    5.396466   7.762325   3.837489   6.078620   6.221149
    25  H    2.548712   5.330773   1.979644   3.993249   3.047297
    26  H    5.422290   7.867310   3.353805   5.702929   6.711500
    27  H    5.381908   8.170160   2.727609   6.086705   6.533426
    28  H    4.421960   7.079402   2.003338   4.773109   5.857250
    29  H    3.334590   5.724541   2.054457   3.421761   4.803332
    30  H    2.716561   2.167080   5.349121   2.858310   2.151342
    31  H    3.454371   2.150554   6.243917   3.757332   2.167834
                    6          7          8          9         10
     6  O    0.000000
     7  C    2.374558   0.000000
     8  C    3.004141   1.529492   0.000000
     9  C    1.397129   1.520691   2.527372   0.000000
    10  C    3.547870   2.499787   1.528688   2.893522   0.000000
    11  C    2.903759   2.868599   2.499964   2.396642   1.519471
    12  C    3.709264   5.839641   6.692496   4.682262   7.184292
    13  O    3.174253   5.466468   5.764909   4.526860   6.222442
    14  H    2.044349   3.930801   4.695673   2.441017   4.727280
    15  H    4.847475   7.190922   7.674904   6.060147   8.035224
    16  H    4.547957   6.682414   7.229435   5.827442   7.912469
    17  H    2.461626   4.567500   4.540676   3.589186   4.608694
    18  H    3.276361   5.569437   5.893339   4.268993   5.870848
    19  H    2.492945   4.200486   5.122445   3.460968   5.970518
    20  H    2.867915   4.355502   5.555077   3.283697   6.132857
    21  H    2.559447   1.084621   2.176149   2.134809   3.456075
    22  H    3.284180   1.086557   2.150751   2.116251   2.784571
    23  H    2.786082   2.159769   1.086705   2.846291   2.153244
    24  H    3.987795   2.154458   1.085669   3.459978   2.164121
    25  H    2.033537   2.156858   3.460052   1.081182   3.820391
    26  H    4.300595   3.454078   2.170914   3.871975   1.086331
    27  H    4.260174   2.792741   2.155328   3.301846   1.087598
    28  H    3.842330   3.825115   3.449973   3.274443   2.163726
    29  H    2.651728   3.300490   2.804566   2.705813   2.156239
    30  H    4.094676   6.234771   7.088506   4.910101   7.370118
    31  H    4.543717   6.497914   7.461475   5.439497   8.066366
                   11         12         13         14         15
    11  C    0.000000
    12  C    6.200518   0.000000
    13  O    5.344470   2.445669   0.000000
    14  H    3.530565   2.952389   3.279381   0.000000
    15  H    6.973567   2.174895   2.050709   4.189626   0.000000
    16  H    7.121051   2.166935   2.002768   4.536499   1.757707
    17  H    3.595826   3.756347   2.013291   2.687195   3.670396
    18  H    4.610766   2.817333   2.046237   2.289022   2.629698
    19  H    5.382912   2.149580   2.713536   3.012375   3.745585
    20  H    5.341910   2.169943   3.725634   2.380821   4.267683
    21  H    3.841653   5.654083   5.368490   4.286132   7.078229
    22  H    3.286007   6.563308   6.436433   4.507596   8.062563
    23  H    2.800575   6.329826   5.081625   4.645358   7.076593
    24  H    3.446837   7.617837   6.691491   5.733548   8.632563
    25  H    3.270346   4.462294   4.875269   2.384918   6.135912
    26  H    2.136655   7.879948   6.631646   5.499482   8.495930
    27  H    2.139685   7.848381   7.126625   5.256535   8.866385
    28  H    1.081233   6.845956   6.054953   4.030216   7.530869
    29  H    1.084625   5.749454   4.550282   3.346399   6.237480
    30  H    6.221412   1.086354   2.986166   2.775351   2.356706
    31  H    7.156368   1.084591   3.307293   3.883717   2.694043
                   16         17         18         19         20
    16  H    0.000000
    17  H    4.003451   0.000000
    18  H    3.595566   1.755634   0.000000
    19  H    2.828862   3.647226   3.702296   0.000000
    20  H    3.917214   4.257860   3.811981   1.748988   0.000000
    21  H    6.318911   4.847213   5.829300   3.756562   4.158278
    22  H    7.594473   5.504348   6.372301   4.984406   4.849385
    23  H    6.575036   3.931653   5.455267   4.772046   5.507474
    24  H    8.059839   5.555831   6.951860   5.900723   6.392735
    25  H    5.905892   4.238965   4.535895   3.363028   2.701590
    26  H    8.412638   4.909643   6.315774   6.713857   7.027418
    27  H    8.755526   5.543519   6.654595   6.623880   6.574499
    28  H    7.879592   4.202902   5.011366   6.266179   6.046063
    29  H    6.431233   2.681449   3.905215   5.049638   5.255251
    30  H    3.014840   3.928316   2.579699   3.045111   2.525496
    31  H    2.339490   4.798864   3.879627   2.525442   2.485368
                   21         22         23         24         25
    21  H    0.000000
    22  H    1.750864   0.000000
    23  H    2.476287   3.048465   0.000000
    24  H    2.536058   2.446212   1.745906   0.000000
    25  H    2.528710   2.380049   3.858194   4.273567   0.000000
    26  H    4.304094   3.794052   2.459126   2.546135   4.850570
    27  H    3.801679   2.638178   3.047371   2.459111   4.023397
    28  H    4.845469   4.052889   3.809474   4.287281   3.980854
    29  H    4.092552   3.977179   2.670440   3.809129   3.658204
    30  H    6.212228   6.877659   6.808751   8.073272   4.621849
    31  H    6.179645   7.166731   7.120182   8.324654   5.088448
                   26         27         28         29         30
    26  H    0.000000
    27  H    1.752766   0.000000
    28  H    2.521660   2.440222   0.000000
    29  H    2.445840   3.042662   1.753737   0.000000
    30  H    8.072896   7.977705   6.714547   5.813020   0.000000
    31  H    8.802862   8.689559   7.829229   6.756495   1.743783
                   31
    31  H    0.000000
 Stoichiometry    C10H18O3
 Framework group  C1[X(C10H18O3)]
 Deg. of freedom    87
 Full point group                 C1      NOp   1
 Largest Abelian subgroup         C1      NOp   1
 Largest concise Abelian subgroup C1      NOp   1
                         Standard orientation:                         
 ---------------------------------------------------------------------
 Center     Atomic      Atomic             Coordinates (Angstroms)
 Number     Number       Type             X           Y           Z
 ---------------------------------------------------------------------
      1          6           0        1.017174    0.091538   -0.477372
      2          6           0        3.771397   -0.390590    0.506771
      3          8           0       -1.812306   -0.038485   -1.326023
      4          6           0        1.647664   -1.247009   -0.086854
      5          6           0        2.008485    1.228930   -0.212729
      6          8           0       -0.174347    0.292582    0.271776
      7          6           0       -2.276057    1.347914    0.599821
      8          6           0       -3.005917    0.182351    1.269234
      9          6           0       -1.248187    0.867393   -0.412643
     10          6           0       -3.562368   -0.757918    0.200055
     11          6           0       -2.460009   -1.170794   -0.760742
     12          6           0        3.431939    0.739243   -0.472426
     13          8           0        2.608060   -1.084432    0.933536
     14          1           0        0.762704    0.049470   -1.528834
     15          1           0        4.464443   -1.098736    0.062303
     16          1           0        4.220019    0.005328    1.407975
     17          1           0        0.895360   -1.924399    0.289754
     18          1           0        2.115676   -1.704871   -0.953181
     19          1           0        1.914184    1.536611    0.824230
     20          1           0        1.771073    2.089467   -0.828897
     21          1           0       -1.781733    1.980520    1.329105
     22          1           0       -2.993498    1.964599    0.065421
     23          1           0       -2.324916   -0.362757    1.917326
     24          1           0       -3.805644    0.562039    1.897686
     25          1           0       -0.893689    1.688290   -1.020438
     26          1           0       -3.993391   -1.648593    0.648421
     27          1           0       -4.352032   -0.257363   -0.355593
     28          1           0       -2.853767   -1.727822   -1.599634
     29          1           0       -1.726183   -1.791369   -0.257953
     30          1           0        3.516723    0.391540   -1.498135
     31          1           0        4.148683    1.544380   -0.352549
 ---------------------------------------------------------------------
 Rotational constants (GHZ):           1.9053794           0.4045118           0.3889704
 Standard basis: 6-311++G(2d,2p) (5D, 7F)
 There are   557 symmetry adapted cartesian basis functions of A   symmetry.
 There are   531 symmetry adapted basis functions of A   symmetry.
   531 basis functions,   762 primitive gaussians,   557 cartesian basis functions
    51 alpha electrons       51 beta electrons
       nuclear repulsion energy       893.2870964281 Hartrees.
 NAtoms=   31 NActive=   31 NUniq=   31 SFac= 1.00D+00 NAtFMM=   60 NAOKFM=F Big=F
 Integral buffers will be    131072 words long.
 Raffenetti 2 integral format.
 Two-electron integral symmetry is turned on.
 ------------------------------------------------------------------------------
 Polarizable Continuum Model (PCM)
 =================================
 Model                : PCM.
 Atomic radii         : UFF (Universal Force Field).
 Polarization charges : Total charges.
 Charge compensation  : None.
 Solution method      : On-the-fly selection.
 Cavity type          : Scaled VdW (van der Waals Surface) (Alpha=1.100).
 Cavity algorithm     : GePol (No added spheres)
                        Default sphere list used, NSphG=   31.
                        Lebedev-Laikov grids with approx.  5.0 points / Ang**2.
                        Smoothing algorithm: York/Karplus (Gamma=1.0000).
                        Polarization charges: spherical gaussians, with
                                              point-specific exponents (IZeta= 3).
                        Self-potential: point-specific (ISelfS= 7).
                        Self-field    : sphere-specific E.n sum rule (ISelfD= 2).
 1st derivatives      : Analytical E(r).r(x)/FMM algorithm (CHGder, D1EAlg=3).
                        Cavity 1st derivative terms included.
 Solvent              : Water, Eps=  78.355300 Eps(inf)=   1.777849
 ------------------------------------------------------------------------------
 One-electron integrals computed using PRISM.
 NBasis=   531 RedAO= T EigKep=  4.87D-06  NBF=   531
 NBsUse=   531 1.00D-06 EigRej= -1.00D+00 NBFU=   531
 ExpMin= 3.60D-02 ExpMax= 8.59D+03 ExpMxC= 1.30D+03 IAcc=3 IRadAn=         5 AccDes= 0.00D+00
 Harris functional with IExCor= 1009 and IRadAn=       5 diagonalized for initial guess.
 HarFok:  IExCor= 1009 AccDes= 0.00D+00 IRadAn=         5 IDoV= 1 UseB2=F ITyADJ=14
 ICtDFT=  3500011 ScaDFX=  1.000000  1.000000  1.000000  1.000000
 FoFCou: FMM=F IPFlag=           0 FMFlag=      100000 FMFlg1=           0
         NFxFlg=           0 DoJE=T BraDBF=F KetDBF=T FulRan=T
         wScrn=  0.000000 ICntrl=       500 IOpCl=  0 I1Cent=   200000004 NGrid=           0
         NMat0=    1 NMatS0=      1 NMatT0=    0 NMatD0=    1 NMtDS0=    0 NMtDT0=    0
 Petite list used in FoFCou.
 Requested convergence on RMS density matrix=1.00D-08 within 128 cycles.
 Requested convergence on MAX density matrix=1.00D-06.
 Requested convergence on             energy=1.00D-06.
 No special actions if energy rises.
 Inv3:  Mode=1 IEnd=    12966723.
 Iteration    1 A*A^-1 deviation from unit magnitude is 6.33D-15 for   2062.
 Iteration    1 A*A^-1 deviation from orthogonality  is 2.33D-15 for   2062    888.
 Iteration    1 A^-1*A deviation from unit magnitude is 6.33D-15 for   2062.
 Iteration    1 A^-1*A deviation from orthogonality  is 2.67D-15 for   2023   1012.
 Error on total polarization charges =  0.01484
 SCF Done:  E(RM062X) =  -617.494363400     A.U. after   12 cycles
            NFock= 12  Conv=0.38D-08     -V/T= 2.0035

 **********************************************************************

            Population analysis using the SCF density.

 **********************************************************************

 Orbital symmetries:
       Occupied  (A) (A) (A) (A) (A) (A) (A) (A) (A) (A) (A) (A)
                 (A) (A) (A) (A) (A) (A) (A) (A) (A) (A) (A) (A)
                 (A) (A) (A) (A) (A) (A) (A) (A) (A) (A) (A) (A)
                 (A) (A) (A) (A) (A) (A) (A) (A) (A) (A) (A) (A)
                 (A) (A) (A)
       Virtual   (A) (A) (A) (A) (A) (A) (A) (A) (A) (A) (A) (A)
                 (A) (A) (A) (A) (A) (A) (A) (A) (A) (A) (A) (A)
                 (A) (A) (A) (A) (A) (A) (A) (A) (A) (A) (A) (A)
                 (A) (A) (A) (A) (A) (A) (A) (A) (A) (A) (A) (A)
                 (A) (A) (A) (A) (A) (A) (A) (A) (A) (A) (A) (A)
                 (A) (A) (A) (A) (A) (A) (A) (A) (A) (A) (A) (A)
                 (A) (A) (A) (A) (A) (A) (A) (A) (A) (A) (A) (A)
                 (A) (A) (A) (A) (A) (A) (A) (A) (A) (A) (A) (A)
                 (A) (A) (A) (A) (A) (A) (A) (A) (A) (A) (A) (A)
                 (A) (A) (A) (A) (A) (A) (A) (A) (A) (A) (A) (A)
                 (A) (A) (A) (A) (A) (A) (A) (A) (A) (A) (A) (A)
                 (A) (A) (A) (A) (A) (A) (A) (A) (A) (A) (A) (A)
                 (A) (A) (A) (A) (A) (A) (A) (A) (A) (A) (A) (A)
                 (A) (A) (A) (A) (A) (A) (A) (A) (A) (A) (A) (A)
                 (A) (A) (A) (A) (A) (A) (A) (A) (A) (A) (A) (A)
                 (A) (A) (A) (A) (A) (A) (A) (A) (A) (A) (A) (A)
                 (A) (A) (A) (A) (A) (A) (A) (A) (A) (A) (A) (A)
                 (A) (A) (A) (A) (A) (A) (A) (A) (A) (A) (A) (A)
                 (A) (A) (A) (A) (A) (A) (A) (A) (A) (A) (A) (A)
                 (A) (A) (A) (A) (A) (A) (A) (A) (A) (A) (A) (A)
                 (A) (A) (A) (A) (A) (A) (A) (A) (A) (A) (A) (A)
                 (A) (A) (A) (A) (A) (A) (A) (A) (A) (A) (A) (A)
                 (A) (A) (A) (A) (A) (A) (A) (A) (A) (A) (A) (A)
                 (A) (A) (A) (A) (A) (A) (A) (A) (A) (A) (A) (A)
                 (A) (A) (A) (A) (A) (A) (A) (A) (A) (A) (A) (A)
                 (A) (A) (A) (A) (A) (A) (A) (A) (A) (A) (A) (A)
                 (A) (A) (A) (A) (A) (A) (A) (A) (A) (A) (A) (A)
                 (A) (A) (A) (A) (A) (A) (A) (A) (A) (A) (A) (A)
                 (A) (A) (A) (A) (A) (A) (A) (A) (A) (A) (A) (A)
                 (A) (A) (A) (A) (A) (A) (A) (A) (A) (A) (A) (A)
                 (A) (A) (A) (A) (A) (A) (A) (A) (A) (A) (A) (A)
                 (A) (A) (A) (A) (A) (A) (A) (A) (A) (A) (A) (A)
                 (A) (A) (A) (A) (A) (A) (A) (A) (A) (A) (A) (A)
                 (A) (A) (A) (A) (A) (A) (A) (A) (A) (A) (A) (A)
                 (A) (A) (A) (A) (A) (A) (A) (A) (A) (A) (A) (A)
                 (A) (A) (A) (A) (A) (A) (A) (A) (A) (A) (A) (A)
                 (A) (A) (A) (A) (A) (A) (A) (A) (A) (A) (A) (A)
                 (A) (A) (A) (A) (A) (A) (A) (A) (A) (A) (A) (A)
                 (A) (A) (A) (A) (A) (A) (A) (A) (A) (A) (A) (A)
                 (A) (A) (A) (A) (A) (A) (A) (A) (A) (A) (A) (A)
 The electronic state is 1-A.
 Alpha  occ. eigenvalues --  -19.62748 -19.62681 -19.62554 -10.63326 -10.58626
 Alpha  occ. eigenvalues --  -10.57829 -10.57804 -10.57598 -10.53210 -10.53063
 Alpha  occ. eigenvalues --  -10.52960 -10.52921 -10.52740  -1.20125  -1.16472
 Alpha  occ. eigenvalues --   -1.13367  -0.90795  -0.89636  -0.87373  -0.84515
 Alpha  occ. eigenvalues --   -0.74821  -0.74554  -0.73251  -0.71356  -0.64837
 Alpha  occ. eigenvalues --   -0.62876  -0.59987  -0.59536  -0.57800  -0.56127
 Alpha  occ. eigenvalues --   -0.54874  -0.53339  -0.52720  -0.50511  -0.49715
 Alpha  occ. eigenvalues --   -0.47044  -0.46762  -0.45957  -0.45235  -0.44851
 Alpha  occ. eigenvalues --   -0.43762  -0.42658  -0.42126  -0.40974  -0.39547
 Alpha  occ. eigenvalues --   -0.38484  -0.36955  -0.35887  -0.34723  -0.33309
 Alpha  occ. eigenvalues --   -0.31810
 Alpha virt. eigenvalues --   -0.00117   0.00751   0.00958   0.01014   0.02199
 Alpha virt. eigenvalues --    0.02431   0.02601   0.03353   0.03638   0.04400
 Alpha virt. eigenvalues --    0.04412   0.04629   0.05353   0.05944   0.07018
 Alpha virt. eigenvalues --    0.07560   0.07736   0.07908   0.09189   0.09479
 Alpha virt. eigenvalues --    0.09600   0.10575   0.10924   0.11524   0.12135
 Alpha virt. eigenvalues --    0.12231   0.12556   0.12746   0.12901   0.13320
 Alpha virt. eigenvalues --    0.13630   0.13906   0.14279   0.14425   0.14582
 Alpha virt. eigenvalues --    0.15280   0.15527   0.15655   0.16161   0.16399
 Alpha virt. eigenvalues --    0.16480   0.16743   0.17128   0.17173   0.17416
 Alpha virt. eigenvalues --    0.17959   0.18465   0.18968   0.19070   0.19646
 Alpha virt. eigenvalues --    0.20085   0.20290   0.20465   0.21104   0.21519
 Alpha virt. eigenvalues --    0.21603   0.22115   0.22550   0.23653   0.23740
 Alpha virt. eigenvalues --    0.24183   0.24904   0.25190   0.25955   0.26977
 Alpha virt. eigenvalues --    0.27489   0.28018   0.28673   0.28865   0.29511
 Alpha virt. eigenvalues --    0.29938   0.30732   0.31316   0.31393   0.31929
 Alpha virt. eigenvalues --    0.32354   0.33130   0.33618   0.34270   0.34385
 Alpha virt. eigenvalues --    0.34864   0.35276   0.35932   0.36249   0.36598
 Alpha virt. eigenvalues --    0.36779   0.37273   0.37617   0.37896   0.38613
 Alpha virt. eigenvalues --    0.38862   0.39182   0.39482   0.40809   0.41371
 Alpha virt. eigenvalues --    0.42241   0.43251   0.43637   0.44569   0.44934
 Alpha virt. eigenvalues --    0.46297   0.47896   0.48885   0.50352   0.51116
 Alpha virt. eigenvalues --    0.51416   0.52546   0.53144   0.53896   0.54427
 Alpha virt. eigenvalues --    0.55450   0.56561   0.57497   0.58315   0.58565
 Alpha virt. eigenvalues --    0.59693   0.59877   0.60530   0.61180   0.61626
 Alpha virt. eigenvalues --    0.61704   0.62059   0.63322   0.63557   0.63840
 Alpha virt. eigenvalues --    0.64618   0.65163   0.65769   0.66377   0.66689
 Alpha virt. eigenvalues --    0.67515   0.68226   0.68866   0.69308   0.69696
 Alpha virt. eigenvalues --    0.69894   0.71166   0.71746   0.73187   0.73347
 Alpha virt. eigenvalues --    0.73643   0.74161   0.74867   0.75137   0.75350
 Alpha virt. eigenvalues --    0.75578   0.76835   0.77420   0.77960   0.79244
 Alpha virt. eigenvalues --    0.79462   0.83137   0.83823   0.85031   0.85836
 Alpha virt. eigenvalues --    0.86387   0.87169   0.87923   0.89028   0.89699
 Alpha virt. eigenvalues --    0.90679   0.91574   0.93345   0.94900   0.95537
 Alpha virt. eigenvalues --    0.96532   0.98176   0.99580   1.00946   1.01981
 Alpha virt. eigenvalues --    1.02912   1.03871   1.04356   1.05818   1.06443
 Alpha virt. eigenvalues --    1.07289   1.07465   1.10618   1.11059   1.12539
 Alpha virt. eigenvalues --    1.13542   1.14187   1.14579   1.15730   1.17384
 Alpha virt. eigenvalues --    1.17555   1.18788   1.18987   1.19615   1.21411
 Alpha virt. eigenvalues --    1.22152   1.22643   1.23683   1.24405   1.24529
 Alpha virt. eigenvalues --    1.24996   1.25708   1.26472   1.26693   1.27384
 Alpha virt. eigenvalues --    1.28107   1.28435   1.29214   1.30086   1.30641
 Alpha virt. eigenvalues --    1.31471   1.32348   1.33652   1.33968   1.34211
 Alpha virt. eigenvalues --    1.34736   1.36019   1.36389   1.37628   1.37989
 Alpha virt. eigenvalues --    1.38952   1.39756   1.39964   1.40949   1.41583
 Alpha virt. eigenvalues --    1.42293   1.42554   1.43666   1.44317   1.44903
 Alpha virt. eigenvalues --    1.45311   1.45728   1.46991   1.47316   1.48056
 Alpha virt. eigenvalues --    1.48418   1.49247   1.49758   1.51082   1.52218
 Alpha virt. eigenvalues --    1.53069   1.53360   1.54862   1.55136   1.55374
 Alpha virt. eigenvalues --    1.55914   1.56337   1.57466   1.57684   1.58858
 Alpha virt. eigenvalues --    1.59391   1.59788   1.60321   1.60840   1.62201
 Alpha virt. eigenvalues --    1.63597   1.64292   1.64954   1.65295   1.66010
 Alpha virt. eigenvalues --    1.67464   1.68154   1.69545   1.70006   1.71078
 Alpha virt. eigenvalues --    1.72134   1.73979   1.74577   1.74941   1.76071
 Alpha virt. eigenvalues --    1.77755   1.79297   1.79893   1.81034   1.83472
 Alpha virt. eigenvalues --    1.85238   1.87491   1.90391   1.97356   1.98552
 Alpha virt. eigenvalues --    2.01635   2.07548   2.10582   2.15129   2.19779
 Alpha virt. eigenvalues --    2.21565   2.26014   2.29424   2.33073   2.40576
 Alpha virt. eigenvalues --    2.41873   2.43100   2.44060   2.45676   2.51638
 Alpha virt. eigenvalues --    2.60551   2.76411   2.77694   2.79414   2.81205
 Alpha virt. eigenvalues --    2.84289   2.87561   2.90304   2.91159   2.92591
 Alpha virt. eigenvalues --    2.93441   2.95832   2.98234   3.01235   3.02871
 Alpha virt. eigenvalues --    3.04551   3.05672   3.08242   3.09120   3.10930
 Alpha virt. eigenvalues --    3.12728   3.15237   3.16049   3.18903   3.21868
 Alpha virt. eigenvalues --    3.26188   3.30502   3.31702   3.32007   3.33806
 Alpha virt. eigenvalues --    3.34595   3.35595   3.36391   3.38670   3.40033
 Alpha virt. eigenvalues --    3.41269   3.43401   3.44100   3.44738   3.45537
 Alpha virt. eigenvalues --    3.47027   3.48939   3.49560   3.51084   3.51607
 Alpha virt. eigenvalues --    3.51979   3.52781   3.53494   3.54675   3.55466
 Alpha virt. eigenvalues --    3.56561   3.57333   3.57939   3.58313   3.59215
 Alpha virt. eigenvalues --    3.60227   3.62298   3.63041   3.63630   3.64403
 Alpha virt. eigenvalues --    3.65377   3.66441   3.68133   3.68460   3.69204
 Alpha virt. eigenvalues --    3.70176   3.70780   3.71979   3.73440   3.74416
 Alpha virt. eigenvalues --    3.74899   3.76009   3.77093   3.77540   3.79543
 Alpha virt. eigenvalues --    3.80095   3.81462   3.82172   3.83005   3.83584
 Alpha virt. eigenvalues --    3.85773   3.88215   3.89609   3.90391   3.92500
 Alpha virt. eigenvalues --    3.93628   3.94544   3.96554   3.97108   3.99106
 Alpha virt. eigenvalues --    4.00214   4.00799   4.02704   4.03269   4.03878
 Alpha virt. eigenvalues --    4.05117   4.06331   4.06598   4.07419   4.08103
 Alpha virt. eigenvalues --    4.08464   4.09148   4.10236   4.11296   4.11644
 Alpha virt. eigenvalues --    4.12186   4.13283   4.13696   4.14727   4.15288
 Alpha virt. eigenvalues --    4.16002   4.17407   4.18156   4.19005   4.19874
 Alpha virt. eigenvalues --    4.23141   4.23229   4.23645   4.25630   4.26484
 Alpha virt. eigenvalues --    4.27540   4.28855   4.31444   4.31571   4.32509
 Alpha virt. eigenvalues --    4.33370   4.34042   4.34891   4.35502   4.36240
 Alpha virt. eigenvalues --    4.39789   4.41575   4.42436   4.46551   4.48186
 Alpha virt. eigenvalues --    4.58066   4.61454   4.73213   4.75820   4.81777
 Alpha virt. eigenvalues --    4.85108   4.93342   4.95287   5.00582   5.01642
 Alpha virt. eigenvalues --    5.04713   5.06917   5.08002   5.11535   5.12757
 Alpha virt. eigenvalues --    5.13949   5.14321   5.16319   5.32652   5.37702
 Alpha virt. eigenvalues --    5.42717   5.57937   5.61160   5.65376   5.85234
 Alpha virt. eigenvalues --    5.87810   6.06500   7.04237   7.04744   7.07497
 Alpha virt. eigenvalues --    7.08115   7.10069   7.10994   7.13870   7.19858
 Alpha virt. eigenvalues --    7.26248   7.35739   7.36412   7.44856   7.53195
 Alpha virt. eigenvalues --    7.54699   7.66291  23.96145  23.97925  24.06075
 Alpha virt. eigenvalues --   24.06877  24.10917  24.12091  24.12612  24.15319
 Alpha virt. eigenvalues --   24.17524  24.20396  50.16237  50.18833  50.26114
          Condensed to atoms (all electrons):
               1          2          3          4          5          6
     1  C    9.040927   0.112568  -0.003642  -0.875914  -1.735309  -0.047267
     2  C    0.112568   5.656367  -0.002247  -0.145736  -0.060355   0.014373
     3  O   -0.003642  -0.002247   8.194584  -0.037203   0.018403  -0.039541
     4  C   -0.875914  -0.145736  -0.037203   6.656477   0.045708  -0.065759
     5  C   -1.735309  -0.060355   0.018403   0.045708   7.106551  -0.103629
     6  O   -0.047267   0.014373  -0.039541  -0.065759  -0.103629   8.276270
     7  C    0.058674  -0.006007  -0.040682  -0.132427   0.057289  -0.059201
     8  C   -0.027799   0.000106  -0.008554  -0.003531   0.016685  -0.025408
     9  C   -1.149172   0.042848   0.318653   0.058877   0.380931   0.333870
    10  C    0.081552   0.000308  -0.054189  -0.013677  -0.024059  -0.021340
    11  C    0.144854  -0.000481   0.091049   0.007976  -0.043455  -0.000703
    12  C    0.249854  -0.296153   0.006025   0.054393  -0.250237  -0.017415
    13  O   -0.030864   0.085991   0.000009   0.115146  -0.038910   0.018211
    14  H    0.540058   0.000686  -0.004269  -0.020430  -0.106486  -0.022634
    15  H    0.037501   0.522143   0.000081  -0.023276  -0.030067  -0.000468
    16  H   -0.017635   0.405792  -0.000124   0.020380  -0.007138   0.001081
    17  H    0.071967   0.026960  -0.000178   0.352491  -0.049785  -0.015470
    18  H   -0.115306   0.036681  -0.000213   0.441456   0.041568   0.014739
    19  H   -0.126159  -0.037974  -0.000543  -0.019717   0.528884  -0.001906
    20  H   -0.071263  -0.004048   0.000086   0.009778   0.441043   0.001236
    21  H   -0.010327   0.001438   0.008320   0.004775   0.002366  -0.002096
    22  H    0.006028  -0.000375  -0.006864  -0.003002   0.001097   0.009951
    23  H   -0.015768   0.000580   0.002408  -0.000362   0.004710  -0.006025
    24  H    0.002595  -0.000050  -0.004405  -0.000994  -0.000319   0.000341
    25  H    0.064258   0.005536  -0.066533   0.012441  -0.033146  -0.019323
    26  H    0.002873   0.000153   0.009660   0.002676  -0.002262   0.000457
    27  H   -0.005862   0.000026  -0.001683  -0.001458   0.001258  -0.000941
    28  H    0.015133   0.000191  -0.074258  -0.001067  -0.003460   0.000360
    29  H   -0.080596  -0.003573  -0.029994   0.008819   0.039112   0.021961
    30  H   -0.056422  -0.087873  -0.000046  -0.016744   0.006260   0.002045
    31  H    0.005719  -0.019652   0.000257   0.002164  -0.028825  -0.002106
               7          8          9         10         11         12
     1  C    0.058674  -0.027799  -1.149172   0.081552   0.144854   0.249854
     2  C   -0.006007   0.000106   0.042848   0.000308  -0.000481  -0.296153
     3  O   -0.040682  -0.008554   0.318653  -0.054189   0.091049   0.006025
     4  C   -0.132427  -0.003531   0.058877  -0.013677   0.007976   0.054393
     5  C    0.057289   0.016685   0.380931  -0.024059  -0.043455  -0.250237
     6  O   -0.059201  -0.025408   0.333870  -0.021340  -0.000703  -0.017415
     7  C    6.786480  -0.110951  -0.952742  -0.118902   0.139908   0.024820
     8  C   -0.110951   5.656356  -0.031602   0.004383   0.002061  -0.000880
     9  C   -0.952742  -0.031602   7.218022   0.177054  -0.474428  -0.191288
    10  C   -0.118902   0.004383   0.177054   5.642904  -0.047334  -0.003617
    11  C    0.139908   0.002061  -0.474428  -0.047334   5.506449   0.009489
    12  C    0.024820  -0.000880  -0.191288  -0.003617   0.009489   5.972127
    13  O    0.002239   0.000035   0.005793   0.000749   0.000481   0.024123
    14  H   -0.021891  -0.003238  -0.040530   0.000876   0.010414   0.013437
    15  H   -0.000434  -0.000132  -0.003464   0.000145   0.000560  -0.101012
    16  H    0.000247   0.000271   0.002040  -0.000121  -0.000322   0.017075
    17  H   -0.020457   0.006061  -0.016403   0.004413   0.006263  -0.003904
    18  H    0.008614  -0.001795   0.031252  -0.000861  -0.001827  -0.058566
    19  H   -0.008849   0.004985   0.007580  -0.000231  -0.001001  -0.002349
    20  H    0.008563   0.001709   0.017953  -0.000591   0.001738  -0.007486
    21  H    0.409760  -0.038532  -0.007517  -0.003630   0.006769  -0.002662
    22  H    0.562477  -0.014296  -0.166174  -0.019403   0.013891   0.000985
    23  H   -0.044275   0.515275  -0.009675  -0.067493   0.001015  -0.000408
    24  H   -0.056544   0.420270   0.025493  -0.019261   0.008464   0.000202
    25  H   -0.120523  -0.006945   0.492833   0.014514  -0.016468  -0.015020
    26  H   -0.013802  -0.037306   0.008423   0.435136  -0.034101  -0.000128
    27  H   -0.009212  -0.024577   0.004061   0.502748  -0.093893  -0.000130
    28  H   -0.003816   0.007122  -0.013438  -0.017745   0.441543   0.000255
    29  H    0.042738   0.002332   0.017793  -0.093549   0.456843  -0.000348
    30  H    0.000442   0.000731   0.005156  -0.000137  -0.000968   0.523461
    31  H    0.001500  -0.000359  -0.002402  -0.000044   0.000086   0.395603
              13         14         15         16         17         18
     1  C   -0.030864   0.540058   0.037501  -0.017635   0.071967  -0.115306
     2  C    0.085991   0.000686   0.522143   0.405792   0.026960   0.036681
     3  O    0.000009  -0.004269   0.000081  -0.000124  -0.000178  -0.000213
     4  C    0.115146  -0.020430  -0.023276   0.020380   0.352491   0.441456
     5  C   -0.038910  -0.106486  -0.030067  -0.007138  -0.049785   0.041568
     6  O    0.018211  -0.022634  -0.000468   0.001081  -0.015470   0.014739
     7  C    0.002239  -0.021891  -0.000434   0.000247  -0.020457   0.008614
     8  C    0.000035  -0.003238  -0.000132   0.000271   0.006061  -0.001795
     9  C    0.005793  -0.040530  -0.003464   0.002040  -0.016403   0.031252
    10  C    0.000749   0.000876   0.000145  -0.000121   0.004413  -0.000861
    11  C    0.000481   0.010414   0.000560  -0.000322   0.006263  -0.001827
    12  C    0.024123   0.013437  -0.101012   0.017075  -0.003904  -0.058566
    13  O    8.383802   0.005905  -0.065105  -0.078007  -0.087479  -0.030690
    14  H    0.005905   0.419658   0.000903   0.000143   0.004522  -0.009521
    15  H   -0.065105   0.000903   0.524318  -0.027650   0.001962   0.007387
    16  H   -0.078007   0.000143  -0.027650   0.509831  -0.001682  -0.002841
    17  H   -0.087479   0.004522   0.001962  -0.001682   0.520215  -0.016138
    18  H   -0.030690  -0.009521   0.007387  -0.002841  -0.016138   0.483464
    19  H   -0.002347   0.001039  -0.003957   0.005342   0.003424  -0.000375
    20  H    0.001844  -0.007048   0.001531  -0.001715  -0.001124   0.001550
    21  H    0.000574   0.000093   0.000054  -0.000005  -0.000205   0.000244
    22  H    0.000058  -0.000462  -0.000016   0.000011  -0.000412   0.000162
    23  H    0.000376  -0.000437   0.000008   0.000023  -0.001435   0.000414
    24  H    0.000011  -0.000110  -0.000007   0.000007   0.000156  -0.000004
    25  H   -0.001691   0.000065  -0.000032  -0.000213   0.003354  -0.001655
    26  H    0.000037   0.000319   0.000018  -0.000007   0.001400  -0.000232
    27  H    0.000003  -0.000048   0.000002  -0.000003   0.000167  -0.000027
    28  H    0.000097   0.000777   0.000048  -0.000031   0.003650  -0.000529
    29  H    0.000349  -0.004822  -0.001021   0.000605  -0.022447   0.003453
    30  H   -0.000645  -0.004597  -0.014607   0.008134  -0.002597  -0.005259
    31  H    0.009895  -0.000815   0.002167  -0.010040   0.002324  -0.001245
              19         20         21         22         23         24
     1  C   -0.126159  -0.071263  -0.010327   0.006028  -0.015768   0.002595
     2  C   -0.037974  -0.004048   0.001438  -0.000375   0.000580  -0.000050
     3  O   -0.000543   0.000086   0.008320  -0.006864   0.002408  -0.004405
     4  C   -0.019717   0.009778   0.004775  -0.003002  -0.000362  -0.000994
     5  C    0.528884   0.441043   0.002366   0.001097   0.004710  -0.000319
     6  O   -0.001906   0.001236  -0.002096   0.009951  -0.006025   0.000341
     7  C   -0.008849   0.008563   0.409760   0.562477  -0.044275  -0.056544
     8  C    0.004985   0.001709  -0.038532  -0.014296   0.515275   0.420270
     9  C    0.007580   0.017953  -0.007517  -0.166174  -0.009675   0.025493
    10  C   -0.000231  -0.000591  -0.003630  -0.019403  -0.067493  -0.019261
    11  C   -0.001001   0.001738   0.006769   0.013891   0.001015   0.008464
    12  C   -0.002349  -0.007486  -0.002662   0.000985  -0.000408   0.000202
    13  O   -0.002347   0.001844   0.000574   0.000058   0.000376   0.000011
    14  H    0.001039  -0.007048   0.000093  -0.000462  -0.000437  -0.000110
    15  H   -0.003957   0.001531   0.000054  -0.000016   0.000008  -0.000007
    16  H    0.005342  -0.001715  -0.000005   0.000011   0.000023   0.000007
    17  H    0.003424  -0.001124  -0.000205  -0.000412  -0.001435   0.000156
    18  H   -0.000375   0.001550   0.000244   0.000162   0.000414  -0.000004
    19  H    0.462217  -0.018562  -0.001966   0.000101  -0.000430   0.000244
    20  H   -0.018562   0.494453   0.000332   0.000667   0.000313  -0.000066
    21  H   -0.001966   0.000332   0.476589  -0.005172  -0.001962  -0.008542
    22  H    0.000101   0.000667  -0.005172   0.453518   0.001844  -0.002208
    23  H   -0.000430   0.000313  -0.001962   0.001844   0.459455  -0.006148
    24  H    0.000244  -0.000066  -0.008542  -0.002208  -0.006148   0.465105
    25  H    0.001324  -0.010480  -0.007131  -0.014797  -0.003290   0.002249
    26  H    0.000017  -0.000006   0.001493  -0.002890  -0.004704  -0.006760
    27  H   -0.000002  -0.000098  -0.001989  -0.001934   0.002081  -0.003081
    28  H    0.000069  -0.000075   0.000984   0.000391  -0.002603   0.001689
    29  H   -0.000136   0.000235  -0.000624  -0.000160   0.000145  -0.001886
    30  H    0.002420  -0.002795  -0.000097  -0.000005  -0.000008   0.000018
    31  H    0.002894  -0.010920   0.000003   0.000022   0.000024  -0.000004
              25         26         27         28         29         30
     1  C    0.064258   0.002873  -0.005862   0.015133  -0.080596  -0.056422
     2  C    0.005536   0.000153   0.000026   0.000191  -0.003573  -0.087873
     3  O   -0.066533   0.009660  -0.001683  -0.074258  -0.029994  -0.000046
     4  C    0.012441   0.002676  -0.001458  -0.001067   0.008819  -0.016744
     5  C   -0.033146  -0.002262   0.001258  -0.003460   0.039112   0.006260
     6  O   -0.019323   0.000457  -0.000941   0.000360   0.021961   0.002045
     7  C   -0.120523  -0.013802  -0.009212  -0.003816   0.042738   0.000442
     8  C   -0.006945  -0.037306  -0.024577   0.007122   0.002332   0.000731
     9  C    0.492833   0.008423   0.004061  -0.013438   0.017793   0.005156
    10  C    0.014514   0.435136   0.502748  -0.017745  -0.093549  -0.000137
    11  C   -0.016468  -0.034101  -0.093893   0.441543   0.456843  -0.000968
    12  C   -0.015020  -0.000128  -0.000130   0.000255  -0.000348   0.523461
    13  O   -0.001691   0.000037   0.000003   0.000097   0.000349  -0.000645
    14  H    0.000065   0.000319  -0.000048   0.000777  -0.004822  -0.004597
    15  H   -0.000032   0.000018   0.000002   0.000048  -0.001021  -0.014607
    16  H   -0.000213  -0.000007  -0.000003  -0.000031   0.000605   0.008134
    17  H    0.003354   0.001400   0.000167   0.003650  -0.022447  -0.002597
    18  H   -0.001655  -0.000232  -0.000027  -0.000529   0.003453  -0.005259
    19  H    0.001324   0.000017  -0.000002   0.000069  -0.000136   0.002420
    20  H   -0.010480  -0.000006  -0.000098  -0.000075   0.000235  -0.002795
    21  H   -0.007131   0.001493  -0.001989   0.000984  -0.000624  -0.000097
    22  H   -0.014797  -0.002890  -0.001934   0.000391  -0.000160  -0.000005
    23  H   -0.003290  -0.004704   0.002081  -0.002603   0.000145  -0.000008
    24  H    0.002249  -0.006760  -0.003081   0.001689  -0.001886   0.000018
    25  H    0.456523   0.002057  -0.000647   0.000939  -0.003250  -0.000424
    26  H    0.002057   0.489372  -0.011873  -0.008074  -0.003324  -0.000012
    27  H   -0.000647  -0.011873   0.484691  -0.007464   0.003354   0.000004
    28  H    0.000939  -0.008074  -0.007464   0.480790  -0.025956  -0.000095
    29  H   -0.003250  -0.003324   0.003354  -0.025956   0.560048   0.000831
    30  H   -0.000424  -0.000012   0.000004  -0.000095   0.000831   0.464606
    31  H    0.000097  -0.000013   0.000010   0.000016  -0.000066  -0.006843
              31
     1  C    0.005719
     2  C   -0.019652
     3  O    0.000257
     4  C    0.002164
     5  C   -0.028825
     6  O   -0.002106
     7  C    0.001500
     8  C   -0.000359
     9  C   -0.002402
    10  C   -0.000044
    11  C    0.000086
    12  C    0.395603
    13  O    0.009895
    14  H   -0.000815
    15  H    0.002167
    16  H   -0.010040
    17  H    0.002324
    18  H   -0.001245
    19  H    0.002894
    20  H   -0.010920
    21  H    0.000003
    22  H    0.000022
    23  H    0.000024
    24  H   -0.000004
    25  H    0.000097
    26  H   -0.000013
    27  H    0.000010
    28  H    0.000016
    29  H   -0.000066
    30  H   -0.006843
    31  H    0.489033
 Mulliken charges:
               1
     1  C   -0.065254
     2  C   -0.248224
     3  O   -0.274364
     4  C   -0.432260
     5  C   -0.174422
     6  O   -0.243664
     7  C   -0.383036
     8  C   -0.302477
     9  C   -0.089798
    10  C   -0.358598
    11  C   -0.134874
    12  C   -0.340248
    13  O   -0.319991
    14  H    0.248443
    15  H    0.172417
    16  H    0.176553
    17  H    0.230390
    18  H    0.176099
    19  H    0.205960
    20  H    0.153247
    21  H    0.178662
    22  H    0.186968
    23  H    0.176353
    24  H    0.183545
    25  H    0.265375
    26  H    0.171404
    27  H    0.166519
    28  H    0.204556
    29  H    0.113135
    30  H    0.186065
    31  H    0.171519
 Sum of Mulliken charges =  -0.00000
 Mulliken charges with hydrogens summed into heavy atoms:
               1
     1  C    0.183188
     2  C    0.100747
     3  O   -0.274364
     4  C   -0.025772
     5  C    0.184785
     6  O   -0.243664
     7  C   -0.017405
     8  C    0.057421
     9  C    0.175576
    10  C   -0.020676
    11  C    0.182817
    12  C    0.017337
    13  O   -0.319991
 Electronic spatial extent (au):  <R**2>=           3071.3491
 Charge=              0.0000 electrons
 Dipole moment (field-independent basis, Debye):
    X=              0.1312    Y=              1.0094    Z=             -1.3374  Tot=              1.6807
 Quadrupole moment (field-independent basis, Debye-Ang):
   XX=            -69.8986   YY=            -76.8942   ZZ=            -85.0852
   XY=              4.5438   XZ=             -7.1799   YZ=              2.6473
 Traceless Quadrupole moment (field-independent basis, Debye-Ang):
   XX=              7.3940   YY=              0.3985   ZZ=             -7.7925
   XY=              4.5438   XZ=             -7.1799   YZ=              2.6473
 Octapole moment (field-independent basis, Debye-Ang**2):
  XXX=             14.9777  YYY=             -0.6160  ZZZ=              1.1081  XYY=             -8.0114
  XXY=              5.6928  XXZ=             -1.2612  XZZ=              2.4581  YZZ=              1.7104
  YYZ=             -5.9997  XYZ=              4.7498
 Hexadecapole moment (field-independent basis, Debye-Ang**3):
 XXXX=          -3006.4984 YYYY=           -538.3390 ZZZZ=           -395.9612 XXXY=             28.5234
 XXXZ=              1.6051 YYYX=              5.0852 YYYZ=             -0.2150 ZZZX=             -0.9759
 ZZZY=              6.8627 XXYY=           -610.8435 XXZZ=           -606.2215 YYZZ=           -152.3187
 XXYZ=             28.3917 YYXZ=             -1.8755 ZZXY=              9.4256
 N-N= 8.932870964281D+02 E-N=-3.228598912966D+03  KE= 6.153425525723D+02
 D1PCM: PCM CHGder 1st derivatives, ID1Alg=3 FixD1E=F DoIter=F DoCFld=F I1PDM=0.
 Calling FoFJK, ICntrl=      2127 FMM=F ISym2X=0 I1Cent= 0 IOpClX= 0 NMat=1 NMatS=1 NMatT=0.
 ***** Axes restored to original set *****
 -------------------------------------------------------------------
 Center     Atomic                   Forces (Hartrees/Bohr)
 Number     Number              X              Y              Z
 -------------------------------------------------------------------
      1        6           0.000265346    0.000846514    0.002521617
      2        6          -0.004707981    0.001702227   -0.004207924
      3        8           0.000244017    0.002159300   -0.011098720
      4        6           0.004302739    0.005633891   -0.000299154
      5        6           0.001788418   -0.002836152   -0.001797190
      6        8          -0.000138729   -0.003476103    0.011148135
      7        6           0.000806187   -0.002415987    0.001123778
      8        6           0.000712398    0.000204420   -0.003849912
      9        6          -0.003308364   -0.004704935    0.004088153
     10        6           0.002602452   -0.000244616    0.001123727
     11        6          -0.001626904    0.005253090    0.004138287
     12        6          -0.000869332    0.000009389    0.001596126
     13        8          -0.002768979   -0.002150658    0.008865610
     14        1          -0.001543667   -0.000224799   -0.006843928
     15        1           0.003775970   -0.002803462   -0.002956475
     16        1           0.001671958    0.002109267    0.003926601
     17        1          -0.004512934   -0.002127517    0.001784470
     18        1           0.001995381   -0.002265010   -0.005555840
     19        1          -0.000889364   -0.000367182    0.003763827
     20        1          -0.000799180    0.002307599   -0.001854873
     21        1           0.001671903    0.001565547    0.002191507
     22        1          -0.002270913    0.001446854   -0.002058981
     23        1           0.002968033   -0.001668638    0.001263325
     24        1          -0.001939149    0.000951822    0.001398237
     25        1           0.001873159    0.005805332   -0.005110057
     26        1          -0.001291947   -0.002107882    0.001408125
     27        1          -0.001866026    0.001896736   -0.001996378
     28        1          -0.001704660   -0.002214746   -0.003416210
     29        1           0.004032330   -0.003189574    0.004014692
     30        1          -0.000189092   -0.001263524   -0.003248903
     31        1           0.001716932    0.002168795   -0.000061672
 -------------------------------------------------------------------
 Cartesian Forces:  Max     0.011148135 RMS     0.003283464

 GradGradGradGradGradGradGradGradGradGradGradGradGradGradGradGradGradGrad
 Berny optimization.
 FormGI is forming the generalized inverse of G from B-inverse, IUseBI=4.
 Internal  Forces:  Max     0.010121661 RMS     0.001969727
 Search for a local minimum.
 Step number   1 out of a maximum of  186
 All quantities printed in internal units (Hartrees-Bohrs-Radians)
 Mixed Optimization -- RFO/linear search
 Second derivative matrix not updated -- first step.
 ITU=  0
     Eigenvalues ---    0.00426   0.00609   0.00625   0.00728   0.01410
     Eigenvalues ---    0.01444   0.01730   0.02701   0.02799   0.03075
     Eigenvalues ---    0.03362   0.04096   0.04193   0.04600   0.04734
     Eigenvalues ---    0.04748   0.04888   0.04915   0.05094   0.05140
     Eigenvalues ---    0.05251   0.05619   0.05686   0.05994   0.06169
     Eigenvalues ---    0.06221   0.06530   0.06978   0.07595   0.07811
     Eigenvalues ---    0.07824   0.07853   0.07964   0.08097   0.08232
     Eigenvalues ---    0.08828   0.09290   0.10183   0.11191   0.11608
     Eigenvalues ---    0.11680   0.11765   0.11782   0.12405   0.12676
     Eigenvalues ---    0.14729   0.14754   0.16496   0.17778   0.19192
     Eigenvalues ---    0.19798   0.21955   0.22516   0.25000   0.27089
     Eigenvalues ---    0.27641   0.28581   0.28662   0.28868   0.28948
     Eigenvalues ---    0.29394   0.30358   0.35092   0.35196   0.35214
     Eigenvalues ---    0.35237   0.35240   0.35282   0.35290   0.35309
     Eigenvalues ---    0.35318   0.35434   0.35441   0.35442   0.35445
     Eigenvalues ---    0.35678   0.35784   0.35846   0.35852   0.35980
     Eigenvalues ---    0.40185   0.40839   0.41598   0.42198   0.43336
     Eigenvalues ---    0.461001000.000001000.000001000.000001000.00000
     Eigenvalues --- 1000.000001000.000001000.000001000.000001000.00000
     Eigenvalues --- 1000.000001000.000001000.000001000.000001000.00000
     Eigenvalues --- 1000.000001000.000001000.000001000.000001000.00000
     Eigenvalues --- 1000.000001000.000001000.000001000.000001000.00000
     Eigenvalues --- 1000.000001000.000001000.000001000.000001000.00000
     Eigenvalues --- 1000.000001000.000001000.000001000.000001000.00000
     Eigenvalues --- 1000.000001000.000001000.000001000.000001000.00000
     Eigenvalues --- 1000.000001000.000001000.000001000.000001000.00000
     Eigenvalues --- 1000.000001000.000001000.000001000.000001000.00000
     Eigenvalues --- 1000.000001000.000001000.000001000.000001000.00000
     Eigenvalues --- 1000.000001000.000001000.000001000.000001000.00000
     Eigenvalues --- 1000.000001000.000001000.000001000.000001000.00000
     Eigenvalues --- 1000.000001000.000001000.000001000.000001000.00000
     Eigenvalues --- 1000.000001000.000001000.000001000.000001000.00000
     Eigenvalues --- 1000.000001000.000001000.000001000.000001000.00000
     Eigenvalues --- 1000.000001000.000001000.000001000.000001000.00000
     Eigenvalues --- 1000.000001000.000001000.000001000.000001000.00000
     Eigenvalues --- 1000.000001000.000001000.000001000.000001000.00000
     Eigenvalues --- 1000.000001000.000001000.000001000.000001000.00000
 RFO step:  Lambda=-3.07471530D-03 EMin= 4.26072388D-03
 Linear search not attempted -- first point.
 Iteration  1 RMS(Cart)=  0.04722805 RMS(Int)=  0.00054733
 Iteration  2 RMS(Cart)=  0.00151941 RMS(Int)=  0.00005220
 Iteration  3 RMS(Cart)=  0.00000075 RMS(Int)=  0.00005220
 Iteration  1 RMS(Cart)=  0.00001182 RMS(Int)=  0.00000277
 Iteration  2 RMS(Cart)=  0.00000657 RMS(Int)=  0.00000309
 Iteration  3 RMS(Cart)=  0.00000365 RMS(Int)=  0.00000350
 Iteration  4 RMS(Cart)=  0.00000203 RMS(Int)=  0.00000377
 Iteration  5 RMS(Cart)=  0.00000113 RMS(Int)=  0.00000394
 Iteration  6 RMS(Cart)=  0.00000063 RMS(Int)=  0.00000403
 Variable       Old X    -DE/DX   Delta X   Delta X   Delta X     New X
                                 (Linear)    (Quad)   (Total)
    R1        2.89179  -0.00002   0.00000  -0.00020  -0.00019   2.89160
    R2        2.89467  -0.00075   0.00000  -0.00373  -0.00373   2.89094
    R3        2.68671   0.00156   0.00000   0.00367   0.00367   2.69038
    R4        2.04588   0.00702   0.00000   0.01950   0.01950   2.06539
    R5        2.89725   0.00066   0.00000   0.00297   0.00297   2.90022
    R6        2.68374   0.00346   0.00000   0.00933   0.00934   2.69308
    R7        2.05219   0.00545   0.00000   0.01531   0.01531   2.06750
    R8        2.04421   0.00474   0.00000   0.01313   0.01313   2.05734
    R9        2.65445   0.00350   0.00000   0.00739   0.00740   2.66184
   R10        2.68659   0.00303   0.00000   0.00694   0.00694   2.69354
   R11        2.66578   0.00280   0.00000   0.00655   0.00656   2.67234
   R12        2.04112   0.00510   0.00000   0.01406   0.01406   2.05518
   R13        2.05207   0.00625   0.00000   0.01755   0.01755   2.06961
   R14        2.88668  -0.00035   0.00000  -0.00253  -0.00255   2.88414
   R15        2.05176   0.00357   0.00000   0.01001   0.01001   2.06177
   R16        2.04977   0.00306   0.00000   0.00856   0.00856   2.05833
   R17        2.64019   0.00375   0.00000   0.00809   0.00809   2.64828
   R18        2.89032  -0.00142   0.00000  -0.00454  -0.00454   2.88578
   R19        2.87369  -0.00062   0.00000  -0.00228  -0.00230   2.87139
   R20        2.04964   0.00315   0.00000   0.00881   0.00881   2.05844
   R21        2.05329   0.00333   0.00000   0.00939   0.00939   2.06268
   R22        2.88880  -0.00087   0.00000  -0.00237  -0.00238   2.88642
   R23        2.05358   0.00345   0.00000   0.00972   0.00972   2.06329
   R24        2.05162   0.00257   0.00000   0.00722   0.00722   2.05884
   R25        2.04314   0.00789   0.00000   0.02183   0.02183   2.06497
   R26        2.87138   0.00005   0.00000   0.00038   0.00040   2.87178
   R27        2.05287   0.00282   0.00000   0.00794   0.00794   2.06081
   R28        2.05526   0.00325   0.00000   0.00917   0.00917   2.06443
   R29        2.04323   0.00441   0.00000   0.01220   0.01220   2.05544
   R30        2.04964   0.00642   0.00000   0.01795   0.01795   2.06759
   R31        2.05291   0.00346   0.00000   0.00973   0.00973   2.06264
   R32        2.04958   0.00274   0.00000   0.00766   0.00766   2.05724
    A1        1.91640   0.00041   0.00000  -0.00725  -0.00737   1.90904
    A2        1.91189  -0.00101   0.00000  -0.00451  -0.00449   1.90740
    A3        1.88673   0.00060   0.00000   0.00510   0.00515   1.89187
    A4        1.92445   0.00073   0.00000   0.00047   0.00047   1.92492
    A5        1.92704  -0.00096   0.00000   0.00211   0.00212   1.92917
    A6        1.89680   0.00021   0.00000   0.00423   0.00421   1.90101
    A7        1.95044   0.00191   0.00000   0.00535   0.00525   1.95569
    A8        1.93954  -0.00118   0.00000  -0.00654  -0.00657   1.93297
    A9        1.93284  -0.00086   0.00000  -0.00556  -0.00552   1.92733
   A10        1.90411   0.00042   0.00000   0.00725   0.00733   1.91143
   A11        1.84230  -0.00089   0.00000  -0.00217  -0.00215   1.84015
   A12        1.89122   0.00061   0.00000   0.00202   0.00198   1.89320
   A13        2.02423  -0.00568   0.00000  -0.03683  -0.03675   1.98748
   A14        1.94366   0.00071   0.00000   0.00063   0.00045   1.94411
   A15        1.92899  -0.00164   0.00000  -0.01662  -0.01660   1.91239
   A16        1.92068  -0.00059   0.00000   0.00028   0.00026   1.92095
   A17        1.86947  -0.00037   0.00000  -0.00083  -0.00086   1.86862
   A18        1.90948   0.00124   0.00000   0.01315   0.01318   1.92266
   A19        1.89012   0.00069   0.00000   0.00369   0.00364   1.89376
   A20        1.91309  -0.00068   0.00000  -0.00659  -0.00678   1.90631
   A21        1.89570  -0.00025   0.00000  -0.00852  -0.00848   1.88721
   A22        1.92761  -0.00011   0.00000   0.00064   0.00072   1.92833
   A23        1.91149   0.00089   0.00000   0.00333   0.00332   1.91481
   A24        1.94089  -0.00007   0.00000   0.00373   0.00377   1.94466
   A25        1.87413   0.00025   0.00000   0.00743   0.00739   1.88152
   A26        2.03107  -0.01012   0.00000  -0.03999  -0.03999   1.99108
   A27        1.95319  -0.00159   0.00000  -0.01438  -0.01453   1.93866
   A28        1.94730  -0.00029   0.00000  -0.00132  -0.00141   1.94589
   A29        1.90995   0.00116   0.00000   0.00697   0.00706   1.91701
   A30        1.90066   0.00072   0.00000  -0.00059  -0.00056   1.90010
   A31        1.87359   0.00006   0.00000   0.00347   0.00347   1.87706
   A32        1.87612   0.00001   0.00000   0.00688   0.00685   1.88297
   A33        1.91380   0.00184   0.00000  -0.00185  -0.00185   1.91196
   A34        1.92223  -0.00095   0.00000  -0.00612  -0.00613   1.91610
   A35        1.91596  -0.00051   0.00000   0.00170   0.00170   1.91766
   A36        1.91420  -0.00080   0.00000  -0.00154  -0.00163   1.91257
   A37        1.93033  -0.00025   0.00000   0.00205   0.00211   1.93244
   A38        1.86693   0.00062   0.00000   0.00585   0.00586   1.87279
   A39        1.94108   0.00042   0.00000  -0.00166  -0.00151   1.93958
   A40        1.94471   0.00327   0.00000   0.01167   0.01146   1.95617
   A41        1.82946  -0.00225   0.00000  -0.01060  -0.01061   1.81885
   A42        1.90008  -0.00332   0.00000  -0.01602  -0.01594   1.88414
   A43        1.91320   0.00193   0.00000   0.01394   0.01393   1.92713
   A44        1.93476   0.00009   0.00000   0.00353   0.00361   1.93838
   A45        1.92336  -0.00100   0.00000  -0.00567  -0.00587   1.91749
   A46        1.93913  -0.00052   0.00000  -0.00163  -0.00160   1.93753
   A47        1.91615   0.00092   0.00000   0.00160   0.00168   1.91783
   A48        1.90292   0.00062   0.00000   0.00391   0.00396   1.90688
   A49        1.90578   0.00002   0.00000  -0.00162  -0.00157   1.90421
   A50        1.87563   0.00000   0.00000   0.00365   0.00362   1.87925
   A51        1.94500   0.00234   0.00000   0.00600   0.00593   1.95093
   A52        1.84184  -0.00133   0.00000  -0.00184  -0.00184   1.83999
   A53        1.90898   0.00022   0.00000   0.00208   0.00215   1.91113
   A54        1.94591  -0.00027   0.00000  -0.00171  -0.00165   1.94426
   A55        1.93178  -0.00169   0.00000  -0.00820  -0.00823   1.92354
   A56        1.88734   0.00074   0.00000   0.00407   0.00406   1.89140
   A57        1.91131  -0.00051   0.00000  -0.00959  -0.00968   1.90163
   A58        1.92824   0.00063   0.00000   0.00307   0.00306   1.93129
   A59        1.90725  -0.00007   0.00000   0.00412   0.00415   1.91140
   A60        1.91330  -0.00039   0.00000  -0.00141  -0.00141   1.91189
   A61        1.93804   0.00041   0.00000   0.00204   0.00210   1.94014
   A62        1.86542  -0.00004   0.00000   0.00218   0.00216   1.86758
   A63        1.97864  -0.00465   0.00000  -0.02845  -0.02849   1.95015
    D1        0.48654   0.00179   0.00000   0.01529   0.01531   0.50185
    D2        2.56233   0.00071   0.00000   0.00379   0.00382   2.56615
    D3       -1.63404   0.00015   0.00000  -0.00195  -0.00190  -1.63594
    D4       -1.62924   0.00126   0.00000   0.02218   0.02216  -1.60709
    D5        0.44655   0.00018   0.00000   0.01067   0.01067   0.45722
    D6        2.53336  -0.00038   0.00000   0.00494   0.00495   2.53831
    D7        2.58981   0.00122   0.00000   0.01668   0.01665   2.60647
    D8       -1.61758   0.00015   0.00000   0.00518   0.00516  -1.61241
[...]
 00298630,-0.00018862,-0.00028600,0.00003707,-0.00014533,-0.00005441,-0
 .00003132,-0.00025552,-0.00009273,0.00055392,-0.00001613,0.00000622,0.
 00001704,-0.00002147,-0.00001175,-0.00000295,0.00005514,-0.00019547,0.
 00001012,-0.00017237,0.00012280,0.00000807,0.00003153,0.00002476,-0.00
 002683,-0.00017235,-0.00016338,0.00010135,-0.00066767,-0.00008769,0.00
 035135,-0.00014221,-0.00037091,0.00086935,-0.00021977,-0.00004860,0.00
 005107,0.00059230,0.00113983,-0.00049676,-0.04480637,-0.11012023,0.138
 86851,0.00022552,-0.00003347,-0.00010782,0.00002592,0.00000055,-0.0000
 0122,-0.00518428,-0.00069042,0.00463161,0.00001257,-0.00004381,0.00004
 482,-0.00002695,0.00003141,0.00000575,-0.00055229,0.00009520,-0.000224
 21,0.00042531,-0.00060486,-0.00217026,-0.00492152,-0.00840097,0.003583
 50,0.00122024,0.00120097,0.00111248,-0.08445008,-0.07994520,0.03833228
 ,-0.00726942,-0.02242240,0.00686089,-0.00000485,-0.00002433,-0.0000083
 2,-0.00005804,0.00001673,-0.00003355,0.00003119,-0.00000914,-0.0000178
 3,-0.00000487,0.00000541,0.00000128,-0.00000467,-0.00000172,-0.0000020
 8,0.00000602,-0.00000490,-0.00000262,-0.00001917,0.00001930,-0.0000019
 8,-0.00000751,-0.00000614,-0.00000172,0.00000343,-0.00000049,0.0000009
 8,0.00001273,-0.00047403,0.00033577,-0.00002469,-0.00032365,0.00020441
 ,0.00015129,0.00019765,0.00041105,0.00034127,0.00037789,-0.00018742,-0
 .00003678,-0.00011599,-0.00012695,0.08898222,0.00015215,-0.00000073,-0
 .00010388,0.00001827,0.00000137,-0.00000260,0.00176170,0.00166975,-0.0
 0174166,0.00000572,-0.00000939,0.00003965,-0.00002198,0.00002557,0.000
 01258,-0.00031369,0.00010753,0.00018464,-0.00130549,-0.00106284,-0.004
 53866,-0.00641650,-0.01586390,0.00833550,0.00084913,-0.00035534,-0.000
 73350,-0.08195472,-0.23741801,0.08891358,0.00266897,0.00653913,-0.0025
 9717,-0.00000553,-0.00001729,-0.00000556,-0.00003832,0.00000265,-0.000
 01835,-0.00001294,-0.00000037,0.00001479,-0.00000359,0.00000304,0.0000
 0099,-0.00000345,-0.00000140,-0.00000113,0.00000471,-0.00001000,0.0000
 0338,-0.00001543,0.00001587,-0.00000115,0.00000071,-0.00000123,0.00000
 031,0.00000433,-0.00000171,0.00000032,-0.00090938,-0.00093533,0.000713
 06,0.00024080,0.00032760,-0.00011437,-0.00001042,0.00094802,-0.0000400
 5,0.00060017,0.00032897,0.00024537,-0.00004407,0.00010377,0.00019667,0
 .09091635,0.25676065,-0.00011147,0.00002650,-0.00000098,-0.00001634,-0
 .00000122,0.00000289,0.00632204,0.00088133,-0.00276105,-0.00003140,0.0
 0002163,-0.00000249,0.00000636,-0.00000672,0.00001468,0.00035648,0.000
 06622,0.00040680,-0.00165734,-0.00292822,-0.00403997,-0.01025259,-0.02
 220345,0.01121247,-0.00059705,-0.00134032,-0.00191985,0.03961296,0.088
 90259,-0.08843557,0.00334407,0.01861105,-0.00674966,0.00000058,0.00000
 955,0.00000285,0.00003917,-0.00000830,0.00001875,-0.00003911,0.0000047
 1,0.00004263,0.00000313,-0.00000271,-0.00000096,0.00000319,0.00000140,
 0.00000089,-0.00000127,0.00000578,-0.00000494,0.00000880,-0.00000509,-
 0.00000106,0.00001128,0.00000710,0.00000211,0.00000276,0.00000094,-0.0
 0000146,-0.00080223,-0.00126639,0.00060125,0.00011908,-0.00005166,-0.0
 0000016,0.00032067,0.00088323,0.00104901,0.00068438,0.00080748,0.00095
 140,-0.00003350,0.00025322,0.00022147,-0.04272976,-0.09482378,0.095261
 82,0.00020702,0.00002487,-0.00007752,0.00002581,0.00000570,-0.00001777
 ,0.00256739,-0.00086684,-0.00070736,0.00008483,0.00004046,-0.00001093,
 -0.00001150,0.00001476,0.00001598,-0.00008311,-0.00021449,0.00000754,0
 .00001990,0.00063139,0.00009006,-0.00760582,0.00427188,-0.00574400,-0.
 00026148,0.00009845,-0.00000121,-0.18484900,0.08327834,-0.09666966,-0.
 02105848,0.01392747,-0.01267556,-0.00000488,-0.00001251,-0.00000418,-0
 .00008115,-0.00002735,-0.00000528,0.00000917,0.00000315,0.00001858,-0.
 00000503,0.00000278,0.00000293,-0.00000832,-0.00000412,0.00000025,0.00
 003082,-0.00004740,0.00004394,-0.00001569,0.00000588,0.00000536,0.0000
 0016,-0.00000021,-0.00000137,-0.00000035,-0.00000553,0.00000008,0.0001
 8597,-0.00015523,0.00009250,-0.00021355,-0.00045312,0.00012440,0.00043
 797,-0.00135569,-0.00138079,0.00066417,-0.00031506,0.00013171,-0.00009
 124,-0.00003416,0.00000586,0.00986303,-0.00498636,0.00639140,0.2018766
 6,-0.00013498,-0.00005124,0.00011739,-0.00001821,-0.00000239,0.0000084
 8,-0.00072612,0.00180749,-0.00048397,-0.00004044,-0.00000537,-0.000016
 41,0.00000952,-0.00000965,-0.00000332,0.00030955,0.00010901,0.00014152
 ,-0.00016863,0.00151149,-0.00022396,-0.01591226,0.00886330,-0.01123125
 ,-0.00026145,-0.00035465,-0.00044957,0.08489024,-0.10247320,0.06137980
 ,0.00631102,-0.00653243,0.00493074,0.00000315,0.00000889,0.00000271,0.
 00004904,0.00001248,0.00001032,-0.00003015,0.00000102,-0.00000051,0.00
 000332,-0.00000208,-0.00000150,0.00000522,0.00000198,0.00000045,-0.000
 02931,0.00001999,-0.00002300,0.00001039,-0.00001003,0.00000064,0.00000
 195,0.00000099,0.00000030,-0.00000082,0.00000282,0.,0.00030808,0.00009
 672,0.00002576,0.00031421,-0.00019535,0.00011333,-0.00187257,-0.001887
 37,-0.00311034,0.00049274,0.00081886,0.00076772,0.00003640,0.00005360,
 0.00006802,0.01977023,-0.01169409,0.01266020,-0.09440553,0.10907130,0.
 00002571,-0.00009846,-0.00001362,-0.00000302,-0.00000242,0.00001260,-0
 .00236284,-0.00048780,0.00095145,-0.00004597,-0.00004285,0.00003220,-0
 .00001602,0.00001210,0.00001042,-0.00019214,0.00020336,0.00010828,0.00
 082264,0.00107754,0.00075504,-0.01870675,0.01099148,-0.01539235,0.0001
 5912,-0.00017869,-0.00007822,-0.09802631,0.06238106,-0.11677606,0.0182
 3801,-0.01152224,0.01076982,-0.00000288,-0.00000745,-0.00000232,0.0000
 3189,0.00002483,-0.00000867,-0.00001642,-0.00000476,0.00001421,0.00000
 064,0.00000078,-0.00000133,0.00000383,0.00000183,-0.00000119,-0.000020
 29,0.00002894,-0.00003613,-0.00000082,0.00000563,-0.00000477,0.0000031
 2,0.00000056,-0.00000064,0.00000279,0.00000311,0.00000063,0.00036105,-
 0.00014962,0.00006067,-0.00002938,-0.00052658,0.00049230,-0.00152817,-
 0.00394055,-0.00278218,0.00061985,0.00048181,0.00067368,-0.00008957,0.
 00004213,0.00007515,-0.00885915,0.00517566,-0.00682898,0.10663932,-0.0
 6306449,0.12890048,0.00054532,-0.00001718,-0.00024787,0.00005603,0.000
 01036,-0.00002844,-0.00688368,-0.01423214,-0.01041248,0.00012029,0.000
 06547,-0.00000011,-0.00005463,0.00004848,0.00003108,-0.00038223,-0.000
 55654,0.00001980,-0.00031719,-0.00032668,-0.00012502,-0.00447052,0.000
 50351,0.00273359,-0.00044515,-0.00049375,0.00266014,0.00976527,0.01507
 339,0.02142951,-0.07758451,-0.04149889,-0.06816923,-0.00000713,-0.0000
 3894,-0.00001516,-0.00017098,-0.00002961,-0.00002545,0.00000141,-0.000
 00985,0.00000876,-0.00001307,0.00000830,0.00000477,-0.00001739,-0.0000
 0722,-0.00000167,0.00004967,-0.00009690,0.00006017,-0.00005576,0.00001
 599,0.00001594,-0.00000560,-0.00000614,-0.00000102,0.00000530,-0.00000
 582,0.00000003,0.00016388,0.00004417,-0.00014607,0.00004604,0.00004394
 ,-0.00005775,0.00008922,-0.00008202,0.00016861,0.00048624,0.00104166,0
 .00123501,-0.00022159,-0.00062911,-0.00049633,0.00071658,-0.00069523,-
 0.00085892,0.00124537,-0.00018600,-0.00089969,0.08372545,0.00032656,-0
 .00000397,-0.00017251,0.00001916,-0.00000128,0.00001411,-0.01761813,-0
 .02896698,-0.02264063,-0.00005986,-0.00010139,0.00009529,-0.00001855,0
 .00001180,0.00001006,-0.00072621,0.00124367,-0.00070569,-0.00035711,0.
 00004787,0.00010777,0.00115047,0.00087628,-0.00040496,0.00063746,-0.00
 216431,0.00656991,-0.00079662,-0.00253959,-0.00631210,-0.03932934,-0.1
 1657115,-0.10546787,0.00000002,-0.00001839,-0.00001614,-0.00001972,0.0
 0004190,-0.00004183,0.00004236,-0.00002292,-0.00000964,-0.00000451,0.0
 0000647,-0.00000095,-0.00000062,0.00000040,-0.00000309,-0.00003781,0.0
 0003447,-0.00003517,-0.00001693,0.00003537,-0.00001057,-0.00000549,-0.
 00000579,-0.00000090,0.00000815,0.00001253,-0.00000426,0.00011279,0.00
 002156,-0.00018296,0.00001729,-0.00000986,0.00000672,-0.00013038,-0.00
 005533,-0.00022553,-0.00025016,-0.00004386,-0.00022715,-0.00058125,-0.
 00116835,-0.00097766,0.00028962,0.00014278,-0.00021679,-0.00044925,0.0
 0002829,0.00021129,0.05334462,0.13854996,0.00014446,-0.00004572,-0.000
 03734,0.00003011,0.00000430,-0.00002069,0.00705550,0.01187700,0.014216
 87,0.00010235,0.00005923,-0.00002844,-0.00003082,0.00004215,0.00001135
 ,0.00002217,-0.00071019,0.00039917,0.00020715,0.00056939,-0.00000992,0
 .00476568,-0.00018340,-0.00118681,0.00096441,0.00307273,-0.00090107,-0
 .00758590,-0.00928160,-0.01462434,-0.07279709,-0.11621264,-0.22521134,
 -0.00000800,-0.00002251,-0.00000330,-0.00008650,-0.00002617,-0.0000048
 7,-0.00003205,-0.00000412,-0.00001504,-0.00000544,0.00000312,0.0000030
 7,-0.00000923,-0.00000385,0.00000054,0.00001700,-0.00006092,0.00004076
 ,-0.00002101,0.00000398,0.00001236,-0.00000166,-0.00000325,-0.00000209
 ,0.00000264,-0.00001154,0.00000321,-0.00015466,-0.00008479,0.00009606,
 -0.00000044,-0.00006322,0.00004934,0.00005366,0.00025314,0.00030977,-0
 .00043728,-0.00116843,-0.00091511,0.00016289,0.00050256,0.00036144,0.0
 0000112,0.00038217,0.00016921,0.00011607,0.00010967,0.00115352,0.07160
 402,0.11838478,0.23692973,0.00024311,-0.00015751,-0.00001210,-0.000084
 87,-0.00002172,0.00006580,0.01382934,-0.01183854,0.00971783,-0.0005774
 5,-0.00039034,0.00005538,-0.00007080,-0.00000208,0.00005693,-0.0015942
 4,-0.00135454,-0.00027164,-0.00002261,-0.00010109,0.00010087,0.0008778
 0,-0.00078439,-0.00094699,0.00098093,0.00033167,0.00023028,-0.02001192
 ,0.01273388,-0.01219495,-0.18366724,0.09458482,-0.08883117,-0.00000253
 ,0.00000228,0.00000974,0.00024763,0.00004892,0.00001641,0.00006381,-0.
 00000340,0.00017119,0.00001343,-0.00000468,-0.00000979,0.00002596,0.00
 001403,-0.00000453,-0.00026512,0.00026971,-0.00041160,0.00011845,0.000
 10689,-0.00006412,0.00003690,0.00003446,-0.00000086,0.00001728,0.00003
 012,0.00000060,0.00007254,0.00007878,-0.00005289,-0.00006267,-0.000069
 27,-0.00000473,0.00042595,0.00029806,0.00055577,0.00013660,-0.00028179
 ,0.00014264,-0.00017103,0.00015015,-0.00003494,0.00056257,-0.00047593,
 -0.00010134,-0.00292105,0.00126575,0.00389499,-0.00636196,0.00446937,-
 0.00406838,0.19815440,-0.00056592,-0.00029036,0.00013210,-0.00005174,-
 0.00001789,0.00005665,0.00988057,-0.03179475,0.02085696,-0.00020712,-0
 .00010378,0.00008519,0.00004495,-0.00004675,-0.00003548,-0.00143453,0.
 00163448,-0.00144633,-0.00042216,-0.00039100,-0.00038903,-0.00006257,-
 0.00007154,0.00082632,0.00461232,0.00115622,0.00511872,0.00699219,-0.0
 0219724,0.00309952,0.09042969,-0.11116615,0.05360868,0.00001808,0.0000
 3189,0.00000494,0.00022986,0.00010731,-0.00001991,0.00007507,-0.000051
 43,-0.00004103,0.00001328,-0.00000327,-0.00000904,0.00002463,0.0000113
 2,-0.00000151,-0.00005218,0.00028690,-0.00005493,0.00002792,-0.0000138
 5,-0.00002694,0.00000241,0.00000037,-0.00000334,0.00000830,0.00002790,
 -0.00000255,0.00009203,-0.00005016,-0.00020109,-0.00005539,0.00008401,
 0.00004363,-0.00004561,-0.00010330,-0.00029561,-0.00015128,0.00014044,
 -0.00011249,-0.00038608,-0.00009931,-0.00037081,0.00017405,0.00039116,
 -0.00028593,0.00102639,0.00081110,-0.00061900,-0.01129590,0.01061218,-
 0.00738439,-0.09893613,0.13110685,-0.00005995,0.00016589,0.00025286,-0
 .00000973,0.00000830,-0.00002541,-0.00334229,0.01773368,-0.00713279,0.
 00004095,-0.00001370,-0.00008352,0.00003496,-0.00003315,-0.00006565,0.
 00037592,-0.00168311,0.00088669,0.00029267,-0.00004587,0.00014784,0.00
 041737,0.00026414,0.00167153,-0.00166434,-0.00216319,-0.00247707,0.016
 22892,-0.01178989,0.00999912,-0.08777904,0.05806968,-0.10938562,0.0000
 1519,0.00002339,0.00000624,-0.00003483,-0.00006766,0.00003957,-0.00001
 518,0.00004099,-0.00004693,-0.00000008,-0.00000318,0.00000170,-0.00000
 631,-0.00000224,0.00000355,-0.00008595,0.00002417,0.00007715,0.0000609
 8,0.00002380,-0.00001529,-0.00000610,-0.00000527,-0.00000456,-0.000000
 57,-0.00000047,-0.00000200,-0.00009368,0.00001567,0.00013602,-0.000028
 17,0.00004402,-0.00004988,-0.00037140,0.00046201,-0.00015636,-0.000162
 93,0.00025505,0.00002407,0.00012647,0.00018320,0.00009809,-0.00105447,
 0.00050095,0.00079106,0.00360718,-0.00172720,-0.00208416,-0.01849368,0
 .01225275,-0.01079995,0.09199505,-0.07252751,0.11819440,0.00105424,0.0
 0043210,0.00143440,-0.00292840,-0.00230777,-0.00887479,0.00001271,-0.0
 0000408,-0.00002856,-0.00011293,-0.00029735,0.00012714,-0.00168163,0.0
 1248827,0.03111184,0.00022772,-0.00026046,-0.00047653,0.00002275,-0.00
 001281,0.00002234,-0.00000151,-0.00000382,0.00000033,-0.00003096,0.000
 04652,-0.00008358,0.00000102,0.00000189,-0.00000076,-0.00001086,-0.000
 01061,-0.00000397,-0.04835090,-0.00164349,0.00231732,0.00050469,0.0000
 3631,0.00002076,-0.00026644,-0.00011321,-0.00044500,0.00061089,-0.0003
 3318,-0.00013416,0.00036526,0.00189114,-0.00160327,0.00001949,0.000044
 22,-0.00010100,-0.00009473,-0.00052670,0.00026519,-0.00570641,0.002178
 15,0.00105977,0.00117556,-0.00022699,-0.00071433,0.00000029,0.00000035
 ,-0.00000290,0.00000917,-0.00000447,-0.00000605,-0.00000059,-0.0000014
 6,0.00000261,0.00000285,0.00000038,-0.00000041,-0.00000208,-0.00000799
 ,0.00002149,0.00000142,0.00000087,-0.00000137,0.00000129,-0.00000073,-
 0.00000007,0.00000234,0.00000085,0.00000105,-0.00000305,-0.00000297,-0
 .00000005,0.05447100,-0.00088532,0.00019712,0.00076396,0.00167228,0.00
 887643,0.02426170,0.00010778,0.00003975,0.00004946,-0.00015240,-0.0004
 0976,0.00020681,0.00058681,-0.00515892,-0.01216003,0.00027940,0.000009
 45,0.00002481,0.00001240,0.00000049,0.00001487,0.00000321,-0.00000868,
 -0.00000207,-0.00020413,0.00007226,-0.00013307,-0.00000273,0.00000466,
 -0.00000367,-0.00002945,-0.00003436,0.00001637,-0.00123928,-0.08565811
 ,-0.09222049,-0.00002539,-0.00065286,0.00031302,0.00031822,0.00017373,
 -0.00017292,-0.00052544,0.00158236,-0.00041768,0.00080946,-0.00234497,
 0.00322410,0.00001169,0.00010016,-0.00000739,-0.00060085,-0.00044843,0
 .00016400,0.00263369,-0.00001331,0.00015780,-0.00042913,0.00000225,0.0
 0016333,-0.00000165,0.00000206,0.00000109,0.00001433,-0.00000222,-0.00
 000453,-0.00000050,-0.00000109,0.00000340,0.00000578,0.00000275,-0.000
 00304,-0.00000317,-0.00000171,0.00000354,0.00000383,0.00000224,-0.0000
 0193,0.00000160,-0.00000152,0.00000105,0.00000580,0.00000490,0.0000015
 9,-0.00000198,-0.00000318,-0.00000125,-0.00333189,0.09277362,-0.000161
 91,-0.00054646,0.00049417,-0.00198428,-0.00915633,-0.01876110,0.000068
 54,0.00002338,0.00003283,-0.00052062,-0.00099672,-0.00125237,0.0017674
 3,-0.00241925,-0.00551697,0.00017922,0.00003494,0.00012397,0.00000427,
 0.00000378,0.00000615,0.00000175,-0.00000530,-0.00000118,-0.00010075,0
 .00006172,-0.00007624,-0.00000101,0.00000336,-0.00000281,-0.00001489,-
 0.00002138,0.00001007,0.00146636,-0.08913762,-0.27373028,0.00093921,0.
 00183794,-0.00020973,0.00060888,0.00029856,-0.00021173,0.00034308,0.00
 003824,0.00164198,-0.00046304,0.00319735,-0.00147716,0.00002752,0.0001
 7615,0.00031077,-0.00019132,0.00033861,0.00057205,0.00098389,-0.000508
 32,0.00105483,0.00043125,-0.00011887,0.00032897,-0.00000008,0.00000128
 ,0.00000054,0.00000634,-0.00000221,-0.00000214,-0.00000056,-0.00000092
 ,0.00000162,0.00000351,0.00000139,-0.00000195,-0.00001420,-0.00000254,
 -0.00000737,0.00000210,0.00000141,-0.00000137,0.00000106,-0.00000074,0
 .00000054,0.00000398,0.00000306,0.00000151,-0.00000036,-0.00000196,-0.
 00000126,-0.00264598,0.09771957,0.29778874,-0.00181112,0.00475937,0.00
 189788,0.00529777,0.00577581,0.00021683,-0.00039178,-0.00017931,-0.000
 26592,-0.00041903,0.00084523,-0.00026290,-0.02067890,-0.02286324,-0.00
 309028,-0.00346403,-0.00084437,0.00026788,-0.00009020,0.00003885,-0.00
 013403,0.00000169,0.00004163,0.00000528,0.00090565,-0.00061374,0.00096
 873,0.00001482,-0.00001387,0.00001517,0.00012248,0.00013625,-0.0000559
 0,-0.17244729,-0.13554780,-0.00891597,0.00101811,0.00115785,-0.0009949
 5,-0.00000659,-0.00015689,-0.00025362,-0.00090479,-0.00010171,0.000542
 72,0.00124780,0.00008717,0.00013184,0.00006477,-0.00006489,0.00012832,
 0.00013265,-0.00004029,0.00004844,0.00125519,-0.00007313,0.00025991,0.
 00132163,0.00002971,-0.00059027,0.00000318,-0.00000320,0.00000385,-0.0
 0007652,0.00002704,0.00003801,0.00000202,0.00001062,-0.00002270,-0.000
 03087,-0.00000943,0.00001202,0.00004204,0.00006645,-0.00010786,-0.0000
 1617,-0.00001084,0.00000733,-0.00000892,0.00000638,-0.00000347,-0.0000
 2702,-0.00001678,-0.00001182,0.00000983,0.00001783,0.00001310,0.000707
 81,0.00096703,-0.00073938,0.18822577,0.00224978,-0.00127987,-0.0008058
 7,-0.01532290,-0.01387454,-0.00300435,0.00006047,0.00002397,0.00005850
 ,0.00133887,0.00000936,0.00049410,0.01098411,0.01196758,0.00174792,0.0
 0132153,0.00041149,-0.00023505,0.00002101,-0.00001885,0.00002445,-0.00
 000231,-0.00000667,0.00000055,-0.00011782,0.00018234,-0.00022417,-0.00
 000528,0.00000240,-0.00000621,-0.00001657,-0.00002937,0.00001579,-0.13
 721433,-0.19321848,-0.00986349,-0.00062233,-0.00342545,0.00271508,0.00
 001247,0.00017625,0.00012854,0.00106474,-0.00060114,0.00047390,-0.0002
 7732,0.00163040,0.00001596,-0.00011596,0.00003053,0.00000082,-0.000198
 03,0.00010168,0.00006940,-0.00085501,0.00029054,0.00007931,-0.00086203
 ,0.00068257,0.00024152,-0.00000054,-0.00000019,-0.00000030,0.00001406,
 -0.00000767,-0.00000799,0.00000039,-0.00000263,0.00000387,0.00000519,0
 .00000057,-0.00000049,-0.00001214,-0.00002143,0.00003104,0.00000233,0.
 00000152,-0.00000042,-0.00000026,0.00000008,0.00000176,0.00000222,0.00
 000273,0.00000090,0.00000447,0.00000182,-0.00000399,-0.00803109,-0.009
 10510,-0.00082212,0.14657226,0.20607556,0.00038708,-0.00064203,0.00057
 259,0.01589291,0.01438834,0.00006227,0.00003786,0.00000897,0.00002645,
 -0.00113412,-0.00077760,-0.00120397,0.00473929,0.00533050,-0.00043064,
 0.00041265,0.00003944,0.00002563,0.00000569,0.00000067,0.00000567,0.00
 000126,-0.00000282,-0.00000150,-0.00005078,0.00008339,-0.00007371,-0.0
 0000120,0.00000029,0.00000078,-0.00001475,-0.00000680,0.00000421,-0.01
 095039,-0.01170170,-0.04782782,0.00133155,0.00533462,-0.00360602,0.000
 31828,0.00016611,-0.00000144,-0.00065250,0.00056861,0.00008372,0.00084
 818,-0.00021941,0.00083400,0.00009659,0.00008479,0.00021390,-0.0001140
 9,0.00019787,0.00036107,-0.00037122,0.00043613,0.00024446,-0.00041525,
 -0.00018569,0.00016255,0.00000026,-0.00000019,-0.00000039,0.00000378,-
 0.00000211,-0.00000251,0.,-0.00000074,0.00000132,0.00000295,0.00000063
 ,-0.00000132,-0.00000747,-0.00000672,0.00000346,0.00000134,0.00000083,
 -0.00000080,0.00000138,-0.00000081,-0.00000037,0.00000351,0.00000064,0
 .00000239,-0.00000309,-0.00000381,0.00000057,-0.02126145,-0.02196241,-
 0.00111507,0.01089176,0.00887103,0.05166053\\-0.00064791,0.00025035,-0
 .00109510,0.00000826,0.00000627,-0.00000314,0.00000400,0.00002144,0.00
 000672,-0.00000442,0.00000823,0.00000148,0.00037534,-0.00047876,0.0007
 3038,0.00063358,0.00118086,0.00060946,0.00000212,-0.00000245,-0.000000
 99,0.00000360,-0.00000505,-0.00000356,-0.00035320,-0.00097783,-0.00024
 404,0.00000287,-0.00000529,-0.00000858,-0.00000529,-0.00000479,0.00000
 373,0.00000051,-0.00000345,0.00000539,-0.00001032,-0.00000882,-0.00000
 026,-0.00000034,0.00000420,0.00000283,-0.00000093,0.00000153,0.0000008
 0,-0.00000131,-0.00000071,0.00000290,-0.00000007,-0.00000080,-0.000002
 61,-0.00000021,0.00000069,-0.00000538,-0.00000028,-0.00000013,0.000003
 28,0.00000303,0.00000098,0.00000244,-0.00000354,-0.00000409,0.00000605
 ,-0.00000134,0.00000289,0.00000140,-0.00000219,-0.00000407,-0.00000050
 ,-0.00000228,-0.00000014,-0.00000269,-0.00000401,0.00000578,0.00000054
 ,-0.00000241,0.00000126,-0.00000217,0.00000052,0.00000023,-0.00000512,
 0.00000221,0.00000409,-0.00000627,0.00000033,0.00000201,-0.00000499,0.
 00000217,0.00000292,0.00000221,0.00000152,0.00000262,0.00000580\\\@


 EDUCATION WITHOUT COMMON SENSE IS A LOAD OF BOOKS ON THE BACK OF AN ASS.
 Job cpu time:       0 days 15 hours 29 minutes 48.8 seconds.
 Elapsed time:       0 days  0 hours 58 minutes  8.3 seconds.
 File lengths (MBytes):  RWF=    692 Int=      0 D2E=      0 Chk=     33 Scr=      1
 Normal termination of Gaussian 16 at Sun Nov  4 22:55:47 2018.
