 Entering Gaussian System, Link 0=g16
 Initial command:
 /apps/gaussian/g16a03/g16/l1.exe "/jobfs/local/2012013.r-man2/Gau-19399.inp" -scrdir="/jobfs/local/2012013.r-man2/"
 Entering Link 1 = /apps/gaussian/g16a03/g16/l1.exe PID=     19400.
  
 Copyright (c) 1988,1990,1992,1993,1995,1998,2003,2009,2016,
            Gaussian, Inc.  All Rights Reserved.
  
 This is part of the Gaussian(R) 16 program.  It is based on
 the Gaussian(R) 09 system (copyright 2009, Gaussian, Inc.),
 the Gaussian(R) 03 system (copyright 2003, Gaussian, Inc.),
 the Gaussian(R) 98 system (copyright 1998, Gaussian, Inc.),
 the Gaussian(R) 94 system (copyright 1995, Gaussian, Inc.),
 the Gaussian 92(TM) system (copyright 1992, Gaussian, Inc.),
 the Gaussian 90(TM) system (copyright 1990, Gaussian, Inc.),
 the Gaussian 88(TM) system (copyright 1988, Gaussian, Inc.),
 the Gaussian 86(TM) system (copyright 1986, Carnegie Mellon
 University), and the Gaussian 82(TM) system (copyright 1983,
 Carnegie Mellon University). Gaussian is a federally registered
 trademark of Gaussian, Inc.
  
 This software contains proprietary and confidential information,
 including trade secrets, belonging to Gaussian, Inc.
  
 This software is provided under written license and may be
 used, copied, transmitted, or stored only in accord with that
 written license.
  
 The following legend is applicable only to US Government
 contracts under FAR:
  
                    RESTRICTED RIGHTS LEGEND
  
 Use, reproduction and disclosure by the US Government is
 subject to restrictions as set forth in subparagraphs (a)
 and (c) of the Commercial Computer Software - Restricted
 Rights clause in FAR 52.227-19.
  
 Gaussian, Inc.
 340 Quinnipiac St., Bldg. 40, Wallingford CT 06492
  
  
 ---------------------------------------------------------------
 Warning -- This program may not be used in any manner that
 competes with the business of Gaussian, Inc. or will provide
 assistance to any competitor of Gaussian, Inc.  The licensee
 of this program is prohibited from giving any competitor of
 Gaussian, Inc. access to this program.  By using this program,
 the user acknowledges that Gaussian, Inc. is engaged in the
 business of creating and licensing software in the field of
 computational chemistry and represents and warrants to the
 licensee that it is not a competitor of Gaussian, Inc. and that
 it will not use this program in any manner prohibited above.
 ---------------------------------------------------------------
  

 Cite this work as:
 Gaussian 16, Revision A.03,
 M. J. Frisch, G. W. Trucks, H. B. Schlegel, G. E. Scuseria, 
 M. A. Robb, J. R. Cheeseman, G. Scalmani, V. Barone, 
 G. A. Petersson, H. Nakatsuji, X. Li, M. Caricato, A. V. Marenich, 
 J. Bloino, B. G. Janesko, R. Gomperts, B. Mennucci, H. P. Hratchian, 
 J. V. Ortiz, A. F. Izmaylov, J. L. Sonnenberg, D. Williams-Young, 
 F. Ding, F. Lipparini, F. Egidi, J. Goings, B. Peng, A. Petrone, 
 T. Henderson, D. Ranasinghe, V. G. Zakrzewski, J. Gao, N. Rega, 
 G. Zheng, W. Liang, M. Hada, M. Ehara, K. Toyota, R. Fukuda, 
 J. Hasegawa, M. Ishida, T. Nakajima, Y. Honda, O. Kitao, H. Nakai, 
 T. Vreven, K. Throssell, J. A. Montgomery, Jr., J. E. Peralta, 
 F. Ogliaro, M. J. Bearpark, J. J. Heyd, E. N. Brothers, K. N. Kudin, 
 V. N. Staroverov, T. A. Keith, R. Kobayashi, J. Normand, 
 K. Raghavachari, A. P. Rendell, J. C. Burant, S. S. Iyengar, 
 J. Tomasi, M. Cossi, J. M. Millam, M. Klene, C. Adamo, R. Cammi, 
 J. W. Ochterski, R. L. Martin, K. Morokuma, O. Farkas, 
 J. B. Foresman, and D. J. Fox, Gaussian, Inc., Wallingford CT, 2016.
 
 ******************************************
 Gaussian 16:  ES64L-G16RevA.03 25-Dec-2016
                 4-Nov-2018 
 ******************************************
 %mem=6000mb
 %nproc=24
 Will use up to   24 processors via shared memory.
 %chk=D_a1-4_2SO_PSI.inp_extract_12.chk
 ----------------------------------------------------------------------
 #M062X/6-311++G(2d,2p) opt=ModRedundant freq=noraman SCRF=(Solvent=Wat
 er)
 ----------------------------------------------------------------------
 1/18=120,19=15,26=3,38=1/1,3;
 2/9=110,12=2,17=6,18=5,40=1/2;
 3/5=4,6=6,7=1212,11=2,25=1,30=1,70=2201,71=1,72=1,74=-55/1,2,3;
 4//1;
 5/5=2,38=5,53=1/2;
 6/7=2,8=2,9=2,10=2,28=1/1;
 7//1,2,3,16;
 1/18=20,19=15,26=3/3(2);
 2/9=110/2;
 99//99;
 2/9=110/2;
 3/5=4,6=6,7=1212,11=2,25=1,30=1,70=2205,71=1,72=1,74=-55/1,2,3;
 4/5=5,16=3,69=1/1;
 5/5=2,38=5,53=1/2;
 7//1,2,3,16;
 1/18=20,19=15,26=3/3(-5);
 2/9=110/2;
 6/7=2,8=2,9=2,10=2,19=2,28=1/1;
 99/9=1/99;
 -----------------------------
 D_a1-4_2SO_PSI.inp_extract_12
 -----------------------------
 Symbolic Z-matrix:
 Charge =  0 Multiplicity = 1
 C                     1.10719   0.63169   0.92219 
 C                     3.24296  -0.51859  -0.78041 
 O                    -1.07965  -0.55501  -0.99443 
 C                     1.89174   1.33098  -0.18852 
 C                     1.60367  -0.81032   1.08887 
 O                    -0.31773   0.66921   0.82351 
 C                    -2.3738    1.31016  -0.16675 
 C                    -3.29747   0.34716   0.57964 
 C                    -0.99118   0.71623  -0.39987 
 C                    -3.30739  -1.00591  -0.13113 
 C                    -1.88524  -1.50831  -0.31533 
 C                     3.07718  -0.9004    0.6948 
 O                     2.26664   0.42613  -1.20232 
 H                     1.30484   1.17943   1.83473 
 H                     4.232    -0.11134  -0.96735 
 H                     3.1049   -1.38329  -1.41578 
 H                     1.33605   2.13276  -0.6497 
 H                     2.78138   1.77097   0.24995 
 H                     1.02446  -1.46325   0.44646 
 H                     1.44809  -1.13923   2.1105 
 H                    -2.26657   2.25116   0.36181 
 H                    -2.79786   1.53096  -1.14269 
 H                    -2.95768   0.21993   1.60413 
 H                    -4.29974   0.76185   0.62742 
 H                    -0.44752   1.31163  -1.11244 
 H                    -3.87235  -1.74146   0.43461 
 H                    -3.78239  -0.90736  -1.10457 
 H                    -1.85618  -2.40035  -0.92592 
 H                    -1.43786  -1.74203   0.64446 
 H                     3.66907  -0.24376   1.32586 
 H                     3.4573   -1.90544   0.84349 
 
 The following ModRedundant input section has been read:
 D       5       1       6       9 F                                           
 

 GradGradGradGradGradGradGradGradGradGradGradGradGradGradGradGradGradGrad
 Berny optimization.
 Initialization pass.
                           ----------------------------
                           !    Initial Parameters    !
                           ! (Angstroms and Degrees)  !
 --------------------------                            --------------------------
 ! Name  Definition              Value          Derivative Info.                !
 --------------------------------------------------------------------------------
 ! R1    R(1,4)                  1.5291         estimate D2E/DX2                !
 ! R2    R(1,5)                  1.5342         estimate D2E/DX2                !
 ! R3    R(1,6)                  1.4288         estimate D2E/DX2                !
 ! R4    R(1,14)                 1.0825         estimate D2E/DX2                !
 ! R5    R(2,12)                 1.5328         estimate D2E/DX2                !
 ! R6    R(2,13)                 1.4226         estimate D2E/DX2                !
 ! R7    R(2,15)                 1.0858         estimate D2E/DX2                !
 ! R8    R(2,16)                 1.0819         estimate D2E/DX2                !
 ! R9    R(3,9)                  1.4062         estimate D2E/DX2                !
 ! R10   R(3,11)                 1.4209         estimate D2E/DX2                !
 ! R11   R(4,13)                 1.4096         estimate D2E/DX2                !
 ! R12   R(4,17)                 1.079          estimate D2E/DX2                !
 ! R13   R(4,18)                 1.085          estimate D2E/DX2                !
 ! R14   R(5,12)                 1.528          estimate D2E/DX2                !
 ! R15   R(5,19)                 1.0837         estimate D2E/DX2                !
 ! R16   R(5,20)                 1.0845         estimate D2E/DX2                !
 ! R17   R(6,9)                  1.3973         estimate D2E/DX2                !
 ! R18   R(7,8)                  1.5289         estimate D2E/DX2                !
 ! R19   R(7,9)                  1.5227         estimate D2E/DX2                !
 ! R20   R(7,21)                 1.0846         estimate D2E/DX2                !
 ! R21   R(7,22)                 1.0868         estimate D2E/DX2                !
 ! R22   R(8,10)                 1.5284         estimate D2E/DX2                !
 ! R23   R(8,23)                 1.0868         estimate D2E/DX2                !
 ! R24   R(8,24)                 1.0857         estimate D2E/DX2                !
 ! R25   R(9,25)                 1.076          estimate D2E/DX2                !
 ! R26   R(10,11)                1.5195         estimate D2E/DX2                !
 ! R27   R(10,26)                1.0864         estimate D2E/DX2                !
 ! R28   R(10,27)                1.0876         estimate D2E/DX2                !
 ! R29   R(11,28)                1.0814         estimate D2E/DX2                !
 ! R30   R(11,29)                1.0844         estimate D2E/DX2                !
 ! R31   R(12,30)                1.0862         estimate D2E/DX2                !
 ! R32   R(12,31)                1.0848         estimate D2E/DX2                !
 ! A1    A(4,1,5)              110.0433         estimate D2E/DX2                !
 ! A2    A(4,1,6)              116.7111         estimate D2E/DX2                !
 ! A3    A(4,1,14)             106.6934         estimate D2E/DX2                !
 ! A4    A(5,1,6)              110.7878         estimate D2E/DX2                !
 ! A5    A(5,1,14)             108.9611         estimate D2E/DX2                !
 ! A6    A(6,1,14)             103.1217         estimate D2E/DX2                !
 ! A7    A(12,2,13)            112.1254         estimate D2E/DX2                !
 ! A8    A(12,2,15)            110.955          estimate D2E/DX2                !
 ! A9    A(12,2,16)            110.6295         estimate D2E/DX2                !
 ! A10   A(13,2,15)            108.9656         estimate D2E/DX2                !
 ! A11   A(13,2,16)            105.6064         estimate D2E/DX2                !
 ! A12   A(15,2,16)            108.3543         estimate D2E/DX2                !
 ! A13   A(9,3,11)             116.1112         estimate D2E/DX2                !
 ! A14   A(1,4,13)             111.426          estimate D2E/DX2                !
 ! A15   A(1,4,17)             112.7081         estimate D2E/DX2                !
 ! A16   A(1,4,18)             108.2154         estimate D2E/DX2                !
 ! A17   A(13,4,17)            107.8515         estimate D2E/DX2                !
 ! A18   A(13,4,18)            109.4424         estimate D2E/DX2                !
 ! A19   A(17,4,18)            107.0764         estimate D2E/DX2                !
 ! A20   A(1,5,12)             109.8447         estimate D2E/DX2                !
 ! A21   A(1,5,19)             109.204          estimate D2E/DX2                !
 ! A22   A(1,5,20)             109.9373         estimate D2E/DX2                !
 ! A23   A(12,5,19)            109.0873         estimate D2E/DX2                !
 ! A24   A(12,5,20)            111.3105         estimate D2E/DX2                !
 ! A25   A(19,5,20)            107.3992         estimate D2E/DX2                !
 ! A26   A(1,6,9)              122.8204         estimate D2E/DX2                !
 ! A27   A(8,7,9)              112.1855         estimate D2E/DX2                !
 ! A28   A(8,7,21)             111.6096         estimate D2E/DX2                !
 ! A29   A(8,7,22)             109.3068         estimate D2E/DX2                !
 ! A30   A(9,7,21)             108.8594         estimate D2E/DX2                !
 ! A31   A(9,7,22)             107.2217         estimate D2E/DX2                !
 ! A32   A(21,7,22)            107.4539         estimate D2E/DX2                !
 ! A33   A(7,8,10)             109.5416         estimate D2E/DX2                !
 ! A34   A(7,8,23)             110.1834         estimate D2E/DX2                !
 ! A35   A(7,8,24)             109.7918         estimate D2E/DX2                !
 ! A36   A(10,8,23)            109.6793         estimate D2E/DX2                !
 ! A37   A(10,8,24)            110.6464         estimate D2E/DX2                !
 ! A38   A(23,8,24)            106.968          estimate D2E/DX2                !
 ! A39   A(3,9,6)              111.7209         estimate D2E/DX2                !
 ! A40   A(3,9,7)              111.1134         estimate D2E/DX2                !
 ! A41   A(3,9,25)             104.5971         estimate D2E/DX2                !
 ! A42   A(6,9,7)              108.464          estimate D2E/DX2                !
 ! A43   A(6,9,25)             110.788          estimate D2E/DX2                !
 ! A44   A(7,9,25)             110.1402         estimate D2E/DX2                !
 ! A45   A(8,10,11)            110.0595         estimate D2E/DX2                !
 ! A46   A(8,10,26)            111.1363         estimate D2E/DX2                !
 ! A47   A(8,10,27)            109.8061         estimate D2E/DX2                !
 ! A48   A(11,10,26)           109.0252         estimate D2E/DX2                !
 ! A49   A(11,10,27)           109.2814         estimate D2E/DX2                !
 ! A50   A(26,10,27)           107.4764         estimate D2E/DX2                !
 ! A51   A(3,11,10)            111.5155         estimate D2E/DX2                !
 ! A52   A(3,11,28)            105.5656         estimate D2E/DX2                !
 ! A53   A(3,11,29)            109.4945         estimate D2E/DX2                !
 ! A54   A(10,11,28)           111.4898         estimate D2E/DX2                !
 ! A55   A(10,11,29)           110.4931         estimate D2E/DX2                !
 ! A56   A(28,11,29)           108.1113         estimate D2E/DX2                !
 ! A57   A(2,12,5)             109.7447         estimate D2E/DX2                !
 ! A58   A(2,12,30)            110.4655         estimate D2E/DX2                !
 ! A59   A(2,12,31)            108.954          estimate D2E/DX2                !
 ! A60   A(5,12,30)            109.8785         estimate D2E/DX2                !
 ! A61   A(5,12,31)            110.9287         estimate D2E/DX2                !
 ! A62   A(30,12,31)           106.8298         estimate D2E/DX2                !
 ! A63   A(2,13,4)             113.2981         estimate D2E/DX2                !
 ! D1    D(5,1,4,13)            32.6315         estimate D2E/DX2                !
 ! D2    D(5,1,4,17)           154.0442         estimate D2E/DX2                !
 ! D3    D(5,1,4,18)           -87.7378         estimate D2E/DX2                !
 ! D4    D(6,1,4,13)           -94.7053         estimate D2E/DX2                !
 ! D5    D(6,1,4,17)            26.7074         estimate D2E/DX2                !
 ! D6    D(6,1,4,18)           144.9254         estimate D2E/DX2                !
 ! D7    D(14,1,4,13)          150.6982         estimate D2E/DX2                !
 ! D8    D(14,1,4,17)          -87.8891         estimate D2E/DX2                !
 ! D9    D(14,1,4,18)           30.3289         estimate D2E/DX2                !
 ! D10   D(4,1,5,12)            29.1788         estimate D2E/DX2                !
 ! D11   D(4,1,5,19)           -90.4149         estimate D2E/DX2                !
 ! D12   D(4,1,5,20)           151.9926         estimate D2E/DX2                !
 ! D13   D(6,1,5,12)           159.7419         estimate D2E/DX2                !
 ! D14   D(6,1,5,19)            40.1481         estimate D2E/DX2                !
 ! D15   D(6,1,5,20)           -77.4444         estimate D2E/DX2                !
 ! D16   D(14,1,5,12)          -87.4786         estimate D2E/DX2                !
 ! D17   D(14,1,5,19)          152.9276         estimate D2E/DX2                !
 ! D18   D(14,1,5,20)           35.3351         estimate D2E/DX2                !
 ! D19   D(4,1,6,9)             30.3664         estimate D2E/DX2                !
 ! D20   D(5,1,6,9)            -96.6047         Frozen                          !
 ! D21   D(14,1,6,9)           146.9489         estimate D2E/DX2                !
 ! D22   D(13,2,12,5)           30.4356         estimate D2E/DX2                !
 ! D23   D(13,2,12,30)         -90.8671         estimate D2E/DX2                !
 ! D24   D(13,2,12,31)         152.0731         estimate D2E/DX2                !
 ! D25   D(15,2,12,5)          152.5347         estimate D2E/DX2                !
 ! D26   D(15,2,12,30)          31.232          estimate D2E/DX2                !
 ! D27   D(15,2,12,31)         -85.8278         estimate D2E/DX2                !
 ! D28   D(16,2,12,5)          -87.1693         estimate D2E/DX2                !
 ! D29   D(16,2,12,30)         151.528          estimate D2E/DX2                !
 ! D30   D(16,2,12,31)          34.4682         estimate D2E/DX2                !
 ! D31   D(12,2,13,4)           33.4386         estimate D2E/DX2                !
 ! D32   D(15,2,13,4)          -89.7876         estimate D2E/DX2                !
 ! D33   D(16,2,13,4)          153.9996         estimate D2E/DX2                !
 ! D34   D(11,3,9,6)            66.6474         estimate D2E/DX2                !
 ! D35   D(11,3,9,7)           -54.636          estimate D2E/DX2                !
 ! D36   D(11,3,9,25)         -173.4501         estimate D2E/DX2                !
 ! D37   D(9,3,11,10)           57.1868         estimate D2E/DX2                !
 ! D38   D(9,3,11,28)          178.4239         estimate D2E/DX2                !
 ! D39   D(9,3,11,29)          -65.4125         estimate D2E/DX2                !
 ! D40   D(1,4,13,2)           -68.634          estimate D2E/DX2                !
 ! D41   D(17,4,13,2)          167.1681         estimate D2E/DX2                !
 ! D42   D(18,4,13,2)           51.0108         estimate D2E/DX2                !
 ! D43   D(1,5,12,2)           -61.7983         estimate D2E/DX2                !
 ! D44   D(1,5,12,30)           59.8565         estimate D2E/DX2                !
 ! D45   D(1,5,12,31)          177.7545         estimate D2E/DX2                !
 ! D46   D(19,5,12,2)           57.8667         estimate D2E/DX2                !
 ! D47   D(19,5,12,30)         179.5215         estimate D2E/DX2                !
 ! D48   D(19,5,12,31)         -62.5805         estimate D2E/DX2                !
 ! D49   D(20,5,12,2)          176.2021         estimate D2E/DX2                !
 ! D50   D(20,5,12,30)         -62.143          estimate D2E/DX2                !
 ! D51   D(20,5,12,31)          55.755          estimate D2E/DX2                !
 ! D52   D(1,6,9,3)             80.2373         estimate D2E/DX2                !
 ! D53   D(1,6,9,7)           -156.9562         estimate D2E/DX2                !
 ! D54   D(1,6,9,25)           -35.9562         estimate D2E/DX2                !
 ! D55   D(9,7,8,10)           -52.029          estimate D2E/DX2                !
 ! D56   D(9,7,8,23)            68.7143         estimate D2E/DX2                !
 ! D57   D(9,7,8,24)          -173.7219         estimate D2E/DX2                !
 ! D58   D(21,7,8,10)         -174.5099         estimate D2E/DX2                !
 ! D59   D(21,7,8,23)          -53.7666         estimate D2E/DX2                !
 ! D60   D(21,7,8,24)           63.7972         estimate D2E/DX2                !
 ! D61   D(22,7,8,10)           66.7648         estimate D2E/DX2                !
 ! D62   D(22,7,8,23)         -172.4919         estimate D2E/DX2                !
 ! D63   D(22,7,8,24)          -54.9281         estimate D2E/DX2                !
 ! D64   D(8,7,9,3)             51.5599         estimate D2E/DX2                !
 ! D65   D(8,7,9,6)            -71.6136         estimate D2E/DX2                !
 ! D66   D(8,7,9,25)           166.9872         estimate D2E/DX2                !
 ! D67   D(21,7,9,3)           175.5871         estimate D2E/DX2                !
 ! D68   D(21,7,9,6)            52.4135         estimate D2E/DX2                !
 ! D69   D(21,7,9,25)          -68.9857         estimate D2E/DX2                !
 ! D70   D(22,7,9,3)           -68.455          estimate D2E/DX2                !
 ! D71   D(22,7,9,6)           168.3714         estimate D2E/DX2                !
 ! D72   D(22,7,9,25)           46.9723         estimate D2E/DX2                !
 ! D73   D(7,8,10,11)           53.1342         estimate D2E/DX2                !
 ! D74   D(7,8,10,26)          174.0134         estimate D2E/DX2                !
 ! D75   D(7,8,10,27)          -67.2065         estimate D2E/DX2                !
 ! D76   D(23,8,10,11)         -67.9145         estimate D2E/DX2                !
 ! D77   D(23,8,10,26)          52.9647         estimate D2E/DX2                !
 ! D78   D(23,8,10,27)         171.7448         estimate D2E/DX2                !
 ! D79   D(24,8,10,11)         174.3122         estimate D2E/DX2                !
 ! D80   D(24,8,10,26)         -64.8085         estimate D2E/DX2                !
 ! D81   D(24,8,10,27)          53.9715         estimate D2E/DX2                !
 ! D82   D(8,10,11,3)          -55.0065         estimate D2E/DX2                !
 ! D83   D(8,10,11,28)        -172.7296         estimate D2E/DX2                !
 ! D84   D(8,10,11,29)          67.0183         estimate D2E/DX2                !
 ! D85   D(26,10,11,3)        -177.1448         estimate D2E/DX2                !
 ! D86   D(26,10,11,28)         65.1321         estimate D2E/DX2                !
 ! D87   D(26,10,11,29)        -55.12           estimate D2E/DX2                !
 ! D88   D(27,10,11,3)          65.6504         estimate D2E/DX2                !
 ! D89   D(27,10,11,28)        -52.0726         estimate D2E/DX2                !
 ! D90   D(27,10,11,29)       -172.3248         estimate D2E/DX2                !
 --------------------------------------------------------------------------------
 Trust Radius=3.00D-01 FncErr=1.00D-07 GrdErr=1.00D-06 EigMax=2.50D+02 EigMin=1.00D-04
 Number of steps in this run=    186 maximum allowed number of steps=    186.
 GradGradGradGradGradGradGradGradGradGradGradGradGradGradGradGradGradGrad

                          Input orientation:                          
 ---------------------------------------------------------------------
 Center     Atomic      Atomic             Coordinates (Angstroms)
 Number     Number       Type             X           Y           Z
 ---------------------------------------------------------------------
      1          6           0        1.107193    0.631691    0.922190
      2          6           0        3.242956   -0.518590   -0.780411
      3          8           0       -1.079648   -0.555009   -0.994430
      4          6           0        1.891737    1.330984   -0.188521
      5          6           0        1.603666   -0.810323    1.088870
      6          8           0       -0.317730    0.669206    0.823506
      7          6           0       -2.373795    1.310162   -0.166750
      8          6           0       -3.297470    0.347158    0.579643
      9          6           0       -0.991181    0.716234   -0.399872
     10          6           0       -3.307393   -1.005910   -0.131125
     11          6           0       -1.885236   -1.508305   -0.315325
     12          6           0        3.077181   -0.900403    0.694796
     13          8           0        2.266642    0.426130   -1.202318
     14          1           0        1.304839    1.179429    1.834732
     15          1           0        4.232002   -0.111343   -0.967354
     16          1           0        3.104900   -1.383287   -1.415779
     17          1           0        1.336048    2.132763   -0.649699
     18          1           0        2.781378    1.770974    0.249946
     19          1           0        1.024458   -1.463254    0.446455
     20          1           0        1.448093   -1.139230    2.110502
     21          1           0       -2.266573    2.251162    0.361809
     22          1           0       -2.797864    1.530964   -1.142691
     23          1           0       -2.957681    0.219934    1.604131
     24          1           0       -4.299740    0.761850    0.627421
     25          1           0       -0.447522    1.311631   -1.112437
     26          1           0       -3.872345   -1.741457    0.434608
     27          1           0       -3.782387   -0.907364   -1.104574
     28          1           0       -1.856180   -2.400347   -0.925917
     29          1           0       -1.437855   -1.742033    0.644464
     30          1           0        3.669067   -0.243756    1.325862
     31          1           0        3.457302   -1.905436    0.843485
 ---------------------------------------------------------------------
                    Distance matrix (angstroms):
                    1          2          3          4          5
     1  C    0.000000
     2  C    2.963694   0.000000
     3  O    3.140695   4.328052   0.000000
     4  C    1.529117   2.365809   3.610483   0.000000
     5  C    1.534168   2.503316   3.406684   2.509962   0.000000
     6  O    1.428829   4.081898   2.320369   2.518709   2.439505
     7  C    3.709904   5.938755   2.416347   4.265638   4.679021
     8  C    4.427116   6.736204   2.865370   5.337215   5.061641
     9  C    2.481566   4.426908   1.406195   2.955301   3.358565
    10  C    4.824912   6.600464   2.431348   5.700467   5.064103
    11  C    3.881450   5.243491   1.420890   4.726856   3.825099
    12  C    2.505967   1.532807   4.500223   2.676680   1.527958
    13  O    2.429015   1.422565   3.493352   1.409645   2.686614
    14  H    1.082503   3.671313   4.086344   2.112101   2.145861
    15  H    3.726514   1.085822   5.330216   2.857224   3.409513
    16  H    3.676557   1.081875   4.286493   3.216395   2.975779
    17  H    2.185504   3.268495   3.630227   1.079039   3.428702
    18  H    2.133723   2.552801   4.676130   1.085037   2.958698
    19  H    2.149875   2.705425   2.707087   2.993849   1.083743
    20  H    2.159736   3.458917   4.046158   3.403569   1.084488
    21  H    3.784047   6.271451   3.335082   4.294314   4.987991
    22  H    4.507981   6.389321   2.706572   4.789863   5.462138
    23  H    4.142196   6.684262   3.298494   5.288184   4.704552
    24  H    5.416526   7.779060   3.838426   6.270890   6.126570
    25  H    2.649371   4.132745   1.974298   2.515180   3.681822
    26  H    5.537632   7.321146   3.353948   6.561465   5.593010
    27  H    5.512210   7.043555   2.727835   6.168066   5.816372
    28  H    4.624968   5.437221   2.003239   5.339800   4.307909
    29  H    3.491270   5.043518   2.055070   4.606895   3.211920
    30  H    2.737254   2.166446   5.294424   2.816392   2.154773
    31  H    3.459222   2.146235   5.077942   3.740380   2.166899
                    6          7          8          9         10
     6  O    0.000000
     7  C    2.370408   0.000000
     8  C    3.006998   1.528939   0.000000
     9  C    1.397284   1.522734   2.532713   0.000000
    10  C    3.557446   2.497411   1.528425   2.898766   0.000000
    11  C    2.914715   2.864353   2.497622   2.398970   1.519494
    12  C    3.742414   5.944914   6.496602   4.512580   6.438638
    13  O    3.292723   4.836070   5.843027   3.367713   5.853893
    14  H    1.978797   4.189913   4.842434   3.237238   5.469276
    15  H    4.951414   6.804278   7.700414   5.318699   7.638194
    16  H    4.576191   6.231440   6.925784   4.713590   6.550592
    17  H    2.654678   3.830515   5.115580   2.735866   5.628653
    18  H    3.338762   5.192475   6.252067   3.970761   6.702942
    19  H    2.547748   4.428993   4.687685   3.086946   4.394052
    20  H    2.836359   5.078605   5.203196   3.961664   5.259022
    21  H    2.552203   1.084598   2.176105   2.136068   3.454679
    22  H    3.280186   1.086761   2.148822   2.116523   2.778240
    23  H    2.789366   2.159986   1.086839   2.851221   2.153162
    24  H    3.987911   2.154209   1.085724   3.464675   2.164514
    25  H    2.043876   2.145892   3.451890   1.076017   3.809571
    26  H    4.312520   3.452486   2.171135   3.877848   1.086395
    27  H    4.266956   2.789456   2.155355   3.305073   1.087627
    28  H    3.853500   3.822582   3.448596   3.276892   2.163832
    29  H    2.664734   3.293926   2.797693   2.707994   2.153738
    30  H    4.120729   6.415507   7.031263   5.061388   7.167614
    31  H    4.569469   6.735157   7.125359   5.311129   6.893483
                   11         12         13         14         15
    11  C    0.000000
    12  C    5.100536   0.000000
    13  O    4.665500   2.452693   0.000000
    14  H    4.692892   2.960802   3.273560   0.000000
    15  H    6.308506   2.172319   2.051030   4.252771   0.000000
    16  H    5.111564   2.165288   2.005550   4.513707   1.757636
    17  H    4.872972   3.746906   2.020888   2.661244   3.677427
    18  H    5.731535   2.724270   2.045148   2.245360   2.670065
    19  H    3.008099   2.142929   2.798436   2.998283   3.756975
    20  H    4.139074   2.171449   3.754351   2.339391   4.275500
    21  H    3.838948   6.212805   5.131011   4.009127   7.041277
    22  H    3.279418   6.618463   5.183959   5.081417   7.221283
    23  H    2.796652   6.204966   5.933989   4.375258   7.642894
    24  H    3.445606   7.562181   6.824810   5.748328   8.723325
    25  H    3.264115   4.536818   2.856375   3.431334   4.893245
    26  H    2.136671   7.005068   6.713056   6.106976   8.384701
    27  H    2.140847   7.091647   6.195039   6.234909   8.054993
    28  H    1.081391   5.405053   5.006299   5.516160   6.504400
    29  H    1.084423   4.593084   4.672776   4.180197   6.115912
    30  H    5.928141   1.086167   2.967699   2.806061   2.365009
    31  H    5.481174   1.084754   3.322526   3.889995   2.664220
                   16         17         18         19         20
    16  H    0.000000
    17  H    4.009778   0.000000
    18  H    3.581713   1.740469   0.000000
    19  H    2.793304   3.772265   3.685867   0.000000
    20  H    3.903746   4.282196   3.702513   1.747430   0.000000
    21  H    6.724713   3.743801   5.071972   4.963359   5.324606
    22  H    6.588631   4.206475   5.755431   5.108901   5.978407
    23  H    6.960249   5.212943   6.097240   4.475574   4.638381
    24  H    7.975273   5.939069   7.162615   5.773294   6.233075
    25  H    4.469262   2.017302   3.534527   3.506687   4.470728
    26  H    7.227321   6.581235   7.526174   4.904714   5.610558
    27  H    6.910722   5.970566   7.217425   5.081384   6.143972
    28  H    5.087896   5.551189   6.347402   3.325601   4.661381
    29  H    5.000992   4.937959   5.504434   2.485943   3.292618
    30  H    3.022153   3.872165   2.450454   3.042119   2.519972
    31  H    2.345443   4.799622   3.784858   2.504374   2.495861
                   21         22         23         24         25
    21  H    0.000000
    22  H    1.750564   0.000000
    23  H    2.479291   3.047847   0.000000
    24  H    2.534239   2.445499   1.746069   0.000000
    25  H    2.522908   2.360748   3.856481   4.262505   0.000000
    26  H    4.304046   3.788287   2.459969   2.546839   4.841912
    27  H    3.797928   2.629863   3.047626   2.460434   4.005662
    28  H    4.843882   4.048329   3.805302   4.287579   3.974656
    29  H    4.088065   3.969390   2.660854   3.802645   3.659552
    30  H    6.510441   7.145949   6.648777   8.062317   5.030988
    31  H    7.090280   7.408160   6.800573   8.205657   5.424279
                   26         27         28         29         30
    26  H    0.000000
    27  H    1.752965   0.000000
    28  H    2.519938   2.443602   0.000000
    29  H    2.443518   3.041815   1.753417   0.000000
    30  H    7.740177   7.865848   6.344269   5.365612   0.000000
    31  H    7.342874   7.563344   5.622171   4.901925   1.743190
                   31
    31  H    0.000000
 Stoichiometry    C10H18O3
 Framework group  C1[X(C10H18O3)]
 Deg. of freedom    87
 Full point group                 C1      NOp   1
 Largest Abelian subgroup         C1      NOp   1
 Largest concise Abelian subgroup C1      NOp   1
                         Standard orientation:                         
 ---------------------------------------------------------------------
 Center     Atomic      Atomic             Coordinates (Angstroms)
 Number     Number       Type             X           Y           Z
 ---------------------------------------------------------------------
      1          6           0       -1.107193   -0.631691    0.922190
      2          6           0       -3.242956    0.518590   -0.780411
      3          8           0        1.079648    0.555009   -0.994430
      4          6           0       -1.891737   -1.330984   -0.188521
      5          6           0       -1.603666    0.810323    1.088870
      6          8           0        0.317730   -0.669206    0.823506
      7          6           0        2.373795   -1.310162   -0.166750
      8          6           0        3.297470   -0.347158    0.579643
      9          6           0        0.991181   -0.716234   -0.399872
     10          6           0        3.307393    1.005910   -0.131125
     11          6           0        1.885236    1.508305   -0.315325
     12          6           0       -3.077181    0.900403    0.694796
     13          8           0       -2.266642   -0.426130   -1.202318
     14          1           0       -1.304839   -1.179429    1.834732
     15          1           0       -4.232002    0.111343   -0.967354
     16          1           0       -3.104900    1.383287   -1.415779
     17          1           0       -1.336048   -2.132763   -0.649699
     18          1           0       -2.781378   -1.770974    0.249946
     19          1           0       -1.024458    1.463254    0.446455
     20          1           0       -1.448093    1.139230    2.110502
     21          1           0        2.266573   -2.251162    0.361809
     22          1           0        2.797864   -1.530964   -1.142691
     23          1           0        2.957681   -0.219934    1.604131
     24          1           0        4.299740   -0.761850    0.627421
     25          1           0        0.447522   -1.311631   -1.112437
     26          1           0        3.872345    1.741457    0.434608
     27          1           0        3.782387    0.907364   -1.104574
     28          1           0        1.856180    2.400347   -0.925917
     29          1           0        1.437855    1.742033    0.644464
     30          1           0       -3.669067    0.243756    1.325862
     31          1           0       -3.457302    1.905436    0.843485
 ---------------------------------------------------------------------
 Rotational constants (GHZ):           1.7540315           0.4696973           0.4477569
 Standard basis: 6-311++G(2d,2p) (5D, 7F)
 There are   557 symmetry adapted cartesian basis functions of A   symmetry.
 There are   531 symmetry adapted basis functions of A   symmetry.
   531 basis functions,   762 primitive gaussians,   557 cartesian basis functions
    51 alpha electrons       51 beta electrons
       nuclear repulsion energy       910.2473220427 Hartrees.
 NAtoms=   31 NActive=   31 NUniq=   31 SFac= 1.00D+00 NAtFMM=   60 NAOKFM=F Big=F
 Integral buffers will be    131072 words long.
 Raffenetti 2 integral format.
 Two-electron integral symmetry is turned on.
 ------------------------------------------------------------------------------
 Polarizable Continuum Model (PCM)
 =================================
 Model                : PCM.
 Atomic radii         : UFF (Universal Force Field).
 Polarization charges : Total charges.
 Charge compensation  : None.
 Solution method      : On-the-fly selection.
 Cavity type          : Scaled VdW (van der Waals Surface) (Alpha=1.100).
 Cavity algorithm     : GePol (No added spheres)
                        Default sphere list used, NSphG=   31.
                        Lebedev-Laikov grids with approx.  5.0 points / Ang**2.
                        Smoothing algorithm: York/Karplus (Gamma=1.0000).
                        Polarization charges: spherical gaussians, with
                                              point-specific exponents (IZeta= 3).
                        Self-potential: point-specific (ISelfS= 7).
                        Self-field    : sphere-specific E.n sum rule (ISelfD= 2).
 1st derivatives      : Analytical E(r).r(x)/FMM algorithm (CHGder, D1EAlg=3).
                        Cavity 1st derivative terms included.
 Solvent              : Water, Eps=  78.355300 Eps(inf)=   1.777849
 ------------------------------------------------------------------------------
 One-electron integrals computed using PRISM.
 NBasis=   531 RedAO= T EigKep=  3.40D-06  NBF=   531
 NBsUse=   531 1.00D-06 EigRej= -1.00D+00 NBFU=   531
 ExpMin= 3.60D-02 ExpMax= 8.59D+03 ExpMxC= 1.30D+03 IAcc=3 IRadAn=         5 AccDes= 0.00D+00
 Harris functional with IExCor= 1009 and IRadAn=       5 diagonalized for initial guess.
 HarFok:  IExCor= 1009 AccDes= 0.00D+00 IRadAn=         5 IDoV= 1 UseB2=F ITyADJ=14
 ICtDFT=  3500011 ScaDFX=  1.000000  1.000000  1.000000  1.000000
 FoFCou: FMM=F IPFlag=           0 FMFlag=      100000 FMFlg1=           0
         NFxFlg=           0 DoJE=T BraDBF=F KetDBF=T FulRan=T
         wScrn=  0.000000 ICntrl=       500 IOpCl=  0 I1Cent=   200000004 NGrid=           0
         NMat0=    1 NMatS0=      1 NMatT0=    0 NMatD0=    1 NMtDS0=    0 NMtDT0=    0
 Petite list used in FoFCou.
 Requested convergence on RMS density matrix=1.00D-08 within 128 cycles.
 Requested convergence on MAX density matrix=1.00D-06.
 Requested convergence on             energy=1.00D-06.
 No special actions if energy rises.
 Inv3:  Mode=1 IEnd=    12374883.
 Iteration    1 A*A^-1 deviation from unit magnitude is 7.88D-15 for   2013.
 Iteration    1 A*A^-1 deviation from orthogonality  is 2.14D-15 for   1889   1119.
 Iteration    1 A^-1*A deviation from unit magnitude is 7.88D-15 for   2013.
 Iteration    1 A^-1*A deviation from orthogonality  is 1.58D-15 for   2030    857.
 Error on total polarization charges =  0.01452
 SCF Done:  E(RM062X) =  -617.488118639     A.U. after   12 cycles
            NFock= 12  Conv=0.75D-08     -V/T= 2.0035

 **********************************************************************

            Population analysis using the SCF density.

 **********************************************************************

 Orbital symmetries:
       Occupied  (A) (A) (A) (A) (A) (A) (A) (A) (A) (A) (A) (A)
                 (A) (A) (A) (A) (A) (A) (A) (A) (A) (A) (A) (A)
                 (A) (A) (A) (A) (A) (A) (A) (A) (A) (A) (A) (A)
                 (A) (A) (A) (A) (A) (A) (A) (A) (A) (A) (A) (A)
                 (A) (A) (A)
       Virtual   (A) (A) (A) (A) (A) (A) (A) (A) (A) (A) (A) (A)
                 (A) (A) (A) (A) (A) (A) (A) (A) (A) (A) (A) (A)
                 (A) (A) (A) (A) (A) (A) (A) (A) (A) (A) (A) (A)
                 (A) (A) (A) (A) (A) (A) (A) (A) (A) (A) (A) (A)
                 (A) (A) (A) (A) (A) (A) (A) (A) (A) (A) (A) (A)
                 (A) (A) (A) (A) (A) (A) (A) (A) (A) (A) (A) (A)
                 (A) (A) (A) (A) (A) (A) (A) (A) (A) (A) (A) (A)
                 (A) (A) (A) (A) (A) (A) (A) (A) (A) (A) (A) (A)
                 (A) (A) (A) (A) (A) (A) (A) (A) (A) (A) (A) (A)
                 (A) (A) (A) (A) (A) (A) (A) (A) (A) (A) (A) (A)
                 (A) (A) (A) (A) (A) (A) (A) (A) (A) (A) (A) (A)
                 (A) (A) (A) (A) (A) (A) (A) (A) (A) (A) (A) (A)
                 (A) (A) (A) (A) (A) (A) (A) (A) (A) (A) (A) (A)
                 (A) (A) (A) (A) (A) (A) (A) (A) (A) (A) (A) (A)
                 (A) (A) (A) (A) (A) (A) (A) (A) (A) (A) (A) (A)
                 (A) (A) (A) (A) (A) (A) (A) (A) (A) (A) (A) (A)
                 (A) (A) (A) (A) (A) (A) (A) (A) (A) (A) (A) (A)
                 (A) (A) (A) (A) (A) (A) (A) (A) (A) (A) (A) (A)
                 (A) (A) (A) (A) (A) (A) (A) (A) (A) (A) (A) (A)
                 (A) (A) (A) (A) (A) (A) (A) (A) (A) (A) (A) (A)
                 (A) (A) (A) (A) (A) (A) (A) (A) (A) (A) (A) (A)
                 (A) (A) (A) (A) (A) (A) (A) (A) (A) (A) (A) (A)
                 (A) (A) (A) (A) (A) (A) (A) (A) (A) (A) (A) (A)
                 (A) (A) (A) (A) (A) (A) (A) (A) (A) (A) (A) (A)
                 (A) (A) (A) (A) (A) (A) (A) (A) (A) (A) (A) (A)
                 (A) (A) (A) (A) (A) (A) (A) (A) (A) (A) (A) (A)
                 (A) (A) (A) (A) (A) (A) (A) (A) (A) (A) (A) (A)
                 (A) (A) (A) (A) (A) (A) (A) (A) (A) (A) (A) (A)
                 (A) (A) (A) (A) (A) (A) (A) (A) (A) (A) (A) (A)
                 (A) (A) (A) (A) (A) (A) (A) (A) (A) (A) (A) (A)
                 (A) (A) (A) (A) (A) (A) (A) (A) (A) (A) (A) (A)
                 (A) (A) (A) (A) (A) (A) (A) (A) (A) (A) (A) (A)
                 (A) (A) (A) (A) (A) (A) (A) (A) (A) (A) (A) (A)
                 (A) (A) (A) (A) (A) (A) (A) (A) (A) (A) (A) (A)
                 (A) (A) (A) (A) (A) (A) (A) (A) (A) (A) (A) (A)
                 (A) (A) (A) (A) (A) (A) (A) (A) (A) (A) (A) (A)
                 (A) (A) (A) (A) (A) (A) (A) (A) (A) (A) (A) (A)
                 (A) (A) (A) (A) (A) (A) (A) (A) (A) (A) (A) (A)
                 (A) (A) (A) (A) (A) (A) (A) (A) (A) (A) (A) (A)
                 (A) (A) (A) (A) (A) (A) (A) (A) (A) (A) (A) (A)
 The electronic state is 1-A.
 Alpha  occ. eigenvalues --  -19.62630 -19.62608 -19.62379 -10.63201 -10.58873
 Alpha  occ. eigenvalues --  -10.58141 -10.57844 -10.57450 -10.53194 -10.52886
 Alpha  occ. eigenvalues --  -10.52869 -10.52801 -10.52659  -1.19589  -1.16445
 Alpha  occ. eigenvalues --   -1.13060  -0.90794  -0.89607  -0.87072  -0.84835
 Alpha  occ. eigenvalues --   -0.75623  -0.74477  -0.73273  -0.70898  -0.65257
 Alpha  occ. eigenvalues --   -0.61559  -0.60962  -0.58776  -0.57911  -0.56614
 Alpha  occ. eigenvalues --   -0.53964  -0.53025  -0.52784  -0.50708  -0.49541
 Alpha  occ. eigenvalues --   -0.47388  -0.46364  -0.45649  -0.45543  -0.45094
 Alpha  occ. eigenvalues --   -0.43918  -0.42488  -0.41936  -0.40635  -0.39966
 Alpha  occ. eigenvalues --   -0.38290  -0.36934  -0.36277  -0.33628  -0.33070
 Alpha  occ. eigenvalues --   -0.31759
 Alpha virt. eigenvalues --   -0.00195   0.00764   0.00903   0.01018   0.02267
 Alpha virt. eigenvalues --    0.02499   0.02614   0.03254   0.03471   0.04398
 Alpha virt. eigenvalues --    0.04657   0.04936   0.05574   0.05741   0.07207
 Alpha virt. eigenvalues --    0.07244   0.07886   0.08340   0.08704   0.09507
 Alpha virt. eigenvalues --    0.09765   0.10527   0.10993   0.11462   0.12196
 Alpha virt. eigenvalues --    0.12496   0.12894   0.13077   0.13349   0.13387
 Alpha virt. eigenvalues --    0.13761   0.14081   0.14262   0.14485   0.14869
 Alpha virt. eigenvalues --    0.15054   0.15175   0.15465   0.15845   0.15880
 Alpha virt. eigenvalues --    0.16513   0.16918   0.17568   0.17700   0.17846
 Alpha virt. eigenvalues --    0.17987   0.18184   0.18568   0.19082   0.19294
 Alpha virt. eigenvalues --    0.19910   0.20476   0.20766   0.21424   0.21538
 Alpha virt. eigenvalues --    0.22163   0.22272   0.22724   0.23687   0.24123
 Alpha virt. eigenvalues --    0.24416   0.25221   0.25292   0.26122   0.27733
 Alpha virt. eigenvalues --    0.27832   0.28116   0.28542   0.29067   0.29487
 Alpha virt. eigenvalues --    0.29838   0.30092   0.31775   0.31991   0.32082
 Alpha virt. eigenvalues --    0.32812   0.33328   0.33860   0.34261   0.34715
 Alpha virt. eigenvalues --    0.35009   0.35575   0.35774   0.36102   0.36591
 Alpha virt. eigenvalues --    0.36917   0.37179   0.37743   0.38450   0.38645
 Alpha virt. eigenvalues --    0.39406   0.39894   0.39913   0.40488   0.41211
 Alpha virt. eigenvalues --    0.41647   0.43104   0.43622   0.44102   0.44575
 Alpha virt. eigenvalues --    0.46190   0.47691   0.50043   0.50569   0.50627
 Alpha virt. eigenvalues --    0.52034   0.52759   0.53930   0.55239   0.55487
 Alpha virt. eigenvalues --    0.56832   0.57152   0.57881   0.58666   0.59100
 Alpha virt. eigenvalues --    0.60083   0.60691   0.60915   0.61442   0.61777
 Alpha virt. eigenvalues --    0.61958   0.62193   0.62961   0.64091   0.64496
 Alpha virt. eigenvalues --    0.64628   0.64887   0.65748   0.66751   0.67274
 Alpha virt. eigenvalues --    0.67871   0.68550   0.69285   0.69506   0.70666
 Alpha virt. eigenvalues --    0.71312   0.72181   0.72531   0.72768   0.73458
 Alpha virt. eigenvalues --    0.73511   0.74407   0.74906   0.75423   0.75841
 Alpha virt. eigenvalues --    0.76137   0.76417   0.77590   0.78397   0.79824
 Alpha virt. eigenvalues --    0.80186   0.80568   0.82745   0.84412   0.85722
 Alpha virt. eigenvalues --    0.86816   0.87268   0.87842   0.88934   0.89677
 Alpha virt. eigenvalues --    0.91244   0.92275   0.93096   0.94674   0.94977
 Alpha virt. eigenvalues --    0.97928   0.98571   1.00543   1.01776   1.02599
 Alpha virt. eigenvalues --    1.03776   1.04321   1.04560   1.05400   1.07450
 Alpha virt. eigenvalues --    1.08804   1.09365   1.10840   1.11333   1.13063
 Alpha virt. eigenvalues --    1.13637   1.14850   1.15152   1.15907   1.17092
 Alpha virt. eigenvalues --    1.17244   1.17561   1.19223   1.20063   1.20576
 Alpha virt. eigenvalues --    1.21932   1.23225   1.23577   1.24200   1.24429
 Alpha virt. eigenvalues --    1.26004   1.26405   1.26545   1.27166   1.28368
 Alpha virt. eigenvalues --    1.28597   1.29211   1.30258   1.31185   1.32215
 Alpha virt. eigenvalues --    1.32965   1.33379   1.33650   1.34271   1.35497
 Alpha virt. eigenvalues --    1.35968   1.36715   1.37160   1.37384   1.38565
 Alpha virt. eigenvalues --    1.40187   1.40745   1.41335   1.41995   1.42478
 Alpha virt. eigenvalues --    1.43391   1.43502   1.44203   1.45335   1.46122
 Alpha virt. eigenvalues --    1.46495   1.46891   1.47750   1.48339   1.48500
 Alpha virt. eigenvalues --    1.49560   1.50148   1.50636   1.51646   1.52004
 Alpha virt. eigenvalues --    1.52818   1.53793   1.54574   1.55652   1.55942
 Alpha virt. eigenvalues --    1.56447   1.57514   1.58275   1.58451   1.59416
 Alpha virt. eigenvalues --    1.59791   1.60253   1.60882   1.61327   1.62395
 Alpha virt. eigenvalues --    1.62977   1.63559   1.64488   1.66179   1.66333
 Alpha virt. eigenvalues --    1.67524   1.69410   1.70306   1.71307   1.71561
 Alpha virt. eigenvalues --    1.72833   1.74270   1.75524   1.76822   1.77818
 Alpha virt. eigenvalues --    1.78544   1.79519   1.82587   1.83032   1.83731
 Alpha virt. eigenvalues --    1.84734   1.86179   1.88005   1.94823   1.98398
 Alpha virt. eigenvalues --    2.02131   2.07128   2.10699   2.13756   2.19189
 Alpha virt. eigenvalues --    2.23734   2.27428   2.30591   2.34540   2.39674
 Alpha virt. eigenvalues --    2.42729   2.44900   2.44933   2.46909   2.54721
 Alpha virt. eigenvalues --    2.60081   2.76662   2.77840   2.80725   2.82711
 Alpha virt. eigenvalues --    2.84338   2.89503   2.91319   2.92797   2.93545
 Alpha virt. eigenvalues --    2.95443   2.97203   2.98643   3.02607   3.03975
 Alpha virt. eigenvalues --    3.04637   3.07508   3.10162   3.11029   3.11592
 Alpha virt. eigenvalues --    3.13087   3.15476   3.17047   3.19138   3.20630
 Alpha virt. eigenvalues --    3.23879   3.27070   3.30941   3.31950   3.33902
 Alpha virt. eigenvalues --    3.35167   3.36471   3.37192   3.38746   3.40450
 Alpha virt. eigenvalues --    3.41543   3.42263   3.44380   3.45353   3.45485
 Alpha virt. eigenvalues --    3.48001   3.50081   3.50257   3.50562   3.51814
 Alpha virt. eigenvalues --    3.52665   3.53022   3.53566   3.55530   3.56180
 Alpha virt. eigenvalues --    3.57181   3.57684   3.58226   3.58852   3.59714
 Alpha virt. eigenvalues --    3.60352   3.61342   3.61783   3.63491   3.65183
 Alpha virt. eigenvalues --    3.65513   3.67363   3.68188   3.68561   3.69149
 Alpha virt. eigenvalues --    3.71067   3.71341   3.71686   3.73883   3.74130
 Alpha virt. eigenvalues --    3.75005   3.75738   3.76839   3.77342   3.78416
 Alpha virt. eigenvalues --    3.80114   3.81348   3.82933   3.84127   3.86665
 Alpha virt. eigenvalues --    3.87663   3.88289   3.89166   3.91435   3.92239
 Alpha virt. eigenvalues --    3.92679   3.93686   3.95385   3.97081   3.98918
 Alpha virt. eigenvalues --    3.99523   4.01083   4.01677   4.02986   4.04722
 Alpha virt. eigenvalues --    4.05738   4.06005   4.06679   4.07257   4.07945
 Alpha virt. eigenvalues --    4.08468   4.09731   4.10121   4.10832   4.11844
 Alpha virt. eigenvalues --    4.12740   4.12988   4.14484   4.16076   4.16857
 Alpha virt. eigenvalues --    4.17609   4.17887   4.18916   4.19375   4.21249
 Alpha virt. eigenvalues --    4.22910   4.24198   4.25929   4.26833   4.28079
 Alpha virt. eigenvalues --    4.28398   4.29062   4.31517   4.31740   4.32246
 Alpha virt. eigenvalues --    4.33643   4.34169   4.34931   4.36972   4.38185
 Alpha virt. eigenvalues --    4.40855   4.42952   4.45824   4.46701   4.47202
 Alpha virt. eigenvalues --    4.58237   4.60331   4.72916   4.75690   4.82462
 Alpha virt. eigenvalues --    4.85894   4.92882   4.95336   5.01575   5.01831
 Alpha virt. eigenvalues --    5.05392   5.07067   5.07886   5.12004   5.12583
 Alpha virt. eigenvalues --    5.14144   5.14801   5.16433   5.33954   5.40752
 Alpha virt. eigenvalues --    5.42537   5.58382   5.62591   5.66255   5.85780
 Alpha virt. eigenvalues --    5.88108   6.02469   7.00374   7.05510   7.08011
 Alpha virt. eigenvalues --    7.09151   7.10169   7.12445   7.17082   7.20070
 Alpha virt. eigenvalues --    7.28350   7.36054   7.41492   7.45910   7.53260
 Alpha virt. eigenvalues --    7.54292   7.64374  23.96884  23.98507  24.05063
 Alpha virt. eigenvalues --   24.07196  24.10957  24.11297  24.12378  24.15897
 Alpha virt. eigenvalues --   24.18563  24.20265  50.16598  50.19080  50.26665
          Condensed to atoms (all electrons):
               1          2          3          4          5          6
     1  C    9.579701   0.026500   0.106989  -2.015234  -1.852194  -0.214459
     2  C    0.026500   5.436680  -0.002522  -0.130528   0.007325  -0.001211
     3  O    0.106989  -0.002522   8.203156  -0.041668  -0.058961  -0.054793
     4  C   -2.015234  -0.130528  -0.041668   7.050141   0.953010   0.137175
     5  C   -1.852194   0.007325  -0.058961   0.953010   6.614235   0.009638
     6  O   -0.214459  -0.001211  -0.054793   0.137175   0.009638   8.322513
     7  C    0.498131  -0.019188  -0.023783  -0.233330  -0.156283  -0.140128
     8  C    0.046973  -0.006743  -0.006592   0.008556   0.003755  -0.007868
     9  C   -1.025107   0.042699   0.239193   0.124518   0.238313   0.356182
    10  C   -0.066661   0.008119  -0.089279  -0.003894   0.003532  -0.002602
    11  C    0.138195  -0.008833   0.125009   0.001998  -0.015606  -0.017052
    12  C    0.093740  -0.044907   0.005755  -0.222621  -0.119686   0.019722
    13  O    0.169107   0.082590   0.008244   0.058463  -0.097257  -0.021507
    14  H    0.581564  -0.002478   0.001048  -0.067136  -0.097388  -0.065164
    15  H    0.100296   0.511414   0.000510  -0.094410  -0.025288  -0.001953
    16  H   -0.054146   0.442024  -0.000861   0.052589  -0.007247   0.002350
    17  H   -0.078969   0.002010   0.000089   0.433359   0.015778  -0.004362
    18  H    0.104799   0.011932  -0.000217   0.385082  -0.047806  -0.008892
    19  H   -0.121606  -0.038113   0.006470   0.031895   0.535135  -0.008700
    20  H    0.010952  -0.001266   0.002848  -0.016497   0.395227  -0.002662
    21  H    0.003610  -0.000023   0.010544   0.000191  -0.000191  -0.004688
    22  H   -0.007594   0.000072  -0.004377   0.008223   0.003871   0.011152
    23  H   -0.015800   0.000294   0.002295   0.004758   0.004592  -0.000592
    24  H    0.011418  -0.000162  -0.005150  -0.004118  -0.003129  -0.000360
    25  H   -0.034025   0.009516  -0.084525  -0.041553   0.017472  -0.019110
    26  H    0.000293   0.000095   0.010459   0.001050   0.001219  -0.000038
    27  H   -0.004339  -0.000019   0.001431  -0.000223   0.000615  -0.000083
    28  H   -0.005119   0.000608  -0.069182   0.004434   0.005768   0.001036
    29  H    0.002046  -0.000115  -0.026177  -0.008618   0.014623   0.004331
    30  H   -0.058479  -0.072799  -0.000692   0.026258  -0.022407   0.004138
    31  H    0.026569  -0.024829   0.000905  -0.022740  -0.032116  -0.003499
               7          8          9         10         11         12
     1  C    0.498131   0.046973  -1.025107  -0.066661   0.138195   0.093740
     2  C   -0.019188  -0.006743   0.042699   0.008119  -0.008833  -0.044907
     3  O   -0.023783  -0.006592   0.239193  -0.089279   0.125009   0.005755
     4  C   -0.233330   0.008556   0.124518  -0.003894   0.001998  -0.222621
     5  C   -0.156283   0.003755   0.238313   0.003532  -0.015606  -0.119686
     6  O   -0.140128  -0.007868   0.356182  -0.002602  -0.017052   0.019722
     7  C    7.014695  -0.032637  -1.276036  -0.247435   0.255913   0.010920
     8  C   -0.032637   5.750133  -0.228289  -0.006744  -0.034021   0.009060
     9  C   -1.276036  -0.228289   7.454321   0.394829  -0.492375   0.040415
    10  C   -0.247435  -0.006744   0.394829   5.846715  -0.187630   0.012044
    11  C    0.255913  -0.034021  -0.492375  -0.187630   5.589851  -0.021201
    12  C    0.010920   0.009060   0.040415   0.012044  -0.021201   5.768129
    13  O    0.020550  -0.001350  -0.003585   0.002957  -0.000340   0.042063
    14  H    0.015966   0.006374  -0.057101  -0.008009   0.010292  -0.013298
    15  H    0.001017  -0.000418   0.000343   0.000465   0.000362  -0.088087
    16  H   -0.002715   0.000851  -0.000430  -0.001460  -0.000328  -0.007938
    17  H    0.002918   0.002817   0.037408  -0.005948   0.007483   0.004103
    18  H   -0.002159  -0.000344  -0.012315   0.001231  -0.000846  -0.023862
    19  H    0.003527   0.001120  -0.027711  -0.027358   0.024569  -0.010380
    20  H    0.004096  -0.001282   0.001978   0.004405  -0.005644  -0.004307
    21  H    0.413005  -0.042495  -0.014835  -0.001409   0.004613  -0.000173
    22  H    0.534447   0.002205  -0.155550  -0.018457   0.013083  -0.000282
    23  H   -0.049125   0.521663  -0.023724  -0.066316   0.001676  -0.000287
    24  H   -0.046525   0.427246   0.012469  -0.029675   0.011127   0.000570
    25  H   -0.140431  -0.034297   0.559238   0.044586  -0.046503   0.000548
    26  H   -0.007296  -0.055214   0.010491   0.442570  -0.031241   0.000053
    27  H   -0.012413  -0.014213  -0.001503   0.484719  -0.088598   0.000005
    28  H   -0.008186   0.008100   0.003469  -0.015667   0.425360  -0.000275
    29  H    0.029636  -0.001182  -0.031928  -0.065277   0.464344  -0.008401
    30  H   -0.001643   0.000905  -0.004651  -0.000993   0.001263   0.500639
    31  H    0.001436  -0.000182   0.003109   0.001826  -0.001410   0.413926
              13         14         15         16         17         18
     1  C    0.169107   0.581564   0.100296  -0.054146  -0.078969   0.104799
     2  C    0.082590  -0.002478   0.511414   0.442024   0.002010   0.011932
     3  O    0.008244   0.001048   0.000510  -0.000861   0.000089  -0.000217
     4  C    0.058463  -0.067136  -0.094410   0.052589   0.433359   0.385082
     5  C   -0.097257  -0.097388  -0.025288  -0.007247   0.015778  -0.047806
     6  O   -0.021507  -0.065164  -0.001953   0.002350  -0.004362  -0.008892
     7  C    0.020550   0.015966   0.001017  -0.002715   0.002918  -0.002159
     8  C   -0.001350   0.006374  -0.000418   0.000851   0.002817  -0.000344
     9  C   -0.003585  -0.057101   0.000343  -0.000430   0.037408  -0.012315
    10  C    0.002957  -0.008009   0.000465  -0.001460  -0.005948   0.001231
    11  C   -0.000340   0.010292   0.000362  -0.000328   0.007483  -0.000846
    12  C    0.042063  -0.013298  -0.088087  -0.007938   0.004103  -0.023862
    13  O    8.279323   0.003828  -0.072044  -0.075457  -0.053227  -0.049029
    14  H    0.003828   0.455769   0.000855   0.000405  -0.005162  -0.000939
    15  H   -0.072044   0.000855   0.522647  -0.026659  -0.005670   0.010971
    16  H   -0.075457   0.000405  -0.026659   0.504923   0.003206  -0.005326
    17  H   -0.053227  -0.005162  -0.005670   0.003206   0.483338  -0.006352
    18  H   -0.049029  -0.000939   0.010971  -0.005326  -0.006352   0.465622
    19  H   -0.012566   0.003362  -0.008718   0.009127   0.001429  -0.006089
    20  H    0.001978  -0.007699   0.002805  -0.003708  -0.000370   0.002055
    21  H   -0.000042   0.000570  -0.000000   0.000091  -0.001391   0.000503
    22  H   -0.000340  -0.000553  -0.000012  -0.000092   0.001658   0.000045
    23  H   -0.000259   0.000253  -0.000014   0.000016   0.000058  -0.000207
    24  H    0.000086   0.000326   0.000006   0.000002  -0.000267   0.000005
    25  H   -0.009628  -0.009705   0.001054  -0.001041  -0.019117   0.004540
    26  H   -0.000096  -0.000108   0.000005   0.000034   0.000033   0.000060
    27  H    0.000088   0.000000  -0.000013  -0.000022  -0.000343  -0.000059
    28  H    0.000001   0.000083   0.000053  -0.000310  -0.000166   0.000133
    29  H    0.001270   0.001285   0.000004  -0.000043   0.000544   0.000008
    30  H    0.001231   0.001268  -0.016008   0.008093   0.001664  -0.012897
    31  H    0.011037  -0.002333   0.005086  -0.013765   0.000581   0.000559
              19         20         21         22         23         24
     1  C   -0.121606   0.010952   0.003610  -0.007594  -0.015800   0.011418
     2  C   -0.038113  -0.001266  -0.000023   0.000072   0.000294  -0.000162
     3  O    0.006470   0.002848   0.010544  -0.004377   0.002295  -0.005150
     4  C    0.031895  -0.016497   0.000191   0.008223   0.004758  -0.004118
     5  C    0.535135   0.395227  -0.000191   0.003871   0.004592  -0.003129
     6  O   -0.008700  -0.002662  -0.004688   0.011152  -0.000592  -0.000360
     7  C    0.003527   0.004096   0.413005   0.534447  -0.049125  -0.046525
     8  C    0.001120  -0.001282  -0.042495   0.002205   0.521663   0.427246
     9  C   -0.027711   0.001978  -0.014835  -0.155550  -0.023724   0.012469
    10  C   -0.027358   0.004405  -0.001409  -0.018457  -0.066316  -0.029675
    11  C    0.024569  -0.005644   0.004613   0.013083   0.001676   0.011127
    12  C   -0.010380  -0.004307  -0.000173  -0.000282  -0.000287   0.000570
    13  O   -0.012566   0.001978  -0.000042  -0.000340  -0.000259   0.000086
    14  H    0.003362  -0.007699   0.000570  -0.000553   0.000253   0.000326
    15  H   -0.008718   0.002805  -0.000000  -0.000012  -0.000014   0.000006
    16  H    0.009127  -0.003708   0.000091  -0.000092   0.000016   0.000002
    17  H    0.001429  -0.000370  -0.001391   0.001658   0.000058  -0.000267
    18  H   -0.006089   0.002055   0.000503   0.000045  -0.000207   0.000005
    19  H    0.508155  -0.025373  -0.000303   0.000226   0.001161  -0.000144
    20  H   -0.025373   0.467125  -0.000213  -0.000056  -0.000858   0.000181
    21  H   -0.000303  -0.000213   0.473063  -0.003337  -0.001328  -0.008232
    22  H    0.000226  -0.000056  -0.003337   0.454067   0.002741  -0.003849
    23  H    0.001161  -0.000858  -0.001328   0.002741   0.457519  -0.005982
    24  H   -0.000144   0.000181  -0.008232  -0.003849  -0.005982   0.461204
    25  H   -0.005813   0.002451  -0.008872  -0.018142  -0.004368   0.002839
    26  H   -0.000265  -0.000183   0.001468  -0.002656  -0.004048  -0.007643
    27  H    0.000505   0.000017  -0.001238  -0.002267   0.001913  -0.001132
    28  H   -0.002313  -0.000132   0.000979   0.000392  -0.001950   0.001286
    29  H   -0.002579  -0.002021  -0.001038  -0.000403  -0.001838  -0.001151
    30  H    0.003854  -0.006843  -0.000017  -0.000007   0.000059  -0.000015
    31  H   -0.006880  -0.007917  -0.000045   0.000046  -0.000104   0.000031
              25         26         27         28         29         30
     1  C   -0.034025   0.000293  -0.004339  -0.005119   0.002046  -0.058479
     2  C    0.009516   0.000095  -0.000019   0.000608  -0.000115  -0.072799
     3  O   -0.084525   0.010459   0.001431  -0.069182  -0.026177  -0.000692
     4  C   -0.041553   0.001050  -0.000223   0.004434  -0.008618   0.026258
     5  C    0.017472   0.001219   0.000615   0.005768   0.014623  -0.022407
     6  O   -0.019110  -0.000038  -0.000083   0.001036   0.004331   0.004138
     7  C   -0.140431  -0.007296  -0.012413  -0.008186   0.029636  -0.001643
     8  C   -0.034297  -0.055214  -0.014213   0.008100  -0.001182   0.000905
     9  C    0.559238   0.010491  -0.001503   0.003469  -0.031928  -0.004651
    10  C    0.044586   0.442570   0.484719  -0.015667  -0.065277  -0.000993
    11  C   -0.046503  -0.031241  -0.088598   0.425360   0.464344   0.001263
    12  C    0.000548   0.000053   0.000005  -0.000275  -0.008401   0.500639
    13  O   -0.009628  -0.000096   0.000088   0.000001   0.001270   0.001231
    14  H   -0.009705  -0.000108   0.000000   0.000083   0.001285   0.001268
    15  H    0.001054   0.000005  -0.000013   0.000053   0.000004  -0.016008
    16  H   -0.001041   0.000034  -0.000022  -0.000310  -0.000043   0.008093
    17  H   -0.019117   0.000033  -0.000343  -0.000166   0.000544   0.001664
    18  H    0.004540   0.000060  -0.000059   0.000133   0.000008  -0.012897
    19  H   -0.005813  -0.000265   0.000505  -0.002313  -0.002579   0.003854
    20  H    0.002451  -0.000183   0.000017  -0.000132  -0.002021  -0.006843
    21  H   -0.008872   0.001468  -0.001238   0.000979  -0.001038  -0.000017
    22  H   -0.018142  -0.002656  -0.002267   0.000392  -0.000403  -0.000007
    23  H   -0.004368  -0.004048   0.001913  -0.001950  -0.001838   0.000059
    24  H    0.002839  -0.007643  -0.001132   0.001286  -0.001151  -0.000015
    25  H    0.507298   0.001501   0.000472   0.000289  -0.002790  -0.001943
    26  H    0.001501   0.491045  -0.013046  -0.010096  -0.000315   0.000020
    27  H    0.000472  -0.013046   0.486043  -0.005698   0.004111  -0.000009
    28  H    0.000289  -0.010096  -0.005698   0.474020  -0.016845  -0.000031
    29  H   -0.002790  -0.000315   0.004111  -0.016845   0.515761  -0.000162
    30  H   -0.001943   0.000020  -0.000009  -0.000031  -0.000162   0.472887
    31  H    0.000311  -0.000042  -0.000005   0.000118   0.000817  -0.011688
              31
     1  C    0.026569
     2  C   -0.024829
     3  O    0.000905
     4  C   -0.022740
     5  C   -0.032116
     6  O   -0.003499
     7  C    0.001436
     8  C   -0.000182
     9  C    0.003109
    10  C    0.001826
    11  C   -0.001410
    12  C    0.413926
    13  O    0.011037
    14  H   -0.002333
    15  H    0.005086
    16  H   -0.013765
    17  H    0.000581
    18  H    0.000559
    19  H   -0.006880
    20  H   -0.007917
    21  H   -0.000045
    22  H    0.000046
    23  H   -0.000104
    24  H    0.000031
    25  H    0.000311
    26  H   -0.000042
    27  H   -0.000005
    28  H    0.000118
    29  H    0.000817
    30  H   -0.011688
    31  H    0.500528
 Mulliken charges:
               1
     1  C    0.052849
     2  C   -0.228140
     3  O   -0.256165
     4  C   -0.379128
     5  C   -0.288549
     6  O   -0.288515
     7  C   -0.406945
     8  C   -0.315887
     9  C   -0.163835
    10  C   -0.403186
    11  C   -0.123513
    12  C   -0.355988
    13  O   -0.286089
    14  H    0.253823
    15  H    0.181401
    16  H    0.177837
    17  H    0.182867
    18  H    0.189792
    19  H    0.174376
    20  H    0.190912
    21  H    0.181235
    22  H    0.185745
    23  H    0.177802
    24  H    0.188740
    25  H    0.329748
    26  H    0.171889
    27  H    0.165302
    28  H    0.209840
    29  H    0.132102
    30  H    0.189008
    31  H    0.160670
 Sum of Mulliken charges =  -0.00000
 Mulliken charges with hydrogens summed into heavy atoms:
               1
     1  C    0.306672
     2  C    0.131099
     3  O   -0.256165
     4  C   -0.006468
     5  C    0.076740
     6  O   -0.288515
     7  C   -0.039965
     8  C    0.050655
     9  C    0.165913
    10  C   -0.065995
    11  C    0.218430
    12  C   -0.006310
    13  O   -0.286089
 Electronic spatial extent (au):  <R**2>=           2759.6671
 Charge=              0.0000 electrons
 Dipole moment (field-independent basis, Debye):
    X=             -0.6159    Y=             -0.0832    Z=              2.1909  Tot=              2.2773
 Quadrupole moment (field-independent basis, Debye-Ang):
   XX=            -68.9632   YY=            -74.4232   ZZ=            -85.5354
   XY=             -0.1982   XZ=             -4.5108   YZ=              0.8980
 Traceless Quadrupole moment (field-independent basis, Debye-Ang):
   XX=              7.3441   YY=              1.8841   ZZ=             -9.2282
   XY=             -0.1982   XZ=             -4.5108   YZ=              0.8980
 Octapole moment (field-independent basis, Debye-Ang**2):
  XXX=            -11.5399  YYY=             -0.8012  ZZZ=              5.6346  XYY=             -2.5809
  XXY=              5.6418  XXZ=              5.5086  XZZ=              0.1639  YZZ=              0.7167
  YYZ=             -4.1206  XYZ=              5.9601
 Hexadecapole moment (field-independent basis, Debye-Ang**3):
 XXXX=          -2603.6035 YYYY=           -561.7301 ZZZZ=           -413.0477 XXXY=             -6.3022
 XXXZ=             -3.7173 YYYX=             11.2721 YYYZ=             -4.3998 ZZZX=            -10.2786
 ZZZY=             -2.9226 XXYY=           -525.1750 XXZZ=           -533.2023 YYZZ=           -159.7197
 XXYZ=            -10.6177 YYXZ=             -0.8459 ZZXY=             -3.6010
 N-N= 9.102473220427D+02 E-N=-3.262754783734D+03  KE= 6.153204256740D+02
 D1PCM: PCM CHGder 1st derivatives, ID1Alg=3 FixD1E=F DoIter=F DoCFld=F I1PDM=0.
 Calling FoFJK, ICntrl=      2127 FMM=F ISym2X=0 I1Cent= 0 IOpClX= 0 NMat=1 NMatS=1 NMatT=0.
 ***** Axes restored to original set *****
 -------------------------------------------------------------------
 Center     Atomic                   Forces (Hartrees/Bohr)
 Number     Number              X              Y              Z
 -------------------------------------------------------------------
      1        6          -0.001697524   -0.003569031   -0.002818557
      2        6          -0.002654725    0.002186262    0.005783031
      3        8           0.004623738   -0.003021443   -0.009868198
      4        6           0.001349570   -0.007811382    0.002370040
      5        6           0.003900487    0.002272205   -0.003216968
      6        8          -0.005497561    0.006377674    0.007858391
      7        6           0.000046370   -0.001599940    0.002245126
      8        6           0.002388940   -0.000961389   -0.002956368
      9        6          -0.002434085   -0.007577363    0.005572244
     10        6           0.001748649    0.000659413    0.002151386
     11        6          -0.003327598    0.006143695    0.000223860
     12        6          -0.001780552   -0.000265763   -0.001576091
     13        8          -0.005510994    0.000391820   -0.008302557
     14        1           0.001646399    0.002541745    0.005159858
     15        1           0.005260943    0.001555980   -0.000099145
     16        1          -0.000990289   -0.004054367   -0.002475502
     17        1          -0.003650394    0.003690408   -0.001976324
     18        1           0.004619572    0.003222656    0.003281216
     19        1          -0.003692466   -0.001204502   -0.004054743
     20        1          -0.000547975   -0.000648843    0.002663602
     21        1           0.000483188    0.002505898    0.001817534
     22        1          -0.001220462    0.000080487   -0.003240259
     23        1           0.002194885   -0.000493429    0.002831873
     24        1          -0.002414327    0.000987052   -0.000005884
     25        1           0.004710189    0.004006068   -0.006424159
     26        1          -0.001742410   -0.001679775    0.001520541
     27        1          -0.000820435    0.000618738   -0.003155199
     28        1           0.000034484   -0.003634989   -0.002572200
     29        1           0.002325333   -0.000665308    0.006435866
     30        1           0.001561601    0.002417242    0.002053404
     31        1           0.001087451   -0.002469823    0.000774182
 -------------------------------------------------------------------
 Cartesian Forces:  Max     0.009868198 RMS     0.003498219

 GradGradGradGradGradGradGradGradGradGradGradGradGradGradGradGradGradGrad
 Berny optimization.
 FormGI is forming the generalized inverse of G from B-inverse, IUseBI=4.
 Internal  Forces:  Max     0.015663909 RMS     0.002250325
 Search for a local minimum.
 Step number   1 out of a maximum of  186
 All quantities printed in internal units (Hartrees-Bohrs-Radians)
 Mixed Optimization -- RFO/linear search
 Second derivative matrix not updated -- first step.
 ITU=  0
     Eigenvalues ---    0.00417   0.00607   0.00627   0.00721   0.01403
     Eigenvalues ---    0.01412   0.01728   0.02698   0.02721   0.03076
     Eigenvalues ---    0.03266   0.03854   0.04086   0.04485   0.04750
     Eigenvalues ---    0.04768   0.04893   0.04909   0.05061   0.05142
     Eigenvalues ---    0.05298   0.05605   0.05697   0.06000   0.06186
     Eigenvalues ---    0.06228   0.06447   0.06998   0.07595   0.07838
     Eigenvalues ---    0.07842   0.07863   0.07942   0.08135   0.08270
     Eigenvalues ---    0.08843   0.09179   0.10347   0.11305   0.11608
     Eigenvalues ---    0.11692   0.11764   0.11799   0.12402   0.12768
     Eigenvalues ---    0.14702   0.15274   0.16502   0.18486   0.19111
     Eigenvalues ---    0.19968   0.21968   0.22426   0.25000   0.27202
     Eigenvalues ---    0.27551   0.28562   0.28631   0.28867   0.28956
     Eigenvalues ---    0.29451   0.30269   0.35088   0.35181   0.35190
     Eigenvalues ---    0.35233   0.35259   0.35300   0.35311   0.35393
     Eigenvalues ---    0.35426   0.35444   0.35457   0.35465   0.35546
     Eigenvalues ---    0.35694   0.35769   0.35827   0.36111   0.36480
     Eigenvalues ---    0.39963   0.40945   0.41158   0.41689   0.43119
     Eigenvalues ---    0.460741000.000001000.000001000.000001000.00000
     Eigenvalues --- 1000.000001000.000001000.000001000.000001000.00000
     Eigenvalues --- 1000.000001000.000001000.000001000.000001000.00000
     Eigenvalues --- 1000.000001000.000001000.000001000.000001000.00000
     Eigenvalues --- 1000.000001000.000001000.000001000.000001000.00000
     Eigenvalues --- 1000.000001000.000001000.000001000.000001000.00000
     Eigenvalues --- 1000.000001000.000001000.000001000.000001000.00000
     Eigenvalues --- 1000.000001000.000001000.000001000.000001000.00000
     Eigenvalues --- 1000.000001000.000001000.000001000.000001000.00000
     Eigenvalues --- 1000.000001000.000001000.000001000.000001000.00000
     Eigenvalues --- 1000.000001000.000001000.000001000.000001000.00000
     Eigenvalues --- 1000.000001000.000001000.000001000.000001000.00000
     Eigenvalues --- 1000.000001000.000001000.000001000.000001000.00000
     Eigenvalues --- 1000.000001000.000001000.000001000.000001000.00000
     Eigenvalues --- 1000.000001000.000001000.000001000.000001000.00000
     Eigenvalues --- 1000.000001000.000001000.000001000.000001000.00000
     Eigenvalues --- 1000.000001000.000001000.000001000.000001000.00000
     Eigenvalues --- 1000.000001000.000001000.000001000.000001000.00000
     Eigenvalues --- 1000.000001000.000001000.000001000.000001000.00000
     Eigenvalues --- 1000.000001000.000001000.000001000.000001000.00000
 RFO step:  Lambda=-3.96522212D-03 EMin= 4.17407514D-03
 Linear search not attempted -- first point.
 Iteration  1 RMS(Cart)=  0.07799107 RMS(Int)=  0.00092074
 Iteration  2 RMS(Cart)=  0.00262326 RMS(Int)=  0.00006126
 Iteration  3 RMS(Cart)=  0.00000247 RMS(Int)=  0.00006125
 Iteration  4 RMS(Cart)=  0.00000000 RMS(Int)=  0.00006125
 Iteration  1 RMS(Cart)=  0.00002727 RMS(Int)=  0.00000626
 Iteration  2 RMS(Cart)=  0.00001527 RMS(Int)=  0.00000698
 Iteration  3 RMS(Cart)=  0.00000856 RMS(Int)=  0.00000791
 Iteration  4 RMS(Cart)=  0.00000479 RMS(Int)=  0.00000854
 Iteration  5 RMS(Cart)=  0.00000268 RMS(Int)=  0.00000892
 Iteration  6 RMS(Cart)=  0.00000150 RMS(Int)=  0.00000915
 Iteration  7 RMS(Cart)=  0.00000084 RMS(Int)=  0.00000927
 Variable       Old X    -DE/DX   Delta X   Delta X   Delta X     New X
                                 (Linear)    (Quad)   (Total)
    R1        2.88961  -0.00004   0.00000  -0.00114  -0.00110   2.88852
    R2        2.89916  -0.00088   0.00000  -0.00551  -0.00547   2.89369
    R3        2.70009  -0.00122   0.00000  -0.00293  -0.00293   2.69716
    R4        2.04564   0.00594   0.00000   0.01645   0.01645   2.06208
    R5        2.89659   0.00033   0.00000   0.00267   0.00263   2.89921
    R6        2.68826   0.00323   0.00000   0.00954   0.00951   2.69777
    R7        2.05191   0.00539   0.00000   0.01511   0.01511   2.06701
    R8        2.04445   0.00482   0.00000   0.01333   0.01333   2.05778
    R9        2.65732   0.00427   0.00000   0.00899   0.00899   2.66632
   R10        2.68509   0.00260   0.00000   0.00585   0.00585   2.69094
   R11        2.66384   0.00272   0.00000   0.00662   0.00662   2.67046
   R12        2.03909   0.00547   0.00000   0.01497   0.01497   2.05406
   R13        2.05042   0.00642   0.00000   0.01794   0.01794   2.06836
   R14        2.88742  -0.00034   0.00000  -0.00243  -0.00245   2.88497
   R15        2.04798   0.00510   0.00000   0.01420   0.01420   2.06217
   R16        2.04939   0.00279   0.00000   0.00777   0.00777   2.05715
   R17        2.64048   0.00142   0.00000   0.00306   0.00306   2.64354
   R18        2.88928  -0.00140   0.00000  -0.00436  -0.00436   2.88491
   R19        2.87755  -0.00045   0.00000  -0.00193  -0.00196   2.87559
   R20        2.04959   0.00311   0.00000   0.00867   0.00867   2.05826
   R21        2.05368   0.00340   0.00000   0.00956   0.00956   2.06324
   R22        2.88830  -0.00080   0.00000  -0.00193  -0.00193   2.88638
   R23        2.05383   0.00341   0.00000   0.00959   0.00959   2.06342
   R24        2.05172   0.00261   0.00000   0.00730   0.00730   2.05902
   R25        2.03338   0.00885   0.00000   0.02400   0.02400   2.05738
   R26        2.87143   0.00016   0.00000   0.00091   0.00094   2.87237
   R27        2.05299   0.00283   0.00000   0.00796   0.00796   2.06095
   R28        2.05532   0.00324   0.00000   0.00913   0.00913   2.06444
   R29        2.04353   0.00445   0.00000   0.01229   0.01229   2.05582
   R30        2.04926   0.00680   0.00000   0.01896   0.01896   2.06822
   R31        2.05256   0.00351   0.00000   0.00983   0.00983   2.06239
   R32        2.04989   0.00278   0.00000   0.00775   0.00775   2.05764
    A1        1.92062  -0.00013   0.00000  -0.00503  -0.00524   1.91537
    A2        2.03699  -0.00143   0.00000  -0.01025  -0.01049   2.02650
    A3        1.86215   0.00016   0.00000   0.01213   0.01217   1.87433
    A4        1.93361  -0.00037   0.00000  -0.01368  -0.01386   1.91976
    A5        1.90173   0.00065   0.00000   0.00332   0.00340   1.90513
    A6        1.79981   0.00138   0.00000   0.01720   0.01728   1.81710
    A7        1.95696   0.00179   0.00000   0.00652   0.00643   1.96339
    A8        1.93653  -0.00108   0.00000  -0.00625  -0.00628   1.93025
    A9        1.93085  -0.00092   0.00000  -0.00634  -0.00631   1.92454
   A10        1.90181   0.00058   0.00000   0.00666   0.00672   1.90853
   A11        1.84318  -0.00097   0.00000  -0.00219  -0.00218   1.84100
   A12        1.89114   0.00061   0.00000   0.00190   0.00185   1.89299
   A13        2.02652  -0.00570   0.00000  -0.03717  -0.03711   1.98942
   A14        1.94475   0.00112   0.00000   0.00114   0.00106   1.94581
   A15        1.96713  -0.00121   0.00000  -0.01436  -0.01441   1.95272
   A16        1.88872  -0.00067   0.00000   0.00262   0.00255   1.89127
   A17        1.88236  -0.00109   0.00000  -0.00605  -0.00613   1.87623
   A18        1.91013   0.00151   0.00000   0.01678   0.01675   1.92688
   A19        1.86884   0.00041   0.00000   0.00086   0.00086   1.86970
   A20        1.91715  -0.00012   0.00000  -0.00507  -0.00513   1.91202
   A21        1.90597  -0.00092   0.00000  -0.01746  -0.01744   1.88852
   A22        1.91877  -0.00036   0.00000   0.00193   0.00196   1.92073
   A23        1.90393   0.00110   0.00000   0.00569   0.00559   1.90952
   A24        1.94274  -0.00009   0.00000   0.00690   0.00688   1.94962
   A25        1.87447   0.00039   0.00000   0.00779   0.00773   1.88220
   A26        2.14362  -0.01566   0.00000  -0.06168  -0.06168   2.08194
   A27        1.95801  -0.00180   0.00000  -0.01579  -0.01596   1.94205
   A28        1.94795  -0.00032   0.00000  -0.00235  -0.00246   1.94550
   A29        1.90776   0.00127   0.00000   0.00819   0.00830   1.91607
   A30        1.89995   0.00082   0.00000  -0.00064  -0.00062   1.89933
   A31        1.87137   0.00012   0.00000   0.00452   0.00453   1.87590
   A32        1.87542  -0.00000   0.00000   0.00732   0.00729   1.88272
   A33        1.91186   0.00205   0.00000  -0.00032  -0.00030   1.91156
   A34        1.92306  -0.00104   0.00000  -0.00692  -0.00693   1.91613
   A35        1.91623  -0.00055   0.00000   0.00187   0.00185   1.91808
   A36        1.91427  -0.00090   0.00000  -0.00228  -0.00238   1.91188
   A37        1.93114  -0.00030   0.00000   0.00184   0.00190   1.93304
   A38        1.86694   0.00067   0.00000   0.00585   0.00586   1.87281
   A39        1.94990   0.00001   0.00000  -0.00593  -0.00577   1.94413
   A40        1.93930   0.00325   0.00000   0.01059   0.01030   1.94960
   A41        1.82556  -0.00227   0.00000  -0.01043  -0.01045   1.81511
   A42        1.89305  -0.00313   0.00000  -0.01590  -0.01581   1.87724
   A43        1.93362   0.00177   0.00000   0.01315   0.01315   1.94677
   A44        1.92231   0.00054   0.00000   0.00967   0.00975   1.93206
   A45        1.92090  -0.00097   0.00000  -0.00443  -0.00464   1.91626
   A46        1.93969  -0.00052   0.00000  -0.00153  -0.00150   1.93819
   A47        1.91648   0.00092   0.00000   0.00117   0.00126   1.91774
   A48        1.90285   0.00062   0.00000   0.00392   0.00398   1.90683
   A49        1.90732  -0.00001   0.00000  -0.00233  -0.00227   1.90505
   A50        1.87582   0.00000   0.00000   0.00337   0.00333   1.87915
   A51        1.94631   0.00238   0.00000   0.00601   0.00594   1.95225
   A52        1.84247  -0.00131   0.00000  -0.00184  -0.00185   1.84062
   A53        1.91104  -0.00002   0.00000  -0.00002   0.00005   1.91109
   A54        1.94586  -0.00029   0.00000  -0.00187  -0.00179   1.94407
   A55        1.92847  -0.00145   0.00000  -0.00596  -0.00600   1.92247
   A56        1.88690   0.00069   0.00000   0.00390   0.00389   1.89079
   A57        1.91541  -0.00050   0.00000  -0.00764  -0.00768   1.90772
   A58        1.92799   0.00083   0.00000   0.00283   0.00283   1.93081
   A59        1.90161  -0.00030   0.00000   0.00328   0.00329   1.90490
   A60        1.91774  -0.00056   0.00000  -0.00155  -0.00156   1.91618
   A61        1.93607   0.00062   0.00000   0.00202   0.00207   1.93814
   A62        1.86453  -0.00006   0.00000   0.00142   0.00140   1.86593
   A63        1.97742  -0.00419   0.00000  -0.02697  -0.02696   1.95047
    D1        0.56953   0.00100   0.00000   0.01692   0.01694   0.58647
    D2        2.68858  -0.00047   0.00000  -0.00038  -0.00035   2.68823
    D3       -1.53131  -0.00112   0.00000  -0.00621  -0.00619  -1.53751
    D4       -1.65292   0.00284   0.00000   0.04931   0.04930  -1.60362
    D5        0.46613   0.00138   0.00000   0.03201   0.03201   0.49814
    D6        2.52942   0.00073   0.00000   0.02619   0.02616   2.55559
[...]
 2040,-0.00004242,0.00001206,0.00019614,-0.00005124,0.00013232,-0.00016
 455,0.00043396,-0.00020156,-0.00007282,0.00000264,0.00005130,-0.000055
 97,0.00004564,0.00003245,-0.00005280,0.00000701,-0.00074599,-0.0011331
 7,0.00093000,0.00035710,-0.00053675,0.00033609,0.00001210,-0.00002893,
 -0.00004351,0.00002218,-0.00011420,0.00001687,-0.00006432,0.00010612,0
 .00003158,0.00008561,-0.00037367,0.00068255,-0.00019584,-0.00010565,0.
 00011081,0.00005387,0.00022712,-0.00012663,-0.09272182,-0.09921622,0.1
 7798470,0.00032898,0.00001185,0.00010214,0.00005733,-0.00005336,-0.000
 00143,-0.00895013,-0.00015709,0.00178604,0.00001130,0.00002781,-0.0000
 1527,-0.00001812,0.00002362,0.00001777,-0.00037041,-0.00026589,-0.0006
 3220,0.00108299,0.00074979,-0.00005720,0.00070697,0.00119841,-0.002129
 05,0.00045486,0.00246410,0.00135421,-0.11716844,-0.09013996,0.06976294
 ,-0.01134372,-0.02357739,0.01614489,0.00000130,0.00001884,-0.00001530,
 -0.00015842,-0.00003125,0.00000598,-0.00005607,-0.00000796,-0.00002492
 ,-0.00001874,0.00000394,0.00000101,-0.00000170,0.00000961,0.00000241,0
 .00001485,0.00002625,-0.00000405,-0.00003317,0.00000182,0.00000322,0.0
 0004424,-0.00005144,0.00001318,-0.00001714,-0.00000482,-0.00002351,0.0
 0030252,0.00018540,0.00012709,-0.00014332,-0.00017915,0.00024136,0.000
 02917,-0.00020865,0.00001202,0.00026859,-0.00023562,-0.00046851,0.0000
 8560,-0.00025442,-0.00009755,0.12523190,0.00017079,0.00001763,0.000004
 68,0.00001409,-0.00001224,-0.00000268,0.00352516,0.00140752,-0.0009373
 3,-0.00000513,-0.00002528,-0.00003762,-0.00004209,-0.00002127,0.000016
 26,-0.00036405,0.00016155,0.00002108,0.00105823,-0.00461489,-0.0047101
 1,-0.01518891,-0.01922874,0.01628328,0.00118340,-0.00089115,-0.0003688
 2,-0.09118216,-0.17006963,0.09652925,0.00391304,0.00721710,-0.00589851
 ,-0.00000067,0.00001729,-0.00000856,-0.00001513,0.00002744,0.00002184,
 -0.00003271,-0.00000324,-0.00001549,-0.00000452,0.00000007,0.00000135,
 -0.00000180,0.00000331,0.00000138,0.00000848,0.00001404,-0.00000492,-0
 .00002008,0.00000311,0.00000905,0.00001573,-0.00000048,-0.00000235,0.0
 0000128,0.00000591,-0.00000307,-0.00144478,-0.00114531,0.00090113,0.00
 026183,0.00021755,-0.00004610,-0.00005330,0.00132217,-0.00010035,0.000
 54535,0.00097575,0.00050446,-0.00013296,0.00023733,0.00009408,0.099820
 46,0.18576195,-0.00007195,-0.00001307,-0.00003193,-0.00001541,0.000012
 97,0.00000374,0.00200196,0.00033110,0.00129619,-0.00000436,-0.00001758
 ,0.00000112,0.00000571,-0.00002911,-0.00002461,0.00007630,0.00015950,0
 .00019088,0.00040777,-0.00291677,-0.00117158,-0.01002020,-0.01203413,0
 .00893107,0.00002321,-0.00081123,-0.00058622,0.07171393,0.09737748,-0.
 12295605,-0.00043147,0.00228084,-0.00333741,0.00000103,0.00000663,0.00
 001198,0.00004328,0.00001308,-0.00000221,0.00001178,0.00000398,0.00000
 497,0.00000563,-0.00000045,-0.00000141,-0.00000028,-0.00000232,-0.0000
 0122,-0.00000174,-0.00000321,-0.00000126,0.00000634,0.00000184,-0.0000
 0050,-0.00001570,0.00002915,0.00001260,0.00000409,0.00000134,0.0000087
 7,-0.00038419,-0.00067481,0.00050594,-0.00006723,-0.00022726,0.0002408
 4,-0.00015073,0.00083217,0.00081008,0.00013964,0.00090165,0.00037301,-
 0.00004166,0.00011695,-0.00002059,-0.07853098,-0.10363652,0.12998999,0
 .00010830,0.00006474,0.00000751,0.00000858,0.00000007,-0.00002141,0.00
 335912,-0.00025183,0.00065196,0.00000993,-0.00000366,-0.00002427,-0.00
 002921,0.00006827,0.00016028,0.00002708,-0.00025333,0.00009140,-0.0001
 8237,-0.00004621,-0.00039566,0.00040494,0.00001430,0.00203738,-0.00029
 645,0.00009454,-0.00013827,-0.09487490,0.00699650,-0.09793519,-0.01682
 355,0.00489291,-0.03118802,-0.00000577,-0.00006156,-0.00005587,-0.0000
 2279,-0.00000442,0.00002453,-0.00000473,-0.00001967,-0.00000811,-0.000
 00577,-0.00000388,0.00000915,0.00000097,0.00000324,0.00000289,-0.00000
 072,0.00000056,0.00000372,-0.00001046,0.00000024,0.00000443,0.00007455
 ,-0.00006826,-0.00009853,0.00000930,0.00000848,0.00000273,-0.00001712,
 -0.00004674,0.00008242,-0.00011555,-0.00022441,-0.00007463,0.00096696,
 0.00059339,0.00016103,0.00036464,-0.00045600,0.00019248,-0.00002625,-0
 .00006042,-0.00002468,0.00765861,-0.00051397,0.01509826,0.10353809,-0.
 00006608,-0.00006609,0.00005554,-0.00000660,0.00000279,0.00000924,-0.0
 0087806,0.00086318,-0.00111670,-0.00002249,-0.00000065,-0.00000392,0.0
 0000332,-0.00001181,-0.00006210,0.00005505,0.00023399,0.00016229,0.000
 11336,0.00178578,-0.00067222,-0.01312164,0.00123214,-0.02842189,0.0000
 0608,-0.00055958,-0.00029597,0.00813042,-0.05036984,0.02073219,0.00522
 673,-0.00306242,0.01199542,0.00000262,0.00002612,0.00002123,0.00002218
 ,0.00000645,-0.00000797,0.00000837,0.00000777,0.00000416,0.00000382,0.
 00000117,-0.00000402,-0.00000057,-0.00000170,-0.00000138,0.00000173,-0
 .00000094,-0.00000226,0.00000262,-0.00000212,0.00000324,-0.00005926,0.
 00002681,0.00003590,-0.00000179,-0.00000435,-0.00000006,0.00037597,0.0
 0010847,0.00022778,0.00010111,-0.00024979,0.00055586,-0.00023196,-0.00
 512112,-0.00282344,0.00031298,0.00131462,0.00075317,-0.00006074,0.0000
 8359,0.00004713,0.01028645,-0.00187627,0.01867137,-0.01231539,0.055118
 65,0.00018059,-0.00001912,0.00006468,0.00001748,-0.00001775,-0.0000006
 8,-0.00087844,-0.00122464,0.00096480,-0.00000792,-0.00000807,-0.000024
 40,0.00000292,-0.00002316,-0.00000909,-0.00028710,-0.00003538,-0.00013
 290,0.00037395,0.00090475,0.00069242,-0.00600767,0.00041770,-0.0157891
 1,0.00005712,0.00009441,0.00014982,-0.09995771,0.02085494,-0.25877363,
 0.00272349,0.00035919,0.00333448,0.00000408,0.00001892,0.00000182,-0.0
 0004302,0.00000873,0.00001613,-0.00002411,-0.00000079,-0.00001344,-0.0
 0000610,0.00000085,0.00000045,-0.00000116,0.00000389,0.00000115,0.0000
 0460,0.00001307,-0.00000316,-0.00001782,0.00000086,0.00000643,0.000031
 25,0.00000251,0.00001735,-0.00000445,0.00000073,-0.00000181,0.00018438
 ,-0.00013590,0.00025526,-0.00038756,-0.00034426,0.00047232,0.00037785,
 -0.00332876,-0.00012520,0.00038777,0.00014396,0.00049182,-0.00011323,-
 0.00000284,-0.00002929,-0.00683052,0.00122409,-0.01449971,0.10970573,-
 0.01928918,0.28108167,0.00044514,0.00002446,0.00010903,0.00003793,-0.0
 0003703,-0.00000662,-0.00165434,-0.02434272,-0.00873273,-0.00001137,-0
 .00004231,-0.00003737,-0.00008544,-0.00001551,-0.00001187,-0.00020580,
 -0.00031437,-0.00030992,-0.00030314,-0.00061659,-0.00000996,-0.0068256
 0,0.00056783,-0.00023008,-0.00192389,-0.00062659,0.00287609,-0.0002531
 3,0.02801238,0.01817408,-0.05016338,0.01834953,0.00891735,0.00000615,0
 .00002435,-0.00000181,-0.00007725,0.00002885,0.00003103,-0.00006164,-0
 .00000349,-0.00002636,-0.00001320,0.00000325,0.00000416,-0.00000484,0.
 00001079,0.00000439,0.00000738,0.00004682,-0.00001708,-0.00004270,0.00
 001218,0.00000605,0.00012541,0.00003120,0.00004413,0.00000633,0.000004
 68,0.00000552,0.00027399,0.00004070,-0.00009308,0.00006752,0.00004146,
 -0.00007316,0.00004135,-0.00016133,0.00011564,-0.00008549,0.00201968,0
 .00087871,0.00005637,-0.00098417,-0.00029419,0.00099201,-0.00093279,-0
 .00009751,0.00152550,-0.00051435,-0.00057166,0.05652668,0.00052253,0.0
 0003325,0.00008770,0.00006976,-0.00006690,-0.00000348,-0.00589466,-0.0
 3107006,-0.00917395,0.00001531,-0.00006177,-0.00004607,-0.00007439,0.0
 0001434,0.00007128,-0.00041226,0.00025811,-0.00108792,-0.00032149,0.00
 016372,-0.00014521,0.00205869,0.00098490,0.00021485,-0.00178629,0.0017
 6822,0.00583493,0.00156222,-0.00621639,-0.00557557,0.01413626,-0.23137
 630,-0.12111662,-0.00000410,0.00002578,-0.00003603,-0.00015380,0.00002
 671,0.00003063,-0.00009616,-0.00000528,-0.00004011,-0.00002286,0.00000
 496,0.00000224,-0.00000652,0.00001406,0.00000460,0.00001308,0.00007085
 ,-0.00002621,-0.00005996,0.00002275,0.00000277,-0.00007447,-0.00014054
 ,-0.00007928,-0.00000787,0.00000574,-0.00002541,0.00013693,-0.00006035
 ,-0.00009929,0.00001148,-0.00001297,0.00003086,-0.00005465,-0.00000609
 ,-0.00009519,-0.00013015,-0.00046895,-0.00027977,-0.00002192,-0.001264
 05,-0.00049537,0.00046470,0.00011263,-0.00013718,-0.00033882,0.0001912
 6,0.00032499,-0.00913021,0.26115624,0.00023183,-0.00004648,0.00013472,
 0.00000045,-0.00000066,-0.00001729,0.00207613,0.02321386,0.01121335,-0
 .00005566,0.00004651,-0.00005112,-0.00007360,0.00007728,0.00007374,-0.
 00014428,-0.00081629,0.00113360,0.00023415,0.00029903,-0.00014866,0.00
 132785,0.00008227,0.00099759,0.00137703,0.00194703,-0.00328496,-0.0014
 3839,-0.00103700,-0.00117277,0.00597991,-0.13162880,-0.13652085,-0.000
 00987,-0.00004183,-0.00003474,-0.00000916,-0.00000433,0.00002477,0.000
 00101,-0.00000142,-0.00001018,-0.00000214,-0.00000333,0.00000690,-0.00
 000060,0.00000113,0.00000295,0.00000846,-0.00002359,0.00001339,-0.0000
 0868,-0.00001674,0.00002297,0.00001211,-0.00006800,-0.00010744,0.00002
 168,0.00001585,0.00002075,-0.00014135,-0.00003784,0.00006469,0.0000022
 8,-0.00001979,0.00003022,-0.00004833,0.00035535,0.00031399,0.00002271,
 -0.00054725,0.00007908,-0.00000022,0.00082073,0.00026070,0.00021001,-0
 .00004545,-0.00002301,0.00049429,0.00032718,0.00069525,-0.01245931,0.1
 3045215,0.14024167,0.00023886,-0.00036424,0.00002890,0.00002961,-0.000
 03264,0.00005767,0.00680516,-0.00901584,0.02275888,-0.00003985,-0.0000
 3290,0.00003293,-0.00045985,-0.00037072,-0.00012653,-0.00120401,-0.000
 73250,-0.00075364,-0.00012597,-0.00007482,0.00001002,0.00130850,-0.001
 22845,-0.00073597,0.00094857,0.00166756,0.00096185,-0.01585698,0.00464
 533,-0.02930060,-0.09846933,0.01820880,-0.10088532,-0.00003434,0.00009
 361,0.00003677,-0.00003743,0.00003135,-0.00000693,-0.00004834,0.000073
 99,-0.00001914,0.00000367,0.00001260,-0.00002668,-0.00000444,0.0000013
 7,-0.00000742,0.00000855,0.00002206,-0.00002143,-0.00000595,0.00000185
 ,0.00000560,-0.00119073,-0.00010589,0.00043734,0.00010666,0.00011530,-
 0.00003401,0.00013438,0.00002726,-0.00006701,-0.00004132,-0.00007602,0
 .00003947,0.00022409,0.00038970,0.00064747,0.00013857,-0.00027474,0.00
 033389,-0.00013029,-0.00000786,-0.00017585,0.00103387,-0.00057076,0.00
 028168,-0.00559645,0.00260554,0.00109331,0.00162251,-0.00036128,0.0024
 2217,0.11056511,-0.00041274,-0.00020849,-0.00005807,0.00001299,-0.0000
 1765,0.00003654,0.00105958,-0.01296197,0.02909581,0.00005747,0.0000072
 3,0.00011528,0.00008055,-0.00003490,-0.00016007,-0.00067654,0.00005863
 ,-0.00161193,-0.00012616,-0.00050859,-0.00017296,-0.00026636,0.0004322
 9,0.00117729,0.00167354,0.00236859,0.00424362,0.00619755,-0.00052545,0
 .00904755,0.01701918,-0.05669491,0.02333421,0.00001611,0.00005134,0.00
 005647,-0.00005317,-0.00002269,-0.00004909,0.00003225,0.00000075,0.000
 01968,0.00000134,0.00000800,-0.00001683,0.00000101,-0.00000425,-0.0000
 0440,-0.00000442,0.00001622,-0.00001695,0.00002292,0.00001478,-0.00003
 328,-0.00018004,0.00017019,0.00010289,-0.00002562,-0.00001473,-0.00003
 766,0.00011673,-0.00007069,-0.00008222,-0.00007205,0.00007190,-0.00004
 340,0.00004963,-0.00000196,-0.00028047,-0.00012762,0.00010320,-0.00019
 176,-0.00012299,-0.00015563,-0.00037534,-0.00012843,0.00038440,-0.0002
 3563,0.00192768,0.00032549,0.00005539,-0.01149706,0.00589039,-0.023302
 24,-0.01464069,0.06132456,-0.00007786,0.00012573,0.00002626,-0.0000208
 8,0.00006241,-0.00006766,0.00343620,0.01693773,-0.01952398,0.00000182,
 0.00002346,-0.00006012,-0.00020735,0.00014606,0.00055842,-0.00037796,-
 0.00190423,0.00246590,0.00022033,0.00031084,0.00039337,0.00042695,0.00
 031198,0.00082318,-0.00098833,-0.00409944,-0.00376623,0.00109640,-0.00
 209330,0.00415380,-0.09870931,0.02949410,-0.24908346,-0.00006078,-0.00
 025159,-0.00020577,0.00008024,-0.00001315,0.00008127,0.00008758,-0.000
 06637,-0.00000138,0.00000219,-0.00001650,0.00002501,0.00000553,-0.0000
 0134,0.00000288,-0.00000420,-0.00004602,0.00002504,0.00000794,-0.00001
 312,0.00001444,0.00032693,-0.00011891,-0.00023520,0.00011180,0.0000910
 3,-0.00002846,-0.00016312,0.00010793,0.00008822,0.00001826,-0.00004942
 ,-0.00003012,-0.00017069,0.00057586,-0.00001669,-0.00005549,0.00006126
 ,0.00009301,0.00004061,0.00030486,0.00017282,-0.00095652,0.00020238,0.
 00027841,0.00122028,-0.00089426,0.00115507,-0.00819540,0.00139639,-0.0
 1396583,0.10303095,-0.04059454,0.27658456,0.00061060,-0.00129954,-0.00
 067595,0.00114513,0.00344441,0.00501131,-0.00033953,0.00014381,-0.0000
 9744,-0.00044415,-0.00075177,-0.00040930,-0.02034209,-0.02075909,-0.01
 912498,0.00022136,0.00045686,0.00029613,0.00001502,0.00002286,0.000033
 77,-0.00000320,-0.00001059,-0.00001336,0.00022582,-0.00035766,0.000027
 17,-0.00000189,-0.00000370,-0.00008033,0.00010636,0.00008807,0.0001423
 8,-0.12553739,-0.08657533,-0.08300014,0.00021080,0.00040184,-0.0003017
 5,-0.00024504,0.00056113,0.00022085,0.00092820,0.00069915,0.00004262,0
 .00085296,-0.00032394,0.00164327,0.00019367,0.00014285,0.00016634,0.00
 056465,0.00044081,-0.00023130,-0.00577211,0.00111968,0.00256339,0.0012
 8333,-0.00001011,0.00035014,-0.00001056,0.00001059,0.00000362,0.000002
 16,-0.00000359,-0.00000353,0.00000374,-0.00000035,-0.00000160,-0.00000
 871,0.00000995,0.00000338,-0.00001261,0.00002303,-0.00003320,-0.000010
 57,-0.00000202,0.00000922,-0.00003966,0.00001818,0.00000168,-0.0000058
 2,-0.00001546,-0.00002517,0.00007028,0.00004744,-0.00013148,0.13974544
 ,0.00062367,0.00043518,0.00105222,0.00559073,0.00511251,0.00567072,-0.
 00008137,-0.00008421,-0.00008842,-0.00002892,-0.00130199,0.00017813,0.
 00104472,0.00164665,0.00193950,-0.00054815,0.00003229,-0.00029803,-0.0
 0001406,-0.00000547,-0.00003985,0.00000025,0.00000817,-0.00000576,0.00
 012703,0.00003996,0.00031506,-0.00000057,-0.00000038,0.00000399,0.0000
 4989,0.00003160,-0.00001070,-0.08715413,-0.14950047,-0.09240074,-0.000
 24171,0.00058535,0.00008380,-0.00042616,0.00018289,-0.00036315,0.00039
 467,0.00087687,-0.00056587,0.00007202,0.00084000,0.00135494,0.00010509
 ,0.00020489,0.00000191,0.00106749,-0.00088136,0.00083944,0.00079302,0.
 00098078,0.00038238,-0.00039341,0.00004934,0.00010978,-0.00000098,-0.0
 0000069,0.00000127,-0.00002333,0.00000424,-0.00000361,0.00000353,0.000
 00015,-0.00000341,-0.00000863,-0.00000158,0.00000132,0.00000073,0.0000
 0774,-0.00002918,-0.00000562,-0.00000223,0.00000198,-0.00000349,0.0000
 0195,-0.00000211,-0.00000705,-0.00000582,-0.00000150,0.00000314,0.0000
 0389,-0.00000599,0.09603983,0.15934907,-0.00043611,0.00004376,0.000783
 25,-0.01510235,-0.02221413,-0.01944558,0.00004893,-0.00004968,0.000010
 38,-0.00033037,-0.00109524,-0.00076454,0.00519090,0.00728406,0.0065216
 7,-0.00016991,-0.00001258,-0.00008891,-0.00000766,0.00000103,-0.000010
 15,0.00000325,0.00000119,0.00000196,-0.00000095,0.00008668,0.00003010,
 -0.00000049,-0.00000240,0.00002406,-0.00000446,-0.00000781,-0.00004428
 ,-0.08063294,-0.09004356,-0.13285381,-0.00030486,0.00161282,-0.0003023
 4,-0.00031869,0.00010167,-0.00020852,-0.00006845,0.00015600,0.00183165
 ,0.00040738,0.00218952,-0.00525139,0.00015173,0.00016001,0.00016746,0.
 00017714,0.00066715,0.00023839,0.00233972,-0.00051072,0.00027328,-0.00
 079618,0.00029742,0.00035397,0.00000111,-0.00000223,-0.00000188,-0.000
 00236,0.00000037,-0.00000004,-0.00000070,0.00000058,0.00000050,0.00000
 181,-0.00000200,-0.00000096,0.00001605,0.00000290,-0.00001121,0.000001
 13,0.00000052,-0.00000169,0.00001138,-0.00000519,0.00000005,0.,0.00000
 486,0.00000662,-0.00001318,-0.00001096,0.00003623,0.08668449,0.0990132
 3,0.14633687,-0.00385934,-0.00341253,0.00180052,0.00010839,-0.00283047
 ,-0.00038179,-0.00015151,-0.00034068,-0.00022639,-0.00059127,-0.000872
 14,0.00044127,-0.01079164,0.03205111,-0.00431875,-0.00272451,0.0019991
 1,-0.00101642,-0.00006536,-0.00005074,-0.00022507,0.00000210,0.0000348
 2,-0.00001938,0.00038050,0.00039336,0.00128468,0.00000148,-0.00000291,
 0.00002057,0.00012127,0.00010649,-0.00005071,-0.07696508,0.08427030,-0
 .01260713,0.00064178,0.00008090,-0.00023931,0.00007240,0.00043690,0.00
 016419,-0.00066883,0.00046280,-0.00025667,0.00074261,-0.00000511,-0.00
 012076,0.00009143,0.00007857,-0.00007526,0.00033752,0.00008850,0.00003
 200,0.00135091,-0.00042705,-0.00062591,0.00153422,-0.00043499,0.000128
 80,0.00000884,-0.00001237,-0.00000287,-0.00010695,0.00001321,-0.000011
 87,0.00001285,0.00000083,-0.00000945,-0.00002684,-0.00000902,0.0000079
 0,-0.00000293,0.00001954,-0.00011240,-0.00001516,-0.00001001,0.0000035
 6,-0.00000483,0.00000240,-0.00000773,-0.00001721,-0.00002365,-0.000005
 34,0.00000689,0.00001789,0.00000536,0.00659381,-0.01697825,0.00315463,
 0.08398447,-0.00061370,0.00145188,0.00020421,0.00188804,-0.00628738,-0
 .00127731,0.00011457,0.00009940,0.00005686,-0.00043780,0.00016532,-0.0
 0004336,-0.00060335,0.00114103,-0.00037648,0.00024030,-0.00016877,0.00
 023570,0.00000544,0.00003823,0.00004320,0.00000887,-0.00001626,0.00000
 751,-0.00013308,-0.00008535,-0.00028780,-0.00000123,0.00000283,0.00000
 237,-0.00004968,-0.00005294,0.00000302,0.08690484,-0.28401618,0.034575
 63,-0.00032793,0.00012975,0.00075426,-0.00006850,0.00011645,-0.0000679
 5,-0.00004102,0.00003017,0.00068560,0.00001143,0.00141790,-0.00017571,
 0.00013941,0.00005638,0.00011590,0.00035626,0.00015416,0.00012992,0.00
 042915,0.00032104,-0.00003017,0.00034120,0.00023819,-0.00030546,-0.000
 00085,-0.00000111,-0.00000271,0.00002835,-0.00000514,0.00000206,-0.000
 00406,0.00000033,0.00000376,0.00001291,0.00000384,-0.00000512,-0.00000
 789,0.00001279,-0.00000445,0.00000799,0.00000399,-0.00000277,0.0000071
 6,-0.00000355,0.00000300,0.00000738,0.00001156,0.00000418,-0.00001011,
 -0.00000994,0.00001615,0.00644269,-0.01860933,0.00233273,-0.09464679,0
 .30386074,0.00198472,0.00111377,0.00009180,-0.01241961,0.02778391,-0.0
 0266884,-0.00000864,0.00007294,0.00008851,0.00068290,-0.00172622,-0.00
 136652,0.00290957,-0.01066024,0.00041140,0.00090774,-0.00072135,0.0004
 7214,0.00002661,0.00000587,0.00009994,-0.00000551,-0.00000719,0.000004
 58,0.00000942,-0.00012318,-0.00046036,-0.00000349,-0.00000573,0.000002
 45,-0.00002485,-0.00001160,-0.00000205,-0.01236394,0.03306266,-0.05148
 005,-0.00132755,0.00458322,-0.00669992,-0.00029174,0.00004350,-0.00008
 381,0.00128598,-0.00024831,-0.00042973,-0.00094339,-0.00004823,0.00141
 014,0.00000948,0.00017841,0.00023292,0.00018397,0.00018893,0.00022487,
 -0.00028188,0.00047422,0.00020617,-0.00059453,-0.00020612,0.00019734,-
 0.00000545,0.00000477,0.00000090,0.00003817,-0.00000589,0.00000313,-0.
 00000448,-0.00000018,0.00000278,0.00000579,0.00000138,-0.00000218,0.00
 003003,-0.00002059,0.00003940,0.00000164,0.00000305,-0.00000019,0.0000
 0278,-0.00000115,0.00000145,0.00000194,0.00000440,-0.00000010,-0.00000
 519,-0.00000693,0.00000701,0.00692979,-0.01713136,0.00236884,0.0132697
 1,-0.03659677,0.05732798\\0.00047288,0.00230027,-0.00670938,0.00001060
 ,-0.00000990,0.00000603,-0.00000317,-0.00000297,-0.00001492,-0.0000041
 7,-0.00000004,-0.00000244,-0.00026419,0.00042420,0.00496378,-0.0004138
 4,-0.00862347,0.00153737,0.00000923,-0.00000434,-0.00000224,0.00000111
 ,-0.00000102,0.00000013,0.00020794,0.00591713,0.00021916,0.00000080,-0
 .00000612,0.00000281,-0.00000203,-0.00000728,0.00001035,-0.00000021,0.
 00000011,-0.00000219,-0.00000507,0.00001419,-0.00000100,-0.00000249,-0
 .00000062,-0.00000293,-0.00000123,-0.00000021,-0.00000059,-0.00000306,
 -0.00000189,0.00000251,-0.00000317,-0.00000022,-0.00000242,0.00000049,
 0.00000313,-0.00000046,0.00000046,0.00000031,0.00000134,-0.00000029,0.
 00000073,0.00000325,-0.00000562,0.00000030,-0.00000028,-0.00000276,-0.
 00000088,-0.00000381,0.00000034,-0.00000093,0.00000105,-0.00000051,0.0
 0000058,-0.00000123,0.00000135,-0.00000423,-0.00000523,-0.00000294,0.0
 0000141,0.00000111,0.00000151,-0.00000179,-0.00000172,0.00000226,-0.00
 000110,0.00000019,0.00000195,0.00000165,0.00000031,0.00000054,0.000002
 74,-0.00000018,0.00000328,0.00000022,0.00000164\\\@


 HEAVEN'S NET CASTS WIDE.
 THOUGH ITS MESHES ARE COARSE, NOTHING SLIPS THROUGH.

                                          -- LAO-TSU
 Job cpu time:       0 days 14 hours  5 minutes 52.4 seconds.
 Elapsed time:       0 days  0 hours 52 minutes 53.7 seconds.
 File lengths (MBytes):  RWF=    686 Int=      0 D2E=      0 Chk=     33 Scr=      1
 Normal termination of Gaussian 16 at Sun Nov  4 22:57:44 2018.
