 Entering Gaussian System, Link 0=g16
 Initial command:
 /apps/gaussian/g16a03/g16/l1.exe "/jobfs/local/2012017.r-man2/Gau-15120.inp" -scrdir="/jobfs/local/2012017.r-man2/"
 Entering Link 1 = /apps/gaussian/g16a03/g16/l1.exe PID=     15121.
  
 Copyright (c) 1988,1990,1992,1993,1995,1998,2003,2009,2016,
            Gaussian, Inc.  All Rights Reserved.
  
 This is part of the Gaussian(R) 16 program.  It is based on
 the Gaussian(R) 09 system (copyright 2009, Gaussian, Inc.),
 the Gaussian(R) 03 system (copyright 2003, Gaussian, Inc.),
 the Gaussian(R) 98 system (copyright 1998, Gaussian, Inc.),
 the Gaussian(R) 94 system (copyright 1995, Gaussian, Inc.),
 the Gaussian 92(TM) system (copyright 1992, Gaussian, Inc.),
 the Gaussian 90(TM) system (copyright 1990, Gaussian, Inc.),
 the Gaussian 88(TM) system (copyright 1988, Gaussian, Inc.),
 the Gaussian 86(TM) system (copyright 1986, Carnegie Mellon
 University), and the Gaussian 82(TM) system (copyright 1983,
 Carnegie Mellon University). Gaussian is a federally registered
 trademark of Gaussian, Inc.
  
 This software contains proprietary and confidential information,
 including trade secrets, belonging to Gaussian, Inc.
  
 This software is provided under written license and may be
 used, copied, transmitted, or stored only in accord with that
 written license.
  
 The following legend is applicable only to US Government
 contracts under FAR:
  
                    RESTRICTED RIGHTS LEGEND
  
 Use, reproduction and disclosure by the US Government is
 subject to restrictions as set forth in subparagraphs (a)
 and (c) of the Commercial Computer Software - Restricted
 Rights clause in FAR 52.227-19.
  
 Gaussian, Inc.
 340 Quinnipiac St., Bldg. 40, Wallingford CT 06492
  
  
 ---------------------------------------------------------------
 Warning -- This program may not be used in any manner that
 competes with the business of Gaussian, Inc. or will provide
 assistance to any competitor of Gaussian, Inc.  The licensee
 of this program is prohibited from giving any competitor of
 Gaussian, Inc. access to this program.  By using this program,
 the user acknowledges that Gaussian, Inc. is engaged in the
 business of creating and licensing software in the field of
 computational chemistry and represents and warrants to the
 licensee that it is not a competitor of Gaussian, Inc. and that
 it will not use this program in any manner prohibited above.
 ---------------------------------------------------------------
  

 Cite this work as:
 Gaussian 16, Revision A.03,
 M. J. Frisch, G. W. Trucks, H. B. Schlegel, G. E. Scuseria, 
 M. A. Robb, J. R. Cheeseman, G. Scalmani, V. Barone, 
 G. A. Petersson, H. Nakatsuji, X. Li, M. Caricato, A. V. Marenich, 
 J. Bloino, B. G. Janesko, R. Gomperts, B. Mennucci, H. P. Hratchian, 
 J. V. Ortiz, A. F. Izmaylov, J. L. Sonnenberg, D. Williams-Young, 
 F. Ding, F. Lipparini, F. Egidi, J. Goings, B. Peng, A. Petrone, 
 T. Henderson, D. Ranasinghe, V. G. Zakrzewski, J. Gao, N. Rega, 
 G. Zheng, W. Liang, M. Hada, M. Ehara, K. Toyota, R. Fukuda, 
 J. Hasegawa, M. Ishida, T. Nakajima, Y. Honda, O. Kitao, H. Nakai, 
 T. Vreven, K. Throssell, J. A. Montgomery, Jr., J. E. Peralta, 
 F. Ogliaro, M. J. Bearpark, J. J. Heyd, E. N. Brothers, K. N. Kudin, 
 V. N. Staroverov, T. A. Keith, R. Kobayashi, J. Normand, 
 K. Raghavachari, A. P. Rendell, J. C. Burant, S. S. Iyengar, 
 J. Tomasi, M. Cossi, J. M. Millam, M. Klene, C. Adamo, R. Cammi, 
 J. W. Ochterski, R. L. Martin, K. Morokuma, O. Farkas, 
 J. B. Foresman, and D. J. Fox, Gaussian, Inc., Wallingford CT, 2016.
 
 ******************************************
 Gaussian 16:  ES64L-G16RevA.03 25-Dec-2016
                 4-Nov-2018 
 ******************************************
 %mem=6000mb
 %nproc=24
 Will use up to   24 processors via shared memory.
 %chk=D_a1-4_2SO_PSI.inp_extract_16.chk
 ----------------------------------------------------------------------
 #M062X/6-311++G(2d,2p) opt=ModRedundant freq=noraman SCRF=(Solvent=Wat
 er)
 ----------------------------------------------------------------------
 1/18=120,19=15,26=3,38=1/1,3;
 2/9=110,12=2,17=6,18=5,40=1/2;
 3/5=4,6=6,7=1212,11=2,25=1,30=1,70=2201,71=1,72=1,74=-55/1,2,3;
 4//1;
 5/5=2,38=5,53=1/2;
 6/7=2,8=2,9=2,10=2,28=1/1;
 7//1,2,3,16;
 1/18=20,19=15,26=3/3(2);
 2/9=110/2;
 99//99;
 2/9=110/2;
 3/5=4,6=6,7=1212,11=2,25=1,30=1,70=2205,71=1,72=1,74=-55/1,2,3;
 4/5=5,16=3,69=1/1;
 5/5=2,38=5,53=1/2;
 7//1,2,3,16;
 1/18=20,19=15,26=3/3(-5);
 2/9=110/2;
 6/7=2,8=2,9=2,10=2,19=2,28=1/1;
 99/9=1/99;
 -----------------------------
 D_a1-4_2SO_PSI.inp_extract_16
 -----------------------------
 Symbolic Z-matrix:
 Charge =  0 Multiplicity = 1
 C                     1.06434   0.03645   0.90587 
 C                     3.61141   0.00299  -0.60629 
 O                    -1.41294  -0.99076  -0.74072 
 C                     2.0079    1.22068   0.63071 
 C                     1.53313  -1.18671   0.112 
 O                    -0.29721   0.41573   0.71866 
 C                    -2.04696   1.33192  -0.59546 
 C                    -3.21297   0.96586   0.32395 
 C                    -0.9222    0.30774  -0.52625 
 C                    -3.65348  -0.47129   0.04622 
 C                    -2.46031  -1.40922   0.12373 
 C                     3.06139  -1.21569   0.14386 
 O                     2.68773   1.07993  -0.59747 
 H                     1.11841  -0.19141   1.96202 
 H                     4.55187   0.33589  -0.17698 
 H                     3.77652  -0.23013  -1.64959 
 H                     1.44695   2.14238   0.57749 
 H                     2.73487   1.31085   1.43292 
 H                     1.20631  -1.13439  -0.918 
 H                     1.11541  -2.09118   0.53971 
 H                    -1.6453    2.31136  -0.35919 
 H                    -2.3948    1.36116  -1.62456 
 H                    -2.91411   1.06254   1.36431 
 H                    -4.03655   1.65543   0.1658 
 H                    -0.21234   0.47928  -1.32055 
 H                    -4.40616  -0.7951    0.75952 
 H                    -4.09465  -0.53572  -0.94582 
 H                    -2.72055  -2.40805  -0.19847 
 H                    -2.08607  -1.46992   1.14017 
 H                     3.40667  -1.21658   1.1739 
 H                     3.4393   -2.12197  -0.31641 
 
 The following ModRedundant input section has been read:
 D       5       1       6       9 F                                           
 

 GradGradGradGradGradGradGradGradGradGradGradGradGradGradGradGradGradGrad
 Berny optimization.
 Initialization pass.
                           ----------------------------
                           !    Initial Parameters    !
                           ! (Angstroms and Degrees)  !
 --------------------------                            --------------------------
 ! Name  Definition              Value          Derivative Info.                !
 --------------------------------------------------------------------------------
 ! R1    R(1,4)                  1.539          estimate D2E/DX2                !
 ! R2    R(1,5)                  1.5317         estimate D2E/DX2                !
 ! R3    R(1,6)                  1.4257         estimate D2E/DX2                !
 ! R4    R(1,14)                 1.0818         estimate D2E/DX2                !
 ! R5    R(2,12)                 1.5331         estimate D2E/DX2                !
 ! R6    R(2,13)                 1.4188         estimate D2E/DX2                !
 ! R7    R(2,15)                 1.0861         estimate D2E/DX2                !
 ! R8    R(2,16)                 1.0817         estimate D2E/DX2                !
 ! R9    R(3,9)                  1.4046         estimate D2E/DX2                !
 ! R10   R(3,11)                 1.421          estimate D2E/DX2                !
 ! R11   R(4,13)                 1.4108         estimate D2E/DX2                !
 ! R12   R(4,17)                 1.0803         estimate D2E/DX2                !
 ! R13   R(4,18)                 1.0863         estimate D2E/DX2                !
 ! R14   R(5,12)                 1.5289         estimate D2E/DX2                !
 ! R15   R(5,19)                 1.0819         estimate D2E/DX2                !
 ! R16   R(5,20)                 1.0842         estimate D2E/DX2                !
 ! R17   R(6,9)                  1.3972         estimate D2E/DX2                !
 ! R18   R(7,8)                  1.5293         estimate D2E/DX2                !
 ! R19   R(7,9)                  1.5228         estimate D2E/DX2                !
 ! R20   R(7,21)                 1.0846         estimate D2E/DX2                !
 ! R21   R(7,22)                 1.0867         estimate D2E/DX2                !
 ! R22   R(8,10)                 1.5286         estimate D2E/DX2                !
 ! R23   R(8,23)                 1.0868         estimate D2E/DX2                !
 ! R24   R(8,24)                 1.0857         estimate D2E/DX2                !
 ! R25   R(9,25)                 1.079          estimate D2E/DX2                !
 ! R26   R(10,11)                1.5197         estimate D2E/DX2                !
 ! R27   R(10,26)                1.0864         estimate D2E/DX2                !
 ! R28   R(10,27)                1.0876         estimate D2E/DX2                !
 ! R29   R(11,28)                1.0813         estimate D2E/DX2                !
 ! R30   R(11,29)                1.0849         estimate D2E/DX2                !
 ! R31   R(12,30)                1.0864         estimate D2E/DX2                !
 ! R32   R(12,31)                1.0844         estimate D2E/DX2                !
 ! A1    A(4,1,5)              109.5225         estimate D2E/DX2                !
 ! A2    A(4,1,6)              110.9365         estimate D2E/DX2                !
 ! A3    A(4,1,14)             107.8174         estimate D2E/DX2                !
 ! A4    A(5,1,6)              115.8909         estimate D2E/DX2                !
 ! A5    A(5,1,14)             108.8147         estimate D2E/DX2                !
 ! A6    A(6,1,14)             103.412          estimate D2E/DX2                !
 ! A7    A(12,2,13)            111.5162         estimate D2E/DX2                !
 ! A8    A(12,2,15)            111.1548         estimate D2E/DX2                !
 ! A9    A(12,2,16)            110.816          estimate D2E/DX2                !
 ! A10   A(13,2,15)            109.1853         estimate D2E/DX2                !
 ! A11   A(13,2,16)            105.6017         estimate D2E/DX2                !
 ! A12   A(15,2,16)            108.3688         estimate D2E/DX2                !
 ! A13   A(9,3,11)             115.9031         estimate D2E/DX2                !
 ! A14   A(1,4,13)             111.9823         estimate D2E/DX2                !
 ! A15   A(1,4,17)             110.3024         estimate D2E/DX2                !
 ! A16   A(1,4,18)             110.0071         estimate D2E/DX2                !
 ! A17   A(13,4,17)            107.0038         estimate D2E/DX2                !
 ! A18   A(13,4,18)            109.1884         estimate D2E/DX2                !
 ! A19   A(17,4,18)            108.2425         estimate D2E/DX2                !
 ! A20   A(1,5,12)             108.0754         estimate D2E/DX2                !
 ! A21   A(1,5,19)             111.2459         estimate D2E/DX2                !
 ! A22   A(1,5,20)             110.1086         estimate D2E/DX2                !
 ! A23   A(12,5,19)            108.8276         estimate D2E/DX2                !
 ! A24   A(12,5,20)            111.167          estimate D2E/DX2                !
 ! A25   A(19,5,20)            107.4302         estimate D2E/DX2                !
 ! A26   A(1,6,9)              121.5754         estimate D2E/DX2                !
 ! A27   A(8,7,9)              112.0145         estimate D2E/DX2                !
 ! A28   A(8,7,21)             111.5634         estimate D2E/DX2                !
 ! A29   A(8,7,22)             109.3726         estimate D2E/DX2                !
 ! A30   A(9,7,21)             108.9002         estimate D2E/DX2                !
 ! A31   A(9,7,22)             107.3112         estimate D2E/DX2                !
 ! A32   A(21,7,22)            107.4886         estimate D2E/DX2                !
 ! A33   A(7,8,10)             109.6048         estimate D2E/DX2                !
 ! A34   A(7,8,23)             110.1542         estimate D2E/DX2                !
 ! A35   A(7,8,24)             109.8008         estimate D2E/DX2                !
 ! A36   A(10,8,23)            109.6839         estimate D2E/DX2                !
 ! A37   A(10,8,24)            110.6139         estimate D2E/DX2                !
 ! A38   A(23,8,24)            106.9503         estimate D2E/DX2                !
 ! A39   A(3,9,6)              111.3328         estimate D2E/DX2                !
 ! A40   A(3,9,7)              110.9022         estimate D2E/DX2                !
 ! A41   A(3,9,25)             105.3326         estimate D2E/DX2                !
 ! A42   A(6,9,7)              108.5972         estimate D2E/DX2                !
 ! A43   A(6,9,25)             110.447          estimate D2E/DX2                !
 ! A44   A(7,9,25)             110.216          estimate D2E/DX2                !
 ! A45   A(8,10,11)            110.1662         estimate D2E/DX2                !
 ! A46   A(8,10,26)            111.1373         estimate D2E/DX2                !
 ! A47   A(8,10,27)            109.7738         estimate D2E/DX2                !
 ! A48   A(11,10,26)           109.0588         estimate D2E/DX2                !
 ! A49   A(11,10,27)           109.1745         estimate D2E/DX2                !
 ! A50   A(26,10,27)           107.4692         estimate D2E/DX2                !
 ! A51   A(3,11,10)            111.4644         estimate D2E/DX2                !
 ! A52   A(3,11,28)            105.5536         estimate D2E/DX2                !
 ! A53   A(3,11,29)            109.4011         estimate D2E/DX2                !
 ! A54   A(10,11,28)           111.4669         estimate D2E/DX2                !
 ! A55   A(10,11,29)           110.6816         estimate D2E/DX2                !
 ! A56   A(28,11,29)           108.0906         estimate D2E/DX2                !
 ! A57   A(2,12,5)             109.4726         estimate D2E/DX2                !
 ! A58   A(2,12,30)            110.5213         estimate D2E/DX2                !
 ! A59   A(2,12,31)            109.3678         estimate D2E/DX2                !
 ! A60   A(5,12,30)            109.7229         estimate D2E/DX2                !
 ! A61   A(5,12,31)            110.8141         estimate D2E/DX2                !
 ! A62   A(30,12,31)           106.9163         estimate D2E/DX2                !
 ! A63   A(2,13,4)             113.2557         estimate D2E/DX2                !
 ! D1    D(5,1,4,13)            23.1805         estimate D2E/DX2                !
 ! D2    D(5,1,4,17)           142.2318         estimate D2E/DX2                !
 ! D3    D(5,1,4,18)           -98.433          estimate D2E/DX2                !
 ! D4    D(6,1,4,13)          -105.9949         estimate D2E/DX2                !
 ! D5    D(6,1,4,17)            13.0564         estimate D2E/DX2                !
 ! D6    D(6,1,4,18)           132.3916         estimate D2E/DX2                !
 ! D7    D(14,1,4,13)          141.4342         estimate D2E/DX2                !
 ! D8    D(14,1,4,17)          -99.5145         estimate D2E/DX2                !
 ! D9    D(14,1,4,18)           19.8207         estimate D2E/DX2                !
 ! D10   D(4,1,5,12)            38.8039         estimate D2E/DX2                !
 ! D11   D(4,1,5,19)           -80.6106         estimate D2E/DX2                !
 ! D12   D(4,1,5,20)           160.4035         estimate D2E/DX2                !
 ! D13   D(6,1,5,12)           165.2115         estimate D2E/DX2                !
 ! D14   D(6,1,5,19)            45.7971         estimate D2E/DX2                !
 ! D15   D(6,1,5,20)           -73.1889         estimate D2E/DX2                !
 ! D16   D(14,1,5,12)          -78.8274         estimate D2E/DX2                !
 ! D17   D(14,1,5,19)          161.7582         estimate D2E/DX2                !
 ! D18   D(14,1,5,20)           42.7722         estimate D2E/DX2                !
 ! D19   D(4,1,6,9)             89.0871         estimate D2E/DX2                !
 ! D20   D(5,1,6,9)            -36.6046         Frozen                          !
 ! D21   D(14,1,6,9)          -155.5702         estimate D2E/DX2                !
 ! D22   D(13,2,12,5)           26.1564         estimate D2E/DX2                !
 ! D23   D(13,2,12,30)         -94.8108         estimate D2E/DX2                !
 ! D24   D(13,2,12,31)         147.7436         estimate D2E/DX2                !
 ! D25   D(15,2,12,5)          148.2513         estimate D2E/DX2                !
 ! D26   D(15,2,12,30)          27.284          estimate D2E/DX2                !
 ! D27   D(15,2,12,31)         -90.1615         estimate D2E/DX2                !
 ! D28   D(16,2,12,5)          -91.1768         estimate D2E/DX2                !
 ! D29   D(16,2,12,30)         147.856          estimate D2E/DX2                !
 ! D30   D(16,2,12,31)          30.4104         estimate D2E/DX2                !
 ! D31   D(12,2,13,4)           38.9902         estimate D2E/DX2                !
 ! D32   D(15,2,13,4)          -84.2335         estimate D2E/DX2                !
 ! D33   D(16,2,13,4)          159.4335         estimate D2E/DX2                !
 ! D34   D(11,3,9,6)            65.4237         estimate D2E/DX2                !
 ! D35   D(11,3,9,7)           -55.6167         estimate D2E/DX2                !
 ! D36   D(11,3,9,25)         -174.8434         estimate D2E/DX2                !
 ! D37   D(9,3,11,10)           57.6196         estimate D2E/DX2                !
 ! D38   D(9,3,11,28)          178.7925         estimate D2E/DX2                !
 ! D39   D(9,3,11,29)          -65.1195         estimate D2E/DX2                !
 ! D40   D(1,4,13,2)           -67.0933         estimate D2E/DX2                !
 ! D41   D(17,4,13,2)          171.9276         estimate D2E/DX2                !
 ! D42   D(18,4,13,2)           54.9895         estimate D2E/DX2                !
 ! D43   D(1,5,12,2)           -65.2795         estimate D2E/DX2                !
 ! D44   D(1,5,12,30)           56.1707         estimate D2E/DX2                !
 ! D45   D(1,5,12,31)          174.0086         estimate D2E/DX2                !
 ! D46   D(19,5,12,2)           55.6521         estimate D2E/DX2                !
 ! D47   D(19,5,12,30)         177.1023         estimate D2E/DX2                !
 ! D48   D(19,5,12,31)         -65.0598         estimate D2E/DX2                !
 ! D49   D(20,5,12,2)          173.7773         estimate D2E/DX2                !
 ! D50   D(20,5,12,30)         -64.7726         estimate D2E/DX2                !
 ! D51   D(20,5,12,31)          53.0653         estimate D2E/DX2                !
 ! D52   D(1,6,9,3)             84.017          estimate D2E/DX2                !
 ! D53   D(1,6,9,7)           -153.6031         estimate D2E/DX2                !
 ! D54   D(1,6,9,25)           -32.6347         estimate D2E/DX2                !
 ! D55   D(9,7,8,10)           -52.0566         estimate D2E/DX2                !
 ! D56   D(9,7,8,23)            68.7143         estimate D2E/DX2                !
 ! D57   D(9,7,8,24)          -173.7556         estimate D2E/DX2                !
 ! D58   D(21,7,8,10)         -174.4325         estimate D2E/DX2                !
 ! D59   D(21,7,8,23)          -53.6617         estimate D2E/DX2                !
 ! D60   D(21,7,8,24)           63.8685         estimate D2E/DX2                !
 ! D61   D(22,7,8,10)           66.7853         estimate D2E/DX2                !
 ! D62   D(22,7,8,23)         -172.4439         estimate D2E/DX2                !
 ! D63   D(22,7,8,24)          -54.9137         estimate D2E/DX2                !
 ! D64   D(8,7,9,3)             52.3028         estimate D2E/DX2                !
 ! D65   D(8,7,9,6)            -70.338          estimate D2E/DX2                !
 ! D66   D(8,7,9,25)           168.5514         estimate D2E/DX2                !
 ! D67   D(21,7,9,3)           176.1831         estimate D2E/DX2                !
 ! D68   D(21,7,9,6)            53.5423         estimate D2E/DX2                !
 ! D69   D(21,7,9,25)          -67.5684         estimate D2E/DX2                !
 ! D70   D(22,7,9,3)           -67.7496         estimate D2E/DX2                !
 ! D71   D(22,7,9,6)           169.6096         estimate D2E/DX2                !
 ! D72   D(22,7,9,25)           48.499          estimate D2E/DX2                !
 ! D73   D(7,8,10,11)           52.6968         estimate D2E/DX2                !
 ! D74   D(7,8,10,26)          173.6906         estimate D2E/DX2                !
 ! D75   D(7,8,10,27)          -67.5584         estimate D2E/DX2                !
 ! D76   D(23,8,10,11)         -68.3587         estimate D2E/DX2                !
 ! D77   D(23,8,10,26)          52.6351         estimate D2E/DX2                !
 ! D78   D(23,8,10,27)         171.3861         estimate D2E/DX2                !
 ! D79   D(24,8,10,11)         173.9066         estimate D2E/DX2                !
 ! D80   D(24,8,10,26)         -65.0997         estimate D2E/DX2                !
 ! D81   D(24,8,10,27)          53.6513         estimate D2E/DX2                !
 ! D82   D(8,10,11,3)          -54.6944         estimate D2E/DX2                !
 ! D83   D(8,10,11,28)        -172.3541         estimate D2E/DX2                !
 ! D84   D(8,10,11,29)          67.3078         estimate D2E/DX2                !
 ! D85   D(26,10,11,3)        -176.924          estimate D2E/DX2                !
 ! D86   D(26,10,11,28)         65.4163         estimate D2E/DX2                !
 ! D87   D(26,10,11,29)        -54.9218         estimate D2E/DX2                !
 ! D88   D(27,10,11,3)          65.9215         estimate D2E/DX2                !
 ! D89   D(27,10,11,28)        -51.7382         estimate D2E/DX2                !
 ! D90   D(27,10,11,29)       -172.0763         estimate D2E/DX2                !
 --------------------------------------------------------------------------------
 Trust Radius=3.00D-01 FncErr=1.00D-07 GrdErr=1.00D-06 EigMax=2.50D+02 EigMin=1.00D-04
 Number of steps in this run=    186 maximum allowed number of steps=    186.
 GradGradGradGradGradGradGradGradGradGradGradGradGradGradGradGradGradGrad

                          Input orientation:                          
 ---------------------------------------------------------------------
 Center     Atomic      Atomic             Coordinates (Angstroms)
 Number     Number       Type             X           Y           Z
 ---------------------------------------------------------------------
      1          6           0        1.064342    0.036450    0.905866
      2          6           0        3.611410    0.002993   -0.606287
      3          8           0       -1.412936   -0.990763   -0.740717
      4          6           0        2.007903    1.220675    0.630713
      5          6           0        1.533126   -1.186709    0.111995
      6          8           0       -0.297213    0.415730    0.718660
      7          6           0       -2.046958    1.331921   -0.595455
      8          6           0       -3.212971    0.965856    0.323945
      9          6           0       -0.922200    0.307740   -0.526253
     10          6           0       -3.653475   -0.471292    0.046218
     11          6           0       -2.460308   -1.409218    0.123726
     12          6           0        3.061392   -1.215686    0.143855
     13          8           0        2.687729    1.079930   -0.597471
     14          1           0        1.118410   -0.191407    1.962019
     15          1           0        4.551875    0.335885   -0.176975
     16          1           0        3.776519   -0.230133   -1.649590
     17          1           0        1.446950    2.142381    0.577485
     18          1           0        2.734869    1.310854    1.432920
     19          1           0        1.206312   -1.134392   -0.917995
     20          1           0        1.115414   -2.091178    0.539713
     21          1           0       -1.645299    2.311363   -0.359192
     22          1           0       -2.394799    1.361162   -1.624562
     23          1           0       -2.914110    1.062543    1.364314
     24          1           0       -4.036555    1.655428    0.165797
     25          1           0       -0.212335    0.479276   -1.320546
     26          1           0       -4.406158   -0.795101    0.759519
     27          1           0       -4.094652   -0.535718   -0.945820
     28          1           0       -2.720545   -2.408049   -0.198468
     29          1           0       -2.086068   -1.469919    1.140174
     30          1           0        3.406667   -1.216579    1.173897
     31          1           0        3.439297   -2.121971   -0.316405
 ---------------------------------------------------------------------
                    Distance matrix (angstroms):
                    1          2          3          4          5
     1  C    0.000000
     2  C    2.962310   0.000000
     3  O    3.146952   5.123444   0.000000
     4  C    1.538962   2.363081   4.298071   0.000000
     5  C    1.531701   2.500117   3.073238   2.507983   0.000000
     6  O    1.425739   4.147670   2.313621   2.443201   2.507188
     7  C    3.689498   5.812340   2.412042   4.237660   4.434071
     8  C    4.415635   6.954467   2.863912   5.236083   5.215735
     9  C    2.463922   4.544546   1.404609   3.279866   2.944378
    10  C    4.822302   7.309532   2.430871   5.937642   5.236122
    11  C    3.889069   6.276386   1.421040   5.209442   3.999645
    12  C    2.477239   1.533105   4.566472   2.698652   1.528873
    13  O    2.446274   1.418823   4.596057   1.410818   2.640853
    14  H    1.081805   3.584555   3.788333   2.134842   2.141309
    15  H    3.664027   1.086094   6.136511   2.811940   3.393323
    16  H    3.735950   1.081707   5.323068   3.229958   3.008493
    17  H    2.165449   3.265453   4.442206   1.080298   3.362580
    18  H    2.166230   2.576274   5.217895   1.086346   3.070318
    19  H    2.171980   2.678676   2.629167   2.930424   1.081861
    20  H    2.159509   3.453819   3.040225   3.431208   1.084200
    21  H    3.757360   5.746531   3.332205   3.938959   4.749833
    22  H    4.485932   6.241478   2.697552   4.948716   4.993583
    23  H    4.134141   6.898429   3.301628   4.978894   5.138613
    24  H    5.402587   7.862444   3.835032   6.077880   6.253158
    25  H    2.604402   3.918933   1.984606   3.047383   2.806121
    26  H    5.535275   8.172134   3.353859   6.724591   5.987298
    27  H    5.511020   7.732327   2.727771   6.543054   5.763215
    28  H    4.639019   6.787716   2.003141   6.017757   4.436415
    29  H    3.499876   6.138473   2.054373   4.925388   3.773053
    30  H    2.669908   2.167563   5.190887   2.862131   2.153760
    31  H    3.434114   2.151540   5.000384   3.757553   2.166040
                    6          7          8          9         10
     6  O    0.000000
     7  C    2.372322   0.000000
     8  C    2.993340   1.529342   0.000000
     9  C    1.397168   1.522766   2.530531   0.000000
    10  C    3.536026   2.498843   1.528584   2.897322   0.000000
    11  C    2.891948   2.863900   2.499513   2.395035   1.519658
    12  C    3.777849   5.756051   6.645238   4.317277   6.756707
    13  O    3.329150   4.741388   5.973297   3.692281   6.559839
    14  H    1.979532   4.345199   4.773197   3.256491   5.149710
    15  H    4.931753   6.686689   7.806447   5.485279   8.247977
    16  H    4.756158   6.120792   7.360584   4.860983   7.624876
    17  H    2.458324   3.773596   4.812833   3.193277   5.755681
    18  H    3.241132   5.194287   6.060169   4.268343   6.775686
    19  H    2.709632   4.095180   5.048120   2.600725   4.998694
    20  H    2.883076   4.796541   5.303483   3.323095   5.060620
    21  H    2.563694   1.084646   2.175928   2.136653   3.455473
    22  H    3.283961   1.086697   2.149966   2.117671   2.780946
    23  H    2.771892   2.159910   1.086754   2.848101   2.153297
    24  H    3.978088   2.154683   1.085731   3.463294   2.164252
    25  H    2.041961   2.149093   3.456143   1.078997   3.822704
    26  H    4.283831   3.453404   2.171264   3.873943   1.086362
    27  H    4.253973   2.793543   2.155084   3.309367   1.087625
    28  H    3.832413   3.820824   3.449440   3.273683   2.163621
    29  H    2.633125   3.296095   2.805199   2.700304   2.156562
    30  H    4.073132   6.274351   7.021755   4.894195   7.188374
    31  H    4.633875   6.488932   7.361888   4.997018   7.291341
                   11         12         13         14         15
    11  C    0.000000
    12  C    5.525127   0.000000
    13  O    5.763529   2.441115   0.000000
    14  H    4.203523   2.851324   3.260376   0.000000
    15  H    7.232324   2.175280   2.050722   4.079462   0.000000
    16  H    6.590364   2.167756   2.002170   4.484503   1.757882
    17  H    5.299662   3.751143   2.012177   2.733393   3.670585
    18  H    6.008548   2.855120   2.044024   2.269289   2.616073
    19  H    3.821625   2.139032   2.683385   3.031737   3.728755
    20  H    3.663864   2.170258   3.717699   2.373203   4.267733
    21  H    3.839293   5.903056   4.510913   4.392034   6.506972
    22  H    3.276554   6.287882   5.192889   5.255157   7.169587
    23  H    2.802605   6.510489   5.935445   4.265074   7.657972
    24  H    3.446503   7.656672   6.791890   5.762888   8.695966
    25  H    3.271959   3.966693   3.048605   3.604987   4.901634
    26  H    2.137219   7.504681   7.461930   5.686062   9.077583
    27  H    2.139629   7.270400   6.980857   5.979138   8.724290
    28  H    1.081294   5.913519   6.447839   4.931408   7.772884
    29  H    1.084853   5.249155   5.684213   3.546646   7.004149
    30  H    5.963335   1.086371   2.988071   2.628352   2.355101
    31  H    5.958781   1.084437   3.300912   3.782170   2.701542
                   16         17         18         19         20
    16  H    0.000000
    17  H    4.001947   0.000000
    18  H    3.600214   1.755546   0.000000
    19  H    2.821149   3.609932   3.720553   0.000000
    20  H    3.916378   4.246689   3.872244   1.746028   0.000000
    21  H    6.125393   3.235417   4.837205   4.507458   5.273702
    22  H    6.373226   4.496482   5.971953   4.437908   5.378135
    23  H    7.451117   4.561140   5.654850   5.197435   5.182952
    24  H    8.239848   5.520456   6.897573   6.036999   6.381195
    25  H    4.064786   3.020210   4.118144   2.185985   3.439581
    26  H    8.548637   6.551398   7.475479   5.867622   5.675904
    27  H    7.908477   6.340507   7.463953   5.334736   5.636582
    28  H    7.004350   6.219046   6.800971   4.190481   3.919171
    29  H    6.609824   5.084048   5.573135   3.897230   3.316022
    30  H    3.013627   3.934312   2.627988   3.037158   2.533171
    31  H    2.338836   4.790948   3.916713   2.514646   2.476756
                   21         22         23         24         25
    21  H    0.000000
    22  H    1.750941   0.000000
    23  H    2.477883   3.048317   0.000000
    24  H    2.534555   2.446904   1.745806   0.000000
    25  H    2.516770   2.373457   3.853344   4.268162   0.000000
    26  H    4.303949   3.791949   2.458216   2.548373   4.851686
    27  H    3.801228   2.635971   3.047103   2.457679   4.030263
    28  H    4.843019   4.043118   3.811137   4.286772   3.985828
    29  H    4.091512   3.969143   2.673809   3.810722   3.655869
    30  H    6.349732   6.937804   6.721821   8.041532   4.711194
    31  H    6.746065   6.919550   7.302857   8.389853   4.594475
                   26         27         28         29         30
    26  H    0.000000
    27  H    1.752854   0.000000
    28  H    2.522029   2.439739   0.000000
    29  H    2.446037   3.042780   1.753457   0.000000
    30  H    7.835151   7.824740   6.391065   5.498678   0.000000
    31  H    8.029281   7.724814   6.167609   5.751213   1.744076
                   31
    31  H    0.000000
 Stoichiometry    C10H18O3
 Framework group  C1[X(C10H18O3)]
 Deg. of freedom    87
 Full point group                 C1      NOp   1
 Largest Abelian subgroup         C1      NOp   1
 Largest concise Abelian subgroup C1      NOp   1
                         Standard orientation:                         
 ---------------------------------------------------------------------
 Center     Atomic      Atomic             Coordinates (Angstroms)
 Number     Number       Type             X           Y           Z
 ---------------------------------------------------------------------
      1          6           0       -1.064342   -0.036450    0.905866
      2          6           0       -3.611410   -0.002993   -0.606287
      3          8           0        1.412936    0.990763   -0.740717
      4          6           0       -2.007903   -1.220675    0.630713
      5          6           0       -1.533126    1.186709    0.111995
      6          8           0        0.297213   -0.415730    0.718660
      7          6           0        2.046958   -1.331921   -0.595455
      8          6           0        3.212971   -0.965856    0.323945
      9          6           0        0.922200   -0.307740   -0.526253
     10          6           0        3.653475    0.471292    0.046218
     11          6           0        2.460308    1.409218    0.123726
     12          6           0       -3.061392    1.215686    0.143855
     13          8           0       -2.687729   -1.079930   -0.597471
     14          1           0       -1.118410    0.191407    1.962019
     15          1           0       -4.551875   -0.335885   -0.176975
     16          1           0       -3.776519    0.230133   -1.649590
     17          1           0       -1.446950   -2.142381    0.577485
     18          1           0       -2.734869   -1.310854    1.432920
     19          1           0       -1.206312    1.134392   -0.917995
     20          1           0       -1.115414    2.091178    0.539713
     21          1           0        1.645299   -2.311363   -0.359192
     22          1           0        2.394799   -1.361162   -1.624562
     23          1           0        2.914110   -1.062543    1.364314
     24          1           0        4.036555   -1.655428    0.165797
     25          1           0        0.212335   -0.479276   -1.320546
     26          1           0        4.406158    0.795101    0.759519
     27          1           0        4.094652    0.535718   -0.945820
     28          1           0        2.720545    2.408049   -0.198468
     29          1           0        2.086068    1.469919    1.140174
     30          1           0       -3.406667    1.216579    1.173897
     31          1           0       -3.439297    2.121971   -0.316405
 ---------------------------------------------------------------------
 Rotational constants (GHZ):           1.9403227           0.4387635           0.3985838
 Standard basis: 6-311++G(2d,2p) (5D, 7F)
 There are   557 symmetry adapted cartesian basis functions of A   symmetry.
 There are   531 symmetry adapted basis functions of A   symmetry.
   531 basis functions,   762 primitive gaussians,   557 cartesian basis functions
    51 alpha electrons       51 beta electrons
       nuclear repulsion energy       901.6513564951 Hartrees.
 NAtoms=   31 NActive=   31 NUniq=   31 SFac= 1.00D+00 NAtFMM=   60 NAOKFM=F Big=F
 Integral buffers will be    131072 words long.
 Raffenetti 2 integral format.
 Two-electron integral symmetry is turned on.
 ------------------------------------------------------------------------------
 Polarizable Continuum Model (PCM)
 =================================
 Model                : PCM.
 Atomic radii         : UFF (Universal Force Field).
 Polarization charges : Total charges.
 Charge compensation  : None.
 Solution method      : On-the-fly selection.
 Cavity type          : Scaled VdW (van der Waals Surface) (Alpha=1.100).
 Cavity algorithm     : GePol (No added spheres)
                        Default sphere list used, NSphG=   31.
                        Lebedev-Laikov grids with approx.  5.0 points / Ang**2.
                        Smoothing algorithm: York/Karplus (Gamma=1.0000).
                        Polarization charges: spherical gaussians, with
                                              point-specific exponents (IZeta= 3).
                        Self-potential: point-specific (ISelfS= 7).
                        Self-field    : sphere-specific E.n sum rule (ISelfD= 2).
 1st derivatives      : Analytical E(r).r(x)/FMM algorithm (CHGder, D1EAlg=3).
                        Cavity 1st derivative terms included.
 Solvent              : Water, Eps=  78.355300 Eps(inf)=   1.777849
 ------------------------------------------------------------------------------
 One-electron integrals computed using PRISM.
 NBasis=   531 RedAO= T EigKep=  4.10D-06  NBF=   531
 NBsUse=   531 1.00D-06 EigRej= -1.00D+00 NBFU=   531
 ExpMin= 3.60D-02 ExpMax= 8.59D+03 ExpMxC= 1.30D+03 IAcc=3 IRadAn=         5 AccDes= 0.00D+00
 Harris functional with IExCor= 1009 and IRadAn=       5 diagonalized for initial guess.
 HarFok:  IExCor= 1009 AccDes= 0.00D+00 IRadAn=         5 IDoV= 1 UseB2=F ITyADJ=14
 ICtDFT=  3500011 ScaDFX=  1.000000  1.000000  1.000000  1.000000
 FoFCou: FMM=F IPFlag=           0 FMFlag=      100000 FMFlg1=           0
         NFxFlg=           0 DoJE=T BraDBF=F KetDBF=T FulRan=T
         wScrn=  0.000000 ICntrl=       500 IOpCl=  0 I1Cent=   200000004 NGrid=           0
         NMat0=    1 NMatS0=      1 NMatT0=    0 NMatD0=    1 NMtDS0=    0 NMtDT0=    0
 Petite list used in FoFCou.
 Requested convergence on RMS density matrix=1.00D-08 within 128 cycles.
 Requested convergence on MAX density matrix=1.00D-06.
 Requested convergence on             energy=1.00D-06.
 No special actions if energy rises.
 Inv3:  Mode=1 IEnd=    12460332.
 Iteration    1 A*A^-1 deviation from unit magnitude is 3.55D-15 for   2028.
 Iteration    1 A*A^-1 deviation from orthogonality  is 1.74D-15 for   1770     94.
 Iteration    1 A^-1*A deviation from unit magnitude is 3.55D-15 for   2038.
 Iteration    1 A^-1*A deviation from orthogonality  is 1.68D-14 for   1819   1550.
 Error on total polarization charges =  0.01465
 SCF Done:  E(RM062X) =  -617.489772827     A.U. after   12 cycles
            NFock= 12  Conv=0.56D-08     -V/T= 2.0035

 **********************************************************************

            Population analysis using the SCF density.

 **********************************************************************

 Orbital symmetries:
       Occupied  (A) (A) (A) (A) (A) (A) (A) (A) (A) (A) (A) (A)
                 (A) (A) (A) (A) (A) (A) (A) (A) (A) (A) (A) (A)
                 (A) (A) (A) (A) (A) (A) (A) (A) (A) (A) (A) (A)
                 (A) (A) (A) (A) (A) (A) (A) (A) (A) (A) (A) (A)
                 (A) (A) (A)
       Virtual   (A) (A) (A) (A) (A) (A) (A) (A) (A) (A) (A) (A)
                 (A) (A) (A) (A) (A) (A) (A) (A) (A) (A) (A) (A)
                 (A) (A) (A) (A) (A) (A) (A) (A) (A) (A) (A) (A)
                 (A) (A) (A) (A) (A) (A) (A) (A) (A) (A) (A) (A)
                 (A) (A) (A) (A) (A) (A) (A) (A) (A) (A) (A) (A)
                 (A) (A) (A) (A) (A) (A) (A) (A) (A) (A) (A) (A)
                 (A) (A) (A) (A) (A) (A) (A) (A) (A) (A) (A) (A)
                 (A) (A) (A) (A) (A) (A) (A) (A) (A) (A) (A) (A)
                 (A) (A) (A) (A) (A) (A) (A) (A) (A) (A) (A) (A)
                 (A) (A) (A) (A) (A) (A) (A) (A) (A) (A) (A) (A)
                 (A) (A) (A) (A) (A) (A) (A) (A) (A) (A) (A) (A)
                 (A) (A) (A) (A) (A) (A) (A) (A) (A) (A) (A) (A)
                 (A) (A) (A) (A) (A) (A) (A) (A) (A) (A) (A) (A)
                 (A) (A) (A) (A) (A) (A) (A) (A) (A) (A) (A) (A)
                 (A) (A) (A) (A) (A) (A) (A) (A) (A) (A) (A) (A)
                 (A) (A) (A) (A) (A) (A) (A) (A) (A) (A) (A) (A)
                 (A) (A) (A) (A) (A) (A) (A) (A) (A) (A) (A) (A)
                 (A) (A) (A) (A) (A) (A) (A) (A) (A) (A) (A) (A)
                 (A) (A) (A) (A) (A) (A) (A) (A) (A) (A) (A) (A)
                 (A) (A) (A) (A) (A) (A) (A) (A) (A) (A) (A) (A)
                 (A) (A) (A) (A) (A) (A) (A) (A) (A) (A) (A) (A)
                 (A) (A) (A) (A) (A) (A) (A) (A) (A) (A) (A) (A)
                 (A) (A) (A) (A) (A) (A) (A) (A) (A) (A) (A) (A)
                 (A) (A) (A) (A) (A) (A) (A) (A) (A) (A) (A) (A)
                 (A) (A) (A) (A) (A) (A) (A) (A) (A) (A) (A) (A)
                 (A) (A) (A) (A) (A) (A) (A) (A) (A) (A) (A) (A)
                 (A) (A) (A) (A) (A) (A) (A) (A) (A) (A) (A) (A)
                 (A) (A) (A) (A) (A) (A) (A) (A) (A) (A) (A) (A)
                 (A) (A) (A) (A) (A) (A) (A) (A) (A) (A) (A) (A)
                 (A) (A) (A) (A) (A) (A) (A) (A) (A) (A) (A) (A)
                 (A) (A) (A) (A) (A) (A) (A) (A) (A) (A) (A) (A)
                 (A) (A) (A) (A) (A) (A) (A) (A) (A) (A) (A) (A)
                 (A) (A) (A) (A) (A) (A) (A) (A) (A) (A) (A) (A)
                 (A) (A) (A) (A) (A) (A) (A) (A) (A) (A) (A) (A)
                 (A) (A) (A) (A) (A) (A) (A) (A) (A) (A) (A) (A)
                 (A) (A) (A) (A) (A) (A) (A) (A) (A) (A) (A) (A)
                 (A) (A) (A) (A) (A) (A) (A) (A) (A) (A) (A) (A)
                 (A) (A) (A) (A) (A) (A) (A) (A) (A) (A) (A) (A)
                 (A) (A) (A) (A) (A) (A) (A) (A) (A) (A) (A) (A)
                 (A) (A) (A) (A) (A) (A) (A) (A) (A) (A) (A) (A)
 The electronic state is 1-A.
 Alpha  occ. eigenvalues --  -19.62584 -19.62572 -19.62422 -10.63205 -10.58897
 Alpha  occ. eigenvalues --  -10.57812 -10.57669 -10.57476 -10.53245 -10.53197
 Alpha  occ. eigenvalues --  -10.52872 -10.52807 -10.52660  -1.19724  -1.16487
 Alpha  occ. eigenvalues --   -1.13143  -0.90756  -0.89549  -0.87292  -0.84570
 Alpha  occ. eigenvalues --   -0.75190  -0.74751  -0.73108  -0.70975  -0.65235
 Alpha  occ. eigenvalues --   -0.61642  -0.61049  -0.58823  -0.57617  -0.55952
 Alpha  occ. eigenvalues --   -0.54325  -0.53685  -0.52420  -0.50852  -0.49416
 Alpha  occ. eigenvalues --   -0.48327  -0.46259  -0.45451  -0.45052  -0.44824
 Alpha  occ. eigenvalues --   -0.44088  -0.42341  -0.42000  -0.40369  -0.39549
 Alpha  occ. eigenvalues --   -0.38177  -0.37657  -0.35824  -0.34842  -0.33045
 Alpha  occ. eigenvalues --   -0.31213
 Alpha virt. eigenvalues --   -0.00174   0.00743   0.00814   0.01173   0.02215
 Alpha virt. eigenvalues --    0.02461   0.02585   0.03281   0.03696   0.04315
 Alpha virt. eigenvalues --    0.04400   0.04871   0.05461   0.05764   0.07085
 Alpha virt. eigenvalues --    0.07470   0.07818   0.07902   0.08756   0.09562
 Alpha virt. eigenvalues --    0.09826   0.10541   0.11004   0.11149   0.12067
 Alpha virt. eigenvalues --    0.12118   0.12709   0.13124   0.13292   0.13533
 Alpha virt. eigenvalues --    0.13750   0.14049   0.14388   0.14750   0.14815
 Alpha virt. eigenvalues --    0.15096   0.15277   0.15437   0.15680   0.15818
 Alpha virt. eigenvalues --    0.16541   0.16789   0.17395   0.17686   0.18007
 Alpha virt. eigenvalues --    0.18351   0.18475   0.18747   0.19330   0.19506
 Alpha virt. eigenvalues --    0.19886   0.20066   0.20235   0.20572   0.21034
 Alpha virt. eigenvalues --    0.21947   0.22665   0.22850   0.23320   0.24095
 Alpha virt. eigenvalues --    0.24664   0.24710   0.26129   0.26441   0.27032
 Alpha virt. eigenvalues --    0.28360   0.28622   0.28861   0.29077   0.29904
 Alpha virt. eigenvalues --    0.30254   0.30796   0.31301   0.31444   0.32149
 Alpha virt. eigenvalues --    0.32870   0.33123   0.33345   0.33786   0.34556
 Alpha virt. eigenvalues --    0.34914   0.35426   0.35593   0.35860   0.36211
 Alpha virt. eigenvalues --    0.36786   0.37425   0.37793   0.37913   0.38778
 Alpha virt. eigenvalues --    0.38988   0.39537   0.39907   0.40099   0.41295
 Alpha virt. eigenvalues --    0.42287   0.42974   0.44303   0.44494   0.45728
 Alpha virt. eigenvalues --    0.46498   0.47008   0.49238   0.50204   0.50592
 Alpha virt. eigenvalues --    0.51622   0.52456   0.53603   0.53906   0.55854
 Alpha virt. eigenvalues --    0.56576   0.57156   0.57310   0.59323   0.59484
 Alpha virt. eigenvalues --    0.60143   0.60531   0.61012   0.61230   0.61846
 Alpha virt. eigenvalues --    0.61970   0.62529   0.63047   0.63462   0.63928
 Alpha virt. eigenvalues --    0.64816   0.65067   0.66052   0.66478   0.67022
 Alpha virt. eigenvalues --    0.67755   0.68225   0.68773   0.69929   0.70636
 Alpha virt. eigenvalues --    0.71467   0.72007   0.72232   0.72789   0.73337
 Alpha virt. eigenvalues --    0.73913   0.74394   0.74684   0.75549   0.75755
 Alpha virt. eigenvalues --    0.76306   0.77185   0.77396   0.78093   0.78441
 Alpha virt. eigenvalues --    0.80186   0.81099   0.83710   0.85265   0.85481
 Alpha virt. eigenvalues --    0.86565   0.86890   0.88032   0.89237   0.89928
 Alpha virt. eigenvalues --    0.90653   0.91892   0.92760   0.95194   0.96588
 Alpha virt. eigenvalues --    0.97409   0.97736   0.99758   1.01505   1.02666
 Alpha virt. eigenvalues --    1.03332   1.04629   1.04983   1.05331   1.06916
 Alpha virt. eigenvalues --    1.08148   1.09244   1.11010   1.11122   1.11913
 Alpha virt. eigenvalues --    1.13760   1.14526   1.14985   1.16599   1.16968
 Alpha virt. eigenvalues --    1.18190   1.18818   1.19578   1.20307   1.20663
 Alpha virt. eigenvalues --    1.21267   1.22140   1.22613   1.23073   1.24266
 Alpha virt. eigenvalues --    1.25430   1.25762   1.26268   1.26870   1.27760
 Alpha virt. eigenvalues --    1.28252   1.29450   1.30357   1.30889   1.31682
 Alpha virt. eigenvalues --    1.32519   1.32763   1.33021   1.34452   1.35786
 Alpha virt. eigenvalues --    1.36248   1.36738   1.37631   1.37996   1.38654
 Alpha virt. eigenvalues --    1.39607   1.39836   1.40574   1.41649   1.42453
 Alpha virt. eigenvalues --    1.43357   1.43802   1.43965   1.44838   1.44948
 Alpha virt. eigenvalues --    1.46504   1.47235   1.47658   1.48009   1.48993
 Alpha virt. eigenvalues --    1.49445   1.50328   1.51255   1.51684   1.52316
 Alpha virt. eigenvalues --    1.53526   1.54382   1.54632   1.54915   1.55581
 Alpha virt. eigenvalues --    1.56256   1.57391   1.57828   1.58367   1.58688
 Alpha virt. eigenvalues --    1.59282   1.60158   1.60200   1.60638   1.62331
 Alpha virt. eigenvalues --    1.63958   1.64969   1.65422   1.65901   1.66609
 Alpha virt. eigenvalues --    1.68393   1.68518   1.69386   1.70609   1.72256
 Alpha virt. eigenvalues --    1.73089   1.73497   1.75148   1.76395   1.77110
 Alpha virt. eigenvalues --    1.78659   1.80097   1.81834   1.82971   1.83405
 Alpha virt. eigenvalues --    1.84190   1.87139   1.94060   1.97868   1.99276
 Alpha virt. eigenvalues --    2.00068   2.06252   2.11061   2.15085   2.20488
 Alpha virt. eigenvalues --    2.22681   2.25311   2.29689   2.35304   2.37255
 Alpha virt. eigenvalues --    2.42262   2.45638   2.45815   2.46648   2.53678
 Alpha virt. eigenvalues --    2.61300   2.76742   2.77098   2.80242   2.82422
 Alpha virt. eigenvalues --    2.83813   2.89242   2.92835   2.93775   2.94393
 Alpha virt. eigenvalues --    2.94658   2.96265   2.98238   3.03145   3.04367
 Alpha virt. eigenvalues --    3.06914   3.07705   3.08277   3.09758   3.10955
 Alpha virt. eigenvalues --    3.13387   3.15261   3.17137   3.20734   3.23704
 Alpha virt. eigenvalues --    3.25856   3.27338   3.31338   3.31472   3.34004
 Alpha virt. eigenvalues --    3.34857   3.36410   3.37394   3.38471   3.39546
 Alpha virt. eigenvalues --    3.41191   3.44036   3.44467   3.45450   3.46207
 Alpha virt. eigenvalues --    3.47052   3.48178   3.50028   3.51080   3.51464
 Alpha virt. eigenvalues --    3.52852   3.53482   3.54643   3.55524   3.55910
 Alpha virt. eigenvalues --    3.56747   3.57615   3.58271   3.59294   3.59762
 Alpha virt. eigenvalues --    3.61281   3.62426   3.63564   3.65238   3.65598
 Alpha virt. eigenvalues --    3.66755   3.67388   3.68637   3.68707   3.69924
 Alpha virt. eigenvalues --    3.70829   3.71652   3.72220   3.73365   3.73941
 Alpha virt. eigenvalues --    3.74850   3.76019   3.76784   3.77170   3.79778
 Alpha virt. eigenvalues --    3.82460   3.82749   3.83780   3.84403   3.86040
 Alpha virt. eigenvalues --    3.86733   3.88971   3.89342   3.90854   3.91455
 Alpha virt. eigenvalues --    3.93344   3.94252   3.95181   3.97721   3.98538
 Alpha virt. eigenvalues --    4.00398   4.01188   4.01937   4.03034   4.03680
 Alpha virt. eigenvalues --    4.04961   4.06511   4.07301   4.07382   4.07922
 Alpha virt. eigenvalues --    4.09176   4.09821   4.10807   4.11700   4.12103
 Alpha virt. eigenvalues --    4.12956   4.13374   4.13705   4.15196   4.15686
 Alpha virt. eigenvalues --    4.17080   4.17494   4.18359   4.19418   4.19707
 Alpha virt. eigenvalues --    4.21558   4.22862   4.24500   4.24849   4.27199
 Alpha virt. eigenvalues --    4.28335   4.29393   4.30790   4.31554   4.32885
 Alpha virt. eigenvalues --    4.33718   4.34390   4.35613   4.38673   4.39910
 Alpha virt. eigenvalues --    4.41108   4.42686   4.43770   4.47292   4.49273
 Alpha virt. eigenvalues --    4.58701   4.61070   4.71987   4.75283   4.83076
 Alpha virt. eigenvalues --    4.85269   4.93124   4.95384   5.00979   5.01682
 Alpha virt. eigenvalues --    5.04940   5.07020   5.07804   5.11705   5.13216
 Alpha virt. eigenvalues --    5.13871   5.15061   5.17323   5.33973   5.40760
 Alpha virt. eigenvalues --    5.41897   5.59039   5.61971   5.67901   5.85321
 Alpha virt. eigenvalues --    5.88785   6.02577   7.02116   7.04696   7.07125
 Alpha virt. eigenvalues --    7.08390   7.10579   7.12846   7.14805   7.19650
 Alpha virt. eigenvalues --    7.28559   7.35943   7.41470   7.48286   7.53233
 Alpha virt. eigenvalues --    7.53821   7.62970  23.96440  23.97124  24.05711
 Alpha virt. eigenvalues --   24.08410  24.11362  24.11899  24.12324  24.15520
 Alpha virt. eigenvalues --   24.19355  24.19959  50.16137  50.20161  50.29569
          Condensed to atoms (all electrons):
               1          2          3          4          5          6
     1  C   10.085185  -0.010792   0.050750  -1.469918  -1.801798  -0.191832
     2  C   -0.010792   5.489296   0.002140  -0.100502   0.018009   0.000255
     3  O    0.050750   0.002140   8.275842  -0.030455  -0.010874  -0.061106
     4  C   -1.469918  -0.100502  -0.030455   6.606633   0.579971  -0.021690
     5  C   -1.801798   0.018009  -0.010874   0.579971   6.840798   0.042076
     6  O   -0.191832   0.000255  -0.061106  -0.021690   0.042076   8.313390
     7  C    0.134458   0.010626  -0.029401  -0.088214  -0.167161  -0.054683
     8  C    0.206100   0.003765   0.013246  -0.015453  -0.053819  -0.045540
     9  C   -1.741341   0.050042   0.171261   0.302909   0.512054   0.410201
    10  C   -0.047407   0.000203  -0.081649  -0.000672   0.016241  -0.000898
    11  C    0.131415  -0.003401   0.104005  -0.010874  -0.017967  -0.012339
    12  C    0.170155  -0.090854   0.019204  -0.217579  -0.455078   0.006219
    13  O    0.091933   0.086684  -0.001705   0.077286  -0.079554   0.012980
    14  H    0.746215  -0.007736   0.008914  -0.128752  -0.105857  -0.085342
    15  H    0.088430   0.505980   0.000160  -0.062336  -0.047769  -0.000724
    16  H   -0.056758   0.433761   0.000348   0.031420   0.006267   0.001506
    17  H   -0.053199   0.012694   0.000226   0.405312   0.011779   0.004487
    18  H    0.014185   0.009401  -0.001070   0.432001  -0.020924  -0.003590
    19  H    0.095504  -0.039363  -0.003420  -0.060498   0.434157  -0.025684
    20  H   -0.069352  -0.011023  -0.020652   0.028547   0.443758   0.007609
    21  H    0.005972  -0.000424   0.010740  -0.006840  -0.000748   0.003190
    22  H    0.010768   0.000210  -0.004859  -0.000034   0.002407   0.006811
    23  H   -0.023354   0.000230   0.001773   0.010047   0.003546  -0.001979
    24  H    0.014651   0.000062  -0.004071  -0.002759  -0.004138   0.000020
    25  H    0.014379  -0.005650  -0.076663  -0.039663  -0.018734  -0.026475
    26  H    0.004956  -0.000042   0.008782   0.000663  -0.001484  -0.000039
    27  H   -0.005506   0.000040  -0.000371  -0.000456   0.001220   0.000465
    28  H    0.004087  -0.000297  -0.070977   0.000845   0.002586   0.001129
    29  H   -0.044811   0.001215  -0.026480   0.000691   0.012396   0.001323
    30  H   -0.073869  -0.075038   0.000384   0.008290   0.005106   0.002384
    31  H    0.013441  -0.020477   0.000045  -0.010268  -0.045358  -0.000281
               7          8          9         10         11         12
     1  C    0.134458   0.206100  -1.741341  -0.047407   0.131415   0.170155
     2  C    0.010626   0.003765   0.050042   0.000203  -0.003401  -0.090854
     3  O   -0.029401   0.013246   0.171261  -0.081649   0.104005   0.019204
     4  C   -0.088214  -0.015453   0.302909  -0.000672  -0.010874  -0.217579
     5  C   -0.167161  -0.053819   0.512054   0.016241  -0.017967  -0.455078
     6  O   -0.054683  -0.045540   0.410201  -0.000898  -0.012339   0.006219
     7  C    6.982918   0.000695  -0.980690  -0.288367   0.181850   0.053530
     8  C    0.000695   5.716589  -0.373946   0.008135  -0.023927  -0.001596
     9  C   -0.980690  -0.373946   7.627163   0.495734  -0.541339  -0.069313
    10  C   -0.288367   0.008135   0.495734   5.688864  -0.084543  -0.007782
    11  C    0.181850  -0.023927  -0.541339  -0.084543   5.559651   0.014584
    12  C    0.053530  -0.001596  -0.069313  -0.007782   0.014584   6.158931
    13  O    0.009022   0.000706  -0.024995   0.000003   0.000367   0.048768
    14  H   -0.012987   0.015943  -0.118012  -0.003374   0.011737  -0.020975
    15  H    0.000927   0.000246  -0.007482   0.000022  -0.000206  -0.075017
    16  H    0.001472   0.000037   0.006056  -0.000439   0.000915  -0.005601
    17  H   -0.018857  -0.004381   0.034888   0.004887  -0.003911  -0.003005
    18  H    0.003429   0.002405  -0.014434  -0.001515   0.001579  -0.025335
    19  H   -0.033069  -0.000545  -0.062853   0.003797   0.008877   0.000760
    20  H   -0.008487  -0.003555   0.030697  -0.002320  -0.000904  -0.020344
    21  H    0.436604  -0.043609  -0.040052  -0.008997   0.008930  -0.000240
    22  H    0.494829   0.002104  -0.131722  -0.025220   0.020510   0.001195
    23  H   -0.035637   0.518329  -0.022526  -0.066533  -0.000228  -0.000766
    24  H   -0.051414   0.426326   0.006283  -0.018919   0.009559   0.000358
    25  H   -0.048962  -0.022396   0.518588   0.023694  -0.036296   0.003392
    26  H   -0.007475  -0.050259   0.010297   0.446830  -0.040591  -0.000451
    27  H    0.002207  -0.017343  -0.010707   0.485371  -0.088318   0.000342
    28  H   -0.015002   0.012340  -0.001337  -0.030613   0.440014   0.001930
    29  H    0.051897  -0.016655  -0.014903  -0.070398   0.473646   0.002328
    30  H    0.000127  -0.000355   0.001027   0.000025   0.000692   0.503567
    31  H    0.000329  -0.000092   0.004459   0.000404  -0.001061   0.419707
              13         14         15         16         17         18
     1  C    0.091933   0.746215   0.088430  -0.056758  -0.053199   0.014185
     2  C    0.086684  -0.007736   0.505980   0.433761   0.012694   0.009401
     3  O   -0.001705   0.008914   0.000160   0.000348   0.000226  -0.001070
     4  C    0.077286  -0.128752  -0.062336   0.031420   0.405312   0.432001
     5  C   -0.079554  -0.105857  -0.047769   0.006267   0.011779  -0.020924
     6  O    0.012980  -0.085342  -0.000724   0.001506   0.004487  -0.003590
     7  C    0.009022  -0.012987   0.000927   0.001472  -0.018857   0.003429
     8  C    0.000706   0.015943   0.000246   0.000037  -0.004381   0.002405
     9  C   -0.024995  -0.118012  -0.007482   0.006056   0.034888  -0.014434
    10  C    0.000003  -0.003374   0.000022  -0.000439   0.004887  -0.001515
    11  C    0.000367   0.011737  -0.000206   0.000915  -0.003911   0.001579
    12  C    0.048768  -0.020975  -0.075017  -0.005601  -0.003005  -0.025335
    13  O    8.309308   0.000446  -0.066942  -0.076800  -0.059768  -0.052733
    14  H    0.000446   0.472017   0.002869  -0.000739  -0.003855   0.001244
    15  H   -0.066942   0.002869   0.522096  -0.026460  -0.003568   0.012229
    16  H   -0.076800  -0.000739  -0.026460   0.504429   0.001472  -0.004488
    17  H   -0.059768  -0.003855  -0.003568   0.001472   0.489680  -0.004830
    18  H   -0.052733   0.001244   0.012229  -0.004488  -0.004830   0.479244
    19  H   -0.009632   0.017764  -0.005674   0.009420   0.002599  -0.004274
    20  H    0.001781  -0.013859   0.001290  -0.002918  -0.000181   0.003126
    21  H   -0.000131   0.000165  -0.000032   0.000136  -0.001360   0.000180
    22  H   -0.000756   0.000906  -0.000015  -0.000021   0.000589  -0.000308
    23  H   -0.000062  -0.002061  -0.000041   0.000051  -0.000678   0.000009
    24  H    0.000033   0.000808   0.000021  -0.000005  -0.000150   0.000125
    25  H    0.004336  -0.009564   0.001583  -0.003736   0.001529   0.001030
    26  H   -0.000010   0.000287  -0.000004  -0.000004   0.000119   0.000007
    27  H    0.000067  -0.000329   0.000007  -0.000008  -0.000157  -0.000007
    28  H   -0.000074   0.000489  -0.000022   0.000058   0.000241  -0.000077
    29  H   -0.000067  -0.006973  -0.000037   0.000052  -0.000572  -0.000264
    30  H    0.002548  -0.002411  -0.019505   0.009806  -0.000495  -0.009668
    31  H    0.010847  -0.001258   0.005258  -0.011922   0.001120   0.000400
              19         20         21         22         23         24
     1  C    0.095504  -0.069352   0.005972   0.010768  -0.023354   0.014651
     2  C   -0.039363  -0.011023  -0.000424   0.000210   0.000230   0.000062
     3  O   -0.003420  -0.020652   0.010740  -0.004859   0.001773  -0.004071
     4  C   -0.060498   0.028547  -0.006840  -0.000034   0.010047  -0.002759
     5  C    0.434157   0.443758  -0.000748   0.002407   0.003546  -0.004138
     6  O   -0.025684   0.007609   0.003190   0.006811  -0.001979   0.000020
     7  C   -0.033069  -0.008487   0.436604   0.494829  -0.035637  -0.051414
     8  C   -0.000545  -0.003555  -0.043609   0.002104   0.518329   0.426326
     9  C   -0.062853   0.030697  -0.040052  -0.131722  -0.022526   0.006283
    10  C    0.003797  -0.002320  -0.008997  -0.025220  -0.066533  -0.018919
    11  C    0.008877  -0.000904   0.008930   0.020510  -0.000228   0.009559
    12  C    0.000760  -0.020344  -0.000240   0.001195  -0.000766   0.000358
    13  O   -0.009632   0.001781  -0.000131  -0.000756  -0.000062   0.000033
    14  H    0.017764  -0.013859   0.000165   0.000906  -0.002061   0.000808
    15  H   -0.005674   0.001290  -0.000032  -0.000015  -0.000041   0.000021
    16  H    0.009420  -0.002918   0.000136  -0.000021   0.000051  -0.000005
    17  H    0.002599  -0.000181  -0.001360   0.000589  -0.000678  -0.000150
    18  H   -0.004274   0.003126   0.000180  -0.000308   0.000009   0.000125
    19  H    0.491051  -0.026501   0.000650   0.001388  -0.000666  -0.000202
    20  H   -0.026501   0.478734   0.000067  -0.000875   0.000218  -0.000025
    21  H    0.000650   0.000067   0.489706  -0.004320  -0.002140  -0.009883
    22  H    0.001388  -0.000875  -0.004320   0.454326   0.001970  -0.002945
    23  H   -0.000666   0.000218  -0.002140   0.001970   0.460901  -0.006289
    24  H   -0.000202  -0.000025  -0.009883  -0.002945  -0.006289   0.466535
    25  H   -0.017732   0.007738  -0.009862  -0.018317  -0.003166   0.001234
    26  H    0.000416   0.000323   0.001321  -0.002353  -0.004765  -0.008010
    27  H   -0.000600  -0.000071  -0.001759  -0.001792   0.001968  -0.001042
    28  H    0.000723   0.000083   0.001155   0.000533  -0.002185   0.000849
    29  H   -0.001571  -0.003061  -0.000303  -0.000728  -0.000056  -0.001673
    30  H    0.005765  -0.004490   0.000083   0.000060   0.000073  -0.000030
    31  H   -0.003191  -0.010336  -0.000053  -0.000012  -0.000031   0.000003
              25         26         27         28         29         30
     1  C    0.014379   0.004956  -0.005506   0.004087  -0.044811  -0.073869
     2  C   -0.005650  -0.000042   0.000040  -0.000297   0.001215  -0.075038
     3  O   -0.076663   0.008782  -0.000371  -0.070977  -0.026480   0.000384
     4  C   -0.039663   0.000663  -0.000456   0.000845   0.000691   0.008290
     5  C   -0.018734  -0.001484   0.001220   0.002586   0.012396   0.005106
     6  O   -0.026475  -0.000039   0.000465   0.001129   0.001323   0.002384
     7  C   -0.048962  -0.007475   0.002207  -0.015002   0.051897   0.000127
     8  C   -0.022396  -0.050259  -0.017343   0.012340  -0.016655  -0.000355
     9  C    0.518588   0.010297  -0.010707  -0.001337  -0.014903   0.001027
    10  C    0.023694   0.446830   0.485371  -0.030613  -0.070398   0.000025
    11  C   -0.036296  -0.040591  -0.088318   0.440014   0.473646   0.000692
    12  C    0.003392  -0.000451   0.000342   0.001930   0.002328   0.503567
    13  O    0.004336  -0.000010   0.000067  -0.000074  -0.000067   0.002548
    14  H   -0.009564   0.000287  -0.000329   0.000489  -0.006973  -0.002411
    15  H    0.001583  -0.000004   0.000007  -0.000022  -0.000037  -0.019505
    16  H   -0.003736  -0.000004  -0.000008   0.000058   0.000052   0.009806
    17  H    0.001529   0.000119  -0.000157   0.000241  -0.000572  -0.000495
    18  H    0.001030   0.000007  -0.000007  -0.000077  -0.000264  -0.009668
    19  H   -0.017732   0.000416  -0.000600   0.000723  -0.001571   0.005765
    20  H    0.007738   0.000323  -0.000071   0.000083  -0.003061  -0.004490
    21  H   -0.009862   0.001321  -0.001759   0.001155  -0.000303   0.000083
    22  H   -0.018317  -0.002353  -0.001792   0.000533  -0.000728   0.000060
    23  H   -0.003166  -0.004765   0.001968  -0.002185  -0.000056   0.000073
    24  H    0.001234  -0.008010  -0.001042   0.000849  -0.001673  -0.000030
    25  H    0.473594   0.001336   0.001000  -0.001293   0.001751  -0.001120
    26  H    0.001336   0.487646  -0.012091  -0.008211  -0.001342   0.000009
    27  H    0.001000  -0.012091   0.485196  -0.006691   0.005702  -0.000014
    28  H   -0.001293  -0.008211  -0.006691   0.482642  -0.012393   0.000115
    29  H    0.001751  -0.001342   0.005702  -0.012393   0.498527   0.000209
    30  H   -0.001120   0.000009  -0.000014   0.000115   0.000209   0.473191
    31  H    0.002221  -0.000024   0.000036  -0.000140   0.000124  -0.013281
              31
     1  C    0.013441
     2  C   -0.020477
     3  O    0.000045
     4  C   -0.010268
     5  C   -0.045358
     6  O   -0.000281
     7  C    0.000329
     8  C   -0.000092
     9  C    0.004459
    10  C    0.000404
    11  C   -0.001061
    12  C    0.419707
    13  O    0.010847
    14  H   -0.001258
    15  H    0.005258
    16  H   -0.011922
    17  H    0.001120
    18  H    0.000400
    19  H   -0.003191
    20  H   -0.010336
    21  H   -0.000053
    22  H   -0.000012
    23  H   -0.000031
    24  H    0.000003
    25  H    0.002221
    26  H   -0.000024
    27  H    0.000036
    28  H   -0.000140
    29  H    0.000124
    30  H   -0.013281
    31  H    0.501696
 Mulliken charges:
               1
     1  C   -0.292646
     2  C   -0.259013
     3  O   -0.244068
     4  C   -0.217651
     5  C   -0.101107
     6  O   -0.281843
     7  C   -0.524513
     8  C   -0.253494
     9  C   -0.026008
    10  C   -0.434562
    11  C   -0.102427
    12  C   -0.411036
    13  O   -0.283885
    14  H    0.244279
    15  H    0.174715
    16  H    0.182692
    17  H    0.187344
    18  H    0.182923
    19  H    0.222603
    20  H    0.194983
    21  H    0.171853
    22  H    0.195670
    23  H    0.174048
    24  H    0.184689
    25  H    0.282222
    26  H    0.174162
    27  H    0.163640
    28  H    0.199492
    29  H    0.152429
    30  H    0.186815
    31  H    0.157694
 Sum of Mulliken charges =  -0.00000
 Mulliken charges with hydrogens summed into heavy atoms:
               1
     1  C   -0.048367
     2  C    0.098394
     3  O   -0.244068
     4  C    0.152617
     5  C    0.316479
     6  O   -0.281843
     7  C   -0.156991
     8  C    0.105243
     9  C    0.256214
    10  C   -0.096760
    11  C    0.249494
    12  C   -0.066527
    13  O   -0.283885
 Electronic spatial extent (au):  <R**2>=           2941.2962
 Charge=             -0.0000 electrons
 Dipole moment (field-independent basis, Debye):
    X=             -0.2688    Y=              0.9129    Z=              1.4878  Tot=              1.7662
 Quadrupole moment (field-independent basis, Debye-Ang):
   XX=            -70.4116   YY=            -80.3984   ZZ=            -80.8264
   XY=             -4.8902   XZ=             -2.5722   YZ=              0.5612
 Traceless Quadrupole moment (field-independent basis, Debye-Ang):
   XX=              6.8005   YY=             -3.1862   ZZ=             -3.6143
   XY=             -4.8902   XZ=             -2.5722   YZ=              0.5612
 Octapole moment (field-independent basis, Debye-Ang**2):
  XXX=             -3.5179  YYY=              2.0205  ZZZ=              0.4831  XYY=              6.0306
  XXY=             16.7301  XXZ=              6.8180  XZZ=             -6.0645  YZZ=              0.2801
  YYZ=              3.9619  XYZ=             11.3549
 Hexadecapole moment (field-independent basis, Debye-Ang**3):
 XXXX=          -2893.6185 YYYY=           -602.3809 ZZZZ=           -288.1122 XXXY=            -17.2460
 XXXZ=             -0.1539 YYYX=              8.7821 YYYZ=             -5.7424 ZZZX=              1.6047
 ZZZY=              1.7481 XXYY=           -608.2877 XXZZ=           -545.7138 YYZZ=           -158.2673
 XXYZ=            -14.9246 YYXZ=             -5.9139 ZZXY=             -2.4418
 N-N= 9.016513564951D+02 E-N=-3.245375404120D+03  KE= 6.153281812715D+02
 D1PCM: PCM CHGder 1st derivatives, ID1Alg=3 FixD1E=F DoIter=F DoCFld=F I1PDM=0.
 Calling FoFJK, ICntrl=      2127 FMM=F ISym2X=0 I1Cent= 0 IOpClX= 0 NMat=1 NMatS=1 NMatT=0.
 ***** Axes restored to original set *****
 -------------------------------------------------------------------
 Center     Atomic                   Forces (Hartrees/Bohr)
 Number     Number              X              Y              Z
 -------------------------------------------------------------------
      1        6          -0.000098350    0.002275036   -0.009199473
      2        6          -0.004130275   -0.001427603    0.004658532
      3        8           0.004357447   -0.006629368   -0.008611916
      4        6           0.003018558   -0.006455194   -0.001942586
      5        6           0.002378927    0.001302963    0.004510038
      6        8          -0.006519396    0.001326757    0.010153778
      7        6          -0.000214697   -0.000759970    0.002623084
      8        6           0.001908711   -0.002497543   -0.002309718
      9        6          -0.003414858    0.000757816    0.004562247
     10        6           0.001930525    0.000692209    0.001799703
     11        6          -0.001147047    0.006429166   -0.001227467
     12        6          -0.001039777    0.000890829   -0.001612920
     13        8          -0.003659882    0.005016515   -0.008073148
     14        1           0.000785104   -0.001864732    0.005569980
     15        1           0.004852065    0.000756881    0.002614861
     16        1           0.000346396   -0.001279299   -0.004550791
     17        1          -0.003796521    0.003593762   -0.000255006
     18        1           0.003570060    0.000331692    0.005249199
     19        1          -0.002445186    0.001578026   -0.004600979
     20        1          -0.001815232   -0.002224894    0.001028391
     21        1           0.001387500    0.002784084    0.001054065
     22        1          -0.001189017   -0.000534097   -0.003199554
     23        1           0.002011678   -0.000237561    0.003032286
     24        1          -0.001969460    0.001607665   -0.000483695
     25        1           0.005614387    0.000708033   -0.006506193
     26        1          -0.002154237   -0.000511775    0.001824804
     27        1          -0.000695246   -0.000097897   -0.003265646
     28        1          -0.001170228   -0.004028336   -0.001465806
     29        1           0.001753321    0.000690610    0.005973071
     30        1           0.000616140    0.000314126    0.003527808
     31        1           0.000928590   -0.002507903   -0.000876949
 -------------------------------------------------------------------
 Cartesian Forces:  Max     0.010153778 RMS     0.003477231

 GradGradGradGradGradGradGradGradGradGradGradGradGradGradGradGradGradGrad
 Berny optimization.
 FormGI is forming the generalized inverse of G from B-inverse, IUseBI=4.
 Internal  Forces:  Max     0.018385637 RMS     0.002327346
 Search for a local minimum.
 Step number   1 out of a maximum of  186
 All quantities printed in internal units (Hartrees-Bohrs-Radians)
 Mixed Optimization -- RFO/linear search
 Second derivative matrix not updated -- first step.
 ITU=  0
     Eigenvalues ---    0.00378   0.00616   0.00623   0.00720   0.01413
     Eigenvalues ---    0.01414   0.01729   0.02702   0.02721   0.03080
     Eigenvalues ---    0.03298   0.03938   0.04086   0.04533   0.04746
     Eigenvalues ---    0.04747   0.04892   0.04909   0.05051   0.05141
     Eigenvalues ---    0.05288   0.05626   0.05690   0.05948   0.06172
     Eigenvalues ---    0.06194   0.06507   0.07052   0.07580   0.07612
     Eigenvalues ---    0.07812   0.07847   0.07958   0.08044   0.08241
     Eigenvalues ---    0.08826   0.09193   0.10244   0.11224   0.11599
     Eigenvalues ---    0.11730   0.11766   0.11774   0.12398   0.12725
     Eigenvalues ---    0.14671   0.15085   0.16469   0.18155   0.19098
     Eigenvalues ---    0.19946   0.21956   0.22634   0.25000   0.26800
     Eigenvalues ---    0.27660   0.28505   0.28615   0.28838   0.28937
     Eigenvalues ---    0.28958   0.30260   0.35089   0.35190   0.35197
     Eigenvalues ---    0.35235   0.35236   0.35238   0.35268   0.35311
     Eigenvalues ---    0.35414   0.35439   0.35463   0.35492   0.35770
     Eigenvalues ---    0.35777   0.35789   0.35838   0.35958   0.36116
     Eigenvalues ---    0.40331   0.40919   0.41608   0.41635   0.43336
     Eigenvalues ---    0.460931000.000001000.000001000.000001000.00000
     Eigenvalues --- 1000.000001000.000001000.000001000.000001000.00000
     Eigenvalues --- 1000.000001000.000001000.000001000.000001000.00000
     Eigenvalues --- 1000.000001000.000001000.000001000.000001000.00000
     Eigenvalues --- 1000.000001000.000001000.000001000.000001000.00000
     Eigenvalues --- 1000.000001000.000001000.000001000.000001000.00000
     Eigenvalues --- 1000.000001000.000001000.000001000.000001000.00000
     Eigenvalues --- 1000.000001000.000001000.000001000.000001000.00000
     Eigenvalues --- 1000.000001000.000001000.000001000.000001000.00000
     Eigenvalues --- 1000.000001000.000001000.000001000.000001000.00000
     Eigenvalues --- 1000.000001000.000001000.000001000.000001000.00000
     Eigenvalues --- 1000.000001000.000001000.000001000.000001000.00000
     Eigenvalues --- 1000.000001000.000001000.000001000.000001000.00000
     Eigenvalues --- 1000.000001000.000001000.000001000.000001000.00000
     Eigenvalues --- 1000.000001000.000001000.000001000.000001000.00000
     Eigenvalues --- 1000.000001000.000001000.000001000.000001000.00000
     Eigenvalues --- 1000.000001000.000001000.000001000.000001000.00000
     Eigenvalues --- 1000.000001000.000001000.000001000.000001000.00000
     Eigenvalues --- 1000.000001000.000001000.000001000.000001000.00000
     Eigenvalues --- 1000.000001000.000001000.000001000.000001000.00000
 RFO step:  Lambda=-4.55362427D-03 EMin= 3.78029362D-03
 Linear search not attempted -- first point.
 Iteration  1 RMS(Cart)=  0.08666382 RMS(Int)=  0.00134792
 Iteration  2 RMS(Cart)=  0.00404452 RMS(Int)=  0.00007925
 Iteration  3 RMS(Cart)=  0.00000467 RMS(Int)=  0.00007920
 Iteration  4 RMS(Cart)=  0.00000000 RMS(Int)=  0.00007920
 Iteration  1 RMS(Cart)=  0.00004062 RMS(Int)=  0.00000934
 Iteration  2 RMS(Cart)=  0.00002259 RMS(Int)=  0.00001043
 Iteration  3 RMS(Cart)=  0.00001256 RMS(Int)=  0.00001181
 Iteration  4 RMS(Cart)=  0.00000698 RMS(Int)=  0.00001274
 Iteration  5 RMS(Cart)=  0.00000388 RMS(Int)=  0.00001329
 Iteration  6 RMS(Cart)=  0.00000216 RMS(Int)=  0.00001361
 Iteration  7 RMS(Cart)=  0.00000120 RMS(Int)=  0.00001379
 Iteration  8 RMS(Cart)=  0.00000067 RMS(Int)=  0.00001390
 Variable       Old X    -DE/DX   Delta X   Delta X   Delta X     New X
                                 (Linear)    (Quad)   (Total)
    R1        2.90822   0.00045   0.00000   0.00241   0.00249   2.91071
    R2        2.89450  -0.00192   0.00000  -0.00675  -0.00666   2.88783
    R3        2.69426  -0.00107   0.00000  -0.00255  -0.00255   2.69171
    R4        2.04431   0.00587   0.00000   0.01620   0.01620   2.06051
    R5        2.89715   0.00077   0.00000   0.00259   0.00251   2.89966
    R6        2.68119   0.00343   0.00000   0.00899   0.00891   2.69009
    R7        2.05242   0.00547   0.00000   0.01530   0.01530   2.06772
    R8        2.04413   0.00472   0.00000   0.01302   0.01302   2.05715
    R9        2.65433   0.00365   0.00000   0.00767   0.00769   2.66202
   R10        2.68538   0.00280   0.00000   0.00645   0.00646   2.69184
   R11        2.66606   0.00334   0.00000   0.00760   0.00757   2.67363
   R12        2.04147   0.00505   0.00000   0.01388   0.01388   2.05534
   R13        2.05290   0.00629   0.00000   0.01762   0.01762   2.07052
   R14        2.88915  -0.00011   0.00000  -0.00241  -0.00240   2.88675
   R15        2.04442   0.00519   0.00000   0.01434   0.01434   2.05876
   R16        2.04884   0.00296   0.00000   0.00824   0.00824   2.05708
   R17        2.64027   0.00251   0.00000   0.00540   0.00540   2.64567
   R18        2.89004  -0.00145   0.00000  -0.00473  -0.00474   2.88530
   R19        2.87761  -0.00066   0.00000  -0.00269  -0.00271   2.87490
   R20        2.04968   0.00325   0.00000   0.00907   0.00907   2.05875
   R21        2.05356   0.00340   0.00000   0.00953   0.00953   2.06309
   R22        2.88861  -0.00070   0.00000  -0.00172  -0.00175   2.88686
   R23        2.05367   0.00343   0.00000   0.00963   0.00963   2.06330
   R24        2.05173   0.00259   0.00000   0.00723   0.00723   2.05896
   R25        2.03901   0.00860   0.00000   0.02350   0.02350   2.06251
   R26        2.87174   0.00023   0.00000   0.00124   0.00126   2.87300
   R27        2.05293   0.00284   0.00000   0.00797   0.00797   2.06090
   R28        2.05531   0.00326   0.00000   0.00919   0.00919   2.06450
   R29        2.04335   0.00444   0.00000   0.01223   0.01223   2.05558
   R30        2.05008   0.00617   0.00000   0.01719   0.01719   2.06727
   R31        2.05294   0.00354   0.00000   0.00992   0.00992   2.06287
   R32        2.04929   0.00279   0.00000   0.00777   0.00777   2.05706
    A1        1.91153   0.00123   0.00000  -0.01009  -0.01042   1.90111
    A2        1.93621   0.00036   0.00000  -0.00364  -0.00424   1.93197
    A3        1.88177   0.00074   0.00000   0.01581   0.01582   1.89759
    A4        2.02268  -0.00220   0.00000  -0.02545  -0.02562   1.99706
    A5        1.89918  -0.00125   0.00000   0.00695   0.00714   1.90632
    A6        1.80488   0.00124   0.00000   0.02162   0.02170   1.82658
    A7        1.94632   0.00172   0.00000   0.00368   0.00350   1.94983
    A8        1.94002  -0.00097   0.00000  -0.00540  -0.00543   1.93459
    A9        1.93410  -0.00093   0.00000  -0.00543  -0.00534   1.92876
   A10        1.90564   0.00043   0.00000   0.00724   0.00736   1.91300
   A11        1.84310  -0.00082   0.00000  -0.00200  -0.00199   1.84111
   A12        1.89139   0.00059   0.00000   0.00226   0.00222   1.89361
   A13        2.02289  -0.00572   0.00000  -0.03601  -0.03589   1.98700
   A14        1.95446   0.00002   0.00000  -0.00009  -0.00024   1.95422
   A15        1.92514  -0.00136   0.00000  -0.01773  -0.01776   1.90738
   A16        1.91999  -0.00040   0.00000   0.00317   0.00314   1.92312
   A17        1.86757  -0.00045   0.00000  -0.00407  -0.00418   1.86338
   A18        1.90570   0.00168   0.00000   0.01571   0.01572   1.92142
   A19        1.88919   0.00056   0.00000   0.00321   0.00320   1.89238
   A20        1.88627  -0.00106   0.00000  -0.00380  -0.00386   1.88241
   A21        1.94161  -0.00040   0.00000  -0.01143  -0.01140   1.93021
   A22        1.92176  -0.00017   0.00000  -0.00192  -0.00190   1.91986
   A23        1.89940   0.00136   0.00000   0.00651   0.00651   1.90590
   A24        1.94023   0.00039   0.00000   0.00887   0.00884   1.94907
   A25        1.87501  -0.00009   0.00000   0.00190   0.00181   1.87682
   A26        2.12189  -0.01839   0.00000  -0.07223  -0.07223   2.04966
   A27        1.95502  -0.00181   0.00000  -0.01600  -0.01611   1.93891
   A28        1.94715  -0.00017   0.00000  -0.00076  -0.00087   1.94628
   A29        1.90891   0.00116   0.00000   0.00705   0.00713   1.91604
   A30        1.90067   0.00073   0.00000  -0.00069  -0.00068   1.89999
   A31        1.87293   0.00017   0.00000   0.00430   0.00429   1.87723
   A32        1.87603  -0.00001   0.00000   0.00724   0.00721   1.88324
   A33        1.91297   0.00188   0.00000  -0.00120  -0.00121   1.91176
   A34        1.92255  -0.00097   0.00000  -0.00636  -0.00635   1.91620
   A35        1.91639  -0.00053   0.00000   0.00154   0.00153   1.91792
   A36        1.91435  -0.00082   0.00000  -0.00171  -0.00180   1.91254
   A37        1.93058  -0.00027   0.00000   0.00179   0.00186   1.93244
   A38        1.86663   0.00065   0.00000   0.00601   0.00602   1.87265
   A39        1.94312   0.00060   0.00000   0.00099   0.00114   1.94427
   A40        1.93561   0.00347   0.00000   0.01453   0.01437   1.94998
   A41        1.83840  -0.00247   0.00000  -0.01274  -0.01278   1.82562
   A42        1.89538  -0.00326   0.00000  -0.01485  -0.01478   1.88060
   A43        1.92766   0.00139   0.00000   0.00678   0.00677   1.93443
   A44        1.92363   0.00041   0.00000   0.00599   0.00605   1.92968
   A45        1.92276  -0.00099   0.00000  -0.00457  -0.00476   1.91800
   A46        1.93971  -0.00052   0.00000  -0.00221  -0.00218   1.93753
   A47        1.91591   0.00087   0.00000   0.00140   0.00148   1.91739
   A48        1.90343   0.00059   0.00000   0.00333   0.00337   1.90681
   A49        1.90545   0.00008   0.00000  -0.00107  -0.00100   1.90446
   A50        1.87569   0.00000   0.00000   0.00333   0.00330   1.87899
   A51        1.94542   0.00231   0.00000   0.00623   0.00621   1.95163
   A52        1.84226  -0.00131   0.00000  -0.00220  -0.00222   1.84004
   A53        1.90941   0.00015   0.00000   0.00142   0.00146   1.91087
   A54        1.94546  -0.00023   0.00000  -0.00185  -0.00180   1.94367
   A55        1.93176  -0.00166   0.00000  -0.00753  -0.00758   1.92418
   A56        1.88654   0.00075   0.00000   0.00427   0.00426   1.89080
   A57        1.91066  -0.00028   0.00000  -0.00995  -0.01000   1.90066
   A58        1.92896   0.00059   0.00000   0.00385   0.00384   1.93280
   A59        1.90883  -0.00016   0.00000   0.00356   0.00357   1.91239
   A60        1.91503  -0.00057   0.00000  -0.00244  -0.00248   1.91255
   A61        1.93407   0.00041   0.00000   0.00272   0.00280   1.93687
   A62        1.86604   0.00003   0.00000   0.00269   0.00267   1.86871
   A63        1.97669  -0.00452   0.00000  -0.02897  -0.02897   1.94772
    D1        0.40458   0.00141   0.00000   0.01932   0.01935   0.42393
    D2        2.48241  -0.00005   0.00000   0.00231   0.00234   2.48475
    D3       -1.71798  -0.00046   0.00000  -0.00282  -0.00281  -1.72079
    D4       -1.84996   0.00308   0.00000   0.06357   0.06363  -1.78633
    D5        0.22788   0.00162   0.00000   0.04656   0.04662   0.27449
    D6        2.31067   0.00120   0.00000   0.04143   0.04147   2.35214
[...]
 4190,0.00033241,0.00053097,-0.00019228,0.00069396,-0.00044634,0.000124
 66,0.00016811,0.00010302,-0.00007021,0.00000255,0.00000170,-0.00001721
 ,-0.00001773,-0.00006917,-0.00008077,-0.00007350,-0.00008253,-0.000120
 55,0.00007212,-0.00016152,0.00068434,0.00071690,0.00013980,-0.00014911
 ,0.00025449,0.00031028,-0.00002821,-0.00001169,0.00021274,-0.00040462,
 0.00065252,-0.00017115,0.00000999,0.00014215,-0.00020022,0.00003182,0.
 00005735,-0.13004614,-0.03679743,0.20063380,0.00036289,-0.00006795,0.0
 0011393,0.00003437,-0.00000568,-0.00001722,-0.00715134,0.00275468,0.00
 089298,0.00000906,0.00004459,-0.00001907,-0.00010806,-0.00002370,0.000
 07568,-0.00051301,-0.00019277,-0.00056188,0.00106001,-0.00140865,-0.00
 108402,-0.00500718,-0.00233098,0.00368762,0.00138247,0.00205198,0.0006
 2647,-0.16983883,-0.05802457,0.11695854,-0.01495303,-0.01212867,0.0179
 8411,0.00000917,0.00000759,-0.00003604,-0.00007973,-0.00001421,0.00002
 246,-0.00005069,0.00000955,-0.00003666,-0.00001375,-0.00000709,0.00000
 143,-0.00000394,0.00000213,0.00000666,0.00000680,0.00000787,0.00000710
 ,-0.00003343,-0.00001412,-0.00000123,0.00005785,-0.00001243,-0.0000813
 6,0.00000753,-0.00001071,0.00001107,-0.00017940,-0.00000183,0.00041198
 ,-0.00008292,-0.00002321,0.00023032,0.00007315,0.00017356,-0.00006491,
 0.00040571,-0.00014578,-0.00026851,-0.00005329,-0.00018649,-0.00001053
 ,0.18337569,0.00004041,-0.00000583,-0.00003253,0.00000659,-0.00000937,
 0.00000328,0.00647113,-0.00074705,-0.00094968,0.00000311,0.00000040,-0
 .00001274,0.00003045,-0.00000010,-0.00005018,-0.00010501,0.00035925,0.
 00018075,-0.00082603,-0.00637493,-0.00295684,-0.02219460,-0.00963861,0
 .02195047,0.00039061,-0.00214396,-0.00033922,-0.05845593,-0.07560778,0
 .05862033,0.01023337,0.00787987,-0.01380001,-0.00000141,0.00001900,0.0
 0003184,-0.00000523,0.00000880,0.00000756,-0.00002403,0.00001018,-0.00
 000689,0.00000003,0.00000300,-0.00000213,-0.00000059,0.00000116,-0.000
 00036,0.00000724,0.00000430,0.00000235,-0.00000602,-0.00000154,0.00000
 140,-0.00001735,-0.00000642,0.00003494,-0.00000448,0.00001099,-0.00001
 556,-0.00183254,-0.00048903,0.00114178,0.00031364,0.00009053,-0.000074
 93,0.00034967,0.00145481,-0.00030624,0.00082137,0.00118912,0.00037500,
 -0.00003444,0.00036916,0.00000467,0.06488081,0.08293042,-0.00010599,0.
 00000925,-0.00002899,-0.00000699,0.00000026,0.00000458,0.00030834,0.00
 026029,0.00162009,-0.00000199,-0.00000816,0.00000827,0.00003138,-0.000
 00449,-0.00001418,0.00017247,0.00006689,0.00011766,-0.00029201,-0.0013
 8680,0.00057805,-0.00694769,-0.00300600,0.00513717,-0.00035464,-0.0003
 6636,-0.00028739,0.11928946,0.05885773,-0.16440113,-0.00257076,-0.0007
 3145,-0.00028366,-0.00000398,0.00000094,0.00000352,0.00001817,0.000002
 37,-0.00000733,0.00001379,-0.00000352,0.00001028,0.00000363,0.00000269
 ,-0.00000058,0.00000109,-0.00000059,-0.00000180,-0.00000018,-0.0000024
 3,-0.00000155,0.00000881,0.00000327,0.00000046,-0.00000544,-0.00000040
 ,0.00002026,-0.00000047,0.00000935,-0.00000671,-0.00005524,-0.00024160
 ,0.00033036,-0.00022274,-0.00014441,0.00031671,0.00000388,0.00064662,0
 .00065604,0.00018338,0.00060251,0.00002118,0.00001504,0.00001222,-0.00
 005808,-0.12995286,-0.06302107,0.17426025,0.00011906,-0.00001148,0.000
 04907,0.00000337,-0.00000005,-0.00000515,0.00287279,-0.00081138,0.0006
 1677,-0.00000542,0.00000804,-0.00001273,0.00000737,0.00001747,-0.00002
 221,-0.00001389,-0.00015051,0.00018689,0.00000841,0.00031138,-0.000686
 04,-0.00338483,-0.00055419,-0.00669021,-0.00028951,-0.00004794,-0.0002
 1096,-0.08930229,-0.00721264,-0.09178509,-0.01329931,0.00037488,-0.027
 22174,0.00000534,-0.00000092,0.00001904,-0.00001334,-0.00000112,0.0000
 0983,0.00000508,0.00000855,-0.00001047,-0.00000257,-0.00000223,0.00000
 063,-0.00000137,0.00000046,0.00000161,0.00000047,0.00000225,0.00000022
 ,-0.00000921,-0.00000410,-0.00000071,0.00000411,-0.00000505,0.00000669
 ,0.00000565,-0.00002284,0.00000139,0.00009372,0.00000072,0.00015635,-0
 .00016693,-0.00022126,0.00018756,0.00053659,-0.00132409,-0.00030947,0.
 00042629,-0.00003593,0.00044920,-0.00004339,-0.00001836,-0.00000601,0.
 00976816,0.00170138,0.01989680,0.09530273,-0.00009977,0.00000090,0.000
 04158,0.00000159,-0.00000165,0.00000314,-0.00180074,0.00079554,-0.0012
 0578,-0.00000064,0.00000337,0.00000470,-0.00002924,-0.00001705,0.00000
 773,0.00007287,0.00030514,0.00001522,0.00080737,0.00154799,-0.00078359
 ,-0.01329723,-0.00383877,-0.03119948,-0.00005100,-0.00054614,-0.000042
 55,-0.00670956,-0.04760621,-0.01311413,0.00912122,-0.00094055,0.021793
 75,-0.00000311,0.00001237,-0.00000553,0.00000560,0.00000024,-0.0000018
 8,0.00000266,-0.00000889,0.00000815,0.00000173,0.00000207,-0.00000085,
 0.00000018,-0.00000002,-0.00000097,0.00000102,-0.00000216,0.00000065,0
 .00000442,0.00000011,0.00000009,-0.00000612,-0.00000008,-0.00000322,-0
 .00000398,0.00002239,-0.00000728,0.00040996,0.00002585,0.00025949,-0.0
 0006197,-0.00002162,0.00071221,-0.00208189,-0.00594002,-0.00096994,0.0
 0067456,0.00142176,0.00039023,-0.00005451,0.00011689,0.00000723,0.0048
 4174,-0.00019077,0.00903981,0.00512381,0.05578594,0.00020900,-0.000056
 79,0.00006510,0.00001630,-0.00000593,-0.00000589,-0.00072399,-0.000882
 21,0.00165527,-0.00000070,0.00002104,-0.00001610,-0.00002061,-0.000006
 61,0.00001095,-0.00032424,-0.00005343,-0.00013193,0.00041122,0.0004664
 9,0.00071689,-0.00213484,-0.00143083,-0.00710480,0.00010564,0.00025530
 ,0.00011617,-0.09382938,-0.01233118,-0.26656755,0.00045826,0.00076113,
 -0.00257266,0.00000232,0.00001182,-0.00000106,-0.00003497,-0.00000212,
 0.00001590,-0.00002179,0.00001073,-0.00002029,-0.00000531,-0.00000151,
 -0.00000036,-0.00000199,0.00000145,0.00000267,0.00000495,0.00000359,0.
 00000256,-0.00001568,-0.00000736,-0.00000017,0.00000903,-0.00000723,-0
 .00001407,0.00000183,-0.00000216,-0.00000140,0.00001773,-0.00011530,0.
 00022846,-0.00047130,-0.00007492,0.00032830,-0.00002864,-0.00155231,0.
 00116656,0.00022939,-0.00023762,0.00036799,-0.00009942,-0.00000950,-0.
 00003676,-0.00821475,-0.00101876,-0.01831785,0.10463991,0.01529191,0.2
 8823130,0.00058018,-0.00009459,0.00016006,0.00004582,-0.00002375,-0.00
 001651,-0.01275822,-0.03138446,-0.00226281,0.00001342,0.00004567,-0.00
 001339,-0.00007153,-0.00004623,0.00003801,-0.00038255,-0.00025393,-0.0
 0045526,-0.00052166,-0.00042568,0.00006062,-0.00536625,0.00236023,-0.0
 0075257,-0.00228488,0.00168915,0.00399169,0.00766033,0.02726751,0.0084
 5972,-0.05730780,-0.04319455,-0.01695900,0.00000838,0.00002791,-0.0000
 0476,-0.00011074,-0.00000095,0.00002640,-0.00006155,0.00002476,-0.0000
 4225,-0.00001642,-0.00000203,-0.00000077,-0.00000498,0.00000376,0.0000
 0723,0.00001101,0.00001813,0.00000661,-0.00004370,-0.00001380,-0.00000
 197,0.00003826,-0.00002934,-0.00004222,0.00003043,0.00002029,-0.000012
 56,0.00029157,-0.00009835,-0.00009315,0.00007863,-0.00000545,-0.000062
 70,-0.00002141,-0.00011626,0.00012280,0.00041500,0.00187782,0.00022775
 ,-0.00038367,-0.00130547,-0.00006849,0.00077065,-0.00114849,0.00017657
 ,0.00116223,-0.00089133,-0.00020163,0.06977759,0.00042576,-0.00008102,
 0.00009019,0.00003556,-0.00001335,-0.00001737,-0.00869721,-0.01355910,
 0.00091473,0.00001351,0.00004368,-0.00001659,-0.00009352,0.00000593,0.
 00003845,-0.00030472,0.00007210,-0.00059128,-0.00001578,0.00036252,-0.
 00028322,0.00420756,-0.00030874,0.00059778,-0.00000389,0.00327257,0.00
 279785,-0.00309343,-0.01607300,-0.00639583,-0.04894176,-0.28306789,-0.
 07656348,0.00000540,0.00000848,-0.00000924,-0.00008725,-0.00000688,0.0
 0002188,-0.00006271,0.00001486,-0.00003690,-0.00001388,-0.00000485,0.0
 0000049,-0.00000527,0.00000289,0.00000646,0.00000963,0.00001169,0.0000
 0811,-0.00003461,-0.00001395,-0.00000161,0.00004704,-0.00002120,-0.000
 05375,-0.00002961,-0.00004008,0.00000819,-0.00001027,-0.00008503,-0.00
 002355,-0.00001424,-0.00001333,0.00006202,-0.00003047,0.00013426,-0.00
 007740,-0.00042367,-0.00116099,-0.00015926,-0.00025227,-0.00066194,-0.
 00012150,0.00031124,0.00021430,-0.00018025,-0.00044422,0.00073661,0.00
 047587,0.05699125,0.30804665,0.00007352,-0.00008495,0.00010270,-0.0000
 0379,0.00000655,0.00000538,0.01205956,0.02890586,0.00455042,-0.0000705
 4,0.00001048,-0.00007018,-0.00003430,-0.00001488,-0.00003425,-0.000379
 45,-0.00051424,0.00159312,0.00032439,0.00006910,-0.00013003,0.00021891
 ,0.00007267,0.00092653,0.00200551,-0.00035032,-0.00458671,-0.00103748,
 0.00332005,0.00071716,-0.02160659,-0.08587552,-0.07794945,0.00000027,0
 .00000875,0.00001773,0.00003087,-0.00000210,0.00002249,0.00003366,0.00
 000929,-0.00000245,0.00000457,-0.00000269,-0.00000062,0.00000029,-0.00
 000046,-0.00000062,-0.00000546,0.00000236,-0.00000487,-0.00001370,-0.0
 0000943,0.00000464,-0.00002085,0.00002245,0.00001775,0.00001440,-0.000
 00632,-0.00000096,-0.00015257,0.00004984,0.00007425,0.00000185,-0.0000
 0686,0.00001722,0.00006559,0.00039948,0.00021046,-0.00003449,-0.000191
 14,0.00026579,0.00035278,0.00106804,0.00008098,0.00009340,-0.00015550,
 0.00005291,0.00069603,0.00019345,0.00052175,0.01242979,0.08034775,0.08
 069672,0.00016487,-0.00020100,0.00008728,0.00002283,-0.00000867,0.0000
 0487,0.00352636,-0.00530816,0.03300789,-0.00003010,0.00000025,-0.00002
 203,0.00003721,-0.00007650,0.00014420,-0.00179798,-0.00102695,-0.00058
 210,-0.00021478,-0.00017732,-0.00000251,0.00077155,-0.00135376,0.00006
 389,0.00189327,0.00231109,0.00133311,-0.01170380,0.00060664,-0.0262877
 2,-0.08834923,0.00207973,-0.09677090,-0.00001051,0.00005681,-0.0000341
 8,-0.00000680,0.00000897,-0.00001048,0.00002791,0.00009026,-0.00012909
 ,-0.00000073,0.00000582,-0.00000587,0.00000091,0.00000305,-0.00000122,
 0.00001839,0.00000891,0.00000057,-0.00000973,-0.00000839,-0.00000051,0
 .00003991,-0.00002469,-0.00000172,0.00010366,0.00006945,-0.00005743,0.
 00015873,-0.00006745,-0.00007498,-0.00006621,-0.00002392,0.00003983,0.
 00025043,0.00048739,0.00039558,0.00003114,-0.00014362,0.00032314,-0.00
 014636,-0.00007296,-0.00024289,0.00079327,-0.00060293,0.00038631,-0.00
 378518,0.00402101,0.00003790,-0.00150567,0.00055163,-0.00504988,0.0997
 9445,-0.00046670,0.00009031,-0.00002070,-0.00003106,0.00001857,-0.0000
 0029,-0.00132970,-0.00020188,0.01534603,0.00004900,-0.00004323,0.00004
 603,0.00002518,0.00006702,0.00000543,-0.00050036,-0.00026991,-0.000581
 17,-0.00010629,-0.00035501,0.00004725,-0.00025279,0.00134526,0.0011117
 4,0.00121056,0.00086330,0.00247304,0.00950301,-0.00017009,0.01845471,0
 .00177891,-0.05485540,-0.00262480,-0.00000291,-0.00005010,-0.00002761,
 0.00005533,-0.00000004,-0.00005263,0.00001940,-0.00000653,-0.00000513,
 0.00000398,-0.00000035,0.00000251,0.00000369,-0.00000319,-0.00000272,-
 0.00000254,-0.00001474,-0.00000231,0.00003570,0.00001566,-0.00000083,0
 .00004195,0.00000103,-0.00001288,-0.00003779,-0.00003057,0.00002839,0.
 00000371,-0.00005427,-0.00001712,-0.00002949,0.00006313,-0.00007980,-0
 .00012026,-0.00006810,-0.00037755,-0.00011012,0.00013692,-0.00029800,-
 0.00007977,-0.00009607,-0.00024101,-0.00049090,0.00067074,-0.00041564,
 0.00331864,-0.00166250,0.00049522,-0.01129520,0.00218071,-0.02726929,-
 0.00120425,0.05242842,0.00031425,0.00002309,0.00021621,-0.00002011,0.0
 0001066,-0.00000235,0.00878312,0.00963498,-0.02865937,-0.00008257,-0.0
 0002442,-0.00009801,0.00009439,0.00005442,-0.00017325,-0.00086721,-0.0
 0108251,0.00328660,0.00033961,0.00046166,0.00031094,0.00051609,0.00010
 049,0.00043452,-0.00264420,-0.00503998,-0.00346332,-0.00191416,-0.0011
 2856,-0.00001636,-0.09279322,0.00269504,-0.26237627,0.00000692,-0.0000
 0196,0.00011151,0.00004365,0.00001180,0.00001938,0.00014965,0.00008845
 ,-0.00011016,0.00000307,-0.00000491,0.00000019,-0.00000017,0.,0.000000
 18,-0.00000126,0.00000698,-0.00000791,-0.00002249,-0.00000947,0.000002
 86,-0.00010003,-0.00001975,0.00008342,0.00008002,-0.00008661,-0.000020
 75,-0.00012865,0.00019459,0.00004819,0.00001168,-0.00006641,0.00001040
 ,-0.00000936,0.00060651,-0.00007969,-0.00001066,0.00007450,0.00013068,
 0.00021742,0.00036515,0.00015692,-0.00077071,0.00038583,0.00027021,0.0
 0004372,-0.00043518,0.00136201,-0.00471368,-0.00083501,-0.00709994,0.0
 9345007,-0.00597895,0.29566273,0.00074691,-0.00068922,-0.00178497,0.00
 128182,-0.00005257,0.01523752,-0.00069113,0.00021062,0.00010960,0.0000
 7087,-0.00001539,-0.00025427,-0.01226165,-0.00002397,-0.03394649,0.000
 57176,-0.00016444,0.00038531,-0.00000707,-0.00005273,0.00014938,-0.000
 03637,0.00002664,-0.00003214,0.00007475,-0.00040861,-0.00044952,-0.000
 03698,-0.00002372,0.00006009,0.00013819,0.00017524,-0.00019503,-0.0713
 7032,-0.00063381,-0.07649292,0.00029891,-0.00005431,-0.00000137,-0.000
 24459,0.00022328,0.00064167,0.00099715,0.00049244,0.00023842,-0.000339
 76,-0.00268549,0.00176088,0.00002128,-0.00002648,0.00013403,0.00024497
 ,0.00025873,-0.00003568,-0.00644240,0.00059902,0.00073291,0.00106898,-
 0.00047729,0.00044738,-0.00000851,0.00002311,0.00000142,0.00001299,-0.
 00000854,-0.00000079,0.00000007,-0.00000125,0.00000733,-0.00001936,0.0
 0000093,0.00001323,-0.00008382,-0.00007400,0.00016464,-0.00002961,0.00
 001335,0.00000643,0.00000116,0.00000146,-0.00000513,-0.00001635,-0.000
 01919,0.00000728,-0.00000497,-0.00000809,0.00003203,0.08261405,0.00094
 342,-0.00013385,0.00093996,0.00698568,0.00141497,0.02570079,-0.0000728
 0,-0.00006455,-0.00002955,0.00015328,-0.00032807,0.00056857,0.00076982
 ,-0.00039777,0.00088573,-0.00039497,0.00015622,-0.00022010,-0.00000620
 ,-0.00000502,-0.00002676,0.00000237,0.00000323,-0.00000479,0.00013248,
 0.00004239,0.00021076,0.00000028,-0.00000058,0.00000443,0.00002968,0.0
 0001212,-0.00001891,-0.00203780,-0.05068950,-0.00993700,-0.00024890,-0
 .00115119,-0.00001522,-0.00006119,0.00013249,-0.00018319,0.00065359,0.
 00128892,-0.00063687,-0.00135513,-0.00279326,0.00228957,-0.00003150,0.
 00009783,-0.00011604,0.00012322,-0.00079441,-0.00023597,0.00025080,0.0
 0073987,0.00042103,0.00007556,-0.00002292,-0.00020061,-0.00000089,-0.0
 0000096,-0.00000075,-0.00001426,0.00000678,-0.00000389,0.00000184,-0.0
 0000073,-0.00000228,-0.00000507,0.00000036,0.00000081,0.00001083,-0.00
 000498,-0.00002439,-0.00000382,0.00000004,0.00000117,-0.00000093,0.000
 00031,-0.00000147,-0.00000489,-0.00000327,-0.00000134,0.00000097,0.000
 00324,0.00000144,0.00369127,0.05292804,0.00047870,-0.00078196,0.000877
 00,-0.00311290,-0.00254382,-0.01535555,-0.00020764,-0.00004542,-0.0000
 1340,-0.00009828,-0.00076727,-0.00139028,-0.00122302,0.00024243,0.0002
 8565,-0.00040909,0.00019449,0.00016044,0.00001050,0.00000504,0.0000123
 8,0.00000209,0.00000589,-0.00000671,0.00028433,-0.00010986,0.00008248,
 -0.00000663,-0.00000700,0.00001283,0.00007055,0.00004599,-0.00005728,-
 0.07510312,-0.00745206,-0.28521075,-0.00034777,0.00182186,0.00050626,-
 0.00044815,0.00058858,0.00001106,0.00006324,-0.00002835,0.00145220,0.0
 0106680,0.00287634,-0.00032631,0.00007311,0.00010794,0.00028310,0.0004
 2338,-0.00017598,0.00035986,0.00018813,-0.00033342,0.00125048,-0.00056
 861,0.00001847,0.00021290,-0.00000476,0.00000473,0.00000071,-0.0000078
 2,0.00000124,-0.00000436,0.00000129,-0.00000130,-0.00000176,-0.0000078
 2,0.00000157,0.00000075,-0.00001461,-0.00001071,-0.00000527,-0.0000094
 3,0.00000253,0.00000286,-0.00000145,0.00000125,-0.00000291,-0.00000844
 ,-0.00000830,0.00000101,-0.00000160,0.00000082,0.00000237,0.08266578,0
 .00711606,0.30933339,-0.00533865,-0.00234866,-0.00285443,0.00390135,-0
 .00963062,-0.00548172,-0.00020145,-0.00034782,-0.00013279,-0.00086683,
 -0.00058467,0.00026067,-0.01077480,0.02970073,0.01558119,-0.00233952,0
 .00257254,0.00070547,-0.00003645,-0.00008081,-0.00012513,0.00000840,0.
 00003362,-0.00002347,0.00072670,0.00021652,0.00119808,0.00000094,0.000
 00366,0.00001901,0.00014731,0.00005221,-0.00006622,-0.07379203,0.07426
 567,0.03451675,0.00050188,-0.00205029,0.00064526,0.00007596,-0.0000533
 5,0.00025639,-0.00109662,0.00036792,0.00004132,0.00122662,0.00013807,-
 0.00015957,0.00009040,0.00005520,-0.00007649,0.00026095,0.00002710,0.0
 0000441,0.00140897,-0.00021226,-0.00047721,0.00168005,-0.00057639,0.00
 026421,0.00000263,-0.00001040,0.00000461,-0.00008148,0.00003178,-0.000
 02781,0.00001347,-0.00000661,-0.00001957,-0.00003381,-0.00000006,0.000
 00279,0.00000547,-0.00004292,-0.00008308,-0.00001855,-0.00000410,0.000
 00544,-0.00000528,-0.00000014,-0.00000912,-0.00002610,-0.00002062,-0.0
 0000356,-0.00000284,0.00001917,-0.00000720,0.00344902,-0.00958673,-0.0
 0374674,0.08111429,-0.00096699,0.00095764,0.00027667,0.00902266,-0.017
 94788,-0.01072526,0.00015289,0.00005237,0.00002611,-0.00092768,0.00073
 093,0.00126880,-0.00089359,0.00152013,0.00132759,-0.00007358,0.0001172
 9,0.00013415,0.00000776,0.00002186,0.00000386,0.00000213,-0.00001085,0
 .00000935,-0.00014346,-0.00003587,-0.00014562,0.00000341,0.00000258,-0
 .00001057,-0.00005702,-0.00002884,0.00004081,0.07589404,-0.24713980,-0
 .09487288,-0.00045556,-0.00529592,0.00184362,0.00009982,0.00002930,-0.
 00003341,-0.00099545,-0.00061938,0.00060951,0.00067411,0.00148711,0.00
 013234,0.00008739,-0.00004626,-0.00005185,0.00007478,0.00000200,-0.000
 07734,0.00027749,-0.00004893,0.00003442,0.00041359,0.00057682,0.000075
 98,-0.00000029,-0.00000191,-0.00000167,0.00001356,-0.00000570,0.000003
 80,-0.00000194,0.00000175,0.00000158,0.00000986,-0.00000050,-0.0000033
 4,-0.00000945,0.00001324,-0.00002161,0.00000779,-0.00000068,-0.0000022
 2,0.00000164,-0.00000106,0.00000270,0.00000826,0.00000737,-0.00000106,
 -0.00000143,-0.00000234,-0.00000188,-0.00029701,-0.00043573,-0.0007697
 7,-0.08192774,0.26610126,0.00002668,0.00012661,0.00069722,-0.00692160,
 0.01469296,0.00573837,0.00009645,0.00002766,0.00002294,0.00041002,-0.0
 0037346,-0.00133177,-0.00076400,0.00221290,0.00003476,0.00014527,-0.00
 012246,0.00022821,0.00001533,0.00002441,0.00004330,-0.00000333,-0.0000
 0558,0.00000589,-0.00005084,-0.00008062,-0.00017772,0.00000296,0.00000
 072,-0.00000773,-0.00003752,-0.00002438,0.00002630,0.03625719,-0.09702
 901,-0.09284499,-0.00005792,0.00541155,-0.00138901,-0.00018577,0.00020
 140,0.00020254,0.00075453,0.00005079,0.00023132,-0.00074252,0.00024967
 ,0.00111724,-0.00000615,0.00001345,0.00024878,0.00023197,0.00004820,0.
 00033161,0.00038222,0.00022068,0.00030767,0.00021010,-0.00009216,0.000
 00747,-0.00000128,-0.00000075,-0.00000149,0.00001870,-0.00001027,0.000
 00382,-0.00000227,0.00000132,0.00000118,0.00000611,-0.00000060,-0.0000
 0252,0.00001287,0.00000924,0.00001482,0.00000541,-0.00000007,-0.000001
 60,0.00000056,-0.00000020,0.00000194,0.00000491,0.00000479,0.00000107,
 0.00000047,-0.00000276,-0.00000192,0.01040295,-0.02648120,-0.01247317,
 -0.04021147,0.10092717,0.09896544\\-0.00152105,-0.00354612,0.00324492,
 0.00003439,-0.00002723,0.00000325,-0.00001221,0.00000911,-0.00003158,-
 0.00002330,-0.00000757,0.00002789,0.00074382,0.00155146,-0.00199630,0.
 00173469,0.00470682,-0.00191365,0.00002455,0.00000364,0.00000881,-0.00
 000515,0.00000052,0.00000701,-0.00093860,-0.00270742,0.00066237,-0.000
 00096,-0.00000463,0.00000352,-0.00001740,-0.00002533,0.00003110,-0.000
 00687,0.00000064,-0.00000354,-0.00000114,0.00002685,-0.00000782,-0.000
 00661,0.00000126,-0.00000247,-0.00001043,-0.00000013,-0.00000285,-0.00
 000888,0.00000177,0.00000161,0.00000684,-0.00000095,-0.00000142,-0.000
 00144,-0.00000156,-0.00000348,0.00000168,0.00000446,-0.00000310,-0.000
 00286,0.00000340,-0.00000513,-0.00000977,0.00000163,-0.00000091,0.0000
 0250,-0.00000312,-0.00000265,-0.00000003,-0.00000215,-0.00000054,0.000
 00364,0.00000030,-0.00000010,0.00000166,0.00000019,0.00001032,-0.00000
 243,0.00000513,-0.00000792,0.00000329,0.00000084,-0.00000477,0.0000040
 2,0.00000308,-0.00000252,0.00000080,0.00000260,-0.00001341,0.00000256,
 -0.00000041,0.00000116,0.00000470,0.00000291,0.00000218\\\@


 SUCCESS IS COUNTED SWEETEST
 BY THOSE WHO NE'ER SUCCEED.
 TO COMPREHEND NECTAR
 REQUIRES SOREST NEED.
           EMILY DICKINSON
 Job cpu time:       0 days 13 hours 57 minutes 56.6 seconds.
 Elapsed time:       0 days  0 hours 52 minutes 23.8 seconds.
 File lengths (MBytes):  RWF=    686 Int=      0 D2E=      0 Chk=     33 Scr=      1
 Normal termination of Gaussian 16 at Sun Nov  4 22:53:00 2018.
