 Entering Gaussian System, Link 0=g16
 Initial command:
 /apps/gaussian/g16a03/g16/l1.exe "/jobfs/local/2012020.r-man2/Gau-16782.inp" -scrdir="/jobfs/local/2012020.r-man2/"
 Entering Link 1 = /apps/gaussian/g16a03/g16/l1.exe PID=     16783.
  
 Copyright (c) 1988,1990,1992,1993,1995,1998,2003,2009,2016,
            Gaussian, Inc.  All Rights Reserved.
  
 This is part of the Gaussian(R) 16 program.  It is based on
 the Gaussian(R) 09 system (copyright 2009, Gaussian, Inc.),
 the Gaussian(R) 03 system (copyright 2003, Gaussian, Inc.),
 the Gaussian(R) 98 system (copyright 1998, Gaussian, Inc.),
 the Gaussian(R) 94 system (copyright 1995, Gaussian, Inc.),
 the Gaussian 92(TM) system (copyright 1992, Gaussian, Inc.),
 the Gaussian 90(TM) system (copyright 1990, Gaussian, Inc.),
 the Gaussian 88(TM) system (copyright 1988, Gaussian, Inc.),
 the Gaussian 86(TM) system (copyright 1986, Carnegie Mellon
 University), and the Gaussian 82(TM) system (copyright 1983,
 Carnegie Mellon University). Gaussian is a federally registered
 trademark of Gaussian, Inc.
  
 This software contains proprietary and confidential information,
 including trade secrets, belonging to Gaussian, Inc.
  
 This software is provided under written license and may be
 used, copied, transmitted, or stored only in accord with that
 written license.
  
 The following legend is applicable only to US Government
 contracts under FAR:
  
                    RESTRICTED RIGHTS LEGEND
  
 Use, reproduction and disclosure by the US Government is
 subject to restrictions as set forth in subparagraphs (a)
 and (c) of the Commercial Computer Software - Restricted
 Rights clause in FAR 52.227-19.
  
 Gaussian, Inc.
 340 Quinnipiac St., Bldg. 40, Wallingford CT 06492
  
  
 ---------------------------------------------------------------
 Warning -- This program may not be used in any manner that
 competes with the business of Gaussian, Inc. or will provide
 assistance to any competitor of Gaussian, Inc.  The licensee
 of this program is prohibited from giving any competitor of
 Gaussian, Inc. access to this program.  By using this program,
 the user acknowledges that Gaussian, Inc. is engaged in the
 business of creating and licensing software in the field of
 computational chemistry and represents and warrants to the
 licensee that it is not a competitor of Gaussian, Inc. and that
 it will not use this program in any manner prohibited above.
 ---------------------------------------------------------------
  

 Cite this work as:
 Gaussian 16, Revision A.03,
 M. J. Frisch, G. W. Trucks, H. B. Schlegel, G. E. Scuseria, 
 M. A. Robb, J. R. Cheeseman, G. Scalmani, V. Barone, 
 G. A. Petersson, H. Nakatsuji, X. Li, M. Caricato, A. V. Marenich, 
 J. Bloino, B. G. Janesko, R. Gomperts, B. Mennucci, H. P. Hratchian, 
 J. V. Ortiz, A. F. Izmaylov, J. L. Sonnenberg, D. Williams-Young, 
 F. Ding, F. Lipparini, F. Egidi, J. Goings, B. Peng, A. Petrone, 
 T. Henderson, D. Ranasinghe, V. G. Zakrzewski, J. Gao, N. Rega, 
 G. Zheng, W. Liang, M. Hada, M. Ehara, K. Toyota, R. Fukuda, 
 J. Hasegawa, M. Ishida, T. Nakajima, Y. Honda, O. Kitao, H. Nakai, 
 T. Vreven, K. Throssell, J. A. Montgomery, Jr., J. E. Peralta, 
 F. Ogliaro, M. J. Bearpark, J. J. Heyd, E. N. Brothers, K. N. Kudin, 
 V. N. Staroverov, T. A. Keith, R. Kobayashi, J. Normand, 
 K. Raghavachari, A. P. Rendell, J. C. Burant, S. S. Iyengar, 
 J. Tomasi, M. Cossi, J. M. Millam, M. Klene, C. Adamo, R. Cammi, 
 J. W. Ochterski, R. L. Martin, K. Morokuma, O. Farkas, 
 J. B. Foresman, and D. J. Fox, Gaussian, Inc., Wallingford CT, 2016.
 
 ******************************************
 Gaussian 16:  ES64L-G16RevA.03 25-Dec-2016
                 4-Nov-2018 
 ******************************************
 %mem=6000mb
 %nproc=24
 Will use up to   24 processors via shared memory.
 %chk=D_a1-4_2SO_PSI.inp_extract_19.chk
 ----------------------------------------------------------------------
 #M062X/6-311++G(2d,2p) opt=ModRedundant freq=noraman SCRF=(Solvent=Wat
 er)
 ----------------------------------------------------------------------
 1/18=120,19=15,26=3,38=1/1,3;
 2/9=110,12=2,17=6,18=5,40=1/2;
 3/5=4,6=6,7=1212,11=2,25=1,30=1,70=2201,71=1,72=1,74=-55/1,2,3;
 4//1;
 5/5=2,38=5,53=1/2;
 6/7=2,8=2,9=2,10=2,28=1/1;
 7//1,2,3,16;
 1/18=20,19=15,26=3/3(2);
 2/9=110/2;
 99//99;
 2/9=110/2;
 3/5=4,6=6,7=1212,11=2,25=1,30=1,70=2205,71=1,72=1,74=-55/1,2,3;
 4/5=5,16=3,69=1/1;
 5/5=2,38=5,53=1/2;
 7//1,2,3,16;
 1/18=20,19=15,26=3/3(-5);
 2/9=110/2;
 6/7=2,8=2,9=2,10=2,19=2,28=1/1;
 99/9=1/99;
 -----------------------------
 D_a1-4_2SO_PSI.inp_extract_19
 -----------------------------
 Symbolic Z-matrix:
 Charge =  0 Multiplicity = 1
 C                     0.99897  -0.0743    0.68637 
 C                     3.75127   0.10895  -0.38708 
 O                    -1.56589  -1.1575   -0.53111 
 C                     2.02772   1.03495   0.93062 
 C                     1.56333  -1.09712  -0.30791 
 O                    -0.24744   0.53466   0.34098 
 C                    -2.13361   1.1556   -0.93486 
 C                    -3.17362   1.10384   0.18521 
 C                    -1.0303    0.12513  -0.73815 
 C                    -3.66914  -0.33152   0.36239 
 C                    -2.4918   -1.27567   0.54034 
 C                     3.06739  -1.22328  -0.06267 
 O                     2.87404   1.20718  -0.18437 
 H                     0.8254   -0.5778    1.631 
 H                     4.64274   0.24903   0.21702 
 H                     4.03541   0.15005  -1.43007 
 H                     1.52973   1.97761   1.10355 
 H                     2.62761   0.80161   1.80498 
 H                     1.41298  -0.77134  -1.3297 
 H                     1.06924  -2.05303  -0.19185 
 H                    -1.68562   2.13991  -1.01769 
 H                    -2.61379   0.93526  -1.8845 
 H                    -2.73932   1.45846   1.11597 
 H                    -4.0008    1.7664   -0.05072 
 H                    -0.43617   0.04013  -1.63258 
 H                    -4.32491  -0.41509   1.22445 
 H                    -4.24004  -0.63441  -0.5124 
 H                    -2.80947  -2.30924   0.53726 
 H                    -1.98304  -1.08186   1.47891 
 H                     3.2505   -1.50555   0.97009 
 H                     3.49247  -2.00438  -0.68329 
 
 The following ModRedundant input section has been read:
 D       5       1       6       9 F                                           
 

 GradGradGradGradGradGradGradGradGradGradGradGradGradGradGradGradGradGrad
 Berny optimization.
 Initialization pass.
                           ----------------------------
                           !    Initial Parameters    !
                           ! (Angstroms and Degrees)  !
 --------------------------                            --------------------------
 ! Name  Definition              Value          Derivative Info.                !
 --------------------------------------------------------------------------------
 ! R1    R(1,4)                  1.5325         estimate D2E/DX2                !
 ! R2    R(1,5)                  1.534          estimate D2E/DX2                !
 ! R3    R(1,6)                  1.4296         estimate D2E/DX2                !
 ! R4    R(1,14)                 1.0844         estimate D2E/DX2                !
 ! R5    R(2,12)                 1.5322         estimate D2E/DX2                !
 ! R6    R(2,13)                 1.4201         estimate D2E/DX2                !
 ! R7    R(2,15)                 1.0859         estimate D2E/DX2                !
 ! R8    R(2,16)                 1.0818         estimate D2E/DX2                !
 ! R9    R(3,9)                  1.4053         estimate D2E/DX2                !
 ! R10   R(3,11)                 1.421          estimate D2E/DX2                !
 ! R11   R(4,13)                 1.4104         estimate D2E/DX2                !
 ! R12   R(4,17)                 1.0801         estimate D2E/DX2                !
 ! R13   R(4,18)                 1.0857         estimate D2E/DX2                !
 ! R14   R(5,12)                 1.5291         estimate D2E/DX2                !
 ! R15   R(5,19)                 1.0829         estimate D2E/DX2                !
 ! R16   R(5,20)                 1.0823         estimate D2E/DX2                !
 ! R17   R(6,9)                  1.3947         estimate D2E/DX2                !
 ! R18   R(7,8)                  1.5293         estimate D2E/DX2                !
 ! R19   R(7,9)                  1.5225         estimate D2E/DX2                !
 ! R20   R(7,21)                 1.0846         estimate D2E/DX2                !
 ! R21   R(7,22)                 1.0867         estimate D2E/DX2                !
 ! R22   R(8,10)                 1.5288         estimate D2E/DX2                !
 ! R23   R(8,23)                 1.0866         estimate D2E/DX2                !
 ! R24   R(8,24)                 1.0858         estimate D2E/DX2                !
 ! R25   R(9,25)                 1.0771         estimate D2E/DX2                !
 ! R26   R(10,11)                1.5196         estimate D2E/DX2                !
 ! R27   R(10,26)                1.0864         estimate D2E/DX2                !
 ! R28   R(10,27)                1.0876         estimate D2E/DX2                !
 ! R29   R(11,28)                1.0813         estimate D2E/DX2                !
 ! R30   R(11,29)                1.085          estimate D2E/DX2                !
 ! R31   R(12,30)                1.0862         estimate D2E/DX2                !
 ! R32   R(12,31)                1.0844         estimate D2E/DX2                !
 ! A1    A(4,1,5)              109.813          estimate D2E/DX2                !
 ! A2    A(4,1,6)              108.3894         estimate D2E/DX2                !
 ! A3    A(4,1,14)             107.7398         estimate D2E/DX2                !
 ! A4    A(5,1,6)              116.6271         estimate D2E/DX2                !
 ! A5    A(5,1,14)             108.2948         estimate D2E/DX2                !
 ! A6    A(6,1,14)             105.5862         estimate D2E/DX2                !
 ! A7    A(12,2,13)            111.4981         estimate D2E/DX2                !
 ! A8    A(12,2,15)            111.148          estimate D2E/DX2                !
 ! A9    A(12,2,16)            110.7567         estimate D2E/DX2                !
 ! A10   A(13,2,15)            109.143          estimate D2E/DX2                !
 ! A11   A(13,2,16)            105.693          estimate D2E/DX2                !
 ! A12   A(15,2,16)            108.41           estimate D2E/DX2                !
 ! A13   A(9,3,11)             115.8053         estimate D2E/DX2                !
 ! A14   A(1,4,13)             111.4215         estimate D2E/DX2                !
 ! A15   A(1,4,17)             110.3498         estimate D2E/DX2                !
 ! A16   A(1,4,18)             110.103          estimate D2E/DX2                !
 ! A17   A(13,4,17)            107.2581         estimate D2E/DX2                !
 ! A18   A(13,4,18)            109.3506         estimate D2E/DX2                !
 ! A19   A(17,4,18)            108.2637         estimate D2E/DX2                !
 ! A20   A(1,5,12)             108.2356         estimate D2E/DX2                !
 ! A21   A(1,5,19)             111.0936         estimate D2E/DX2                !
 ! A22   A(1,5,20)             110.5754         estimate D2E/DX2                !
 ! A23   A(12,5,19)            108.222          estimate D2E/DX2                !
 ! A24   A(12,5,20)            111.0363         estimate D2E/DX2                !
 ! A25   A(19,5,20)            107.6674         estimate D2E/DX2                !
 ! A26   A(1,6,9)              123.4538         estimate D2E/DX2                !
 ! A27   A(8,7,9)              112.0416         estimate D2E/DX2                !
 ! A28   A(8,7,21)             111.5632         estimate D2E/DX2                !
 ! A29   A(8,7,22)             109.4301         estimate D2E/DX2                !
 ! A30   A(9,7,21)             108.9528         estimate D2E/DX2                !
 ! A31   A(9,7,22)             107.2112         estimate D2E/DX2                !
 ! A32   A(21,7,22)            107.4445         estimate D2E/DX2                !
 ! A33   A(7,8,10)             109.6988         estimate D2E/DX2                !
 ! A34   A(7,8,23)             110.1518         estimate D2E/DX2                !
 ! A35   A(7,8,24)             109.7731         estimate D2E/DX2                !
 ! A36   A(10,8,23)            109.6749         estimate D2E/DX2                !
 ! A37   A(10,8,24)            110.5596         estimate D2E/DX2                !
 ! A38   A(23,8,24)            106.9465         estimate D2E/DX2                !
 ! A39   A(3,9,6)              111.5892         estimate D2E/DX2                !
 ! A40   A(3,9,7)              111.1378         estimate D2E/DX2                !
 ! A41   A(3,9,25)             105.1015         estimate D2E/DX2                !
 ! A42   A(6,9,7)              107.9393         estimate D2E/DX2                !
 ! A43   A(6,9,25)             110.8586         estimate D2E/DX2                !
 ! A44   A(7,9,25)             110.2334         estimate D2E/DX2                !
 ! A45   A(8,10,11)            110.2303         estimate D2E/DX2                !
 ! A46   A(8,10,26)            111.0909         estimate D2E/DX2                !
 ! A47   A(8,10,27)            109.7785         estimate D2E/DX2                !
 ! A48   A(11,10,26)           109.0846         estimate D2E/DX2                !
 ! A49   A(11,10,27)           109.1377         estimate D2E/DX2                !
 ! A50   A(26,10,27)           107.4557         estimate D2E/DX2                !
 ! A51   A(3,11,10)            111.3988         estimate D2E/DX2                !
 ! A52   A(3,11,28)            105.5907         estimate D2E/DX2                !
 ! A53   A(3,11,29)            109.3813         estimate D2E/DX2                !
 ! A54   A(10,11,28)           111.4654         estimate D2E/DX2                !
 ! A55   A(10,11,29)           110.7069         estimate D2E/DX2                !
 ! A56   A(28,11,29)           108.1174         estimate D2E/DX2                !
 ! A57   A(2,12,5)             109.4699         estimate D2E/DX2                !
 ! A58   A(2,12,30)            110.6104         estimate D2E/DX2                !
 ! A59   A(2,12,31)            109.2775         estimate D2E/DX2                !
 ! A60   A(5,12,30)            109.8614         estimate D2E/DX2                !
 ! A61   A(5,12,31)            110.6835         estimate D2E/DX2                !
 ! A62   A(30,12,31)           106.9114         estimate D2E/DX2                !
 ! A63   A(2,13,4)             112.8972         estimate D2E/DX2                !
 ! D1    D(5,1,4,13)            27.6856         estimate D2E/DX2                !
 ! D2    D(5,1,4,17)           146.7256         estimate D2E/DX2                !
 ! D3    D(5,1,4,18)           -93.8227         estimate D2E/DX2                !
 ! D4    D(6,1,4,13)          -100.7615         estimate D2E/DX2                !
 ! D5    D(6,1,4,17)            18.2785         estimate D2E/DX2                !
 ! D6    D(6,1,4,18)           137.7301         estimate D2E/DX2                !
 ! D7    D(14,1,4,13)          145.4328         estimate D2E/DX2                !
 ! D8    D(14,1,4,17)          -95.5272         estimate D2E/DX2                !
 ! D9    D(14,1,4,18)           23.9244         estimate D2E/DX2                !
 ! D10   D(4,1,5,12)            34.9721         estimate D2E/DX2                !
 ! D11   D(4,1,5,19)           -83.7113         estimate D2E/DX2                !
 ! D12   D(4,1,5,20)           156.8001         estimate D2E/DX2                !
 ! D13   D(6,1,5,12)           158.7333         estimate D2E/DX2                !
 ! D14   D(6,1,5,19)            40.05           estimate D2E/DX2                !
 ! D15   D(6,1,5,20)           -79.4387         estimate D2E/DX2                !
 ! D16   D(14,1,5,12)          -82.4293         estimate D2E/DX2                !
 ! D17   D(14,1,5,19)          158.8873         estimate D2E/DX2                !
 ! D18   D(14,1,5,20)           39.3986         estimate D2E/DX2                !
 ! D19   D(4,1,6,9)            132.8842         estimate D2E/DX2                !
 ! D20   D(5,1,6,9)              8.3955         Frozen                          !
 ! D21   D(14,1,6,9)          -111.8964         estimate D2E/DX2                !
 ! D22   D(13,2,12,5)           28.5373         estimate D2E/DX2                !
 ! D23   D(13,2,12,30)         -92.6575         estimate D2E/DX2                !
 ! D24   D(13,2,12,31)         149.905          estimate D2E/DX2                !
 ! D25   D(15,2,12,5)          150.5602         estimate D2E/DX2                !
 ! D26   D(15,2,12,30)          29.3654         estimate D2E/DX2                !
 ! D27   D(15,2,12,31)         -88.0721         estimate D2E/DX2                !
 ! D28   D(16,2,12,5)          -88.8603         estimate D2E/DX2                !
 ! D29   D(16,2,12,30)         149.9449         estimate D2E/DX2                !
 ! D30   D(16,2,12,31)          32.5074         estimate D2E/DX2                !
 ! D31   D(12,2,13,4)           37.0612         estimate D2E/DX2                !
 ! D32   D(15,2,13,4)          -86.1119         estimate D2E/DX2                !
 ! D33   D(16,2,13,4)          157.4794         estimate D2E/DX2                !
 ! D34   D(11,3,9,6)            65.0273         estimate D2E/DX2                !
 ! D35   D(11,3,9,7)           -55.5124         estimate D2E/DX2                !
 ! D36   D(11,3,9,25)         -174.7471         estimate D2E/DX2                !
 ! D37   D(9,3,11,10)           57.7018         estimate D2E/DX2                !
 ! D38   D(9,3,11,28)          178.8593         estimate D2E/DX2                !
 ! D39   D(9,3,11,29)          -65.0115         estimate D2E/DX2                !
 ! D40   D(1,4,13,2)           -68.8122         estimate D2E/DX2                !
 ! D41   D(17,4,13,2)          170.3206         estimate D2E/DX2                !
 ! D42   D(18,4,13,2)           53.1325         estimate D2E/DX2                !
 ! D43   D(1,5,12,2)           -64.7067         estimate D2E/DX2                !
 ! D44   D(1,5,12,30)           56.9401         estimate D2E/DX2                !
 ! D45   D(1,5,12,31)          174.7784         estimate D2E/DX2                !
 ! D46   D(19,5,12,2)           55.7836         estimate D2E/DX2                !
 ! D47   D(19,5,12,30)         177.4304         estimate D2E/DX2                !
 ! D48   D(19,5,12,31)         -64.7313         estimate D2E/DX2                !
 ! D49   D(20,5,12,2)          173.7491         estimate D2E/DX2                !
 ! D50   D(20,5,12,30)         -64.6041         estimate D2E/DX2                !
 ! D51   D(20,5,12,31)          53.2342         estimate D2E/DX2                !
 ! D52   D(1,6,9,3)             67.6561         estimate D2E/DX2                !
 ! D53   D(1,6,9,7)           -169.9493         estimate D2E/DX2                !
 ! D54   D(1,6,9,25)           -49.1272         estimate D2E/DX2                !
 ! D55   D(9,7,8,10)           -51.5986         estimate D2E/DX2                !
 ! D56   D(9,7,8,23)            69.2198         estimate D2E/DX2                !
 ! D57   D(9,7,8,24)          -173.2729         estimate D2E/DX2                !
 ! D58   D(21,7,8,10)         -174.0625         estimate D2E/DX2                !
 ! D59   D(21,7,8,23)          -53.2441         estimate D2E/DX2                !
 ! D60   D(21,7,8,24)           64.2632         estimate D2E/DX2                !
 ! D61   D(22,7,8,10)           67.1732         estimate D2E/DX2                !
 ! D62   D(22,7,8,23)         -172.0085         estimate D2E/DX2                !
 ! D63   D(22,7,8,24)          -54.5012         estimate D2E/DX2                !
 ! D64   D(8,7,9,3)             51.9133         estimate D2E/DX2                !
 ! D65   D(8,7,9,6)            -70.7581         estimate D2E/DX2                !
 ! D66   D(8,7,9,25)           168.03           estimate D2E/DX2                !
 ! D67   D(21,7,9,3)           175.8497         estimate D2E/DX2                !
 ! D68   D(21,7,9,6)            53.1782         estimate D2E/DX2                !
 ! D69   D(21,7,9,25)          -68.0336         estimate D2E/DX2                !
 ! D70   D(22,7,9,3)           -68.1612         estimate D2E/DX2                !
 ! D71   D(22,7,9,6)           169.1674         estimate D2E/DX2                !
 ! D72   D(22,7,9,25)           47.9555         estimate D2E/DX2                !
 ! D73   D(7,8,10,11)           52.5933         estimate D2E/DX2                !
 ! D74   D(7,8,10,26)          173.6319         estimate D2E/DX2                !
 ! D75   D(7,8,10,27)          -67.6597         estimate D2E/DX2                !
 ! D76   D(23,8,10,11)         -68.513          estimate D2E/DX2                !
 ! D77   D(23,8,10,26)          52.5256         estimate D2E/DX2                !
 ! D78   D(23,8,10,27)         171.2341         estimate D2E/DX2                !
 ! D79   D(24,8,10,11)         173.7951         estimate D2E/DX2                !
 ! D80   D(24,8,10,26)         -65.1663         estimate D2E/DX2                !
 ! D81   D(24,8,10,27)          53.5421         estimate D2E/DX2                !
 ! D82   D(8,10,11,3)          -54.8612         estimate D2E/DX2                !
 ! D83   D(8,10,11,28)        -172.5239         estimate D2E/DX2                !
 ! D84   D(8,10,11,29)          67.088          estimate D2E/DX2                !
 ! D85   D(26,10,11,3)        -177.0909         estimate D2E/DX2                !
 ! D86   D(26,10,11,28)         65.2464         estimate D2E/DX2                !
 ! D87   D(26,10,11,29)        -55.1417         estimate D2E/DX2                !
 ! D88   D(27,10,11,3)          65.7769         estimate D2E/DX2                !
 ! D89   D(27,10,11,28)        -51.8858         estimate D2E/DX2                !
 ! D90   D(27,10,11,29)       -172.2738         estimate D2E/DX2                !
 --------------------------------------------------------------------------------
 Trust Radius=3.00D-01 FncErr=1.00D-07 GrdErr=1.00D-06 EigMax=2.50D+02 EigMin=1.00D-04
 Number of steps in this run=    186 maximum allowed number of steps=    186.
 GradGradGradGradGradGradGradGradGradGradGradGradGradGradGradGradGradGrad

                          Input orientation:                          
 ---------------------------------------------------------------------
 Center     Atomic      Atomic             Coordinates (Angstroms)
 Number     Number       Type             X           Y           Z
 ---------------------------------------------------------------------
      1          6           0        0.998968   -0.074297    0.686372
      2          6           0        3.751270    0.108946   -0.387077
      3          8           0       -1.565886   -1.157502   -0.531114
      4          6           0        2.027720    1.034949    0.930620
      5          6           0        1.563331   -1.097115   -0.307912
      6          8           0       -0.247438    0.534660    0.340983
      7          6           0       -2.133608    1.155603   -0.934864
      8          6           0       -3.173617    1.103845    0.185207
      9          6           0       -1.030300    0.125126   -0.738148
     10          6           0       -3.669137   -0.331521    0.362391
     11          6           0       -2.491797   -1.275673    0.540344
     12          6           0        3.067393   -1.223282   -0.062671
     13          8           0        2.874041    1.207183   -0.184369
     14          1           0        0.825396   -0.577797    1.630996
     15          1           0        4.642737    0.249031    0.217020
     16          1           0        4.035412    0.150054   -1.430067
     17          1           0        1.529727    1.977613    1.103549
     18          1           0        2.627613    0.801613    1.804977
     19          1           0        1.412980   -0.771340   -1.329695
     20          1           0        1.069241   -2.053034   -0.191854
     21          1           0       -1.685615    2.139907   -1.017694
     22          1           0       -2.613794    0.935263   -1.884495
     23          1           0       -2.739320    1.458459    1.115966
     24          1           0       -4.000801    1.766403   -0.050716
     25          1           0       -0.436170    0.040126   -1.632580
     26          1           0       -4.324915   -0.415088    1.224453
     27          1           0       -4.240036   -0.634409   -0.512398
     28          1           0       -2.809467   -2.309239    0.537257
     29          1           0       -1.983043   -1.081858    1.478909
     30          1           0        3.250501   -1.505547    0.970091
     31          1           0        3.492474   -2.004378   -0.683287
 ---------------------------------------------------------------------
                    Distance matrix (angstroms):
                    1          2          3          4          5
     1  C    0.000000
     2  C    2.959905   0.000000
     3  O    3.038763   5.467795   0.000000
     4  C    1.532454   2.358905   4.456177   0.000000
     5  C    1.534035   2.499585   3.137748   2.509047   0.000000
     6  O    1.429563   4.086682   2.315658   2.402978   2.522427
     7  C    3.735518   6.002279   2.415735   4.561934   4.374376
     8  C    4.364591   7.019358   2.865590   5.254930   5.246529
     9  C    2.487359   4.794468   1.405294   3.600563   2.899293
    10  C    4.686399   7.471155   2.429868   5.885941   5.330494
    11  C    3.694600   6.461669   1.421020   5.090906   4.146744
    12  C    2.481857   1.532240   4.657364   2.677154   1.529138
    13  O    2.432340   1.420122   5.042313   1.410363   2.653868
    14  H    1.084414   3.620079   3.275516   2.130037   2.138598
    15  H    3.688073   1.085942   6.409761   2.822270   3.401530
    16  H    3.708051   1.081783   5.821714   3.222842   2.987616
    17  H    2.160110   3.263301   4.699350   1.080054   3.383386
    18  H    2.161245   2.558807   5.184678   1.085734   3.033507
    19  H    2.172971   2.670399   3.108134   2.957974   1.082947
    20  H    2.166015   3.450442   2.803742   3.422611   1.082301
    21  H    3.874729   5.837996   3.335266   4.336556   4.640878
    22  H    4.547595   6.590835   2.703593   5.429407   4.905563
    23  H    4.063089   6.797653   3.306520   4.789403   5.202998
    24  H    5.378584   7.934413   3.835207   6.151513   6.263022
    25  H    2.729515   4.369287   1.980858   3.691940   2.654443
    26  H    5.361847   8.252055   3.353421   6.522646   6.122479
    27  H    5.403512   8.026784   2.724895   6.644834   5.825374
    28  H    4.418300   7.053034   2.003599   5.893785   4.615725
    29  H    3.245872   6.146728   2.054248   4.568119   3.971112
    30  H    2.682979   2.167778   5.056910   2.819729   2.155609
    31  H    3.437841   2.149617   5.131020   3.740015   2.164631
                    6          7          8          9         10
     6  O    0.000000
     7  C    2.360295   0.000000
     8  C    2.985090   1.529332   0.000000
     9  C    1.394674   1.522455   2.530669   0.000000
    10  C    3.529696   2.500451   1.528794   2.895371   0.000000
    11  C    2.890363   2.866294   2.500621   2.394317   1.519612
    12  C    3.773778   5.785346   6.665371   4.366413   6.808579
    13  O    3.236034   5.063838   6.059821   4.089181   6.743866
    14  H    2.013124   4.282992   4.572781   3.090397   4.676627
    15  H    4.900078   6.933077   7.863022   5.754220   8.333392
    16  H    4.650521   6.270021   7.449089   5.112809   7.924954
    17  H    2.412869   4.272102   4.871167   3.657498   5.736689
    18  H    3.237354   5.504658   6.030694   4.506157   6.558514
    19  H    2.693286   4.055526   5.181517   2.668932   5.374431
    20  H    2.951901   4.594089   5.301877   3.074230   5.071787
    21  H    2.547778   1.084626   2.175901   2.137037   3.456436
    22  H    3.273053   1.086705   2.150695   2.116102   2.786932
    23  H    2.768299   2.159748   1.086590   2.852414   2.153245
    24  H    3.969679   2.154345   1.085761   3.462691   2.163780
    25  H    2.043315   2.147648   3.453906   1.077137   3.817081
    26  H    4.278827   3.454207   2.170870   3.872741   1.086360
    27  H    4.246860   2.796365   2.155326   3.306095   1.087622
    28  H    3.832790   3.824795   3.450462   3.273870   2.163557
    29  H    2.630652   3.294723   2.805072   2.698124   2.156973
    30  H    4.098024   6.300730   6.978127   4.889011   7.044787
    31  H    4.634953   6.457675   7.406220   4.999328   7.428362
                   11         12         13         14         15
    11  C    0.000000
    12  C    5.592045   0.000000
    13  O    5.956677   2.441179   0.000000
    14  H    3.560944   2.883004   3.267820   0.000000
    15  H    7.302796   2.174314   2.051208   4.153922   0.000000
    16  H    6.965607   2.166307   2.004512   4.494894   1.758276
    17  H    5.203242   3.737675   2.014814   2.702666   3.669436
    18  H    5.667696   2.789573   2.045168   2.276187   2.624439
    19  H    4.358748   2.132295   2.713121   3.024633   3.723549
    20  H    3.717714   2.167438   3.726443   2.357661   4.270428
    21  H    3.839739   5.900355   4.728093   4.550456   6.719224
    22  H    3.283743   6.344623   5.751583   5.145489   7.585811
    23  H    2.805011   6.503756   5.767481   4.137487   7.534294
    24  H    3.446835   7.674485   6.898844   5.622776   8.779798
    25  H    3.267802   4.041753   3.796951   3.553070   5.409247
    26  H    2.137506   7.546925   7.512756   5.168893   9.048467
    27  H    2.139118   7.344899   7.355893   5.500540   8.956348
    28  H    1.081287   6.006388   6.722219   4.172096   7.885597
    29  H    1.085034   5.282364   5.621162   2.857365   6.874925
    30  H    5.762943   1.086186   2.972104   2.679300   2.363045
    31  H    6.151405   1.084421   3.308399   3.808457   2.685425
                   16         17         18         19         20
    16  H    0.000000
    17  H    4.004702   0.000000
    18  H    3.587748   1.755087   0.000000
    19  H    2.781401   3.673016   3.711561   0.000000
    20  H    3.896786   4.258665   3.816394   1.748021   0.000000
    21  H    6.071220   3.855442   5.325640   4.263097   5.084486
    22  H    6.710812   5.213796   6.411116   4.408538   5.035841
    23  H    7.354672   4.300516   5.450702   5.309883   5.342856
    24  H    8.312395   5.653643   6.950560   6.114323   6.349279
    25  H    4.477515   3.886516   4.667272   2.041953   2.953519
    26  H    8.789820   6.325857   7.082021   6.290789   5.812548
    27  H    8.363046   6.536368   7.388978   5.713433   5.504877
    28  H    7.534644   6.125879   6.391115   4.866179   3.954949
    29  H    6.797172   4.673415   4.991185   4.417878   3.612626
    30  H    3.019579   3.887323   2.531405   3.033902   2.531354
    31  H    2.343937   4.785542   3.848770   2.502503   2.473041
                   21         22         23         24         25
    21  H    0.000000
    22  H    1.750436   0.000000
    23  H    2.475312   3.048320   0.000000
    24  H    2.536659   2.444857   1.745655   0.000000
    25  H    2.519579   2.367864   3.856251   4.264847   0.000000
    26  H    4.303618   3.796965   2.456839   2.547550   4.846875
    27  H    3.804894   2.644085   3.046935   2.456478   4.022338
    28  H    4.845185   4.053389   3.812528   4.286706   3.982493
    29  H    4.086717   3.972293   2.675237   3.810996   3.651442
    30  H    6.450261   6.963919   6.684652   8.020541   4.770172
    31  H    6.640748   6.882652   7.352810   8.412378   4.529393
                   26         27         28         29         30
    26  H    0.000000
    27  H    1.752700   0.000000
    28  H    2.521236   2.439951   0.000000
    29  H    2.448202   3.042948   1.753895   0.000000
    30  H    7.657723   7.685363   6.128334   5.275262   0.000000
    31  H    8.202249   7.854790   6.426284   5.958810   1.743858
                   31
    31  H    0.000000
 Stoichiometry    C10H18O3
 Framework group  C1[X(C10H18O3)]
 Deg. of freedom    87
 Full point group                 C1      NOp   1
 Largest Abelian subgroup         C1      NOp   1
 Largest concise Abelian subgroup C1      NOp   1
                         Standard orientation:                         
 ---------------------------------------------------------------------
 Center     Atomic      Atomic             Coordinates (Angstroms)
 Number     Number       Type             X           Y           Z
 ---------------------------------------------------------------------
      1          6           0       -0.998968    0.074297    0.686372
      2          6           0       -3.751270   -0.108946   -0.387077
      3          8           0        1.565886    1.157502   -0.531114
      4          6           0       -2.027720   -1.034949    0.930620
      5          6           0       -1.563331    1.097115   -0.307912
      6          8           0        0.247438   -0.534660    0.340983
      7          6           0        2.133608   -1.155603   -0.934864
      8          6           0        3.173617   -1.103845    0.185207
      9          6           0        1.030300   -0.125126   -0.738148
     10          6           0        3.669137    0.331521    0.362391
     11          6           0        2.491797    1.275673    0.540344
     12          6           0       -3.067393    1.223282   -0.062671
     13          8           0       -2.874041   -1.207183   -0.184369
     14          1           0       -0.825396    0.577797    1.630996
     15          1           0       -4.642737   -0.249031    0.217020
     16          1           0       -4.035412   -0.150054   -1.430067
     17          1           0       -1.529727   -1.977613    1.103549
     18          1           0       -2.627613   -0.801613    1.804977
     19          1           0       -1.412980    0.771340   -1.329695
     20          1           0       -1.069241    2.053034   -0.191854
     21          1           0        1.685615   -2.139907   -1.017694
     22          1           0        2.613794   -0.935263   -1.884495
     23          1           0        2.739320   -1.458459    1.115966
     24          1           0        4.000801   -1.766403   -0.050716
     25          1           0        0.436170   -0.040126   -1.632580
     26          1           0        4.324915    0.415088    1.224453
     27          1           0        4.240036    0.634409   -0.512398
     28          1           0        2.809467    2.309239    0.537257
     29          1           0        1.983043    1.081858    1.478909
     30          1           0       -3.250501    1.505547    0.970091
     31          1           0       -3.492474    2.004378   -0.683287
 ---------------------------------------------------------------------
 Rotational constants (GHZ):           1.9880609           0.4212407           0.3868652
 Standard basis: 6-311++G(2d,2p) (5D, 7F)
 There are   557 symmetry adapted cartesian basis functions of A   symmetry.
 There are   531 symmetry adapted basis functions of A   symmetry.
   531 basis functions,   762 primitive gaussians,   557 cartesian basis functions
    51 alpha electrons       51 beta electrons
       nuclear repulsion energy       897.5575787055 Hartrees.
 NAtoms=   31 NActive=   31 NUniq=   31 SFac= 1.00D+00 NAtFMM=   60 NAOKFM=F Big=F
 Integral buffers will be    131072 words long.
 Raffenetti 2 integral format.
 Two-electron integral symmetry is turned on.
 ------------------------------------------------------------------------------
 Polarizable Continuum Model (PCM)
 =================================
 Model                : PCM.
 Atomic radii         : UFF (Universal Force Field).
 Polarization charges : Total charges.
 Charge compensation  : None.
 Solution method      : On-the-fly selection.
 Cavity type          : Scaled VdW (van der Waals Surface) (Alpha=1.100).
 Cavity algorithm     : GePol (No added spheres)
                        Default sphere list used, NSphG=   31.
                        Lebedev-Laikov grids with approx.  5.0 points / Ang**2.
                        Smoothing algorithm: York/Karplus (Gamma=1.0000).
                        Polarization charges: spherical gaussians, with
                                              point-specific exponents (IZeta= 3).
                        Self-potential: point-specific (ISelfS= 7).
                        Self-field    : sphere-specific E.n sum rule (ISelfD= 2).
 1st derivatives      : Analytical E(r).r(x)/FMM algorithm (CHGder, D1EAlg=3).
                        Cavity 1st derivative terms included.
 Solvent              : Water, Eps=  78.355300 Eps(inf)=   1.777849
 ------------------------------------------------------------------------------
 One-electron integrals computed using PRISM.
 NBasis=   531 RedAO= T EigKep=  4.11D-06  NBF=   531
 NBsUse=   531 1.00D-06 EigRej= -1.00D+00 NBFU=   531
 ExpMin= 3.60D-02 ExpMax= 8.59D+03 ExpMxC= 1.30D+03 IAcc=3 IRadAn=         5 AccDes= 0.00D+00
 Harris functional with IExCor= 1009 and IRadAn=       5 diagonalized for initial guess.
 HarFok:  IExCor= 1009 AccDes= 0.00D+00 IRadAn=         5 IDoV= 1 UseB2=F ITyADJ=14
 ICtDFT=  3500011 ScaDFX=  1.000000  1.000000  1.000000  1.000000
 FoFCou: FMM=F IPFlag=           0 FMFlag=      100000 FMFlg1=           0
         NFxFlg=           0 DoJE=T BraDBF=F KetDBF=T FulRan=T
         wScrn=  0.000000 ICntrl=       500 IOpCl=  0 I1Cent=   200000004 NGrid=           0
         NMat0=    1 NMatS0=      1 NMatT0=    0 NMatD0=    1 NMtDS0=    0 NMtDT0=    0
 Petite list used in FoFCou.
 Requested convergence on RMS density matrix=1.00D-08 within 128 cycles.
 Requested convergence on MAX density matrix=1.00D-06.
 Requested convergence on             energy=1.00D-06.
 No special actions if energy rises.
 Inv3:  Mode=1 IEnd=    12411468.
 Iteration    1 A*A^-1 deviation from unit magnitude is 5.11D-15 for   2026.
 Iteration    1 A*A^-1 deviation from orthogonality  is 1.80D-15 for   1820    398.
 Iteration    1 A^-1*A deviation from unit magnitude is 5.33D-15 for   2026.
 Iteration    1 A^-1*A deviation from orthogonality  is 1.64D-15 for   2004    924.
 Error on total polarization charges =  0.01474
 SCF Done:  E(RM062X) =  -617.488236245     A.U. after   12 cycles
            NFock= 12  Conv=0.57D-08     -V/T= 2.0035

 **********************************************************************

            Population analysis using the SCF density.

 **********************************************************************

 Orbital symmetries:
       Occupied  (A) (A) (A) (A) (A) (A) (A) (A) (A) (A) (A) (A)
                 (A) (A) (A) (A) (A) (A) (A) (A) (A) (A) (A) (A)
                 (A) (A) (A) (A) (A) (A) (A) (A) (A) (A) (A) (A)
                 (A) (A) (A) (A) (A) (A) (A) (A) (A) (A) (A) (A)
                 (A) (A) (A)
       Virtual   (A) (A) (A) (A) (A) (A) (A) (A) (A) (A) (A) (A)
                 (A) (A) (A) (A) (A) (A) (A) (A) (A) (A) (A) (A)
                 (A) (A) (A) (A) (A) (A) (A) (A) (A) (A) (A) (A)
                 (A) (A) (A) (A) (A) (A) (A) (A) (A) (A) (A) (A)
                 (A) (A) (A) (A) (A) (A) (A) (A) (A) (A) (A) (A)
                 (A) (A) (A) (A) (A) (A) (A) (A) (A) (A) (A) (A)
                 (A) (A) (A) (A) (A) (A) (A) (A) (A) (A) (A) (A)
                 (A) (A) (A) (A) (A) (A) (A) (A) (A) (A) (A) (A)
                 (A) (A) (A) (A) (A) (A) (A) (A) (A) (A) (A) (A)
                 (A) (A) (A) (A) (A) (A) (A) (A) (A) (A) (A) (A)
                 (A) (A) (A) (A) (A) (A) (A) (A) (A) (A) (A) (A)
                 (A) (A) (A) (A) (A) (A) (A) (A) (A) (A) (A) (A)
                 (A) (A) (A) (A) (A) (A) (A) (A) (A) (A) (A) (A)
                 (A) (A) (A) (A) (A) (A) (A) (A) (A) (A) (A) (A)
                 (A) (A) (A) (A) (A) (A) (A) (A) (A) (A) (A) (A)
                 (A) (A) (A) (A) (A) (A) (A) (A) (A) (A) (A) (A)
                 (A) (A) (A) (A) (A) (A) (A) (A) (A) (A) (A) (A)
                 (A) (A) (A) (A) (A) (A) (A) (A) (A) (A) (A) (A)
                 (A) (A) (A) (A) (A) (A) (A) (A) (A) (A) (A) (A)
                 (A) (A) (A) (A) (A) (A) (A) (A) (A) (A) (A) (A)
                 (A) (A) (A) (A) (A) (A) (A) (A) (A) (A) (A) (A)
                 (A) (A) (A) (A) (A) (A) (A) (A) (A) (A) (A) (A)
                 (A) (A) (A) (A) (A) (A) (A) (A) (A) (A) (A) (A)
                 (A) (A) (A) (A) (A) (A) (A) (A) (A) (A) (A) (A)
                 (A) (A) (A) (A) (A) (A) (A) (A) (A) (A) (A) (A)
                 (A) (A) (A) (A) (A) (A) (A) (A) (A) (A) (A) (A)
                 (A) (A) (A) (A) (A) (A) (A) (A) (A) (A) (A) (A)
                 (A) (A) (A) (A) (A) (A) (A) (A) (A) (A) (A) (A)
                 (A) (A) (A) (A) (A) (A) (A) (A) (A) (A) (A) (A)
                 (A) (A) (A) (A) (A) (A) (A) (A) (A) (A) (A) (A)
                 (A) (A) (A) (A) (A) (A) (A) (A) (A) (A) (A) (A)
                 (A) (A) (A) (A) (A) (A) (A) (A) (A) (A) (A) (A)
                 (A) (A) (A) (A) (A) (A) (A) (A) (A) (A) (A) (A)
                 (A) (A) (A) (A) (A) (A) (A) (A) (A) (A) (A) (A)
                 (A) (A) (A) (A) (A) (A) (A) (A) (A) (A) (A) (A)
                 (A) (A) (A) (A) (A) (A) (A) (A) (A) (A) (A) (A)
                 (A) (A) (A) (A) (A) (A) (A) (A) (A) (A) (A) (A)
                 (A) (A) (A) (A) (A) (A) (A) (A) (A) (A) (A) (A)
                 (A) (A) (A) (A) (A) (A) (A) (A) (A) (A) (A) (A)
                 (A) (A) (A) (A) (A) (A) (A) (A) (A) (A) (A) (A)
 The electronic state is 1-A.
 Alpha  occ. eigenvalues --  -19.62601 -19.62578 -19.62474 -10.63215 -10.58929
 Alpha  occ. eigenvalues --  -10.57831 -10.57709 -10.57518 -10.53385 -10.53319
 Alpha  occ. eigenvalues --  -10.52867 -10.52826 -10.52674  -1.19739  -1.16514
 Alpha  occ. eigenvalues --   -1.13032  -0.90860  -0.89578  -0.87533  -0.84490
 Alpha  occ. eigenvalues --   -0.75461  -0.74615  -0.73042  -0.70938  -0.65059
 Alpha  occ. eigenvalues --   -0.62082  -0.60611  -0.58902  -0.58194  -0.55561
 Alpha  occ. eigenvalues --   -0.54266  -0.54123  -0.52488  -0.50452  -0.49577
 Alpha  occ. eigenvalues --   -0.48600  -0.46034  -0.45770  -0.45064  -0.44844
 Alpha  occ. eigenvalues --   -0.43863  -0.42611  -0.41949  -0.40662  -0.39190
 Alpha  occ. eigenvalues --   -0.38469  -0.37448  -0.35583  -0.34501  -0.33339
 Alpha  occ. eigenvalues --   -0.31490
 Alpha virt. eigenvalues --   -0.00170   0.00781   0.00802   0.01155   0.02169
 Alpha virt. eigenvalues --    0.02441   0.02610   0.03381   0.03742   0.04364
 Alpha virt. eigenvalues --    0.04458   0.04757   0.05585   0.05744   0.07082
 Alpha virt. eigenvalues --    0.07438   0.07541   0.08302   0.08884   0.09433
 Alpha virt. eigenvalues --    0.09903   0.10334   0.10877   0.11667   0.12039
 Alpha virt. eigenvalues --    0.12265   0.12651   0.12777   0.13447   0.13608
 Alpha virt. eigenvalues --    0.13649   0.13999   0.14233   0.14562   0.14590
 Alpha virt. eigenvalues --    0.15185   0.15360   0.15510   0.15942   0.16291
 Alpha virt. eigenvalues --    0.16769   0.17241   0.17438   0.17818   0.17991
 Alpha virt. eigenvalues --    0.18123   0.18383   0.18825   0.19322   0.19666
 Alpha virt. eigenvalues --    0.20018   0.20223   0.20668   0.20856   0.21498
 Alpha virt. eigenvalues --    0.21895   0.22500   0.23155   0.23557   0.23697
 Alpha virt. eigenvalues --    0.24409   0.24759   0.25836   0.26127   0.26676
 Alpha virt. eigenvalues --    0.27880   0.28149   0.28640   0.29241   0.30124
 Alpha virt. eigenvalues --    0.30429   0.30527   0.30769   0.31589   0.31992
 Alpha virt. eigenvalues --    0.32280   0.32895   0.33174   0.33779   0.34121
 Alpha virt. eigenvalues --    0.34940   0.35471   0.35716   0.35783   0.36168
 Alpha virt. eigenvalues --    0.36555   0.37323   0.37703   0.37883   0.38953
 Alpha virt. eigenvalues --    0.39260   0.39464   0.39823   0.40337   0.41335
 Alpha virt. eigenvalues --    0.42187   0.43356   0.43683   0.43905   0.45134
 Alpha virt. eigenvalues --    0.46429   0.48694   0.49300   0.50005   0.50095
 Alpha virt. eigenvalues --    0.51649   0.52654   0.53891   0.54839   0.55669
 Alpha virt. eigenvalues --    0.56210   0.56576   0.57524   0.59094   0.59385
 Alpha virt. eigenvalues --    0.59922   0.60631   0.60667   0.61431   0.61605
 Alpha virt. eigenvalues --    0.62011   0.62258   0.63128   0.63682   0.64005
 Alpha virt. eigenvalues --    0.64626   0.65166   0.66035   0.66267   0.66744
 Alpha virt. eigenvalues --    0.68025   0.68855   0.69156   0.69282   0.69976
 Alpha virt. eigenvalues --    0.70180   0.71461   0.72373   0.72849   0.73129
 Alpha virt. eigenvalues --    0.73680   0.74267   0.74350   0.74578   0.76008
 Alpha virt. eigenvalues --    0.76218   0.76887   0.77340   0.78174   0.78873
 Alpha virt. eigenvalues --    0.79536   0.81701   0.83831   0.85738   0.86150
 Alpha virt. eigenvalues --    0.86757   0.87443   0.88022   0.89182   0.90305
 Alpha virt. eigenvalues --    0.90721   0.91325   0.93320   0.94424   0.95627
 Alpha virt. eigenvalues --    0.96488   0.98901   0.99852   1.01115   1.01741
 Alpha virt. eigenvalues --    1.02334   1.04354   1.05166   1.05590   1.06228
 Alpha virt. eigenvalues --    1.07368   1.08202   1.10013   1.11508   1.12278
 Alpha virt. eigenvalues --    1.13482   1.14156   1.15116   1.16890   1.17406
 Alpha virt. eigenvalues --    1.17644   1.19269   1.20057   1.20490   1.20700
 Alpha virt. eigenvalues --    1.21049   1.21702   1.23055   1.23663   1.24129
 Alpha virt. eigenvalues --    1.25475   1.26132   1.26405   1.26828   1.27747
 Alpha virt. eigenvalues --    1.27971   1.28251   1.29799   1.30577   1.31577
 Alpha virt. eigenvalues --    1.31634   1.32600   1.33762   1.34320   1.35087
 Alpha virt. eigenvalues --    1.35850   1.36332   1.37368   1.37955   1.38557
 Alpha virt. eigenvalues --    1.38884   1.40031   1.40862   1.41620   1.42276
 Alpha virt. eigenvalues --    1.42825   1.43321   1.44258   1.44782   1.46089
 Alpha virt. eigenvalues --    1.46456   1.46894   1.47596   1.47822   1.48223
 Alpha virt. eigenvalues --    1.49387   1.49722   1.51332   1.51519   1.52333
 Alpha virt. eigenvalues --    1.53227   1.53963   1.54054   1.54889   1.55146
 Alpha virt. eigenvalues --    1.55747   1.56571   1.58021   1.58293   1.58598
 Alpha virt. eigenvalues --    1.59063   1.59544   1.60135   1.60889   1.62157
 Alpha virt. eigenvalues --    1.62839   1.64021   1.64316   1.65398   1.66771
 Alpha virt. eigenvalues --    1.67925   1.68693   1.70098   1.70992   1.71293
 Alpha virt. eigenvalues --    1.72233   1.72992   1.74372   1.75724   1.77452
 Alpha virt. eigenvalues --    1.78412   1.79271   1.80548   1.81838   1.83146
 Alpha virt. eigenvalues --    1.84593   1.87258   1.92029   1.95992   1.97234
 Alpha virt. eigenvalues --    2.04457   2.07170   2.09240   2.18213   2.20734
 Alpha virt. eigenvalues --    2.22085   2.24447   2.32330   2.33904   2.37444
 Alpha virt. eigenvalues --    2.41977   2.43577   2.44952   2.47512   2.53058
 Alpha virt. eigenvalues --    2.63199   2.76631   2.77314   2.79496   2.83881
 Alpha virt. eigenvalues --    2.84719   2.86510   2.91633   2.92813   2.93085
 Alpha virt. eigenvalues --    2.95778   2.96619   2.99819   3.02578   3.03498
 Alpha virt. eigenvalues --    3.06240   3.07329   3.08548   3.10407   3.11554
 Alpha virt. eigenvalues --    3.13795   3.15270   3.16821   3.21072   3.21918
 Alpha virt. eigenvalues --    3.24773   3.28531   3.31493   3.32361   3.34789
 Alpha virt. eigenvalues --    3.35082   3.36234   3.36711   3.38056   3.39480
 Alpha virt. eigenvalues --    3.41741   3.42758   3.44376   3.45449   3.45701
 Alpha virt. eigenvalues --    3.46595   3.48320   3.49408   3.51121   3.51490
 Alpha virt. eigenvalues --    3.52503   3.52597   3.54370   3.55190   3.56016
 Alpha virt. eigenvalues --    3.56302   3.57740   3.58713   3.59157   3.59440
 Alpha virt. eigenvalues --    3.61365   3.62825   3.63547   3.64960   3.65984
 Alpha virt. eigenvalues --    3.66942   3.67420   3.68622   3.69347   3.70160
 Alpha virt. eigenvalues --    3.71540   3.71865   3.72525   3.73534   3.73822
 Alpha virt. eigenvalues --    3.74944   3.75882   3.76787   3.77504   3.78684
 Alpha virt. eigenvalues --    3.79686   3.81009   3.82516   3.83649   3.85673
 Alpha virt. eigenvalues --    3.86124   3.87809   3.88861   3.90290   3.91860
 Alpha virt. eigenvalues --    3.93612   3.93902   3.95113   3.97305   3.99762
 Alpha virt. eigenvalues --    4.00222   4.01723   4.02086   4.03211   4.04106
 Alpha virt. eigenvalues --    4.04973   4.06395   4.06760   4.06827   4.07958
 Alpha virt. eigenvalues --    4.08575   4.09089   4.10105   4.11076   4.12110
 Alpha virt. eigenvalues --    4.12119   4.12862   4.14156   4.14690   4.15770
 Alpha virt. eigenvalues --    4.16518   4.17539   4.18040   4.19185   4.20822
 Alpha virt. eigenvalues --    4.21276   4.22671   4.25128   4.25566   4.26470
 Alpha virt. eigenvalues --    4.27470   4.28865   4.30507   4.32064   4.32629
 Alpha virt. eigenvalues --    4.33615   4.33968   4.34650   4.37323   4.38706
 Alpha virt. eigenvalues --    4.40837   4.43121   4.47100   4.48161   4.54943
 Alpha virt. eigenvalues --    4.59605   4.63863   4.71692   4.75695   4.82539
 Alpha virt. eigenvalues --    4.85754   4.92801   4.95585   4.99716   5.03161
 Alpha virt. eigenvalues --    5.05069   5.06773   5.07718   5.11682   5.12890
 Alpha virt. eigenvalues --    5.13982   5.15251   5.17019   5.32202   5.38830
 Alpha virt. eigenvalues --    5.41506   5.59069   5.61129   5.64391   5.84934
 Alpha virt. eigenvalues --    5.88344   6.05116   7.03324   7.05443   7.07283
 Alpha virt. eigenvalues --    7.08821   7.10804   7.11453   7.15681   7.19134
 Alpha virt. eigenvalues --    7.28861   7.34497   7.40393   7.45340   7.52706
 Alpha virt. eigenvalues --    7.54700   7.65829  23.96555  23.97556  24.05214
 Alpha virt. eigenvalues --   24.08011  24.10386  24.11411  24.12521  24.15270
 Alpha virt. eigenvalues --   24.18556  24.20999  50.15964  50.18536  50.29446
          Condensed to atoms (all electrons):
               1          2          3          4          5          6
     1  C   10.777907   0.015807   0.069780  -1.379793  -2.558064  -0.080410
     2  C    0.015807   5.551584   0.001349  -0.171405   0.041134   0.003899
     3  O    0.069780   0.001349   8.231206  -0.010773  -0.072141  -0.048086
     4  C   -1.379793  -0.171405  -0.010773   6.322882   0.619024  -0.100407
     5  C   -2.558064   0.041134  -0.072141   0.619024   7.578076   0.054229
     6  O   -0.080410   0.003899  -0.048086  -0.100407   0.054229   8.363750
     7  C    0.258876   0.004912  -0.038298  -0.072266  -0.200966  -0.070141
     8  C    0.221723   0.004686   0.016458  -0.006631  -0.074768  -0.020581
     9  C   -2.342348   0.061028   0.238858   0.439864   0.814570   0.248625
    10  C   -0.087785  -0.002209  -0.074341   0.018972   0.032133  -0.017308
    11  C    0.168943  -0.000186   0.118248  -0.034880  -0.031087   0.001189
    12  C    0.603914  -0.220844   0.009369  -0.097188  -0.802563  -0.024223
    13  O   -0.065085   0.097364  -0.001048   0.125218  -0.001016   0.024277
    14  H    0.765874  -0.016849   0.000637  -0.120710  -0.151265  -0.067178
    15  H    0.077687   0.512683   0.000093  -0.040070  -0.050289  -0.000423
    16  H   -0.025972   0.418455   0.000174   0.019163  -0.021611   0.001716
    17  H    0.037111   0.015134   0.000170   0.393792  -0.028136  -0.005226
    18  H   -0.046093   0.022829  -0.000794   0.438753   0.007239   0.010566
    19  H    0.018036  -0.030317  -0.005818  -0.038204   0.411732  -0.017111
    20  H   -0.114698  -0.005172  -0.004292   0.025229   0.498639   0.005401
    21  H   -0.016979   0.001435   0.009197  -0.000759   0.004109  -0.005266
    22  H    0.010441  -0.000658  -0.005194  -0.001415   0.002039   0.009194
    23  H   -0.013530  -0.000207   0.003366   0.003779   0.003580  -0.006471
    24  H    0.016019   0.000134  -0.005367  -0.002046  -0.005449   0.001422
    25  H   -0.061335  -0.005056  -0.071869   0.006279   0.019152  -0.004739
    26  H    0.002129  -0.000073   0.009423   0.000151   0.001560   0.001697
    27  H   -0.003301   0.000046  -0.001096   0.000396  -0.001035  -0.001101
    28  H    0.008557  -0.000421  -0.070565   0.000285   0.005278   0.001561
    29  H   -0.052187   0.002613  -0.036561   0.006511   0.007396   0.008351
    30  H   -0.077637  -0.072856   0.000653  -0.003078  -0.004662   0.001742
    31  H   -0.012772  -0.010592  -0.001147   0.007882  -0.022352  -0.000189
               7          8          9         10         11         12
     1  C    0.258876   0.221723  -2.342348  -0.087785   0.168943   0.603914
     2  C    0.004912   0.004686   0.061028  -0.002209  -0.000186  -0.220844
     3  O   -0.038298   0.016458   0.238858  -0.074341   0.118248   0.009369
     4  C   -0.072266  -0.006631   0.439864   0.018972  -0.034880  -0.097188
     5  C   -0.200966  -0.074768   0.814570   0.032133  -0.031087  -0.802563
     6  O   -0.070141  -0.020581   0.248625  -0.017308   0.001189  -0.024223
     7  C    7.179906   0.072866  -1.187586  -0.231317   0.122196  -0.013426
     8  C    0.072866   5.818275  -0.539481  -0.059895  -0.001362  -0.007718
     9  C   -1.187586  -0.539481   8.444359   0.493712  -0.550542  -0.310108
    10  C   -0.231317  -0.059895   0.493712   5.726310  -0.111070   0.001101
    11  C    0.122196  -0.001362  -0.550542  -0.111070   5.611138   0.013620
    12  C   -0.013426  -0.007718  -0.310108   0.001101   0.013620   6.423640
    13  O    0.004672  -0.000242  -0.002629  -0.000247  -0.000785   0.011570
    14  H   -0.000570   0.014484  -0.156785  -0.008708   0.022725   0.040912
    15  H    0.000427   0.000306  -0.007525  -0.000014  -0.000197  -0.086491
    16  H    0.000047  -0.000324  -0.000332  -0.000313   0.000810   0.027135
    17  H   -0.008899   0.000449  -0.012160   0.002132  -0.001181   0.006411
    18  H    0.003945   0.002772  -0.006784  -0.001785   0.000029  -0.031000
    19  H   -0.011025   0.002291  -0.008369   0.004947   0.003514   0.037708
    20  H    0.002074  -0.002825   0.031238  -0.004205   0.000489  -0.050003
    21  H    0.435133  -0.049801  -0.011773  -0.011166   0.013109  -0.003369
    22  H    0.486212   0.007679  -0.133601  -0.013284   0.016683   0.002926
    23  H   -0.043990   0.514769  -0.021364  -0.060468   0.003387   0.000573
    24  H   -0.045265   0.438602  -0.001693  -0.026972   0.004360  -0.000060
    25  H   -0.057085  -0.026945   0.502064   0.021719  -0.054359   0.007523
    26  H   -0.008238  -0.046314   0.005659   0.437405  -0.033118  -0.000334
    27  H   -0.004866  -0.017426  -0.002824   0.494338  -0.094133   0.000309
    28  H   -0.016775   0.016948  -0.013118  -0.027303   0.437247   0.002347
    29  H    0.036926  -0.013306   0.022306  -0.067525   0.463865  -0.004762
    30  H    0.001156  -0.001034   0.006485   0.000446   0.000783   0.520815
    31  H   -0.000269  -0.000169   0.004729   0.000305  -0.001616   0.398671
              13         14         15         16         17         18
     1  C   -0.065085   0.765874   0.077687  -0.025972   0.037111  -0.046093
     2  C    0.097364  -0.016849   0.512683   0.418455   0.015134   0.022829
     3  O   -0.001048   0.000637   0.000093   0.000174   0.000170  -0.000794
     4  C    0.125218  -0.120710  -0.040070   0.019163   0.393792   0.438753
     5  C   -0.001016  -0.151265  -0.050289  -0.021611  -0.028136   0.007239
     6  O    0.024277  -0.067178  -0.000423   0.001716  -0.005226   0.010566
     7  C    0.004672  -0.000570   0.000427   0.000047  -0.008899   0.003945
     8  C   -0.000242   0.014484   0.000306  -0.000324   0.000449   0.002772
     9  C   -0.002629  -0.156785  -0.007525  -0.000332  -0.012160  -0.006784
    10  C   -0.000247  -0.008708  -0.000014  -0.000313   0.002132  -0.001785
    11  C   -0.000785   0.022725  -0.000197   0.000810  -0.001181   0.000029
    12  C    0.011570   0.040912  -0.086491   0.027135   0.006411  -0.031000
    13  O    8.350229  -0.001982  -0.072599  -0.077704  -0.061834  -0.049402
    14  H   -0.001982   0.475999   0.000667   0.001442  -0.000496  -0.005388
    15  H   -0.072599   0.000667   0.527938  -0.026673  -0.001022   0.010252
    16  H   -0.077704   0.001442  -0.026673   0.507016  -0.000056  -0.004188
    17  H   -0.061834  -0.000496  -0.001022  -0.000056   0.476111  -0.002016
    18  H   -0.049402  -0.005388   0.010252  -0.004188  -0.002016   0.474397
    19  H   -0.013674   0.005691  -0.008023   0.007948   0.003645  -0.002881
    20  H    0.002545  -0.012050   0.001714  -0.003503  -0.000599   0.001861
    21  H   -0.000068  -0.000582  -0.000021  -0.000015  -0.000577   0.000121
    22  H   -0.000627   0.000375  -0.000052   0.000140   0.000341  -0.000224
    23  H   -0.000163   0.000095  -0.000069   0.000109  -0.001649  -0.000249
    24  H    0.000065   0.000755   0.000025  -0.000030   0.000301   0.000147
    25  H    0.007412  -0.006209   0.001203  -0.001645  -0.001240   0.002395
    26  H   -0.000009   0.000850  -0.000003  -0.000007   0.000121  -0.000020
    27  H    0.000010  -0.000270   0.000006  -0.000001  -0.000109  -0.000009
    28  H   -0.000085   0.002193  -0.000011   0.000017   0.000241  -0.000112
    29  H    0.000418  -0.012517  -0.000069   0.000027  -0.001261   0.000929
    30  H    0.003733  -0.005365  -0.017676   0.009109  -0.002038  -0.008943
    31  H    0.010812  -0.003645   0.003110  -0.012526   0.001213   0.000900
              19         20         21         22         23         24
     1  C    0.018036  -0.114698  -0.016979   0.010441  -0.013530   0.016019
     2  C   -0.030317  -0.005172   0.001435  -0.000658  -0.000207   0.000134
     3  O   -0.005818  -0.004292   0.009197  -0.005194   0.003366  -0.005367
     4  C   -0.038204   0.025229  -0.000759  -0.001415   0.003779  -0.002046
     5  C    0.411732   0.498639   0.004109   0.002039   0.003580  -0.005449
     6  O   -0.017111   0.005401  -0.005266   0.009194  -0.006471   0.001422
     7  C   -0.011025   0.002074   0.435133   0.486212  -0.043990  -0.045265
     8  C    0.002291  -0.002825  -0.049801   0.007679   0.514769   0.438602
     9  C   -0.008369   0.031238  -0.011773  -0.133601  -0.021364  -0.001693
    10  C    0.004947  -0.004205  -0.011166  -0.013284  -0.060468  -0.026972
    11  C    0.003514   0.000489   0.013109   0.016683   0.003387   0.004360
    12  C    0.037708  -0.050003  -0.003369   0.002926   0.000573  -0.000060
    13  O   -0.013674   0.002545  -0.000068  -0.000627  -0.000163   0.000065
    14  H    0.005691  -0.012050  -0.000582   0.000375   0.000095   0.000755
    15  H   -0.008023   0.001714  -0.000021  -0.000052  -0.000069   0.000025
    16  H    0.007948  -0.003503  -0.000015   0.000140   0.000109  -0.000030
    17  H    0.003645  -0.000599  -0.000577   0.000341  -0.001649   0.000301
    18  H   -0.002881   0.001861   0.000121  -0.000224  -0.000249   0.000147
    19  H    0.476858  -0.020687  -0.000366   0.002894  -0.000190  -0.000220
    20  H   -0.020687   0.463730   0.000448  -0.001207  -0.000097   0.000010
    21  H   -0.000366   0.000448   0.476962  -0.002729  -0.001097  -0.010635
    22  H    0.002894  -0.001207  -0.002729   0.452370   0.002945  -0.005290
    23  H   -0.000190  -0.000097  -0.001097   0.002945   0.458996  -0.008503
    24  H   -0.000220   0.000010  -0.010635  -0.005290  -0.008503   0.473580
    25  H   -0.014835   0.004296  -0.012508  -0.019232  -0.003876   0.003735
    26  H    0.000269   0.000004   0.001116  -0.001911  -0.005000  -0.006460
    27  H   -0.000695   0.000061  -0.001891  -0.002471   0.001850  -0.002380
    28  H    0.000876  -0.001570   0.000872   0.001196  -0.001716   0.001155
    29  H   -0.002337   0.001784   0.000194  -0.001871  -0.001998  -0.001720
    30  H    0.000333  -0.003654  -0.000014   0.000171   0.000159  -0.000050
    31  H   -0.005161  -0.006458   0.000002  -0.000106  -0.000047   0.000011
              25         26         27         28         29         30
     1  C   -0.061335   0.002129  -0.003301   0.008557  -0.052187  -0.077637
     2  C   -0.005056  -0.000073   0.000046  -0.000421   0.002613  -0.072856
     3  O   -0.071869   0.009423  -0.001096  -0.070565  -0.036561   0.000653
     4  C    0.006279   0.000151   0.000396   0.000285   0.006511  -0.003078
     5  C    0.019152   0.001560  -0.001035   0.005278   0.007396  -0.004662
     6  O   -0.004739   0.001697  -0.001101   0.001561   0.008351   0.001742
     7  C   -0.057085  -0.008238  -0.004866  -0.016775   0.036926   0.001156
     8  C   -0.026945  -0.046314  -0.017426   0.016948  -0.013306  -0.001034
     9  C    0.502064   0.005659  -0.002824  -0.013118   0.022306   0.006485
    10  C    0.021719   0.437405   0.494338  -0.027303  -0.067525   0.000446
    11  C   -0.054359  -0.033118  -0.094133   0.437247   0.463865   0.000783
    12  C    0.007523  -0.000334   0.000309   0.002347  -0.004762   0.520815
    13  O    0.007412  -0.000009   0.000010  -0.000085   0.000418   0.003733
    14  H   -0.006209   0.000850  -0.000270   0.002193  -0.012517  -0.005365
    15  H    0.001203  -0.000003   0.000006  -0.000011  -0.000069  -0.017676
    16  H   -0.001645  -0.000007  -0.000001   0.000017   0.000027   0.009109
    17  H   -0.001240   0.000121  -0.000109   0.000241  -0.001261  -0.002038
    18  H    0.002395  -0.000020  -0.000009  -0.000112   0.000929  -0.008943
    19  H   -0.014835   0.000269  -0.000695   0.000876  -0.002337   0.000333
    20  H    0.004296   0.000004   0.000061  -0.001570   0.001784  -0.003654
    21  H   -0.012508   0.001116  -0.001891   0.000872   0.000194  -0.000014
    22  H   -0.019232  -0.001911  -0.002471   0.001196  -0.001871   0.000171
    23  H   -0.003876  -0.005000   0.001850  -0.001716  -0.001998   0.000159
    24  H    0.003735  -0.006460  -0.002380   0.001155  -0.001720  -0.000050
    25  H    0.484557   0.000866   0.001384  -0.001806   0.003231  -0.000541
    26  H    0.000866   0.491050  -0.014227  -0.007815  -0.001853  -0.000027
    27  H    0.001384  -0.014227   0.486892  -0.007143   0.005257  -0.000001
    28  H   -0.001806  -0.007815  -0.007143   0.482294  -0.018207   0.000046
    29  H    0.003231  -0.001853   0.005257  -0.018207   0.516670   0.000314
    30  H   -0.000541  -0.000027  -0.000001   0.000046   0.000314   0.469003
    31  H    0.003479   0.000006   0.000005   0.000026   0.000146  -0.012335
              31
     1  C   -0.012772
     2  C   -0.010592
     3  O   -0.001147
     4  C    0.007882
     5  C   -0.022352
     6  O   -0.000189
     7  C   -0.000269
     8  C   -0.000169
     9  C    0.004729
    10  C    0.000305
    11  C   -0.001616
    12  C    0.398671
    13  O    0.010812
    14  H   -0.003645
    15  H    0.003110
    16  H   -0.012526
    17  H    0.001213
    18  H    0.000900
    19  H   -0.005161
    20  H   -0.006458
    21  H    0.000002
    22  H   -0.000106
    23  H   -0.000047
    24  H    0.000011
    25  H    0.003479
    26  H    0.000006
    27  H    0.000005
    28  H    0.000026
    29  H    0.000146
    30  H   -0.012335
    31  H    0.498940
 Mulliken charges:
               1
     1  C   -0.114812
     2  C   -0.218249
     3  O   -0.261589
     4  C   -0.348557
     5  C   -0.074487
     6  O   -0.268760
     7  C   -0.598364
     8  C   -0.263484
     9  C   -0.004473
    10  C   -0.427606
    11  C   -0.087820
    12  C   -0.456453
    13  O   -0.289123
    14  H    0.237872
    15  H    0.175116
    16  H    0.181594
    17  H    0.191328
    18  H    0.182751
    19  H    0.203173
    20  H    0.191498
    21  H    0.186920
    22  H    0.194265
    23  H    0.177077
    24  H    0.181819
    25  H    0.273985
    26  H    0.173103
    27  H    0.164422
    28  H    0.205507
    29  H    0.139236
    30  H    0.194961
    31  H    0.159151
 Sum of Mulliken charges =  -0.00000
 Mulliken charges with hydrogens summed into heavy atoms:
               1
     1  C    0.123059
     2  C    0.138461
     3  O   -0.261589
     4  C    0.025523
     5  C    0.320184
     6  O   -0.268760
     7  C   -0.217179
     8  C    0.095412
     9  C    0.269512
    10  C   -0.090081
    11  C    0.256924
    12  C   -0.102342
    13  O   -0.289123
 Electronic spatial extent (au):  <R**2>=           3017.6494
 Charge=              0.0000 electrons
 Dipole moment (field-independent basis, Debye):
    X=              0.0542    Y=              1.5178    Z=              1.1366  Tot=              1.8969
 Quadrupole moment (field-independent basis, Debye-Ang):
   XX=            -71.6648   YY=            -83.6000   ZZ=            -77.4360
   XY=             -7.2379   XZ=             -0.4212   YZ=              1.2877
 Traceless Quadrupole moment (field-independent basis, Debye-Ang):
   XX=              5.9021   YY=             -6.0331   ZZ=              0.1309
   XY=             -7.2379   XZ=             -0.4212   YZ=              1.2877
 Octapole moment (field-independent basis, Debye-Ang**2):
  XXX=             -1.3794  YYY=              2.6848  ZZZ=             -0.9950  XYY=              7.2231
  XXY=             19.1867  XXZ=              5.2178  XZZ=             -6.0343  YZZ=             -1.4806
  YYZ=              4.8728  XYZ=             10.3911
 Hexadecapole moment (field-independent basis, Debye-Ang**3):
 XXXX=          -3005.6773 YYYY=           -579.4600 ZZZZ=           -305.6727 XXXY=            -36.7848
 XXXZ=             11.0722 YYYX=              2.2276 YYYZ=             -1.5381 ZZZX=              1.2478
 ZZZY=             -0.0441 XXYY=           -639.7564 XXZZ=           -554.5424 YYZZ=           -152.8075
 XXYZ=             -2.3748 YYXZ=              0.3718 ZZXY=              3.0227
 N-N= 8.975575787055D+02 E-N=-3.237158018266D+03  KE= 6.153269729944D+02
 D1PCM: PCM CHGder 1st derivatives, ID1Alg=3 FixD1E=F DoIter=F DoCFld=F I1PDM=0.
 Calling FoFJK, ICntrl=      2127 FMM=F ISym2X=0 I1Cent= 0 IOpClX= 0 NMat=1 NMatS=1 NMatT=0.
 ***** Axes restored to original set *****
 -------------------------------------------------------------------
 Center     Atomic                   Forces (Hartrees/Bohr)
 Number     Number              X              Y              Z
 -------------------------------------------------------------------
      1        6          -0.002343796   -0.003559061   -0.003708284
      2        6          -0.004787619   -0.002334242    0.003594763
      3        8           0.002901433   -0.009099592   -0.006988206
      4        6           0.002503311   -0.005403171   -0.003513885
      5        6           0.002829409    0.002845630    0.003306795
      6        8          -0.000854437    0.012657925    0.003068553
      7        6           0.000088677    0.000026955    0.002739383
      8        6           0.001496171   -0.003123056   -0.001815432
      9        6          -0.004327135   -0.001565463    0.007691138
     10        6           0.002153559    0.001147860    0.001368740
     11        6          -0.001309941    0.005916420   -0.002811164
     12        6          -0.000830723    0.001581235   -0.001838306
     13        8          -0.002011526    0.007122978   -0.005922371
     14        1          -0.000276556   -0.003769496    0.005244389
     15        1           0.004514368   -0.000319026    0.003203040
     16        1           0.000857000   -0.000081290   -0.004722902
     17        1          -0.003509081    0.003630737    0.000376717
     18        1           0.002775978   -0.001888798    0.005530121
     19        1          -0.000711490    0.002659172   -0.004014930
     20        1          -0.002601726   -0.002405479    0.000186991
     21        1           0.001456054    0.002810833    0.000123966
     22        1          -0.001479582   -0.001310535   -0.002737732
     23        1           0.002392024    0.000463045    0.002711085
     24        1          -0.001996521    0.001509409   -0.000674208
     25        1           0.003869008   -0.001754457   -0.007081078
     26        1          -0.001886032    0.000069313    0.002157476
     27        1          -0.001106689   -0.000970693   -0.002989995
     28        1          -0.001396769   -0.004200543   -0.000115670
     29        1           0.002582408    0.002251246    0.005454458
     30        1          -0.000004437   -0.000613880    0.003525964
     31        1           0.001014660   -0.002293977   -0.001349415
 -------------------------------------------------------------------
 Cartesian Forces:  Max     0.012657925 RMS     0.003471568

 GradGradGradGradGradGradGradGradGradGradGradGradGradGradGradGradGradGrad
 Berny optimization.
 FormGI is forming the generalized inverse of G from B-inverse, IUseBI=4.
 Internal  Forces:  Max     0.016626148 RMS     0.002224447
 Search for a local minimum.
 Step number   1 out of a maximum of  186
 All quantities printed in internal units (Hartrees-Bohrs-Radians)
 Mixed Optimization -- RFO/linear search
 Second derivative matrix not updated -- first step.
 ITU=  0
     Eigenvalues ---    0.00404   0.00617   0.00620   0.00720   0.01413
     Eigenvalues ---    0.01442   0.01762   0.02699   0.02732   0.03076
     Eigenvalues ---    0.03341   0.03964   0.04079   0.04555   0.04748
     Eigenvalues ---    0.04787   0.04891   0.04904   0.05069   0.05144
     Eigenvalues ---    0.05294   0.05597   0.05685   0.05994   0.06174
     Eigenvalues ---    0.06191   0.06632   0.07080   0.07590   0.07622
     Eigenvalues ---    0.07814   0.07861   0.07968   0.08068   0.08248
     Eigenvalues ---    0.08829   0.09168   0.10236   0.11159   0.11596
     Eigenvalues ---    0.11680   0.11757   0.11764   0.12396   0.12710
     Eigenvalues ---    0.14678   0.14928   0.16473   0.18011   0.19087
     Eigenvalues ---    0.20003   0.21952   0.22555   0.25000   0.27042
     Eigenvalues ---    0.27490   0.28517   0.28620   0.28852   0.28927
     Eigenvalues ---    0.29250   0.30274   0.35089   0.35196   0.35210
     Eigenvalues ---    0.35237   0.35257   0.35286   0.35307   0.35310
     Eigenvalues ---    0.35393   0.35441   0.35465   0.35466   0.35641
     Eigenvalues ---    0.35718   0.35780   0.35839   0.35988   0.36342
     Eigenvalues ---    0.40190   0.40922   0.41052   0.41628   0.43233
     Eigenvalues ---    0.465151000.000001000.000001000.000001000.00000
     Eigenvalues --- 1000.000001000.000001000.000001000.000001000.00000
     Eigenvalues --- 1000.000001000.000001000.000001000.000001000.00000
     Eigenvalues --- 1000.000001000.000001000.000001000.000001000.00000
     Eigenvalues --- 1000.000001000.000001000.000001000.000001000.00000
     Eigenvalues --- 1000.000001000.000001000.000001000.000001000.00000
     Eigenvalues --- 1000.000001000.000001000.000001000.000001000.00000
     Eigenvalues --- 1000.000001000.000001000.000001000.000001000.00000
     Eigenvalues --- 1000.000001000.000001000.000001000.000001000.00000
     Eigenvalues --- 1000.000001000.000001000.000001000.000001000.00000
     Eigenvalues --- 1000.000001000.000001000.000001000.000001000.00000
     Eigenvalues --- 1000.000001000.000001000.000001000.000001000.00000
     Eigenvalues --- 1000.000001000.000001000.000001000.000001000.00000
     Eigenvalues --- 1000.000001000.000001000.000001000.000001000.00000
     Eigenvalues --- 1000.000001000.000001000.000001000.000001000.00000
     Eigenvalues --- 1000.000001000.000001000.000001000.000001000.00000
     Eigenvalues --- 1000.000001000.000001000.000001000.000001000.00000
     Eigenvalues --- 1000.000001000.000001000.000001000.000001000.00000
     Eigenvalues --- 1000.000001000.000001000.000001000.000001000.00000
     Eigenvalues --- 1000.000001000.000001000.000001000.000001000.00000
 RFO step:  Lambda=-4.03578344D-03 EMin= 4.04273146D-03
 Linear search not attempted -- first point.
 Iteration  1 RMS(Cart)=  0.06819797 RMS(Int)=  0.00085741
 Iteration  2 RMS(Cart)=  0.00277460 RMS(Int)=  0.00005696
 Iteration  3 RMS(Cart)=  0.00000237 RMS(Int)=  0.00005695
 Iteration  4 RMS(Cart)=  0.00000000 RMS(Int)=  0.00005695
 Iteration  1 RMS(Cart)=  0.00000808 RMS(Int)=  0.00000182
 Iteration  2 RMS(Cart)=  0.00000448 RMS(Int)=  0.00000203
 Iteration  3 RMS(Cart)=  0.00000248 RMS(Int)=  0.00000230
 Iteration  4 RMS(Cart)=  0.00000137 RMS(Int)=  0.00000248
 Iteration  5 RMS(Cart)=  0.00000076 RMS(Int)=  0.00000259
 Variable       Old X    -DE/DX   Delta X   Delta X   Delta X     New X
                                 (Linear)    (Quad)   (Total)
    R1        2.89592   0.00035   0.00000   0.00059   0.00062   2.89654
    R2        2.89891  -0.00187   0.00000  -0.00844  -0.00842   2.89049
    R3        2.70148  -0.00022   0.00000  -0.00054  -0.00054   2.70094
    R4        2.04925   0.00636   0.00000   0.01774   0.01774   2.06698
    R5        2.89551   0.00041   0.00000   0.00310   0.00306   2.89858
    R6        2.68364   0.00309   0.00000   0.00943   0.00940   2.69305
    R7        2.05213   0.00545   0.00000   0.01526   0.01526   2.06740
    R8        2.04427   0.00478   0.00000   0.01320   0.01320   2.05747
    R9        2.65562   0.00388   0.00000   0.00825   0.00826   2.66388
   R10        2.68534   0.00300   0.00000   0.00682   0.00682   2.69216
   R11        2.66520   0.00295   0.00000   0.00680   0.00681   2.67201
   R12        2.04101   0.00485   0.00000   0.01332   0.01332   2.05433
   R13        2.05174   0.00639   0.00000   0.01790   0.01790   2.06964
   R14        2.88965  -0.00025   0.00000  -0.00306  -0.00306   2.88659
   R15        2.04647   0.00469   0.00000   0.01300   0.01300   2.05948
   R16        2.04525   0.00333   0.00000   0.00922   0.00922   2.05448
   R17        2.63555   0.00267   0.00000   0.00570   0.00570   2.64125
   R18        2.89002  -0.00145   0.00000  -0.00459  -0.00460   2.88542
   R19        2.87702  -0.00064   0.00000  -0.00240  -0.00242   2.87461
   R20        2.04965   0.00314   0.00000   0.00877   0.00877   2.05841
   R21        2.05357   0.00331   0.00000   0.00930   0.00930   2.06288
   R22        2.88900  -0.00073   0.00000  -0.00193  -0.00195   2.88706
   R23        2.05336   0.00343   0.00000   0.00963   0.00963   2.06299
   R24        2.05179   0.00259   0.00000   0.00725   0.00725   2.05904
   R25        2.03549   0.00815   0.00000   0.02219   0.02219   2.05768
   R26        2.87165   0.00022   0.00000   0.00096   0.00098   2.87263
   R27        2.05292   0.00284   0.00000   0.00798   0.00798   2.06091
   R28        2.05531   0.00326   0.00000   0.00918   0.00918   2.06449
   R29        2.04334   0.00443   0.00000   0.01221   0.01221   2.05555
   R30        2.05042   0.00633   0.00000   0.01768   0.01768   2.06810
   R31        2.05259   0.00351   0.00000   0.00985   0.00985   2.06244
   R32        2.04926   0.00282   0.00000   0.00787   0.00787   2.05713
    A1        1.91660   0.00034   0.00000  -0.00586  -0.00603   1.91057
    A2        1.89175   0.00039   0.00000   0.00439   0.00415   1.89590
    A3        1.88041   0.00030   0.00000   0.01050   0.01048   1.89089
    A4        2.03553  -0.00193   0.00000  -0.02196  -0.02192   2.01361
    A5        1.89010  -0.00018   0.00000   0.00058   0.00067   1.89077
    A6        1.84283   0.00125   0.00000   0.01553   0.01546   1.85829
    A7        1.94601   0.00140   0.00000   0.00512   0.00498   1.95099
    A8        1.93990  -0.00098   0.00000  -0.00552  -0.00554   1.93436
    A9        1.93307  -0.00082   0.00000  -0.00626  -0.00621   1.92686
   A10        1.90490   0.00062   0.00000   0.00747   0.00755   1.91246
   A11        1.84469  -0.00077   0.00000  -0.00251  -0.00249   1.84220
   A12        1.89211   0.00056   0.00000   0.00200   0.00196   1.89407
   A13        2.02118  -0.00583   0.00000  -0.03678  -0.03667   1.98451
   A14        1.94467   0.00070   0.00000   0.00029   0.00015   1.94483
   A15        1.92597  -0.00154   0.00000  -0.01604  -0.01603   1.90994
   A16        1.92166  -0.00076   0.00000  -0.00054  -0.00057   1.92109
   A17        1.87201  -0.00060   0.00000  -0.00054  -0.00060   1.87141
   A18        1.90853   0.00150   0.00000   0.01285   0.01290   1.92143
   A19        1.88956   0.00074   0.00000   0.00432   0.00426   1.89382
   A20        1.88907  -0.00055   0.00000  -0.00610  -0.00625   1.88282
   A21        1.93895  -0.00010   0.00000  -0.00833  -0.00832   1.93063
   A22        1.92990  -0.00067   0.00000  -0.00291  -0.00283   1.92707
   A23        1.88883   0.00082   0.00000   0.00116   0.00115   1.88998
   A24        1.93795   0.00047   0.00000   0.01290   0.01291   1.95086
   A25        1.87915   0.00008   0.00000   0.00350   0.00342   1.88257
   A26        2.15467  -0.01663   0.00000  -0.06545  -0.06545   2.08923
   A27        1.95550  -0.00177   0.00000  -0.01508  -0.01521   1.94029
   A28        1.94715  -0.00025   0.00000  -0.00134  -0.00143   1.94572
   A29        1.90992   0.00124   0.00000   0.00746   0.00754   1.91746
   A30        1.90159   0.00081   0.00000  -0.00024  -0.00022   1.90137
   A31        1.87119   0.00006   0.00000   0.00315   0.00315   1.87433
   A32        1.87526  -0.00000   0.00000   0.00714   0.00711   1.88237
   A33        1.91461   0.00196   0.00000  -0.00087  -0.00087   1.91374
   A34        1.92251  -0.00101   0.00000  -0.00673  -0.00674   1.91577
   A35        1.91590  -0.00054   0.00000   0.00169   0.00169   1.91759
   A36        1.91419  -0.00087   0.00000  -0.00211  -0.00220   1.91199
   A37        1.92963  -0.00028   0.00000   0.00194   0.00199   1.93162
   A38        1.86657   0.00067   0.00000   0.00617   0.00618   1.87274
   A39        1.94760   0.00028   0.00000  -0.00240  -0.00225   1.94535
   A40        1.93972   0.00347   0.00000   0.01322   0.01304   1.95276
   A41        1.83437  -0.00253   0.00000  -0.01440  -0.01441   1.81996
   A42        1.88390  -0.00321   0.00000  -0.01483  -0.01475   1.86915
   A43        1.93485   0.00191   0.00000   0.01391   0.01391   1.94876
   A44        1.92394   0.00026   0.00000   0.00540   0.00548   1.92941
   A45        1.92388  -0.00098   0.00000  -0.00501  -0.00520   1.91868
   A46        1.93890  -0.00052   0.00000  -0.00183  -0.00180   1.93710
   A47        1.91600   0.00092   0.00000   0.00175   0.00183   1.91782
   A48        1.90389   0.00059   0.00000   0.00339   0.00344   1.90732
   A49        1.90481   0.00002   0.00000  -0.00155  -0.00149   1.90332
   A50        1.87546   0.00000   0.00000   0.00346   0.00343   1.87888
   A51        1.94428   0.00233   0.00000   0.00605   0.00600   1.95028
   A52        1.84291  -0.00134   0.00000  -0.00209  -0.00210   1.84080
   A53        1.90906   0.00021   0.00000   0.00190   0.00196   1.91102
   A54        1.94544  -0.00023   0.00000  -0.00175  -0.00169   1.94375
   A55        1.93220  -0.00171   0.00000  -0.00799  -0.00804   1.92416
   A56        1.88700   0.00076   0.00000   0.00427   0.00425   1.89126
   A57        1.91061  -0.00009   0.00000  -0.00920  -0.00927   1.90134
   A58        1.93052   0.00059   0.00000   0.00338   0.00335   1.93387
   A59        1.90725  -0.00024   0.00000   0.00414   0.00417   1.91142
   A60        1.91744  -0.00075   0.00000  -0.00376  -0.00377   1.91367
   A61        1.93179   0.00044   0.00000   0.00318   0.00325   1.93504
   A62        1.86596   0.00006   0.00000   0.00267   0.00265   1.86861
   A63        1.97043  -0.00416   0.00000  -0.02722  -0.02721   1.94322
    D1        0.48320   0.00108   0.00000   0.00819   0.00820   0.49140
    D2        2.56085  -0.00023   0.00000  -0.00281  -0.00280   2.55804
    D3       -1.63752  -0.00077   0.00000  -0.00790  -0.00788  -1.64540
    D4       -1.75862   0.00302   0.00000   0.03725   0.03731  -1.72131
    D5        0.31902   0.00171   0.00000   0.02626   0.02631   0.34533
    D6        2.40384   0.00117   0.00000   0.02116   0.02123   2.42508
    D7        2.53828   0.00122   0.00000   0.01169   0.01167   2.54995
    D8       -1.66726  -0.00009   0.00000   0.00069   0.00067  -1.66660
[...]
 002030,0.00078568,-0.00018406,0.00008556,0.00021775,-0.00058879,0.0006
 5490,-0.00003098,0.00000775,0.00003680,-0.00000576,-0.00002041,0.00002
 032,0.00000234,0.00009217,0.00012070,0.00005227,-0.00017798,-0.0000552
 1,-0.00000946,-0.00060888,0.00007306,0.00162410,-0.00003728,-0.0000667
 1,0.00010467,0.00048343,-0.00022479,-0.00003175,0.00039280,-0.00034293
 ,0.00067831,-0.00012225,0.00007071,0.00016765,-0.00029496,0.00002760,0
 .00017209,-0.13058297,0.00903261,0.25103297,0.00031417,-0.00009536,0.0
 0014695,0.00001403,0.00000903,-0.00001396,-0.00684848,0.00328340,0.001
 19768,0.00001773,0.00005024,-0.00003476,-0.00008133,0.00006544,-0.0000
 4546,-0.00053811,-0.00030759,-0.00038658,0.00086738,-0.00186063,-0.000
 66122,-0.00535331,-0.00121022,0.00584797,0.00139261,0.00198647,-0.0001
 7240,-0.13775800,-0.01536887,0.12261839,-0.01252351,-0.00610420,0.0221
 8724,0.00000659,-0.00002358,0.00001947,-0.00005040,-0.00001478,0.00002
 140,-0.00003750,0.00003149,-0.00003348,-0.00001250,-0.00001085,-0.0000
 0151,-0.00000408,-0.00000029,0.00000516,0.00000108,0.00000100,0.000004
 65,-0.00003302,-0.00000942,-0.00000799,0.00004724,0.00000457,-0.000017
 25,0.00000763,-0.00006948,0.00000784,-0.00012789,0.00009486,0.00046521
 ,-0.00008701,0.00003100,0.00028648,0.00008207,0.00026537,-0.00005653,0
 .00038602,-0.00014516,-0.00029125,-0.00004008,-0.00018748,0.00005172,0
 .14795998,-0.00003198,-0.00004839,-0.00003848,0.00001168,-0.00001136,0
 .00000598,0.00657021,-0.00119034,-0.00114214,-0.00000659,0.00001024,-0
 .00000522,0.00001515,-0.00005998,0.00002435,0.00000948,0.00046997,0.00
 009289,-0.00127029,-0.00686687,-0.00061162,-0.01980389,-0.00250826,0.0
 2708206,0.00012698,-0.00228601,0.00018360,-0.01516660,-0.04967773,0.02
 319959,0.00770064,0.00326007,-0.01691170,0.00000479,0.00003786,-0.0000
 1126,-0.00000166,0.00000452,0.00000311,-0.00001526,0.00000604,-0.00000
 909,0.00000313,0.00000570,-0.00000076,0.00000053,0.00000094,-0.0000010
 8,0.00000508,0.00000060,0.00000207,-0.00000132,-0.00000365,-0.00000015
 ,-0.00001745,-0.00000149,-0.00000812,0.00000291,0.00005449,-0.00000370
 ,-0.00158019,-0.00011698,0.00148597,0.00023449,0.00003547,-0.00003056,
 0.00031305,0.00145413,-0.00057257,0.00086706,0.00133064,-0.00010727,-0
 .00003192,0.00036026,-0.00011465,0.01774614,0.05475455,-0.00013821,0.0
 0004807,-0.00005119,-0.00001051,0.00000071,0.00000409,-0.00031934,0.00
 059818,0.00165311,-0.00000958,-0.00002419,0.00001687,0.00003265,-0.000
 00941,0.00001759,0.00026973,0.00000013,0.00010524,0.00002747,0.0010372
 7,0.00130900,0.00000914,-0.00037624,-0.00171068,-0.00066496,-0.0000630
 5,-0.00014940,0.12500757,0.02334672,-0.22287148,-0.00313509,-0.0007675
 6,0.00200430,-0.00000446,0.00000014,-0.00000845,0.00002603,0.00000546,
 -0.00001241,0.00001228,-0.00001832,0.00001303,0.00000477,0.00000298,0.
 00000131,0.00000197,-0.00000041,-0.00000218,-0.00000094,-0.00000086,-0
 .00000237,0.00001536,0.00000530,0.00000319,-0.00001003,-0.00000230,0.0
 0000733,-0.00000461,0.00001421,-0.00000176,0.00046604,-0.00012671,-0.0
 0010056,-0.00025273,-0.00007277,0.00034540,-0.00000415,0.00037380,0.00
 065397,-0.00011413,0.00023365,-0.00010603,0.00002440,-0.00008069,-0.00
 004119,-0.13691218,-0.02596119,0.23827866,0.00014817,-0.00004768,0.000
 00848,0.00001504,-0.00000680,-0.00000304,0.00274378,-0.00078957,0.0006
 6663,0.00002686,0.00002097,0.00000894,0.00000995,-0.00001727,-0.000018
 60,-0.00007982,-0.00006044,0.00017542,-0.00001126,0.00019379,-0.000654
 78,-0.00470724,-0.00266258,-0.00663557,-0.00024939,-0.00002783,-0.0001
 5319,-0.11830226,-0.03952294,-0.10569521,-0.01676947,-0.00651631,-0.02
 425538,0.00000497,0.00001031,0.00000672,-0.00003543,-0.00000970,0.0000
 1834,0.00004693,0.00001225,0.00002403,-0.00000302,-0.00000005,-0.00000
 101,-0.00000193,0.00000067,0.00000206,-0.00000023,-0.00000208,0.000000
 22,-0.00001005,-0.00000221,-0.00000160,-0.00000287,0.00000049,0.000002
 31,0.00001837,0.00000550,-0.00001009,0.00011816,0.00002856,0.00016635,
 -0.00022575,-0.00013741,0.00029057,0.00048551,-0.00153233,0.00021393,0
 .00051883,0.00004733,0.00042748,-0.00006569,-0.00002263,0.00000638,0.0
 1087694,0.00584770,0.01480204,0.12797423,-0.00003803,0.00001696,0.0000
 9838,-0.00000165,0.00000347,0.00000070,-0.00213682,0.00044323,-0.00060
 237,-0.00001270,-0.00000150,-0.00001837,-0.00004329,0.00001268,-0.0000
 0185,0.00000873,0.00020598,-0.00006160,0.00080665,0.00137025,-0.001037
 16,-0.01741289,-0.01198044,-0.02723448,-0.00002047,-0.00042105,0.00012
 996,-0.03969705,-0.06859343,-0.06081106,0.01226759,0.00482095,0.019227
 52,-0.00000214,0.00000527,0.00000131,0.00001311,0.00000671,-0.00000603
 ,-0.00005400,-0.00000317,-0.00002776,0.00000031,-0.00000039,0.00000001
 ,-0.00000022,-0.00000005,-0.00000040,0.00000404,0.00000375,0.00000157,
 -0.00000114,-0.00000141,-0.00000128,0.00000751,-0.00000085,-0.00000731
 ,-0.00001176,0.00000173,0.00000766,0.00042761,0.00005380,0.00023791,-0
 .00010886,0.00016379,0.00074491,-0.00211386,-0.00590870,0.00137244,0.0
 0075073,0.00134028,-0.00001463,-0.00007256,0.00010967,-0.00001963,0.00
 233648,0.00015424,0.00255465,0.04197961,0.07894438,0.00020357,-0.00010
 429,0.00005767,0.00001227,-0.00000242,-0.00000430,-0.00022276,-0.00039
 725,0.00199601,0.00000796,0.00002992,-0.00001188,-0.00001715,0.0000046
 3,-0.00000745,-0.00037322,-0.00011098,-0.00010584,0.00026271,0.0001889
 4,0.00090465,0.00248454,0.00048555,0.00250093,0.00020364,0.00044959,0.
 00002316,-0.10782593,-0.05990443,-0.21702565,-0.00103138,-0.00047475,-
 0.00486035,0.00000404,0.00000372,0.00000355,-0.00003022,-0.00000687,0.
 00001589,0.00001572,0.00002199,-0.00001917,-0.00000475,-0.00000242,-0.
 00000137,-0.00000213,0.00000067,0.00000237,0.00000366,0.00000111,0.000
 00221,-0.00001435,-0.00000544,-0.00000372,0.00001063,0.00000101,-0.000
 00699,0.00000510,-0.00000842,0.00000044,-0.00009542,-0.00007527,0.0001
 6147,-0.00040298,0.00000210,0.00014106,0.00066452,0.00071198,0.0011951
 6,-0.00000314,-0.00053964,0.00034751,-0.00008456,-0.00004798,-0.000010
 54,-0.01347869,-0.00689025,-0.01977500,0.12018278,0.06541036,0.2329710
 5,0.00055787,-0.00015415,0.00012406,0.00003606,-0.00000784,-0.00001279
 ,-0.01107411,-0.02588468,0.00751709,0.00003608,0.00006591,-0.00002292,
 -0.00006629,0.00000410,-0.00001838,-0.00045182,-0.00032639,-0.00013142
 ,-0.00045989,-0.00033571,0.00020966,-0.00533297,0.00230926,-0.00056834
 ,-0.00143174,0.00265121,0.00302619,0.00868777,0.02834085,-0.00067359,-
 0.06383096,-0.05891043,-0.00280522,0.00001552,0.00001379,0.00001816,-0
 .00008730,-0.00002030,0.00004252,-0.00002336,0.00003474,-0.00000967,-0
 .00001387,-0.00000606,-0.00000356,-0.00000571,0.00000206,0.00000605,0.
 00000412,0.00000225,0.00000640,-0.00004273,-0.00001197,-0.00000922,0.0
 0003762,0.00000496,-0.00002868,0.00000193,-0.00001741,-0.00000389,0.00
 024753,-0.00012012,-0.00009008,0.00006938,-0.00002514,-0.00006644,0.00
 000903,-0.00000612,0.00016864,0.00044578,0.00181729,-0.00030162,-0.000
 34115,-0.00113780,0.00033859,0.00081936,-0.00110522,0.00039429,0.00121
 817,-0.00091269,-0.00005089,0.07407933,0.00035728,-0.00013486,0.000125
 67,0.00002444,-0.00000329,-0.00001116,-0.00406802,-0.00247483,0.003775
 86,0.00002403,0.00005687,-0.00002748,-0.00008009,0.00000966,-0.0000414
 2,-0.00038044,-0.00004324,-0.00008234,0.00006359,0.00028043,-0.0004198
 8,0.00443129,-0.00031843,0.00036580,0.00087055,0.00316702,0.00025565,-
 0.00453947,-0.01663506,-0.00106612,-0.06440135,-0.30628305,0.00032293,
 0.00000887,-0.00000077,0.00001756,-0.00006543,-0.00001592,0.00002981,-
 0.00002328,0.00001906,-0.00000801,-0.00001076,-0.00000687,-0.00000238,
 -0.00000447,0.00000074,0.00000517,0.00000232,0.00000134,0.00000413,-0.
 00003375,-0.00001112,-0.00000748,0.00003306,0.00001042,-0.00001499,0.0
 0000217,-0.00004447,0.00000728,-0.00006612,-0.00005638,0.00002496,-0.0
 0000882,0.00000624,0.00007213,-0.00001286,0.00023690,-0.00008466,-0.00
 045080,-0.00121397,0.00031988,-0.00014024,-0.00029706,0.00002007,0.000
 24811,0.00017012,-0.00026901,-0.00019595,0.00093987,0.00038828,0.06967
 197,0.32815788,-0.00005592,-0.00001015,-0.00002280,0.,-0.00001133,0.00
 000399,0.01612621,0.03465662,-0.00786270,0.00001884,-0.00000713,0.0000
 2560,0.00002062,-0.00003228,-0.00004558,-0.00008117,0.00003144,0.00178
 637,0.00034990,-0.00001705,-0.00009561,-0.00012307,0.00006882,0.000847
 65,0.00137155,-0.00312050,-0.00530647,-0.00090343,0.00420696,0.0003223
 7,-0.00597239,-0.00959832,-0.04919269,-0.00000562,0.00001009,0.0000174
 4,0.00000085,-0.00000114,0.00000458,0.00013093,-0.00002836,0.00005902,
 0.00000426,0.00000563,0.00000025,0.00000124,0.00000036,-0.00000131,-0.
 00000056,-0.00000696,-0.00000480,0.00001026,0.00000177,0.00000469,-0.0
 0004079,0.00000356,0.00004340,-0.00000004,0.00002581,-0.00000223,-0.00
 015981,0.00010919,0.00008473,-0.00000763,-0.00000241,0.00000670,0.0000
 9607,0.00041076,0.00009211,0.00006923,-0.00004359,0.00027539,0.0004818
 8,0.00137322,-0.00034771,-0.00008716,-0.00003264,0.00010700,0.00068078
 ,0.00016904,0.00025626,-0.00625586,-0.00280642,0.05683444,0.00012272,-
 0.00070394,0.00083253,-0.00002340,0.00001766,0.00000940,0.00880846,0.0
 0382086,0.02783520,-0.00009707,-0.00003342,-0.00004983,-0.00000547,0.0
 0003433,-0.00007573,-0.00201584,-0.00079162,-0.00019967,-0.00016866,-0
 .00008682,0.00009459,0.00090528,-0.00133878,0.00038647,0.00204828,0.00
 203429,0.00052151,-0.01547198,-0.00639162,-0.02345621,-0.11831266,-0.0
 3078680,-0.11215074,-0.00001938,0.00002615,-0.00002131,0.00008575,0.00
 004734,-0.00005796,-0.00011777,0.00016790,-0.00048936,0.00000688,0.000
 00380,0.00000248,0.00000324,-0.00000016,-0.00000417,0.00003227,0.00002
 424,0.00000461,0.00000639,-0.00000476,-0.00000586,0.00005074,-0.000026
 46,-0.00004506,0.00007548,0.00008050,-0.00003624,0.00013633,-0.0000631
 8,-0.00008027,-0.00007598,-0.00002835,0.00003650,0.00038789,0.00060074
 ,0.00020314,0.00007077,-0.00003262,0.00035215,-0.00015960,-0.00007853,
 -0.00020562,0.00073375,-0.00042831,0.00047454,-0.00373432,0.00404137,-
 0.00041133,-0.00306591,-0.00122547,-0.00568630,0.12979184,-0.00031527,
 -0.00000073,0.00011005,-0.00003272,0.00001570,0.00000329,0.00186399,0.
 00391976,0.00401823,0.00001547,-0.00007798,0.00002815,0.00007424,0.000
 06432,0.00001058,-0.00080389,-0.00048206,0.00052002,0.00001791,-0.0001
 6996,0.00018613,0.00001798,0.00166171,0.00078511,0.00051677,-0.0002238
 6,0.00157314,0.01164313,0.00434100,0.01668118,-0.03062682,-0.06864822,
 -0.05039674,-0.00000779,-0.00002968,-0.00001391,0.00006716,0.00001603,
 -0.00004378,0.00013224,0.00009982,-0.00007596,0.00000634,0.00000032,0.
 00000428,0.00000333,-0.00000198,-0.00000384,-0.00000345,-0.00000905,-0
 .00000751,0.00003830,0.00001040,0.00000990,-0.00000855,-0.00001568,-0.
 00000109,-0.00000750,-0.00001923,-0.00000897,-0.00003145,0.00001067,0.
 00000099,-0.00003988,0.00001435,-0.00008788,-0.00017861,-0.00005005,-0
 .00042435,-0.00015075,0.00009492,-0.00028611,-0.00004533,-0.00003246,-
 0.00019693,-0.00075106,0.00066346,-0.00044659,0.00340583,-0.00168592,0
 .00086891,-0.01594059,-0.00552114,-0.02535130,0.03112098,0.06605597,0.
 00043568,-0.00017663,0.00003475,0.00003796,-0.00003761,0.00000224,0.00
 283093,-0.00099561,-0.03783517,0.00008681,0.00002233,0.00008875,0.0001
 0477,-0.00010938,-0.00014251,-0.00019031,0.00041783,0.00299356,0.00040
 943,0.00056645,0.00007843,0.00045426,-0.00011974,0.00003226,-0.0034439
 4,-0.00597735,-0.00187057,-0.00321578,-0.00140836,-0.00099976,-0.10846
 871,-0.04548014,-0.21676092,0.00000183,0.00006701,0.00003415,-0.000082
 41,-0.00002460,0.00004678,0.00032744,0.00005139,0.00003157,0.00000029,
 0.00001222,-0.00000174,-0.00000253,0.00000366,0.00000120,0.00000516,-0
 .00001566,-0.00000889,-0.00000273,0.00000036,0.00000105,-0.00005350,-0
 .00002128,0.00004947,0.00004642,0.00010529,-0.00008251,-0.00013311,0.0
 0021846,0.00001691,0.00001588,-0.00007902,0.00003873,-0.00002515,0.000
 54312,-0.00018709,0.00004404,0.00009412,0.00015163,0.00027955,0.000435
 02,0.00009678,-0.00065202,0.00037077,0.00030995,-0.00025387,-0.0001121
 2,0.00125570,-0.00078978,-0.00088676,0.00210506,0.11222114,0.05254071,
 0.25051423,0.00110434,-0.00011319,-0.00177356,-0.00121365,-0.00418300,
 0.01817937,-0.00009721,0.00006029,0.00010940,0.00003792,0.00012099,0.0
 0003214,-0.00590548,0.00875613,-0.03366380,0.00050521,-0.00034131,0.00
 036764,-0.00003363,-0.00006233,0.00023670,-0.00005584,0.00005465,-0.00
 004312,-0.00007486,-0.00001678,-0.00063849,-0.00000296,0.00000790,0.00
 002636,0.00005442,0.00001605,-0.00011137,-0.05174286,0.00958017,-0.033
 20682,0.00037680,-0.00036194,-0.00023418,-0.00018620,-0.00004352,0.000
 52171,0.00096640,0.00050804,0.00026038,-0.00094024,-0.00363317,0.00082
 789,-0.00000184,-0.00007179,0.00007099,0.00021018,0.00039791,0.0000112
 9,-0.00655086,0.00099004,-0.00078455,0.00116111,-0.00061910,0.00048157
 ,-0.00000190,0.00001500,-0.00000379,0.00001114,-0.00000820,-0.00000355
 ,0.00000054,0.00000070,0.00000721,-0.00002468,-0.00000032,0.00002424,-
 0.00009650,-0.00000345,0.00032564,-0.00001269,0.00000205,0.00000394,0.
 00000057,-0.00000202,-0.00000384,-0.00001081,-0.00000966,0.00001462,-0
 .00000719,0.00000241,0.00002380,0.06091903,0.00044469,-0.00007393,0.00
 087370,0.00248426,-0.00546954,0.02804797,-0.00001412,-0.00005799,-0.00
 001797,0.00007498,-0.00053828,0.00085372,0.00136788,-0.00129391,0.0030
 9332,-0.00027249,0.00015750,-0.00025116,-0.00001047,-0.00001183,-0.000
 03997,0.00000579,-0.00000275,0.00000027,0.00009748,0.00009417,0.000177
 36,0.00000100,0.00000043,-0.00000171,0.00001246,0.00000264,0.00000467,
 0.00820985,-0.06356903,0.05511130,-0.00014193,-0.00114397,-0.00062449,
 0.00007756,-0.00000105,-0.00017290,0.00074334,0.00141082,-0.00059762,-
 0.00208489,-0.00364901,0.00097724,-0.00002371,0.00012351,-0.00016381,0
 .00019920,-0.00086217,-0.00047941,0.00062422,0.00070708,0.00038378,0.0
 0016164,0.00006328,-0.00026539,0.00000100,-0.00000286,0.00000084,-0.00
 001225,0.00000543,-0.00000238,0.00000124,-0.00000177,-0.00000191,-0.00
 000137,0.00000077,-0.00000078,0.00000065,-0.00000750,-0.00004733,-0.00
 000070,-0.00000055,0.00000070,-0.00000133,0.,-0.00000082,-0.00000311,-
 0.00000226,-0.00000186,0.00000452,0.00000353,-0.00000508,-0.00767825,0
 .06795409,0.00046068,-0.00115341,0.00063603,0.00006046,-0.00045523,-0.
 00608334,-0.00020965,-0.00001575,0.00006211,0.00015690,-0.00070239,-0.
 00155411,-0.00221576,0.00155736,-0.00527671,-0.00042705,0.00015750,0.0
 0007300,0.00000132,-0.00001532,0.00003677,-0.00000542,0.00001673,-0.00
 001548,0.00029337,0.00001603,-0.00014203,-0.00000461,0.00000114,0.0000
 1974,0.00006843,0.00002014,-0.00008122,-0.03187316,0.05782294,-0.29241
 687,-0.00035761,0.00118883,0.00085939,-0.00050621,0.00066027,0.0001312
 7,0.00017098,0.00006889,0.00128537,0.00056305,0.00133324,0.00106694,0.
 00004341,0.00002672,0.00035832,0.00055012,-0.00056190,0.00041609,-0.00
 110959,-0.00032629,0.00115191,-0.00034468,-0.00008054,0.00017023,-0.00
 000368,0.00000809,0.00000115,-0.00001159,0.00000275,-0.00000415,0.0000
 0061,-0.00000333,-0.00000097,-0.00001301,0.00000152,0.00000599,-0.0001
 1189,-0.00001153,0.00007535,-0.00001090,0.00000293,0.00000392,-0.00000
 162,-0.00000021,-0.00000385,-0.00001252,-0.00000975,0.00000629,0.00000
 399,0.00000560,0.00000783,0.03715721,-0.06329659,0.31645489,-0.0048100
 0,-0.00104129,-0.00411922,0.00625106,-0.01068880,-0.00881007,-0.000275
 30,-0.00031308,-0.00004260,-0.00116136,-0.00053260,0.00008619,-0.01254
 969,0.02481334,0.01996844,-0.00233173,0.00214680,0.00092041,-0.0000388
 8,-0.00010186,-0.00008145,0.00000157,0.00002775,-0.00002867,0.00092653
 ,0.00045730,0.00097349,0.00000353,0.00000725,0.00001682,0.00014397,0.0
 0002985,-0.00009338,-0.08241889,0.07430388,0.05440916,0.00020220,-0.00
 347609,0.00018786,0.00008994,-0.00011360,0.00033010,-0.00114354,0.0005
 6272,-0.00010077,0.00134741,0.00014380,-0.00008057,0.00012465,0.000091
 21,-0.00007822,0.00021028,-0.00002484,-0.00000547,0.00146492,-0.000230
 23,-0.00026753,0.00149453,-0.00068597,0.00039658,0.00000482,-0.0000043
 2,0.00000895,-0.00007654,0.00002694,-0.00002464,0.00000892,-0.00001597
 ,-0.00002376,-0.00003459,0.00000188,0.00000506,0.00002539,-0.00008166,
 -0.00008990,-0.00001869,-0.00000041,0.00000869,-0.00000772,-0.00000158
 ,-0.00000839,-0.00002691,-0.00002070,0.00000252,0.00000916,0.00001763,
 -0.00001156,0.00161172,-0.00426716,-0.00231155,0.09097324,-0.00053472,
 0.00098902,0.00038639,0.01169122,-0.01767772,-0.01438653,0.00012548,0.
 00004724,0.00000201,-0.00118260,0.00042552,0.00156005,0.00008080,-0.00
 112501,-0.00004305,0.00009333,0.00005556,0.00000927,0.00000378,0.00002
 044,0.00000499,0.00000235,-0.00000694,0.00000809,-0.00016451,-0.000066
 48,-0.00016921,0.00000189,0.00000026,-0.00000854,-0.00004626,-0.000015
 74,0.00004166,0.07520132,-0.19979445,-0.11216734,-0.00115766,-0.006527
 88,0.00015335,0.00017165,-0.00003368,-0.00006546,-0.00110881,-0.000505
 35,0.00015026,0.00080949,0.00128290,0.00036421,0.00008884,-0.00002507,
 -0.00011595,0.00002802,0.00004600,-0.00013776,0.00004981,-0.00007788,0
 .00000688,0.00021554,0.00052620,0.00025531,0.00000050,-0.00000274,-0.0
 0000204,0.00001392,-0.00000547,0.00000407,-0.00000184,0.00000278,0.000
 00322,0.00000855,-0.00000124,-0.00000258,-0.00000722,0.00001323,0.0000
 0178,0.00000606,-0.00000170,-0.00000264,0.00000209,-0.00000008,0.00000
 248,0.00000734,0.00000619,-0.00000181,-0.00000385,-0.00000397,0.000000
 61,-0.00336432,0.00616515,0.00374156,-0.08103018,0.21629092,-0.0012945
 3,-0.00007395,0.00015403,-0.00371776,0.00736599,0.00304601,0.00006865,
 0.00000665,-0.00000689,0.00017080,-0.00008787,-0.00106174,-0.00322462,
 0.00665907,0.00415231,-0.00031994,0.00027167,0.00033261,0.00001445,0.0
 0002050,-0.00000091,0.00000088,-0.00000326,0.00000745,0.00004002,-0.00
 003043,0.00003553,0.00000228,-0.00000056,-0.00000702,-0.00001699,-0.00
 000926,0.00002599,0.05641223,-0.11465939,-0.13139064,0.00023368,0.0035
 4543,0.00027339,-0.00017592,0.00018438,0.00020853,0.00018903,-0.000194
 50,0.00034242,-0.00052435,0.00034280,0.00108353,0.00000152,-0.00006795
 ,0.00024635,0.00027127,-0.00008252,0.00040848,0.00063805,0.00007192,0.
 00044235,0.00055695,-0.00010454,0.00015133,-0.00000075,-0.00000113,0.0
 0000007,0.00000713,-0.00000362,0.00000036,-0.00000072,-0.00000016,-0.0
 0000264,0.00000292,-0.00000142,-0.00000415,0.00001298,-0.00000125,-0.0
 0003239,0.00000319,-0.00000087,-0.00000126,0.00000050,-0.00000015,0.00
 000103,0.00000323,0.00000268,-0.00000144,-0.00000259,-0.00000129,-0.00
 000188,0.01178496,-0.02355369,-0.01724386,-0.06113654,0.12040673,0.138
 84304\\0.00229288,0.00301289,-0.00221855,0.00000377,-0.00001194,0.0000
 0013,-0.00000423,0.00000780,-0.00000096,-0.00000569,-0.00000324,-0.000
 00039,-0.00111839,-0.00152500,0.00101557,-0.00241071,-0.00301698,0.002
 64933,0.00000690,0.00000320,0.00000575,-0.00000500,0.00000352,0.000003
 28,0.00124903,0.00152729,-0.00145272,-0.00000192,0.00000017,0.00000620
 ,0.00000368,-0.00000622,0.00000274,-0.00000144,0.00000588,-0.00000781,
 0.00000325,0.00000669,0.00000600,-0.00000260,0.00000143,-0.00000247,0.
 00000029,-0.00000083,-0.00000501,-0.00000424,-0.00000045,-0.00000584,-
 0.00000048,-0.00000075,0.00000061,0.00000083,-0.00000135,-0.00000153,-
 0.00000076,-0.00000015,-0.00000045,-0.00000219,-0.00000256,-0.00000152
 ,-0.00000301,0.00000248,0.00000022,-0.00000091,-0.00000107,-0.00000011
 ,0.00000160,-0.00000056,0.00000312,0.00000158,0.00000200,0.00000338,-0
 .00000188,0.00000275,0.00000188,-0.00000082,-0.00000099,-0.00000073,-0
 .00000038,0.00000096,-0.00000109,-0.00000104,-0.00000179,0.00000214,0.
 00000047,-0.00000011,-0.00000031,-0.00000104,-0.00000238,0.00000004,0.
 00000245,-0.00000071,-0.00000091\\\@


 WORK FAITHFULLY FOR EIGHT HOURS A DAY AND DON'T WORRY.
 IN TIME YOU MAY BECOME BOSS AND WORK TWELVE HOURS A DAY
 AND HAVE ALL THE WORRY.
 Job cpu time:       0 days 15 hours 53 minutes 24.9 seconds.
 Elapsed time:       0 days  0 hours 59 minutes 36.8 seconds.
 File lengths (MBytes):  RWF=    687 Int=      0 D2E=      0 Chk=     33 Scr=      1
 Normal termination of Gaussian 16 at Sun Nov  4 22:58:18 2018.
