 Entering Gaussian System, Link 0=g16
 Initial command:
 /apps/gaussian/g16a03/g16/l1.exe "/jobfs/local/2012025.r-man2/Gau-17367.inp" -scrdir="/jobfs/local/2012025.r-man2/"
 Entering Link 1 = /apps/gaussian/g16a03/g16/l1.exe PID=     17368.
  
 Copyright (c) 1988,1990,1992,1993,1995,1998,2003,2009,2016,
            Gaussian, Inc.  All Rights Reserved.
  
 This is part of the Gaussian(R) 16 program.  It is based on
 the Gaussian(R) 09 system (copyright 2009, Gaussian, Inc.),
 the Gaussian(R) 03 system (copyright 2003, Gaussian, Inc.),
 the Gaussian(R) 98 system (copyright 1998, Gaussian, Inc.),
 the Gaussian(R) 94 system (copyright 1995, Gaussian, Inc.),
 the Gaussian 92(TM) system (copyright 1992, Gaussian, Inc.),
 the Gaussian 90(TM) system (copyright 1990, Gaussian, Inc.),
 the Gaussian 88(TM) system (copyright 1988, Gaussian, Inc.),
 the Gaussian 86(TM) system (copyright 1986, Carnegie Mellon
 University), and the Gaussian 82(TM) system (copyright 1983,
 Carnegie Mellon University). Gaussian is a federally registered
 trademark of Gaussian, Inc.
  
 This software contains proprietary and confidential information,
 including trade secrets, belonging to Gaussian, Inc.
  
 This software is provided under written license and may be
 used, copied, transmitted, or stored only in accord with that
 written license.
  
 The following legend is applicable only to US Government
 contracts under FAR:
  
                    RESTRICTED RIGHTS LEGEND
  
 Use, reproduction and disclosure by the US Government is
 subject to restrictions as set forth in subparagraphs (a)
 and (c) of the Commercial Computer Software - Restricted
 Rights clause in FAR 52.227-19.
  
 Gaussian, Inc.
 340 Quinnipiac St., Bldg. 40, Wallingford CT 06492
  
  
 ---------------------------------------------------------------
 Warning -- This program may not be used in any manner that
 competes with the business of Gaussian, Inc. or will provide
 assistance to any competitor of Gaussian, Inc.  The licensee
 of this program is prohibited from giving any competitor of
 Gaussian, Inc. access to this program.  By using this program,
 the user acknowledges that Gaussian, Inc. is engaged in the
 business of creating and licensing software in the field of
 computational chemistry and represents and warrants to the
 licensee that it is not a competitor of Gaussian, Inc. and that
 it will not use this program in any manner prohibited above.
 ---------------------------------------------------------------
  

 Cite this work as:
 Gaussian 16, Revision A.03,
 M. J. Frisch, G. W. Trucks, H. B. Schlegel, G. E. Scuseria, 
 M. A. Robb, J. R. Cheeseman, G. Scalmani, V. Barone, 
 G. A. Petersson, H. Nakatsuji, X. Li, M. Caricato, A. V. Marenich, 
 J. Bloino, B. G. Janesko, R. Gomperts, B. Mennucci, H. P. Hratchian, 
 J. V. Ortiz, A. F. Izmaylov, J. L. Sonnenberg, D. Williams-Young, 
 F. Ding, F. Lipparini, F. Egidi, J. Goings, B. Peng, A. Petrone, 
 T. Henderson, D. Ranasinghe, V. G. Zakrzewski, J. Gao, N. Rega, 
 G. Zheng, W. Liang, M. Hada, M. Ehara, K. Toyota, R. Fukuda, 
 J. Hasegawa, M. Ishida, T. Nakajima, Y. Honda, O. Kitao, H. Nakai, 
 T. Vreven, K. Throssell, J. A. Montgomery, Jr., J. E. Peralta, 
 F. Ogliaro, M. J. Bearpark, J. J. Heyd, E. N. Brothers, K. N. Kudin, 
 V. N. Staroverov, T. A. Keith, R. Kobayashi, J. Normand, 
 K. Raghavachari, A. P. Rendell, J. C. Burant, S. S. Iyengar, 
 J. Tomasi, M. Cossi, J. M. Millam, M. Klene, C. Adamo, R. Cammi, 
 J. W. Ochterski, R. L. Martin, K. Morokuma, O. Farkas, 
 J. B. Foresman, and D. J. Fox, Gaussian, Inc., Wallingford CT, 2016.
 
 ******************************************
 Gaussian 16:  ES64L-G16RevA.03 25-Dec-2016
                 4-Nov-2018 
 ******************************************
 %mem=6000mb
 %nproc=24
 Will use up to   24 processors via shared memory.
 %chk=D_a1-4_2SO_PSI.inp_extract_23.chk
 ----------------------------------------------------------------------
 #M062X/6-311++G(2d,2p) opt=ModRedundant freq=noraman SCRF=(Solvent=Wat
 er)
 ----------------------------------------------------------------------
 1/18=120,19=15,26=3,38=1/1,3;
 2/9=110,12=2,17=6,18=5,40=1/2;
 3/5=4,6=6,7=1212,11=2,25=1,30=1,70=2201,71=1,72=1,74=-55/1,2,3;
 4//1;
 5/5=2,38=5,53=1/2;
 6/7=2,8=2,9=2,10=2,28=1/1;
 7//1,2,3,16;
 1/18=20,19=15,26=3/3(2);
 2/9=110/2;
 99//99;
 2/9=110/2;
 3/5=4,6=6,7=1212,11=2,25=1,30=1,70=2205,71=1,72=1,74=-55/1,2,3;
 4/5=5,16=3,69=1/1;
 5/5=2,38=5,53=1/2;
 7//1,2,3,16;
 1/18=20,19=15,26=3/3(-5);
 2/9=110/2;
 6/7=2,8=2,9=2,10=2,19=2,28=1/1;
 99/9=1/99;
 -----------------------------
 D_a1-4_2SO_PSI.inp_extract_23
 -----------------------------
 Symbolic Z-matrix:
 Charge =  0 Multiplicity = 1
 C                     0.9717   -0.20832   0.44983 
 C                     3.78245   0.4371   -0.24199 
 O                    -1.76972  -1.181     0.58938 
 C                     1.7797    1.0137    0.878 
 C                     1.84017  -1.13489  -0.41528 
 O                    -0.1698    0.26069  -0.25488 
 C                    -2.16911  -0.02221  -1.49436 
 C                    -3.02516   1.01187  -0.76129 
 C                    -1.15562  -0.6782   -0.56943 
 C                    -3.62411   0.38636   0.49864 
 C                    -2.53022  -0.24586   1.34301 
 C                     3.30672  -0.99942  -0.00722 
 O                     2.72154   1.37231  -0.10852 
 H                     0.63965  -0.7247    1.34234 
 H                     4.57841   0.702     0.44758 
 H                     4.15249   0.55714  -1.25157 
 H                     1.12877   1.86391   1.02236 
 H                     2.29069   0.81377   1.8146 
 H                     1.7275   -0.84711  -1.45658 
 H                     1.51448  -2.16476  -0.32643 
 H                    -1.64433   0.419    -2.33493 
 H                    -2.80752  -0.80967  -1.88553 
 H                    -2.42051   1.87298  -0.48998 
 H                    -3.81059   1.37111  -1.41916 
 H                    -0.70954  -1.5407   -1.04188 
 H                    -4.14617   1.13024   1.09381 
 H                    -4.34773  -0.37716   0.22242 
 H                    -2.94265  -0.80696   2.17017 
 H                    -1.86967   0.51425   1.74647 
 H                     3.4214   -1.27164   1.03795 
 H                     3.92998  -1.67848  -0.57895 
 
 The following ModRedundant input section has been read:
 D       5       1       6       9 F                                           
 

 GradGradGradGradGradGradGradGradGradGradGradGradGradGradGradGradGradGrad
 Berny optimization.
 Initialization pass.
                           ----------------------------
                           !    Initial Parameters    !
                           ! (Angstroms and Degrees)  !
 --------------------------                            --------------------------
 ! Name  Definition              Value          Derivative Info.                !
 --------------------------------------------------------------------------------
 ! R1    R(1,4)                  1.5263         estimate D2E/DX2                !
 ! R2    R(1,5)                  1.5366         estimate D2E/DX2                !
 ! R3    R(1,6)                  1.4211         estimate D2E/DX2                !
 ! R4    R(1,14)                 1.0833         estimate D2E/DX2                !
 ! R5    R(2,12)                 1.5313         estimate D2E/DX2                !
 ! R6    R(2,13)                 1.4206         estimate D2E/DX2                !
 ! R7    R(2,15)                 1.0859         estimate D2E/DX2                !
 ! R8    R(2,16)                 1.0819         estimate D2E/DX2                !
 ! R9    R(3,9)                  1.4046         estimate D2E/DX2                !
 ! R10   R(3,11)                 1.4216         estimate D2E/DX2                !
 ! R11   R(4,13)                 1.4103         estimate D2E/DX2                !
 ! R12   R(4,17)                 1.0805         estimate D2E/DX2                !
 ! R13   R(4,18)                 1.0855         estimate D2E/DX2                !
 ! R14   R(5,12)                 1.5283         estimate D2E/DX2                !
 ! R15   R(5,19)                 1.0862         estimate D2E/DX2                !
 ! R16   R(5,20)                 1.0838         estimate D2E/DX2                !
 ! R17   R(6,9)                  1.3972         estimate D2E/DX2                !
 ! R18   R(7,8)                  1.5296         estimate D2E/DX2                !
 ! R19   R(7,9)                  1.5209         estimate D2E/DX2                !
 ! R20   R(7,21)                 1.0847         estimate D2E/DX2                !
 ! R21   R(7,22)                 1.0866         estimate D2E/DX2                !
 ! R22   R(8,10)                 1.5289         estimate D2E/DX2                !
 ! R23   R(8,23)                 1.0866         estimate D2E/DX2                !
 ! R24   R(8,24)                 1.0857         estimate D2E/DX2                !
 ! R25   R(9,25)                 1.0799         estimate D2E/DX2                !
 ! R26   R(10,11)                1.5196         estimate D2E/DX2                !
 ! R27   R(10,26)                1.0863         estimate D2E/DX2                !
 ! R28   R(10,27)                1.0876         estimate D2E/DX2                !
 ! R29   R(11,28)                1.0813         estimate D2E/DX2                !
 ! R30   R(11,29)                1.0848         estimate D2E/DX2                !
 ! R31   R(12,30)                1.0861         estimate D2E/DX2                !
 ! R32   R(12,31)                1.0846         estimate D2E/DX2                !
 ! A1    A(4,1,5)              109.9698         estimate D2E/DX2                !
 ! A2    A(4,1,6)              107.4634         estimate D2E/DX2                !
 ! A3    A(4,1,14)             108.2282         estimate D2E/DX2                !
 ! A4    A(5,1,6)              111.95           estimate D2E/DX2                !
 ! A5    A(5,1,14)             110.4668         estimate D2E/DX2                !
 ! A6    A(6,1,14)             108.6424         estimate D2E/DX2                !
 ! A7    A(12,2,13)            111.7873         estimate D2E/DX2                !
 ! A8    A(12,2,15)            111.0502         estimate D2E/DX2                !
 ! A9    A(12,2,16)            110.6947         estimate D2E/DX2                !
 ! A10   A(13,2,15)            109.0961         estimate D2E/DX2                !
 ! A11   A(13,2,16)            105.6676         estimate D2E/DX2                !
 ! A12   A(15,2,16)            108.3477         estimate D2E/DX2                !
 ! A13   A(9,3,11)             115.8366         estimate D2E/DX2                !
 ! A14   A(1,4,13)             111.1555         estimate D2E/DX2                !
 ! A15   A(1,4,17)             110.4005         estimate D2E/DX2                !
 ! A16   A(1,4,18)             110.1078         estimate D2E/DX2                !
 ! A17   A(13,4,17)            107.2003         estimate D2E/DX2                !
 ! A18   A(13,4,18)            109.6345         estimate D2E/DX2                !
 ! A19   A(17,4,18)            108.2555         estimate D2E/DX2                !
 ! A20   A(1,5,12)             109.7907         estimate D2E/DX2                !
 ! A21   A(1,5,19)             108.7442         estimate D2E/DX2                !
 ! A22   A(1,5,20)             110.9155         estimate D2E/DX2                !
 ! A23   A(12,5,19)            109.3917         estimate D2E/DX2                !
 ! A24   A(12,5,20)            110.5315         estimate D2E/DX2                !
 ! A25   A(19,5,20)            107.4081         estimate D2E/DX2                !
 ! A26   A(1,6,9)              117.1672         estimate D2E/DX2                !
 ! A27   A(8,7,9)              111.9067         estimate D2E/DX2                !
 ! A28   A(8,7,21)             111.5417         estimate D2E/DX2                !
 ! A29   A(8,7,22)             109.491          estimate D2E/DX2                !
 ! A30   A(9,7,21)             108.9246         estimate D2E/DX2                !
 ! A31   A(9,7,22)             107.3301         estimate D2E/DX2                !
 ! A32   A(21,7,22)            107.4609         estimate D2E/DX2                !
 ! A33   A(7,8,10)             109.7322         estimate D2E/DX2                !
 ! A34   A(7,8,23)             110.1204         estimate D2E/DX2                !
 ! A35   A(7,8,24)             109.7653         estimate D2E/DX2                !
 ! A36   A(10,8,23)            109.6617         estimate D2E/DX2                !
 ! A37   A(10,8,24)            110.5677         estimate D2E/DX2                !
 ! A38   A(23,8,24)            106.9562         estimate D2E/DX2                !
 ! A39   A(3,9,6)              111.3024         estimate D2E/DX2                !
 ! A40   A(3,9,7)              111.3959         estimate D2E/DX2                !
 ! A41   A(3,9,25)             104.8121         estimate D2E/DX2                !
 ! A42   A(6,9,7)              108.4965         estimate D2E/DX2                !
 ! A43   A(6,9,25)             110.1046         estimate D2E/DX2                !
 ! A44   A(7,9,25)             110.7149         estimate D2E/DX2                !
 ! A45   A(8,10,11)            110.2495         estimate D2E/DX2                !
 ! A46   A(8,10,26)            111.0759         estimate D2E/DX2                !
 ! A47   A(8,10,27)            109.7901         estimate D2E/DX2                !
 ! A48   A(11,10,26)           109.0507         estimate D2E/DX2                !
 ! A49   A(11,10,27)           109.1464         estimate D2E/DX2                !
 ! A50   A(26,10,27)           107.4648         estimate D2E/DX2                !
 ! A51   A(3,11,10)            111.3595         estimate D2E/DX2                !
 ! A52   A(3,11,28)            105.5604         estimate D2E/DX2                !
 ! A53   A(3,11,29)            109.4107         estimate D2E/DX2                !
 ! A54   A(10,11,28)           111.4932         estimate D2E/DX2                !
 ! A55   A(10,11,29)           110.6984         estimate D2E/DX2                !
 ! A56   A(28,11,29)           108.1395         estimate D2E/DX2                !
 ! A57   A(2,12,5)             109.897          estimate D2E/DX2                !
 ! A58   A(2,12,30)            110.478          estimate D2E/DX2                !
 ! A59   A(2,12,31)            109.1462         estimate D2E/DX2                !
 ! A60   A(5,12,30)            109.636          estimate D2E/DX2                !
 ! A61   A(5,12,31)            110.8039         estimate D2E/DX2                !
 ! A62   A(30,12,31)           106.8374         estimate D2E/DX2                !
 ! A63   A(2,13,4)             113.396          estimate D2E/DX2                !
 ! D1    D(5,1,4,13)            32.2619         estimate D2E/DX2                !
 ! D2    D(5,1,4,17)           151.0925         estimate D2E/DX2                !
 ! D3    D(5,1,4,18)           -89.4309         estimate D2E/DX2                !
 ! D4    D(6,1,4,13)           -89.8277         estimate D2E/DX2                !
 ! D5    D(6,1,4,17)            29.003          estimate D2E/DX2                !
 ! D6    D(6,1,4,18)           148.4796         estimate D2E/DX2                !
 ! D7    D(14,1,4,13)          153.0162         estimate D2E/DX2                !
 ! D8    D(14,1,4,17)          -88.1531         estimate D2E/DX2                !
 ! D9    D(14,1,4,18)           31.3235         estimate D2E/DX2                !
 ! D10   D(4,1,5,12)            29.525          estimate D2E/DX2                !
 ! D11   D(4,1,5,19)           -90.1274         estimate D2E/DX2                !
 ! D12   D(4,1,5,20)           151.9742         estimate D2E/DX2                !
 ! D13   D(6,1,5,12)           148.9112         estimate D2E/DX2                !
 ! D14   D(6,1,5,19)            29.2587         estimate D2E/DX2                !
 ! D15   D(6,1,5,20)           -88.6397         estimate D2E/DX2                !
 ! D16   D(14,1,5,12)          -89.8719         estimate D2E/DX2                !
 ! D17   D(14,1,5,19)          150.4757         estimate D2E/DX2                !
 ! D18   D(14,1,5,20)           32.5773         estimate D2E/DX2                !
 ! D19   D(4,1,6,9)           -170.7544         estimate D2E/DX2                !
 ! D20   D(5,1,6,9)             68.3954         Frozen                          !
 ! D21   D(14,1,6,9)           -53.8691         estimate D2E/DX2                !
 ! D22   D(13,2,12,5)           29.5533         estimate D2E/DX2                !
 ! D23   D(13,2,12,30)         -91.5543         estimate D2E/DX2                !
 ! D24   D(13,2,12,31)         151.2548         estimate D2E/DX2                !
 ! D25   D(15,2,12,5)          151.6502         estimate D2E/DX2                !
 ! D26   D(15,2,12,30)          30.5426         estimate D2E/DX2                !
 ! D27   D(15,2,12,31)         -86.6483         estimate D2E/DX2                !
 ! D28   D(16,2,12,5)          -87.9557         estimate D2E/DX2                !
 ! D29   D(16,2,12,30)         150.9366         estimate D2E/DX2                !
 ! D30   D(16,2,12,31)          33.7458         estimate D2E/DX2                !
 ! D31   D(12,2,13,4)           34.7022         estimate D2E/DX2                !
 ! D32   D(15,2,13,4)          -88.509          estimate D2E/DX2                !
 ! D33   D(16,2,13,4)          155.1911         estimate D2E/DX2                !
 ! D34   D(11,3,9,6)            65.9119         estimate D2E/DX2                !
 ! D35   D(11,3,9,7)           -55.3196         estimate D2E/DX2                !
 ! D36   D(11,3,9,25)         -175.0928         estimate D2E/DX2                !
 ! D37   D(9,3,11,10)           57.4201         estimate D2E/DX2                !
 ! D38   D(9,3,11,28)          178.5702         estimate D2E/DX2                !
 ! D39   D(9,3,11,29)          -65.2766         estimate D2E/DX2                !
 ! D40   D(1,4,13,2)           -69.3816         estimate D2E/DX2                !
 ! D41   D(17,4,13,2)          169.8838         estimate D2E/DX2                !
 ! D42   D(18,4,13,2)           52.5867         estimate D2E/DX2                !
 ! D43   D(1,5,12,2)           -61.7343         estimate D2E/DX2                !
 ! D44   D(1,5,12,30)           59.8778         estimate D2E/DX2                !
 ! D45   D(1,5,12,31)          177.559          estimate D2E/DX2                !
 ! D46   D(19,5,12,2)           57.5219         estimate D2E/DX2                !
 ! D47   D(19,5,12,30)         179.1339         estimate D2E/DX2                !
 ! D48   D(19,5,12,31)         -63.1849         estimate D2E/DX2                !
 ! D49   D(20,5,12,2)          175.5891         estimate D2E/DX2                !
 ! D50   D(20,5,12,30)         -62.7989         estimate D2E/DX2                !
 ! D51   D(20,5,12,31)          54.8824         estimate D2E/DX2                !
 ! D52   D(1,6,9,3)             65.6353         estimate D2E/DX2                !
 ! D53   D(1,6,9,7)           -171.4537         estimate D2E/DX2                !
 ! D54   D(1,6,9,25)           -50.1457         estimate D2E/DX2                !
 ! D55   D(9,7,8,10)           -51.5916         estimate D2E/DX2                !
 ! D56   D(9,7,8,23)            69.2118         estimate D2E/DX2                !
 ! D57   D(9,7,8,24)          -173.2925         estimate D2E/DX2                !
 ! D58   D(21,7,8,10)         -173.9055         estimate D2E/DX2                !
 ! D59   D(21,7,8,23)          -53.1022         estimate D2E/DX2                !
 ! D60   D(21,7,8,24)           64.3936         estimate D2E/DX2                !
 ! D61   D(22,7,8,10)           67.2838         estimate D2E/DX2                !
 ! D62   D(22,7,8,23)         -171.9128         estimate D2E/DX2                !
 ! D63   D(22,7,8,24)          -54.417          estimate D2E/DX2                !
 ! D64   D(8,7,9,3)             51.8001         estimate D2E/DX2                !
 ! D65   D(8,7,9,6)            -71.0544         estimate D2E/DX2                !
 ! D66   D(8,7,9,25)           168.0138         estimate D2E/DX2                !
 ! D67   D(21,7,9,3)           175.5965         estimate D2E/DX2                !
 ! D68   D(21,7,9,6)            52.742          estimate D2E/DX2                !
 ! D69   D(21,7,9,25)          -68.1898         estimate D2E/DX2                !
 ! D70   D(22,7,9,3)           -68.3462         estimate D2E/DX2                !
 ! D71   D(22,7,9,6)           168.7993         estimate D2E/DX2                !
 ! D72   D(22,7,9,25)           47.8675         estimate D2E/DX2                !
 ! D73   D(7,8,10,11)           52.737          estimate D2E/DX2                !
 ! D74   D(7,8,10,26)          173.7358         estimate D2E/DX2                !
 ! D75   D(7,8,10,27)          -67.5464         estimate D2E/DX2                !
 ! D76   D(23,8,10,11)         -68.3433         estimate D2E/DX2                !
 ! D77   D(23,8,10,26)          52.6556         estimate D2E/DX2                !
 ! D78   D(23,8,10,27)         171.3734         estimate D2E/DX2                !
 ! D79   D(24,8,10,11)         173.9561         estimate D2E/DX2                !
 ! D80   D(24,8,10,26)         -65.045          estimate D2E/DX2                !
 ! D81   D(24,8,10,27)          53.6728         estimate D2E/DX2                !
 ! D82   D(8,10,11,3)          -54.8213         estimate D2E/DX2                !
 ! D83   D(8,10,11,28)        -172.4385         estimate D2E/DX2                !
 ! D84   D(8,10,11,29)          67.1326         estimate D2E/DX2                !
 ! D85   D(26,10,11,3)        -177.0225         estimate D2E/DX2                !
 ! D86   D(26,10,11,28)         65.3603         estimate D2E/DX2                !
 ! D87   D(26,10,11,29)        -55.0687         estimate D2E/DX2                !
 ! D88   D(27,10,11,3)          65.8487         estimate D2E/DX2                !
 ! D89   D(27,10,11,28)        -51.7684         estimate D2E/DX2                !
 ! D90   D(27,10,11,29)       -172.1974         estimate D2E/DX2                !
 --------------------------------------------------------------------------------
 Trust Radius=3.00D-01 FncErr=1.00D-07 GrdErr=1.00D-06 EigMax=2.50D+02 EigMin=1.00D-04
 Number of steps in this run=    186 maximum allowed number of steps=    186.
 GradGradGradGradGradGradGradGradGradGradGradGradGradGradGradGradGradGrad

                          Input orientation:                          
 ---------------------------------------------------------------------
 Center     Atomic      Atomic             Coordinates (Angstroms)
 Number     Number       Type             X           Y           Z
 ---------------------------------------------------------------------
      1          6           0        0.971701   -0.208324    0.449832
      2          6           0        3.782449    0.437100   -0.241991
      3          8           0       -1.769715   -1.181000    0.589382
      4          6           0        1.779698    1.013703    0.878002
      5          6           0        1.840172   -1.134891   -0.415275
      6          8           0       -0.169795    0.260685   -0.254883
      7          6           0       -2.169110   -0.022206   -1.494363
      8          6           0       -3.025160    1.011873   -0.761289
      9          6           0       -1.155620   -0.678202   -0.569430
     10          6           0       -3.624113    0.386364    0.498641
     11          6           0       -2.530222   -0.245861    1.343007
     12          6           0        3.306724   -0.999420   -0.007220
     13          8           0        2.721538    1.372310   -0.108520
     14          1           0        0.639647   -0.724696    1.342335
     15          1           0        4.578410    0.701998    0.447577
     16          1           0        4.152488    0.557143   -1.251570
     17          1           0        1.128773    1.863909    1.022362
     18          1           0        2.290692    0.813769    1.814598
     19          1           0        1.727499   -0.847114   -1.456584
     20          1           0        1.514476   -2.164756   -0.326426
     21          1           0       -1.644331    0.418996   -2.334927
     22          1           0       -2.807518   -0.809665   -1.885526
     23          1           0       -2.420510    1.872978   -0.489984
     24          1           0       -3.810588    1.371107   -1.419161
     25          1           0       -0.709540   -1.540701   -1.041875
     26          1           0       -4.146173    1.130245    1.093809
     27          1           0       -4.347732   -0.377156    0.222421
     28          1           0       -2.942647   -0.806955    2.170172
     29          1           0       -1.869674    0.514248    1.746469
     30          1           0        3.421403   -1.271639    1.037946
     31          1           0        3.929980   -1.678484   -0.578953
 ---------------------------------------------------------------------
                    Distance matrix (angstroms):
                    1          2          3          4          5
     1  C    0.000000
     2  C    2.965720   0.000000
     3  O    2.912204   5.842598   0.000000
     4  C    1.526283   2.365981   4.183104   0.000000
     5  C    1.536613   2.504720   3.747365   2.508521   0.000000
     6  O    1.421128   3.956200   2.313219   2.377181   2.452208
     7  C    3.698544   6.099217   2.417501   4.721685   4.298470
     8  C    4.350930   6.851538   2.865161   5.076804   5.329144
     9  C    2.405239   5.073031   1.404551   3.684249   3.034320
    10  C    4.634387   7.443673   2.429744   5.453315   5.745248
    11  C    3.614227   6.544346   1.421551   4.514215   4.793983
    12  C    2.507401   1.531346   5.114600   2.677329   1.528279
    13  O    2.423240   1.420551   5.213234   1.410279   2.675250
    14  H    1.083264   3.706354   2.565186   2.130106   2.167652
    15  H    3.719817   1.085923   6.623027   2.848722   3.408317
    16  H    3.687562   1.081938   6.440709   3.220816   2.984824
    17  H    2.155600   3.267471   4.226130   1.080460   3.400837
    18  H    2.155690   2.568419   4.686914   1.085496   2.995426
    19  H    2.147954   2.710583   4.065460   2.985910   1.086202
    20  H    2.173662   3.452606   3.548576   3.409339   1.083787
    21  H    3.871955   5.816412   3.335760   4.732923   4.270994
    22  H    4.483080   6.905309   2.709261   5.657235   4.885533
    23  H    4.089275   6.371809   3.303838   4.500165   5.215963
    24  H    5.371967   7.740304   3.835708   6.054419   6.262500
    25  H    2.612851   4.972874   1.978473   4.050582   2.656754
    26  H    5.329081   8.070183   3.353185   5.930944   6.576055
    27  H    5.326968   8.184041   2.725252   6.317410   6.266656
    28  H    4.317412   7.252111   2.003641   5.223509   5.446782
    29  H    3.205743   5.992197   2.054923   3.784390   4.599538
    30  H    2.734512   2.165267   5.211250   2.818433   2.151939
    31  H    3.459940   2.147325   5.839437   3.740896   2.165544
                    6          7          8          9         10
     6  O    0.000000
     7  C    2.369303   0.000000
     8  C    2.995637   1.529555   0.000000
     9  C    1.397247   1.520853   2.527517   0.000000
    10  C    3.537783   2.501205   1.528866   2.892669   0.000000
    11  C    2.895075   2.868988   2.500984   2.394549   1.519625
    12  C    3.706128   5.757717   6.686305   4.509077   7.086099
    13  O    3.101119   5.271022   5.794874   4.410146   6.450428
    14  H    2.043839   4.053327   4.568557   2.622974   4.486193
    15  H    4.820130   7.058656   7.705301   5.984844   8.208752
    16  H    4.445605   6.352731   7.208730   5.492486   7.972950
    17  H    2.426512   4.557123   4.600276   3.770223   5.004733
    18  H    3.262307   5.615862   5.910391   4.448217   6.074482
    19  H    2.504202   3.983147   5.150440   3.021250   5.829590
    20  H    2.953752   4.418530   5.557731   3.065666   5.796037
    21  H    2.554584   1.084712   2.175897   2.135336   3.456835
    22  H    3.280584   1.086584   2.151576   2.116166   2.789546
    23  H    2.778575   2.159560   1.086605   2.848645   2.153151
    24  H    3.980446   2.154397   1.085699   3.459850   2.163898
    25  H    2.038547   2.154279   3.457811   1.079859   3.818574
    26  H    4.287970   3.454787   2.170730   3.870433   1.086338
    27  H    4.253213   2.796378   2.155524   3.302610   1.087605
    28  H    3.835291   3.826618   3.450856   3.273448   2.163890
    29  H    2.638047   3.298551   2.805642   2.700962   2.156730
    30  H    4.112922   6.263187   7.071764   4.887225   7.258038
    31  H    4.546818   6.385932   7.459574   5.183048   7.905006
                   11         12         13         14         15
    11  C    0.000000
    12  C    6.038286   0.000000
    13  O    5.683871   2.444956   0.000000
    14  H    3.205831   3.001678   3.291912   0.000000
    15  H    7.227232   2.172291   2.050984   4.283679   0.000000
    16  H    7.213547   2.164858   2.004664   4.550990   1.757695
    17  H    4.235822   3.741946   2.014315   2.653771   3.685161
    18  H    4.958470   2.763873   2.048409   2.305614   2.667376
    19  H    5.131024   2.148908   2.780509   3.005388   3.762083
    20  H    4.777944   2.161493   3.743704   2.371468   4.266738
    21  H    3.841098   5.651820   4.992645   4.477370   6.822384
    22  H    3.289102   6.399062   6.203969   4.723267   7.891795
    23  H    2.803814   6.425336   5.180429   4.412467   7.157870
    24  H    3.447245   7.633420   6.662316   5.641174   8.620192
    25  H    3.267898   4.182568   4.596638   2.858431   5.933850
    26  H    2.137069   7.829011   6.976363   5.138740   8.758959
    27  H    2.139227   7.683140   7.290043   5.123372   8.993958
    28  H    1.081260   6.620628   6.482640   3.677623   7.861970
    29  H    1.084837   5.671130   5.025583   2.827543   6.580286
    30  H    6.047076   1.086106   2.965579   2.851309   2.362720
    31  H    6.890613   1.084645   3.314964   3.927767   2.672250
                   16         17         18         19         20
    16  H    0.000000
    17  H    4.002656   0.000000
    18  H    3.596321   1.755132   0.000000
    19  H    2.809722   3.722001   3.711651   0.000000
    20  H    3.901760   4.265928   3.749414   1.748947   0.000000
    21  H    5.898801   4.587948   5.732260   3.707258   4.548397
    22  H    7.121218   5.576576   6.505244   4.555411   4.790271
    23  H    6.746535   3.858067   5.350556   5.053632   5.640404
    24  H    8.006323   5.531833   6.927730   5.965929   6.484806
    25  H    5.299456   4.385412   4.764909   2.567529   2.418173
    26  H    8.642744   5.326202   6.484823   6.701826   6.702018
    27  H    8.677517   5.971129   6.929791   6.320471   6.153229
    28  H    7.994374   5.002744   5.490083   5.913141   5.286073
    29  H    6.727296   3.366987   4.171690   5.005248   4.788155
    30  H    3.020068   3.884335   2.496121   3.045031   2.509091
    31  H    2.345198   4.791609   3.824615   2.512436   2.476871
                   21         22         23         24         25
    21  H    0.000000
    22  H    1.750592   0.000000
    23  H    2.473931   3.048588   0.000000
    24  H    2.537284   2.445284   1.745727   0.000000
    25  H    2.527099   2.376483   3.858135   4.270535   0.000000
    26  H    4.303640   3.798906   2.457227   2.546694   4.848252
    27  H    3.805557   2.646274   3.047098   2.457588   4.023521
    28  H    4.846081   4.057949   3.811968   4.287259   3.980251
    29  H    4.088722   3.977900   2.674190   3.810849   3.652888
    30  H    6.316342   6.896344   6.808167   8.082275   4.632790
    31  H    6.209333   6.917793   7.276642   8.361958   4.664593
                   26         27         28         29         30
    26  H    0.000000
    27  H    1.752769   0.000000
    28  H    2.521860   2.439821   0.000000
    29  H    2.447011   3.042712   1.753959   0.000000
    30  H    7.939797   7.862865   6.480663   5.629111   0.000000
    31  H    8.712711   8.417611   7.453204   6.622058   1.743140
                   31
    31  H    0.000000
 Stoichiometry    C10H18O3
 Framework group  C1[X(C10H18O3)]
 Deg. of freedom    87
 Full point group                 C1      NOp   1
 Largest Abelian subgroup         C1      NOp   1
 Largest concise Abelian subgroup C1      NOp   1
                         Standard orientation:                         
 ---------------------------------------------------------------------
 Center     Atomic      Atomic             Coordinates (Angstroms)
 Number     Number       Type             X           Y           Z
 ---------------------------------------------------------------------
      1          6           0        0.971701    0.208324   -0.449832
      2          6           0        3.782449   -0.437100    0.241991
      3          8           0       -1.769715    1.181000   -0.589382
      4          6           0        1.779698   -1.013703   -0.878002
      5          6           0        1.840172    1.134891    0.415275
      6          8           0       -0.169795   -0.260685    0.254883
      7          6           0       -2.169110    0.022206    1.494363
      8          6           0       -3.025160   -1.011873    0.761289
      9          6           0       -1.155620    0.678202    0.569430
     10          6           0       -3.624113   -0.386364   -0.498641
     11          6           0       -2.530222    0.245861   -1.343007
     12          6           0        3.306724    0.999420    0.007220
     13          8           0        2.721538   -1.372310    0.108520
     14          1           0        0.639647    0.724696   -1.342335
     15          1           0        4.578410   -0.701998   -0.447577
     16          1           0        4.152488   -0.557143    1.251570
     17          1           0        1.128773   -1.863909   -1.022362
     18          1           0        2.290692   -0.813769   -1.814598
     19          1           0        1.727499    0.847114    1.456584
     20          1           0        1.514476    2.164756    0.326426
     21          1           0       -1.644331   -0.418996    2.334927
     22          1           0       -2.807518    0.809665    1.885526
     23          1           0       -2.420510   -1.872978    0.489984
     24          1           0       -3.810588   -1.371107    1.419161
     25          1           0       -0.709540    1.540701    1.041875
     26          1           0       -4.146173   -1.130245   -1.093809
     27          1           0       -4.347732    0.377156   -0.222421
     28          1           0       -2.942647    0.806955   -2.170172
     29          1           0       -1.869674   -0.514248   -1.746469
     30          1           0        3.421403    1.271639   -1.037946
     31          1           0        3.929980    1.678484    0.578953
 ---------------------------------------------------------------------
 Rotational constants (GHZ):           1.9490993           0.4031227           0.3947092
 Standard basis: 6-311++G(2d,2p) (5D, 7F)
 There are   557 symmetry adapted cartesian basis functions of A   symmetry.
 There are   531 symmetry adapted basis functions of A   symmetry.
   531 basis functions,   762 primitive gaussians,   557 cartesian basis functions
    51 alpha electrons       51 beta electrons
       nuclear repulsion energy       895.4626502180 Hartrees.
 NAtoms=   31 NActive=   31 NUniq=   31 SFac= 1.00D+00 NAtFMM=   60 NAOKFM=F Big=F
 Integral buffers will be    131072 words long.
 Raffenetti 2 integral format.
 Two-electron integral symmetry is turned on.
 ------------------------------------------------------------------------------
 Polarizable Continuum Model (PCM)
 =================================
 Model                : PCM.
 Atomic radii         : UFF (Universal Force Field).
 Polarization charges : Total charges.
 Charge compensation  : None.
 Solution method      : On-the-fly selection.
 Cavity type          : Scaled VdW (van der Waals Surface) (Alpha=1.100).
 Cavity algorithm     : GePol (No added spheres)
                        Default sphere list used, NSphG=   31.
                        Lebedev-Laikov grids with approx.  5.0 points / Ang**2.
                        Smoothing algorithm: York/Karplus (Gamma=1.0000).
                        Polarization charges: spherical gaussians, with
                                              point-specific exponents (IZeta= 3).
                        Self-potential: point-specific (ISelfS= 7).
                        Self-field    : sphere-specific E.n sum rule (ISelfD= 2).
 1st derivatives      : Analytical E(r).r(x)/FMM algorithm (CHGder, D1EAlg=3).
                        Cavity 1st derivative terms included.
 Solvent              : Water, Eps=  78.355300 Eps(inf)=   1.777849
 ------------------------------------------------------------------------------
 One-electron integrals computed using PRISM.
 NBasis=   531 RedAO= T EigKep=  4.37D-06  NBF=   531
 NBsUse=   531 1.00D-06 EigRej= -1.00D+00 NBFU=   531
 ExpMin= 3.60D-02 ExpMax= 8.59D+03 ExpMxC= 1.30D+03 IAcc=3 IRadAn=         5 AccDes= 0.00D+00
 Harris functional with IExCor= 1009 and IRadAn=       5 diagonalized for initial guess.
 HarFok:  IExCor= 1009 AccDes= 0.00D+00 IRadAn=         5 IDoV= 1 UseB2=F ITyADJ=14
 ICtDFT=  3500011 ScaDFX=  1.000000  1.000000  1.000000  1.000000
 FoFCou: FMM=F IPFlag=           0 FMFlag=      100000 FMFlg1=           0
         NFxFlg=           0 DoJE=T BraDBF=F KetDBF=T FulRan=T
         wScrn=  0.000000 ICntrl=       500 IOpCl=  0 I1Cent=   200000004 NGrid=           0
         NMat0=    1 NMatS0=      1 NMatT0=    0 NMatD0=    1 NMtDS0=    0 NMtDT0=    0
 Petite list used in FoFCou.
 Requested convergence on RMS density matrix=1.00D-08 within 128 cycles.
 Requested convergence on MAX density matrix=1.00D-06.
 Requested convergence on             energy=1.00D-06.
 No special actions if energy rises.
 Inv3:  Mode=1 IEnd=    12706092.
 Iteration    1 A*A^-1 deviation from unit magnitude is 4.00D-15 for   2042.
 Iteration    1 A*A^-1 deviation from orthogonality  is 2.46D-15 for   2036    952.
 Iteration    1 A^-1*A deviation from unit magnitude is 4.00D-15 for   2042.
 Iteration    1 A^-1*A deviation from orthogonality  is 4.31D-15 for   1984   1966.
 Error on total polarization charges =  0.01475
 SCF Done:  E(RM062X) =  -617.495441780     A.U. after   12 cycles
            NFock= 12  Conv=0.51D-08     -V/T= 2.0035

 **********************************************************************

            Population analysis using the SCF density.

 **********************************************************************

 Orbital symmetries:
       Occupied  (A) (A) (A) (A) (A) (A) (A) (A) (A) (A) (A) (A)
                 (A) (A) (A) (A) (A) (A) (A) (A) (A) (A) (A) (A)
                 (A) (A) (A) (A) (A) (A) (A) (A) (A) (A) (A) (A)
                 (A) (A) (A) (A) (A) (A) (A) (A) (A) (A) (A) (A)
                 (A) (A) (A)
       Virtual   (A) (A) (A) (A) (A) (A) (A) (A) (A) (A) (A) (A)
                 (A) (A) (A) (A) (A) (A) (A) (A) (A) (A) (A) (A)
                 (A) (A) (A) (A) (A) (A) (A) (A) (A) (A) (A) (A)
                 (A) (A) (A) (A) (A) (A) (A) (A) (A) (A) (A) (A)
                 (A) (A) (A) (A) (A) (A) (A) (A) (A) (A) (A) (A)
                 (A) (A) (A) (A) (A) (A) (A) (A) (A) (A) (A) (A)
                 (A) (A) (A) (A) (A) (A) (A) (A) (A) (A) (A) (A)
                 (A) (A) (A) (A) (A) (A) (A) (A) (A) (A) (A) (A)
                 (A) (A) (A) (A) (A) (A) (A) (A) (A) (A) (A) (A)
                 (A) (A) (A) (A) (A) (A) (A) (A) (A) (A) (A) (A)
                 (A) (A) (A) (A) (A) (A) (A) (A) (A) (A) (A) (A)
                 (A) (A) (A) (A) (A) (A) (A) (A) (A) (A) (A) (A)
                 (A) (A) (A) (A) (A) (A) (A) (A) (A) (A) (A) (A)
                 (A) (A) (A) (A) (A) (A) (A) (A) (A) (A) (A) (A)
                 (A) (A) (A) (A) (A) (A) (A) (A) (A) (A) (A) (A)
                 (A) (A) (A) (A) (A) (A) (A) (A) (A) (A) (A) (A)
                 (A) (A) (A) (A) (A) (A) (A) (A) (A) (A) (A) (A)
                 (A) (A) (A) (A) (A) (A) (A) (A) (A) (A) (A) (A)
                 (A) (A) (A) (A) (A) (A) (A) (A) (A) (A) (A) (A)
                 (A) (A) (A) (A) (A) (A) (A) (A) (A) (A) (A) (A)
                 (A) (A) (A) (A) (A) (A) (A) (A) (A) (A) (A) (A)
                 (A) (A) (A) (A) (A) (A) (A) (A) (A) (A) (A) (A)
                 (A) (A) (A) (A) (A) (A) (A) (A) (A) (A) (A) (A)
                 (A) (A) (A) (A) (A) (A) (A) (A) (A) (A) (A) (A)
                 (A) (A) (A) (A) (A) (A) (A) (A) (A) (A) (A) (A)
                 (A) (A) (A) (A) (A) (A) (A) (A) (A) (A) (A) (A)
                 (A) (A) (A) (A) (A) (A) (A) (A) (A) (A) (A) (A)
                 (A) (A) (A) (A) (A) (A) (A) (A) (A) (A) (A) (A)
                 (A) (A) (A) (A) (A) (A) (A) (A) (A) (A) (A) (A)
                 (A) (A) (A) (A) (A) (A) (A) (A) (A) (A) (A) (A)
                 (A) (A) (A) (A) (A) (A) (A) (A) (A) (A) (A) (A)
                 (A) (A) (A) (A) (A) (A) (A) (A) (A) (A) (A) (A)
                 (A) (A) (A) (A) (A) (A) (A) (A) (A) (A) (A) (A)
                 (A) (A) (A) (A) (A) (A) (A) (A) (A) (A) (A) (A)
                 (A) (A) (A) (A) (A) (A) (A) (A) (A) (A) (A) (A)
                 (A) (A) (A) (A) (A) (A) (A) (A) (A) (A) (A) (A)
                 (A) (A) (A) (A) (A) (A) (A) (A) (A) (A) (A) (A)
                 (A) (A) (A) (A) (A) (A) (A) (A) (A) (A) (A) (A)
                 (A) (A) (A) (A) (A) (A) (A) (A) (A) (A) (A) (A)
                 (A) (A) (A) (A) (A) (A) (A) (A) (A) (A) (A) (A)
 The electronic state is 1-A.
 Alpha  occ. eigenvalues --  -19.62823 -19.62692 -19.62541 -10.63210 -10.58601
 Alpha  occ. eigenvalues --  -10.57860 -10.57804 -10.57599 -10.53293 -10.53220
 Alpha  occ. eigenvalues --  -10.52933 -10.52894 -10.52732  -1.20164  -1.16473
 Alpha  occ. eigenvalues --   -1.13333  -0.90778  -0.89583  -0.87539  -0.84511
 Alpha  occ. eigenvalues --   -0.75224  -0.74507  -0.73145  -0.71176  -0.64956
 Alpha  occ. eigenvalues --   -0.62455  -0.60268  -0.59211  -0.58319  -0.55698
 Alpha  occ. eigenvalues --   -0.54571  -0.53896  -0.52690  -0.50399  -0.49602
 Alpha  occ. eigenvalues --   -0.47682  -0.46335  -0.46023  -0.45407  -0.45081
 Alpha  occ. eigenvalues --   -0.43359  -0.42866  -0.42112  -0.41115  -0.39451
 Alpha  occ. eigenvalues --   -0.38515  -0.37049  -0.35804  -0.34296  -0.33286
 Alpha  occ. eigenvalues --   -0.32117
 Alpha virt. eigenvalues --   -0.00139   0.00766   0.00889   0.01074   0.02212
 Alpha virt. eigenvalues --    0.02420   0.02609   0.03392   0.03711   0.04394
 Alpha virt. eigenvalues --    0.04473   0.04574   0.05370   0.06026   0.07024
 Alpha virt. eigenvalues --    0.07541   0.07588   0.08031   0.09060   0.09382
 Alpha virt. eigenvalues --    0.10009   0.10586   0.10865   0.11682   0.12137
 Alpha virt. eigenvalues --    0.12265   0.12720   0.12888   0.13073   0.13424
 Alpha virt. eigenvalues --    0.13725   0.13864   0.14149   0.14641   0.14774
 Alpha virt. eigenvalues --    0.15041   0.15397   0.15690   0.16013   0.16219
 Alpha virt. eigenvalues --    0.16655   0.16873   0.17159   0.17589   0.17750
 Alpha virt. eigenvalues --    0.18102   0.18253   0.18544   0.19099   0.19533
 Alpha virt. eigenvalues --    0.20091   0.20286   0.20668   0.21051   0.21493
 Alpha virt. eigenvalues --    0.21857   0.22266   0.22636   0.23199   0.23611
 Alpha virt. eigenvalues --    0.24522   0.24920   0.25603   0.25996   0.27485
 Alpha virt. eigenvalues --    0.27659   0.27928   0.28416   0.28810   0.29763
 Alpha virt. eigenvalues --    0.29941   0.30358   0.30885   0.31388   0.32173
 Alpha virt. eigenvalues --    0.32428   0.33177   0.34022   0.34298   0.34724
 Alpha virt. eigenvalues --    0.35095   0.35244   0.35561   0.35659   0.36129
 Alpha virt. eigenvalues --    0.36918   0.37276   0.37715   0.38091   0.38505
 Alpha virt. eigenvalues --    0.38957   0.39229   0.39751   0.40800   0.41444
 Alpha virt. eigenvalues --    0.41623   0.43341   0.43800   0.44215   0.44458
 Alpha virt. eigenvalues --    0.45759   0.48538   0.49420   0.49798   0.50450
 Alpha virt. eigenvalues --    0.51931   0.52783   0.53733   0.53997   0.55162
 Alpha virt. eigenvalues --    0.55879   0.56568   0.57835   0.58369   0.58858
 Alpha virt. eigenvalues --    0.59697   0.59841   0.60762   0.61217   0.61780
 Alpha virt. eigenvalues --    0.61921   0.62306   0.62764   0.63551   0.64115
 Alpha virt. eigenvalues --    0.64244   0.65025   0.65200   0.65891   0.66281
 Alpha virt. eigenvalues --    0.67288   0.67927   0.68609   0.69588   0.69952
 Alpha virt. eigenvalues --    0.71224   0.71593   0.71911   0.72329   0.73081
 Alpha virt. eigenvalues --    0.73393   0.74098   0.74490   0.75158   0.76037
 Alpha virt. eigenvalues --    0.76244   0.76896   0.77261   0.77646   0.78604
 Alpha virt. eigenvalues --    0.79196   0.82617   0.83584   0.84592   0.86098
 Alpha virt. eigenvalues --    0.86612   0.87306   0.87937   0.88685   0.88879
 Alpha virt. eigenvalues --    0.91820   0.92793   0.93102   0.94239   0.95496
 Alpha virt. eigenvalues --    0.96243   0.98048   0.99170   1.01359   1.02101
 Alpha virt. eigenvalues --    1.02625   1.03672   1.05045   1.05786   1.06774
 Alpha virt. eigenvalues --    1.07901   1.08493   1.09087   1.11714   1.12171
 Alpha virt. eigenvalues --    1.13299   1.14706   1.14955   1.16018   1.16813
 Alpha virt. eigenvalues --    1.17496   1.18582   1.19480   1.19681   1.21096
 Alpha virt. eigenvalues --    1.22242   1.22643   1.23035   1.24463   1.25205
 Alpha virt. eigenvalues --    1.25373   1.25900   1.26918   1.27103   1.28069
 Alpha virt. eigenvalues --    1.28131   1.29119   1.29694   1.30692   1.31375
 Alpha virt. eigenvalues --    1.31590   1.32433   1.32957   1.33374   1.35021
 Alpha virt. eigenvalues --    1.35206   1.36191   1.36953   1.37903   1.38576
 Alpha virt. eigenvalues --    1.38844   1.39467   1.40229   1.41008   1.41225
 Alpha virt. eigenvalues --    1.42178   1.42644   1.43976   1.44495   1.45393
 Alpha virt. eigenvalues --    1.45584   1.46623   1.47464   1.47722   1.48036
 Alpha virt. eigenvalues --    1.48646   1.48962   1.50766   1.51280   1.51625
 Alpha virt. eigenvalues --    1.52580   1.53334   1.53935   1.54580   1.55309
 Alpha virt. eigenvalues --    1.56399   1.56735   1.57129   1.58309   1.58684
 Alpha virt. eigenvalues --    1.59616   1.60258   1.60652   1.62154   1.62403
 Alpha virt. eigenvalues --    1.63779   1.63849   1.64581   1.64844   1.65642
 Alpha virt. eigenvalues --    1.67846   1.68622   1.69098   1.69964   1.71072
 Alpha virt. eigenvalues --    1.71951   1.72768   1.74538   1.75265   1.76330
 Alpha virt. eigenvalues --    1.78647   1.80301   1.81231   1.81960   1.83330
 Alpha virt. eigenvalues --    1.84710   1.87060   1.89674   1.99640   2.00194
 Alpha virt. eigenvalues --    2.01374   2.06349   2.13369   2.14635   2.19236
 Alpha virt. eigenvalues --    2.23667   2.26223   2.28546   2.33263   2.40657
 Alpha virt. eigenvalues --    2.41779   2.42427   2.44725   2.46214   2.51228
 Alpha virt. eigenvalues --    2.60224   2.76566   2.77272   2.80229   2.81291
 Alpha virt. eigenvalues --    2.83816   2.87085   2.91598   2.91793   2.92954
 Alpha virt. eigenvalues --    2.94086   2.96003   2.98589   3.02819   3.03462
 Alpha virt. eigenvalues --    3.04257   3.06472   3.08233   3.10564   3.11642
 Alpha virt. eigenvalues --    3.13081   3.14844   3.15392   3.19339   3.21912
 Alpha virt. eigenvalues --    3.24196   3.29006   3.31422   3.32285   3.33848
 Alpha virt. eigenvalues --    3.34656   3.35992   3.36636   3.37772   3.40325
 Alpha virt. eigenvalues --    3.41720   3.43166   3.43978   3.45717   3.46120
 Alpha virt. eigenvalues --    3.46663   3.48744   3.49969   3.51523   3.52073
 Alpha virt. eigenvalues --    3.52222   3.53374   3.54093   3.55212   3.55797
 Alpha virt. eigenvalues --    3.56993   3.57097   3.58150   3.59291   3.59646
 Alpha virt. eigenvalues --    3.60348   3.62168   3.62546   3.64734   3.65190
 Alpha virt. eigenvalues --    3.65703   3.66431   3.67913   3.68249   3.69728
 Alpha virt. eigenvalues --    3.70727   3.71568   3.72886   3.73656   3.74106
 Alpha virt. eigenvalues --    3.74846   3.74914   3.76488   3.77997   3.79135
 Alpha virt. eigenvalues --    3.80368   3.81321   3.82085   3.83365   3.84122
 Alpha virt. eigenvalues --    3.86128   3.88548   3.90334   3.92074   3.92424
 Alpha virt. eigenvalues --    3.93499   3.93995   3.95278   3.97604   3.98887
 Alpha virt. eigenvalues --    3.99941   4.00330   4.01611   4.03038   4.04190
 Alpha virt. eigenvalues --    4.05490   4.06496   4.07032   4.07316   4.07943
 Alpha virt. eigenvalues --    4.08753   4.08886   4.10070   4.11193   4.11746
 Alpha virt. eigenvalues --    4.12197   4.12897   4.14126   4.14872   4.15405
 Alpha virt. eigenvalues --    4.16233   4.17418   4.17557   4.19157   4.19614
 Alpha virt. eigenvalues --    4.20848   4.22447   4.25011   4.26490   4.26848
 Alpha virt. eigenvalues --    4.28177   4.29926   4.30472   4.32455   4.32694
 Alpha virt. eigenvalues --    4.33153   4.34317   4.35781   4.36943   4.38106
 Alpha virt. eigenvalues --    4.41617   4.42701   4.44659   4.46484   4.49769
 Alpha virt. eigenvalues --    4.58973   4.61064   4.72444   4.75811   4.81564
 Alpha virt. eigenvalues --    4.85125   4.93180   4.95567   5.01078   5.02187
 Alpha virt. eigenvalues --    5.05050   5.06753   5.07823   5.11904   5.12725
 Alpha virt. eigenvalues --    5.14051   5.15047   5.16618   5.31960   5.37660
 Alpha virt. eigenvalues --    5.41497   5.58525   5.60822   5.65352   5.85079
 Alpha virt. eigenvalues --    5.87552   6.06595   7.03340   7.05631   7.07399
 Alpha virt. eigenvalues --    7.08400   7.09954   7.12217   7.13350   7.19617
 Alpha virt. eigenvalues --    7.25766   7.34913   7.37768   7.47197   7.53453
 Alpha virt. eigenvalues --    7.54397   7.66403  23.96604  23.97698  24.05546
 Alpha virt. eigenvalues --   24.06600  24.10502  24.11635  24.11917  24.15304
 Alpha virt. eigenvalues --   24.17072  24.22859  50.17525  50.18430  50.24646
          Condensed to atoms (all electrons):
               1          2          3          4          5          6
     1  C    8.818285   0.003688   0.062956  -0.679577  -1.947717  -0.070865
     2  C    0.003688   5.559602  -0.001746  -0.104666   0.020029   0.015986
     3  O    0.062956  -0.001746   8.206099   0.006170  -0.063200  -0.059183
     4  C   -0.679577  -0.104666   0.006170   6.184391   0.185094  -0.109675
     5  C   -1.947717   0.020029  -0.063200   0.185094   7.473961  -0.046248
     6  O   -0.070865   0.015986  -0.059183  -0.109675  -0.046248   8.312988
     7  C    0.255324  -0.005074  -0.009523  -0.042107  -0.148178  -0.090596
     8  C    0.091460   0.003355   0.003036  -0.010433  -0.031121  -0.017900
     9  C   -1.122353   0.041908   0.251955   0.102457   0.468830   0.351287
    10  C    0.009108  -0.002754  -0.052224   0.000232   0.005340  -0.012069
    11  C    0.167677   0.003702   0.107158   0.013499  -0.071071  -0.027503
    12  C    0.305485  -0.217428  -0.004109  -0.052943  -0.430019  -0.016753
    13  O   -0.012898   0.110424  -0.000047   0.103464  -0.039431   0.027505
    14  H    0.576608  -0.006443  -0.001867  -0.090776  -0.081696  -0.028619
    15  H    0.043301   0.517862   0.000006  -0.025688  -0.034675   0.000071
    16  H   -0.020718   0.407869   0.000090   0.023209  -0.008258   0.001141
    17  H    0.042572   0.009248  -0.000216   0.356084  -0.000041  -0.005510
    18  H   -0.087202   0.033522   0.001318   0.485947  -0.002164   0.012351
    19  H   -0.115767  -0.030136  -0.000442  -0.020569   0.504687   0.004096
    20  H   -0.011256  -0.001880   0.003306   0.015699   0.389104   0.001624
    21  H   -0.007328   0.000484   0.007388   0.000294   0.006953  -0.001326
    22  H    0.005460   0.000028  -0.005625   0.001746  -0.004270   0.007848
    23  H   -0.017044   0.000285   0.001646   0.000013   0.006452  -0.004052
    24  H    0.007197  -0.000105  -0.004100  -0.002509  -0.001078   0.000779
    25  H   -0.073113   0.002951  -0.063630  -0.008979   0.068634  -0.028236
    26  H    0.003843   0.000074   0.009835  -0.000447   0.000299   0.000363
    27  H   -0.003644  -0.000046  -0.002049   0.000122  -0.000274  -0.000007
    28  H    0.009836   0.000178  -0.070150   0.001258  -0.000312   0.000557
    29  H   -0.045553  -0.001296  -0.031564   0.011456   0.016054   0.016286
    30  H   -0.064099  -0.082788  -0.000301  -0.004384   0.008423   0.001623
    31  H   -0.015943  -0.013848  -0.000188   0.002476  -0.002886  -0.001729
               7          8          9         10         11         12
     1  C    0.255324   0.091460  -1.122353   0.009108   0.167677   0.305485
     2  C   -0.005074   0.003355   0.041908  -0.002754   0.003702  -0.217428
     3  O   -0.009523   0.003036   0.251955  -0.052224   0.107158  -0.004109
     4  C   -0.042107  -0.010433   0.102457   0.000232   0.013499  -0.052943
     5  C   -0.148178  -0.031121   0.468830   0.005340  -0.071071  -0.430019
     6  O   -0.090596  -0.017900   0.351287  -0.012069  -0.027503  -0.016753
     7  C    6.588056  -0.058817  -0.984970  -0.143574   0.229989  -0.021174
     8  C   -0.058817   5.659735  -0.137340  -0.006346  -0.006138   0.004432
     9  C   -0.984970  -0.137340   7.246754   0.229965  -0.529476  -0.114409
    10  C   -0.143574  -0.006346   0.229965   5.686467  -0.072376  -0.006302
    11  C    0.229989  -0.006138  -0.529476  -0.072376   5.565011   0.000759
    12  C   -0.021174   0.004432  -0.114409  -0.006302   0.000759   6.121629
    13  O    0.003620   0.000524   0.000170   0.000077   0.000284  -0.000501
    14  H   -0.000059  -0.004117  -0.046724  -0.007646   0.010414   0.027452
    15  H   -0.000402   0.000152  -0.001919  -0.000097   0.000238  -0.096132
    16  H   -0.000025  -0.000310  -0.001374   0.000081  -0.000050   0.020962
    17  H    0.003438  -0.004214  -0.022680   0.003967   0.001130   0.003044
    18  H    0.001588   0.001755   0.002237  -0.000303   0.004174  -0.049277
    19  H   -0.000402   0.000852  -0.003414  -0.000543  -0.002768   0.010547
    20  H    0.004685  -0.000381  -0.018307   0.001908   0.004471   0.004268
    21  H    0.437381  -0.041043  -0.029554  -0.002375   0.002548  -0.000091
    22  H    0.530499  -0.001780  -0.146469  -0.018340   0.015708   0.000287
    23  H   -0.055165   0.522520  -0.002032  -0.073291   0.002659   0.000089
    24  H   -0.053732   0.422937   0.016923  -0.015845   0.004219   0.000048
    25  H   -0.104540  -0.008100   0.535392   0.016089  -0.038972  -0.016987
    26  H   -0.002764  -0.041438   0.001277   0.437353  -0.035177   0.000058
    27  H   -0.002287  -0.032393  -0.000482   0.497165  -0.086768  -0.000163
    28  H    0.000917   0.009195  -0.014214  -0.019089   0.433837  -0.000474
    29  H    0.020499  -0.003331   0.003894  -0.078437   0.455962   0.000339
    30  H    0.000164  -0.000361   0.001947   0.000393  -0.000903   0.511796
    31  H   -0.000827   0.000000   0.002577  -0.000095  -0.000283   0.387418
              13         14         15         16         17         18
     1  C   -0.012898   0.576608   0.043301  -0.020718   0.042572  -0.087202
     2  C    0.110424  -0.006443   0.517862   0.407869   0.009248   0.033522
     3  O   -0.000047  -0.001867   0.000006   0.000090  -0.000216   0.001318
     4  C    0.103464  -0.090776  -0.025688   0.023209   0.356084   0.485947
     5  C   -0.039431  -0.081696  -0.034675  -0.008258  -0.000041  -0.002164
     6  O    0.027505  -0.028619   0.000071   0.001141  -0.005510   0.012351
     7  C    0.003620  -0.000059  -0.000402  -0.000025   0.003438   0.001588
     8  C    0.000524  -0.004117   0.000152  -0.000310  -0.004214   0.001755
     9  C    0.000170  -0.046724  -0.001919  -0.001374  -0.022680   0.002237
    10  C    0.000077  -0.007646  -0.000097   0.000081   0.003967  -0.000303
    11  C    0.000284   0.010414   0.000238  -0.000050   0.001130   0.004174
    12  C   -0.000501   0.027452  -0.096132   0.020962   0.003044  -0.049277
    13  O    8.379270   0.002878  -0.070909  -0.077454  -0.077267  -0.037769
    14  H    0.002878   0.437416   0.000115   0.001233   0.002963  -0.011336
    15  H   -0.070909   0.000115   0.529630  -0.030232  -0.002058   0.009726
    16  H   -0.077454   0.001233  -0.030232   0.512552   0.000711  -0.004558
    17  H   -0.077267   0.002963  -0.002058   0.000711   0.491177  -0.008762
    18  H   -0.037769  -0.011336   0.009726  -0.004558  -0.008762   0.468644
    19  H   -0.004457   0.004226  -0.003630   0.004838   0.001780  -0.001225
    20  H    0.000858  -0.009243   0.001416  -0.002064  -0.001179   0.002895
    21  H    0.000735  -0.000919   0.000043  -0.000097  -0.000475   0.000064
    22  H    0.000039  -0.001169  -0.000031   0.000063  -0.000298   0.000276
    23  H    0.000147  -0.000844  -0.000020   0.000081  -0.003074   0.000322
    24  H    0.000013   0.000385  -0.000004  -0.000005   0.000487  -0.000002
    25  H   -0.000721   0.001383  -0.000033  -0.000134   0.002355  -0.000949
    26  H    0.000016   0.000244   0.000008  -0.000003   0.000276   0.000039
    27  H   -0.000007  -0.000166   0.000000  -0.000003   0.000053  -0.000112
    28  H    0.000002  -0.001315   0.000006  -0.000010   0.000756   0.000266
    29  H    0.000432  -0.007803  -0.000223   0.000128  -0.007971  -0.000877
    30  H    0.001226  -0.003535  -0.015452   0.008324  -0.001303  -0.008043
    31  H    0.008682  -0.001338   0.002532  -0.011452   0.002040  -0.001006
              19         20         21         22         23         24
     1  C   -0.115767  -0.011256  -0.007328   0.005460  -0.017044   0.007197
     2  C   -0.030136  -0.001880   0.000484   0.000028   0.000285  -0.000105
     3  O   -0.000442   0.003306   0.007388  -0.005625   0.001646  -0.004100
     4  C   -0.020569   0.015699   0.000294   0.001746   0.000013  -0.002509
     5  C    0.504687   0.389104   0.006953  -0.004270   0.006452  -0.001078
     6  O    0.004096   0.001624  -0.001326   0.007848  -0.004052   0.000779
     7  C   -0.000402   0.004685   0.437381   0.530499  -0.055165  -0.053732
     8  C    0.000852  -0.000381  -0.041043  -0.001780   0.522520   0.422937
     9  C   -0.003414  -0.018307  -0.029554  -0.146469  -0.002032   0.016923
    10  C   -0.000543   0.001908  -0.002375  -0.018340  -0.073291  -0.015845
    11  C   -0.002768   0.004471   0.002548   0.015708   0.002659   0.004219
    12  C    0.010547   0.004268  -0.000091   0.000287   0.000089   0.000048
    13  O   -0.004457   0.000858   0.000735   0.000039   0.000147   0.000013
    14  H    0.004226  -0.009243  -0.000919  -0.001169  -0.000844   0.000385
    15  H   -0.003630   0.001416   0.000043  -0.000031  -0.000020  -0.000004
    16  H    0.004838  -0.002064  -0.000097   0.000063   0.000081  -0.000005
    17  H    0.001780  -0.001179  -0.000475  -0.000298  -0.003074   0.000487
    18  H   -0.001225   0.002895   0.000064   0.000276   0.000322  -0.000002
    19  H    0.455878  -0.023977  -0.002359  -0.000228  -0.000105   0.000273
    20  H   -0.023977   0.491177   0.000555   0.000943   0.000254  -0.000153
    21  H   -0.002359   0.000555   0.471029  -0.003673  -0.001445  -0.009159
    22  H   -0.000228   0.000943  -0.003673   0.452288   0.002536  -0.003929
    23  H   -0.000105   0.000254  -0.001445   0.002536   0.463360  -0.008632
    24  H    0.000273  -0.000153  -0.009159  -0.003929  -0.008632   0.472331
    25  H    0.001232  -0.015125  -0.008976  -0.016822  -0.003820   0.003518
    26  H   -0.000077   0.000027   0.000948  -0.002638  -0.004703  -0.006453
    27  H    0.000104  -0.000172  -0.001228  -0.002173   0.001063  -0.002378
    28  H   -0.000179   0.000467   0.001090   0.000540  -0.002372   0.001345
    29  H    0.000177  -0.000840  -0.000077  -0.000913   0.001070  -0.001832
    30  H    0.000705  -0.005021  -0.000035   0.000028   0.000025  -0.000003
    31  H    0.001120  -0.012223   0.000080  -0.000087   0.000002   0.000009
              25         26         27         28         29         30
     1  C   -0.073113   0.003843  -0.003644   0.009836  -0.045553  -0.064099
     2  C    0.002951   0.000074  -0.000046   0.000178  -0.001296  -0.082788
     3  O   -0.063630   0.009835  -0.002049  -0.070150  -0.031564  -0.000301
     4  C   -0.008979  -0.000447   0.000122   0.001258   0.011456  -0.004384
     5  C    0.068634   0.000299  -0.000274  -0.000312   0.016054   0.008423
     6  O   -0.028236   0.000363  -0.000007   0.000557   0.016286   0.001623
     7  C   -0.104540  -0.002764  -0.002287   0.000917   0.020499   0.000164
     8  C   -0.008100  -0.041438  -0.032393   0.009195  -0.003331  -0.000361
     9  C    0.535392   0.001277  -0.000482  -0.014214   0.003894   0.001947
    10  C    0.016089   0.437353   0.497165  -0.019089  -0.078437   0.000393
    11  C   -0.038972  -0.035177  -0.086768   0.433837   0.455962  -0.000903
    12  C   -0.016987   0.000058  -0.000163  -0.000474   0.000339   0.511796
    13  O   -0.000721   0.000016  -0.000007   0.000002   0.000432   0.001226
    14  H    0.001383   0.000244  -0.000166  -0.001315  -0.007803  -0.003535
    15  H   -0.000033   0.000008   0.000000   0.000006  -0.000223  -0.015452
    16  H   -0.000134  -0.000003  -0.000003  -0.000010   0.000128   0.008324
    17  H    0.002355   0.000276   0.000053   0.000756  -0.007971  -0.001303
    18  H   -0.000949   0.000039  -0.000112   0.000266  -0.000877  -0.008043
    19  H    0.001232  -0.000077   0.000104  -0.000179   0.000177   0.000705
    20  H   -0.015125   0.000027  -0.000172   0.000467  -0.000840  -0.005021
    21  H   -0.008976   0.000948  -0.001228   0.001090  -0.000077  -0.000035
    22  H   -0.016822  -0.002638  -0.002173   0.000540  -0.000913   0.000028
    23  H   -0.003820  -0.004703   0.001063  -0.002372   0.001070   0.000025
    24  H    0.003518  -0.006453  -0.002378   0.001345  -0.001832  -0.000003
    25  H    0.472790   0.001260   0.000486  -0.001229   0.000471  -0.000151
    26  H    0.001260   0.488943  -0.011348  -0.009685  -0.001300  -0.000020
    27  H    0.000486  -0.011348   0.480035  -0.005352   0.005276   0.000020
    28  H   -0.001229  -0.009685  -0.005352   0.477020  -0.016268  -0.000090
    29  H    0.000471  -0.001300   0.005276  -0.016268   0.521958   0.000447
    30  H   -0.000151  -0.000020   0.000020  -0.000090   0.000447   0.463779
    31  H    0.002328   0.000001   0.000000   0.000011  -0.000066  -0.008318
              31
     1  C   -0.015943
     2  C   -0.013848
     3  O   -0.000188
     4  C    0.002476
     5  C   -0.002886
     6  O   -0.001729
     7  C   -0.000827
     8  C    0.000000
     9  C    0.002577
    10  C   -0.000095
    11  C   -0.000283
    12  C    0.387418
    13  O    0.008682
    14  H   -0.001338
    15  H    0.002532
    16  H   -0.011452
    17  H    0.002040
    18  H   -0.001006
    19  H    0.001120
    20  H   -0.012223
    21  H    0.000080
    22  H   -0.000087
    23  H    0.000002
    24  H    0.000009
    25  H    0.002328
    26  H    0.000001
    27  H    0.000000
    28  H    0.000011
    29  H   -0.000066
    30  H   -0.008318
    31  H    0.494416
 Mulliken charges:
               1
     1  C   -0.107723
     2  C   -0.262984
     3  O   -0.290799
     4  C   -0.340859
     5  C   -0.241220
     6  O   -0.234235
     7  C   -0.351946
     8  C   -0.314391
     9  C   -0.081854
    10  C   -0.376440
    11  C   -0.151957
    12  C   -0.371854
    13  O   -0.318907
    14  H    0.240297
    15  H    0.176402
    16  H    0.175463
    17  H    0.212967
    18  H    0.188462
    19  H    0.219764
    20  H    0.178162
    21  H    0.180567
    22  H    0.190156
    23  H    0.174075
    24  H    0.179453
    25  H    0.281630
    26  H    0.171188
    27  H    0.166727
    28  H    0.203456
    29  H    0.143899
    30  H    0.195906
    31  H    0.166594
 Sum of Mulliken charges =  -0.00000
 Mulliken charges with hydrogens summed into heavy atoms:
               1
     1  C    0.132574
     2  C    0.088880
     3  O   -0.290799
     4  C    0.060569
     5  C    0.156707
     6  O   -0.234235
     7  C    0.018778
     8  C    0.039136
     9  C    0.199776
    10  C   -0.038524
    11  C    0.195399
    12  C   -0.009353
    13  O   -0.318907
 Electronic spatial extent (au):  <R**2>=           3050.0687
 Charge=              0.0000 electrons
 Dipole moment (field-independent basis, Debye):
    X=             -0.0032    Y=              1.4545    Z=             -0.7977  Tot=              1.6589
 Quadrupole moment (field-independent basis, Debye-Ang):
   XX=            -70.6400   YY=            -85.4895   ZZ=            -76.2027
   XY=              8.7951   XZ=             -1.7633   YZ=              3.9250
 Traceless Quadrupole moment (field-independent basis, Debye-Ang):
   XX=              6.8041   YY=             -8.0454   ZZ=              1.2414
   XY=              8.7951   XZ=             -1.7633   YZ=              3.9250
 Octapole moment (field-independent basis, Debye-Ang**2):
  XXX=              9.8932  YYY=              2.1320  ZZZ=             -3.4826  XYY=             -3.5600
  XXY=              9.4882  XXZ=             -2.4613  XZZ=             -0.8474  YZZ=             -0.1661
  YYZ=             -0.1583  XYZ=              1.3691
 Hexadecapole moment (field-independent basis, Debye-Ang**3):
 XXXX=          -3003.5085 YYYY=           -489.0343 ZZZZ=           -426.9955 XXXY=             31.8569
 XXXZ=             20.9628 YYYX=             16.3553 YYYZ=             10.1691 ZZZX=             10.6197
 ZZZY=             -5.1908 XXYY=           -643.0272 XXZZ=           -567.2815 YYZZ=           -150.2409
 XXYZ=              9.8953 YYXZ=             -3.8821 ZZXY=             -8.4746
 N-N= 8.954626502180D+02 E-N=-3.232950740064D+03  KE= 6.153404841999D+02
 D1PCM: PCM CHGder 1st derivatives, ID1Alg=3 FixD1E=F DoIter=F DoCFld=F I1PDM=0.
 Calling FoFJK, ICntrl=      2127 FMM=F ISym2X=0 I1Cent= 0 IOpClX= 0 NMat=1 NMatS=1 NMatT=0.
 ***** Axes restored to original set *****
 -------------------------------------------------------------------
 Center     Atomic                   Forces (Hartrees/Bohr)
 Number     Number              X              Y              Z
 -------------------------------------------------------------------
      1        6           0.000029471   -0.000604106   -0.002586645
      2        6          -0.004717994   -0.003437909    0.002993447
      3        8           0.000913843   -0.011025598    0.002916623
      4        6           0.003126480   -0.005026420   -0.003794797
      5        6           0.001814201    0.001712014    0.003384733
      6        8          -0.000070369    0.012167744   -0.003618822
      7        6           0.000549318    0.002126869    0.001829857
      8        6           0.000918065   -0.003540889    0.001414241
      9        6          -0.003854220    0.005445533    0.003414447
     10        6           0.002532776    0.001259899   -0.000146229
     11        6          -0.001347876    0.001695363   -0.006402144
     12        6          -0.000861836    0.001119763   -0.001585236
     13        8          -0.002423889    0.007130492   -0.005675736
     14        1          -0.002012648   -0.004070905    0.005414093
     15        1           0.004217199    0.000265871    0.003573167
     16        1           0.001309415    0.000182243   -0.004631286
     17        1          -0.003996109    0.003197862    0.000084124
     18        1           0.002043599   -0.001780302    0.005620497
     19        1          -0.000903031    0.002431571   -0.003395282
     20        1          -0.001057971   -0.003131154    0.000380242
     21        1           0.001751212    0.001484830   -0.002202335
     22        1          -0.002015465   -0.002619971   -0.000624309
     23        1           0.002798253    0.002003685    0.001208993
     24        1          -0.001915385    0.000744553   -0.001564907
     25        1           0.003059765   -0.007106043   -0.003233126
     26        1          -0.001521831    0.002053173    0.001258579
     27        1          -0.001639013   -0.002709904   -0.001017466
     28        1          -0.001769708   -0.002364750    0.003281363
     29        1           0.003645822    0.005147371    0.001515534
     30        1          -0.000130220   -0.000715891    0.003383148
     31        1           0.001528147   -0.002034997   -0.001194771
 -------------------------------------------------------------------
 Cartesian Forces:  Max     0.012167744 RMS     0.003354858

 GradGradGradGradGradGradGradGradGradGradGradGradGradGradGradGradGradGrad
 Berny optimization.
 FormGI is forming the generalized inverse of G from B-inverse, IUseBI=4.
 Internal  Forces:  Max     0.013052076 RMS     0.002068062
 Search for a local minimum.
 Step number   1 out of a maximum of  186
 All quantities printed in internal units (Hartrees-Bohrs-Radians)
 Mixed Optimization -- RFO/linear search
 Second derivative matrix not updated -- first step.
 ITU=  0
     Eigenvalues ---    0.00422   0.00612   0.00622   0.00726   0.01414
     Eigenvalues ---    0.01455   0.01728   0.02702   0.02763   0.03075
     Eigenvalues ---    0.03348   0.04090   0.04158   0.04622   0.04678
     Eigenvalues ---    0.04750   0.04889   0.04908   0.05107   0.05141
     Eigenvalues ---    0.05261   0.05570   0.05681   0.06023   0.06171
     Eigenvalues ---    0.06240   0.06673   0.07018   0.07609   0.07823
     Eigenvalues ---    0.07865   0.07890   0.07970   0.08150   0.08232
     Eigenvalues ---    0.08824   0.09253   0.10225   0.11159   0.11600
     Eigenvalues ---    0.11656   0.11761   0.11776   0.12400   0.12699
     Eigenvalues ---    0.14692   0.14730   0.16484   0.17733   0.19163
     Eigenvalues ---    0.19913   0.21950   0.22440   0.25000   0.27086
     Eigenvalues ---    0.27492   0.28610   0.28650   0.28862   0.28936
     Eigenvalues ---    0.29605   0.30343   0.35091   0.35208   0.35210
     Eigenvalues ---    0.35239   0.35255   0.35267   0.35288   0.35314
     Eigenvalues ---    0.35338   0.35416   0.35431   0.35439   0.35541
     Eigenvalues ---    0.35603   0.35761   0.35843   0.35939   0.36011
     Eigenvalues ---    0.40139   0.40852   0.41657   0.42291   0.43346
     Eigenvalues ---    0.460801000.000001000.000001000.000001000.00000
     Eigenvalues --- 1000.000001000.000001000.000001000.000001000.00000
     Eigenvalues --- 1000.000001000.000001000.000001000.000001000.00000
     Eigenvalues --- 1000.000001000.000001000.000001000.000001000.00000
     Eigenvalues --- 1000.000001000.000001000.000001000.000001000.00000
     Eigenvalues --- 1000.000001000.000001000.000001000.000001000.00000
     Eigenvalues --- 1000.000001000.000001000.000001000.000001000.00000
     Eigenvalues --- 1000.000001000.000001000.000001000.000001000.00000
     Eigenvalues --- 1000.000001000.000001000.000001000.000001000.00000
     Eigenvalues --- 1000.000001000.000001000.000001000.000001000.00000
     Eigenvalues --- 1000.000001000.000001000.000001000.000001000.00000
     Eigenvalues --- 1000.000001000.000001000.000001000.000001000.00000
     Eigenvalues --- 1000.000001000.000001000.000001000.000001000.00000
     Eigenvalues --- 1000.000001000.000001000.000001000.000001000.00000
     Eigenvalues --- 1000.000001000.000001000.000001000.000001000.00000
     Eigenvalues --- 1000.000001000.000001000.000001000.000001000.00000
     Eigenvalues --- 1000.000001000.000001000.000001000.000001000.00000
     Eigenvalues --- 1000.000001000.000001000.000001000.000001000.00000
     Eigenvalues --- 1000.000001000.000001000.000001000.000001000.00000
     Eigenvalues --- 1000.000001000.000001000.000001000.000001000.00000
 RFO step:  Lambda=-3.37498059D-03 EMin= 4.21792169D-03
 Linear search not attempted -- first point.
 Iteration  1 RMS(Cart)=  0.05076884 RMS(Int)=  0.00056864
 Iteration  2 RMS(Cart)=  0.00186017 RMS(Int)=  0.00004944
 Iteration  3 RMS(Cart)=  0.00000099 RMS(Int)=  0.00004944
 Iteration  1 RMS(Cart)=  0.00000548 RMS(Int)=  0.00000126
 Iteration  2 RMS(Cart)=  0.00000304 RMS(Int)=  0.00000141
 Iteration  3 RMS(Cart)=  0.00000169 RMS(Int)=  0.00000160
 Iteration  4 RMS(Cart)=  0.00000094 RMS(Int)=  0.00000172
 Variable       Old X    -DE/DX   Delta X   Delta X   Delta X     New X
                                 (Linear)    (Quad)   (Total)
    R1        2.88426  -0.00037   0.00000  -0.00136  -0.00134   2.88291
    R2        2.90378  -0.00089   0.00000  -0.00439  -0.00439   2.89939
    R3        2.68554   0.00092   0.00000   0.00217   0.00217   2.68771
    R4        2.04707   0.00702   0.00000   0.01953   0.01953   2.06660
    R5        2.89383   0.00048   0.00000   0.00230   0.00229   2.89612
    R6        2.68445   0.00366   0.00000   0.00978   0.00978   2.69423
    R7        2.05210   0.00542   0.00000   0.01523   0.01523   2.06732
    R8        2.04457   0.00479   0.00000   0.01327   0.01327   2.05783
    R9        2.65422   0.00374   0.00000   0.00794   0.00795   2.66217
   R10        2.68634   0.00307   0.00000   0.00709   0.00709   2.69344
   R11        2.66504   0.00290   0.00000   0.00684   0.00684   2.67188
   R12        2.04177   0.00494   0.00000   0.01361   0.01361   2.05538
   R13        2.05129   0.00614   0.00000   0.01720   0.01720   2.06849
   R14        2.88803  -0.00042   0.00000  -0.00268  -0.00270   2.88533
   R15        2.05262   0.00399   0.00000   0.01121   0.01121   2.06383
   R16        2.04806   0.00333   0.00000   0.00927   0.00927   2.05733
   R17        2.64041   0.00312   0.00000   0.00671   0.00671   2.64713
   R18        2.89044  -0.00146   0.00000  -0.00474  -0.00475   2.88569
   R19        2.87400  -0.00074   0.00000  -0.00272  -0.00274   2.87126
   R20        2.04981   0.00316   0.00000   0.00883   0.00883   2.05864
   R21        2.05335   0.00331   0.00000   0.00931   0.00931   2.06266
   R22        2.88914  -0.00082   0.00000  -0.00224  -0.00226   2.88688
   R23        2.05339   0.00345   0.00000   0.00969   0.00969   2.06308
   R24        2.05167   0.00258   0.00000   0.00724   0.00724   2.05891
   R25        2.04064   0.00835   0.00000   0.02298   0.02298   2.06362
   R26        2.87167   0.00011   0.00000   0.00063   0.00064   2.87232
   R27        2.05288   0.00283   0.00000   0.00795   0.00795   2.06083
   R28        2.05528   0.00325   0.00000   0.00917   0.00917   2.06445
   R29        2.04328   0.00441   0.00000   0.01219   0.01219   2.05547
   R30        2.05004   0.00639   0.00000   0.01788   0.01788   2.06792
   R31        2.05244   0.00342   0.00000   0.00962   0.00962   2.06206
   R32        2.04968   0.00278   0.00000   0.00777   0.00777   2.05745
    A1        1.91934   0.00045   0.00000  -0.00657  -0.00669   1.91264
    A2        1.87559  -0.00088   0.00000  -0.00477  -0.00479   1.87080
    A3        1.88894   0.00091   0.00000   0.01138   0.01142   1.90036
    A4        1.95390   0.00025   0.00000  -0.00480  -0.00482   1.94907
    A5        1.92801  -0.00112   0.00000  -0.00083  -0.00079   1.92722
    A6        1.89617   0.00042   0.00000   0.00620   0.00618   1.90235
    A7        1.95106   0.00182   0.00000   0.00530   0.00520   1.95626
    A8        1.93819  -0.00115   0.00000  -0.00610  -0.00613   1.93206
    A9        1.93199  -0.00090   0.00000  -0.00640  -0.00636   1.92563
   A10        1.90409   0.00049   0.00000   0.00789   0.00796   1.91205
   A11        1.84425  -0.00084   0.00000  -0.00217  -0.00215   1.84210
   A12        1.89102   0.00060   0.00000   0.00180   0.00175   1.89278
   A13        2.02173  -0.00571   0.00000  -0.03659  -0.03649   1.98524
   A14        1.94003   0.00063   0.00000   0.00119   0.00105   1.94108
   A15        1.92685  -0.00147   0.00000  -0.01551  -0.01550   1.91135
   A16        1.92174  -0.00077   0.00000  -0.00141  -0.00144   1.92031
   A17        1.87100  -0.00038   0.00000  -0.00097  -0.00099   1.87001
   A18        1.91348   0.00134   0.00000   0.01334   0.01337   1.92686
   A19        1.88942   0.00068   0.00000   0.00359   0.00353   1.89294
   A20        1.91621  -0.00044   0.00000  -0.00544  -0.00561   1.91060
   A21        1.89794  -0.00035   0.00000  -0.00880  -0.00876   1.88918
   A22        1.93584  -0.00014   0.00000   0.00099   0.00106   1.93690
   A23        1.90925   0.00083   0.00000   0.00355   0.00355   1.91279
   A24        1.92914  -0.00015   0.00000   0.00306   0.00309   1.93223
   A25        1.87463   0.00027   0.00000   0.00676   0.00672   1.88135
   A26        2.04495  -0.01305   0.00000  -0.05151  -0.05151   1.99344
   A27        1.95314  -0.00165   0.00000  -0.01497  -0.01509   1.93805
   A28        1.94677  -0.00029   0.00000  -0.00143  -0.00153   1.94524
   A29        1.91098   0.00122   0.00000   0.00761   0.00769   1.91867
   A30        1.90109   0.00074   0.00000  -0.00075  -0.00073   1.90036
   A31        1.87326   0.00005   0.00000   0.00363   0.00363   1.87689
   A32        1.87555   0.00000   0.00000   0.00697   0.00694   1.88249
   A33        1.91519   0.00192   0.00000  -0.00159  -0.00160   1.91359
   A34        1.92196  -0.00098   0.00000  -0.00644  -0.00645   1.91552
   A35        1.91577  -0.00054   0.00000   0.00179   0.00178   1.91755
   A36        1.91396  -0.00085   0.00000  -0.00173  -0.00182   1.91213
   A37        1.92977  -0.00026   0.00000   0.00200   0.00206   1.93183
   A38        1.86674   0.00065   0.00000   0.00608   0.00609   1.87283
   A39        1.94259   0.00032   0.00000  -0.00265  -0.00250   1.94009
   A40        1.94423   0.00337   0.00000   0.01289   0.01269   1.95692
   A41        1.82932  -0.00222   0.00000  -0.00959  -0.00961   1.81970
   A42        1.89362  -0.00329   0.00000  -0.01633  -0.01625   1.87737
   A43        1.92169   0.00175   0.00000   0.01142   0.01141   1.93310
   A44        1.93234   0.00022   0.00000   0.00518   0.00524   1.93758
   A45        1.92422  -0.00100   0.00000  -0.00527  -0.00547   1.91874
   A46        1.93864  -0.00051   0.00000  -0.00173  -0.00170   1.93694
   A47        1.91620   0.00091   0.00000   0.00159   0.00167   1.91786
   A48        1.90329   0.00059   0.00000   0.00357   0.00362   1.90691
   A49        1.90496   0.00005   0.00000  -0.00141  -0.00135   1.90362
   A50        1.87561  -0.00000   0.00000   0.00348   0.00345   1.87906
   A51        1.94359   0.00228   0.00000   0.00578   0.00573   1.94932
   A52        1.84238  -0.00135   0.00000  -0.00231  -0.00232   1.84005
   A53        1.90958   0.00019   0.00000   0.00178   0.00184   1.91142
   A54        1.94592  -0.00022   0.00000  -0.00161  -0.00155   1.94438
   A55        1.93205  -0.00164   0.00000  -0.00747  -0.00751   1.92454
   A56        1.88739   0.00073   0.00000   0.00418   0.00416   1.89155
   A57        1.91806  -0.00052   0.00000  -0.00899  -0.00907   1.90899
   A58        1.92820   0.00069   0.00000   0.00324   0.00323   1.93144
   A59        1.90496  -0.00010   0.00000   0.00399   0.00402   1.90898
   A60        1.91351  -0.00047   0.00000  -0.00228  -0.00229   1.91122
   A61        1.93389   0.00048   0.00000   0.00258   0.00264   1.93654
   A62        1.86466  -0.00005   0.00000   0.00188   0.00186   1.86652
   A63        1.97913  -0.00438   0.00000  -0.02647  -0.02650   1.95264
    D1        0.56308   0.00154   0.00000   0.00975   0.00977   0.57284
    D2        2.63706   0.00052   0.00000  -0.00073  -0.00071   2.63635
    D3       -1.56086  -0.00005   0.00000  -0.00696  -0.00690  -1.56777
    D4       -1.56779   0.00151   0.00000   0.02254   0.02252  -1.54527
    D5        0.50620   0.00049   0.00000   0.01206   0.01204   0.51824
    D6        2.59146  -0.00008   0.00000   0.00583   0.00585   2.59731
    D7        2.67064   0.00100   0.00000   0.01184   0.01181   2.68245
    D8       -1.53856  -0.00002   0.00000   0.00136   0.00134  -1.53722
    D9        0.54670  -0.00058   0.00000  -0.00487  -0.00486   0.54184
   D10        0.51531   0.00112   0.00000   0.01745   0.01745   0.53275
[...]
 6319,0.00032879,-0.00005698,-0.00008424,0.00004048,0.00002951,-0.00004
 880,0.00003098,-0.00009067,0.00001421,0.00005620,-0.00001213,-0.000001
 56,0.00001339,-0.00000474,-0.00002489,0.00011681,0.00002665,-0.0000707
 5,-0.00002241,-0.00001341,-0.00000905,-0.00005266,-0.00014191,-0.00042
 006,0.00043096,-0.00018782,0.00100932,-0.00054439,0.00035462,0.0006199
 3,-0.00053977,0.00064190,0.00010268,0.00010992,0.00001624,-0.00074170,
 0.00080566,0.00066828,-0.05895320,0.09997093,0.12776889,0.00024280,-0.
 00010106,0.00011443,0.00002553,-0.00000398,-0.00000377,-0.00569421,0.0
 0412144,-0.00157817,0.00001930,0.00006389,-0.00000612,-0.00002686,-0.0
 0000936,-0.00004154,-0.00054700,-0.00030236,-0.00002748,0.00051509,-0.
 00184453,0.00140933,-0.00559562,0.00627352,0.00601053,0.00133418,0.000
 64861,-0.00154743,-0.10215686,0.07890736,0.06860203,-0.00928356,0.0149
 1786,0.01759484,0.00000360,0.00001074,0.00002032,-0.00006485,-0.000027
 84,0.00001783,0.00002118,0.00002726,0.00001523,-0.00000723,-0.00000433
 ,-0.00000359,-0.00000477,0.00000071,0.00000346,0.00000266,-0.00000148,
 0.00000363,-0.00002585,-0.00001470,-0.00000975,0.00000389,0.00000442,-
 0.00000042,0.00001520,-0.00000704,0.00000185,-0.00007276,0.00050580,0.
 00029055,-0.00005600,0.00029314,0.00019390,0.00013379,0.00024647,-0.00
 034380,0.00037618,-0.00032769,-0.00020230,-0.00003123,-0.00007963,0.00
 015579,0.10867041,-0.00014120,0.00003482,-0.00001980,-0.00001941,0.000
 00547,0.00000140,0.00475659,-0.00104184,0.00074304,-0.00002907,-0.0000
 3275,-0.00001135,0.00000590,0.00001205,0.00001907,0.00038273,0.0002697
 3,-0.00012607,-0.00100665,-0.00101079,0.00287713,-0.00863531,0.0118329
 3,0.01004781,-0.00078996,-0.00091349,0.00141872,0.08090187,-0.16695615
 ,-0.10646689,0.00257638,-0.00913096,-0.00955160,-0.00000210,-0.0000054
 6,-0.00001167,0.00004841,0.00002063,-0.00001329,-0.00002226,-0.0000008
 2,-0.00003678,0.00000479,0.00000209,0.00000220,0.00000332,-0.00000088,
 -0.00000216,0.00000094,0.00000151,-0.00000053,0.00001481,0.00000599,0.
 00000456,0.00000171,-0.00000398,-0.00000359,-0.00001126,0.00000194,0.0
 0000051,-0.00044383,0.00055535,0.00060837,-0.00001591,0.00013966,0.000
 16233,0.00028823,0.00078202,-0.00079991,0.00041144,0.00045081,-0.00084
 692,-0.00000572,0.00003647,-0.00021183,-0.08820550,0.17900719,-0.00006
 134,0.00004788,-0.00006284,-0.00000669,-0.00000037,0.00000073,-0.00474
 831,0.00315558,0.00033236,0.00000606,-0.00002494,0.00003301,0.00002931
 ,-0.00000394,0.00001324,0.00009720,-0.00023935,0.00027732,0.00169902,0
 .00448801,-0.00412369,0.01217214,-0.01946409,-0.01578812,-0.00045719,0
 .00096759,-0.00146647,0.06986222,-0.10648444,-0.14122444,-0.00547378,0
 .01049637,0.01090305,0.00000180,-0.00000627,-0.00000757,0.00001049,0.0
 0000113,-0.00000566,0.00001935,-0.00000403,0.00003460,0.00000186,0.000
 00161,0.00000120,0.00000098,-0.00000035,-0.00000103,-0.00000244,-0.000
 00352,-0.00000405,0.00001029,0.00000970,0.00000503,-0.00000564,-0.0000
 0126,0.00000220,0.00000840,0.00000418,-0.00000488,0.00129321,-0.001240
 26,-0.00081477,-0.00029380,0.00018066,0.00019767,-0.00018443,0.0001336
 3,0.00126498,-0.00081420,-0.00036779,0.00074261,0.00003776,-0.00016941
 ,0.00030138,-0.07782249,0.11405607,0.15338730,0.00018164,0.00003629,-0
 .00000092,0.00001834,-0.00000561,-0.00000051,0.00260804,-0.00031302,0.
 00103036,0.00004779,0.00003043,-0.00000563,-0.00002072,-0.00001890,0.0
 0000630,-0.00004690,0.00010167,0.00015992,0.00002095,-0.00025303,-0.00
 062419,-0.00712194,-0.00760022,-0.00199981,-0.00030030,-0.00010395,-0.
 00005358,-0.16204398,-0.12035156,-0.03904319,-0.01966929,-0.01888730,-
 0.00855326,0.00000090,0.00000873,0.00001185,-0.00004517,-0.00001100,0.
 00001623,0.00005117,-0.00003544,0.00001843,-0.00000413,-0.00000162,-0.
 00000247,-0.00000335,0.00000139,0.00000209,0.00000610,0.00000760,0.000
 00112,-0.00001020,-0.00000561,-0.00000356,-0.00000875,0.00000563,0.000
 00656,-0.00000278,-0.00000073,0.00000239,0.00016968,0.00015496,0.00010
 236,-0.00023402,0.00025167,0.00035361,0.00035464,-0.00078405,0.0017854
 6,0.00063768,0.00031047,0.00021676,-0.00007989,0.00001000,0.00002105,0
 .01083889,0.01032450,0.00302926,0.17653653,0.00010333,-0.00005891,0.00
 013075,0.00000607,-0.00000083,-0.00000116,-0.00178289,0.00134062,0.000
 68265,-0.00000700,0.00001413,-0.00001295,-0.00002190,0.00001608,-0.000
 04024,-0.00026626,-0.00003895,-0.00011870,0.00080015,0.00060312,-0.000
 65041,-0.01017223,-0.01274881,-0.00268447,0.00019771,0.00010822,-0.000
 01665,-0.12222236,-0.17946242,-0.04570437,0.01158892,0.00994556,0.0040
 0768,-0.00000227,0.00000503,0.00000759,-0.00001140,-0.00000047,0.00000
 211,-0.00000773,0.00004121,-0.00003101,-0.00000195,-0.00000125,-0.0000
 0086,-0.00000116,0.00000003,0.00000090,0.00000305,-0.00000030,0.000003
 76,-0.00000940,-0.00000574,-0.00000346,0.00001095,-0.00000386,-0.00000
 474,0.00000147,-0.00000341,0.00000239,0.00019317,0.00013575,0.00016125
 ,-0.00023243,0.00052151,0.00020630,-0.00076166,-0.00013572,0.00323962,
 0.00040916,0.00029514,-0.00019501,-0.00009674,0.00002029,-0.00003647,-
 0.01400831,-0.01469425,-0.00459566,0.13419272,0.19360484,0.00012547,-0
 .00005818,-0.00003113,0.00001266,-0.00000387,-0.00000029,0.00162420,0.
 00072973,0.00141453,0.00002426,0.00003326,-0.00000513,-0.00000243,-0.0
 0001723,0.00002113,-0.00018493,-0.00008600,0.00019329,-0.00034025,0.00
 055827,0.00166418,0.01989240,0.02150736,0.00572201,0.00014330,0.000252
 73,-0.00052579,-0.03999119,-0.04464215,-0.06267666,-0.01278408,-0.0142
 2359,-0.00710472,0.00000364,0.00000148,0.00000397,-0.00003370,-0.00001
 194,0.00001417,0.00007666,-0.00003714,0.00002193,-0.00000281,-0.000000
 97,-0.00000168,-0.00000233,0.00000068,0.00000143,0.00000634,0.00000375
 ,-0.00000225,-0.00000667,-0.00000629,-0.00000223,-0.00000800,0.0000059
 8,0.00000353,-0.00000027,-0.00000045,-0.00000032,-0.00041211,-0.000052
 84,0.00002638,-0.00023819,-0.00045111,-0.00022862,0.00239282,0.0024534
 0,-0.00445759,-0.00069234,-0.00056697,0.00124754,0.00000204,-0.0000626
 7,0.00009886,-0.01286053,-0.01221320,-0.00481967,0.04567425,0.04498729
 ,0.06981881,0.00054973,-0.00015090,0.00019622,0.00004299,-0.00001195,-
 0.00000238,-0.00901250,-0.00548798,0.02020977,0.00007904,0.00007510,-0
 .00003603,-0.00006426,-0.00002271,-0.00001353,-0.00045555,0.00007552,0
 .00039838,-0.00037019,0.00001474,0.00035508,-0.00474801,0.00192893,-0.
 00186904,-0.00067259,0.00319501,-0.00057029,0.01002518,0.01437148,-0.0
 2230600,-0.07592855,-0.04659719,0.06255691,0.00001040,0.00001952,0.000
 02352,-0.00010521,-0.00002486,0.00002906,0.00003276,0.00000256,-0.0000
 0816,-0.00001209,-0.00000567,-0.00000519,-0.00000866,0.00000286,0.0000
 0483,0.00001390,0.00001926,0.00000937,-0.00004015,-0.00001942,-0.00001
 607,-0.00000665,0.00001756,-0.00000897,0.00001089,-0.00000203,0.000009
 21,0.00018905,-0.00015855,0.00002746,0.00005493,-0.00006942,-0.0000208
 6,0.00005889,0.00017300,0.00004185,0.00050460,0.00075184,-0.00149234,-
 0.00028790,-0.00028407,0.00088407,0.00076248,-0.00047523,0.00105017,0.
 00123932,-0.00070274,0.00062295,0.08381033,0.00006451,0.00009735,0.000
 00262,0.00001534,-0.00000668,0.00000570,0.01338371,0.01194903,-0.02747
 674,0.00006592,-0.00000132,-0.00000221,-0.00002353,-0.00002788,-0.0000
 0130,0.00006671,0.00096215,0.00080412,0.00034525,-0.00022330,-0.000400
 87,0.00355668,-0.00017101,0.00089449,0.00112439,-0.00435039,-0.0020871
 3,-0.00582662,-0.00633249,0.00925366,-0.05213754,-0.13275188,0.1225760
 8,-0.00000641,0.00002324,0.00000960,-0.00002455,0.00000029,0.00001076,
 -0.00004308,-0.00008414,0.00007884,-0.00000123,0.00000133,-0.00000195,
 -0.00000224,0.00000148,0.00000034,0.00000689,0.00001260,0.00000367,-0.
 00000225,0.00000144,-0.00000171,-0.00001806,0.00000235,0.00000682,-0.0
 0000341,0.00002289,-0.00000588,-0.00019219,0.00015362,0.00000537,-0.00
 001280,0.00005522,0.00003216,0.00010263,0.00026430,-0.00037393,-0.0003
 0228,-0.00023322,0.00113935,0.00038698,0.00033269,-0.00105930,-0.00005
 920,0.00005880,-0.00029323,0.00033209,0.00082582,-0.00042973,0.0452324
 6,0.13984098,-0.00028930,0.00011317,-0.00011762,-0.00002651,0.00000229
 ,0.00000693,0.01367224,0.00573879,-0.02433114,0.00000154,-0.00007713,0
 .00002181,0.00004453,0.00000419,0.00003074,0.00045497,0.00082153,0.000
 65446,0.00020573,0.00004771,0.00033029,-0.00329820,0.00091868,0.000088
 91,-0.00064128,-0.00539682,0.00148602,0.00407093,0.00921840,-0.0112120
 8,0.06325250,0.11206012,-0.21039994,-0.00000970,-0.00000038,-0.0000182
 9,0.00006969,0.00003123,-0.00001998,0.00004007,-0.00003315,-0.00005140
 ,0.00000874,0.00000654,0.00000385,0.00000495,-0.00000029,-0.00000436,0
 .00000518,0.00000419,-0.00000528,0.00003396,0.00002022,0.00001274,-0.0
 0001256,-0.00000990,0.00000640,-0.00001192,0.00002111,-0.00000922,-0.0
 0003733,0.00010235,-0.00006640,-0.00000959,-0.00004310,-0.00002452,0.0
 0009199,0.00011217,0.00001822,0.00043384,0.00038702,-0.00074985,0.0004
 6079,0.00039334,-0.00101895,-0.00024051,0.00018343,0.00024980,0.000463
 27,-0.00058522,0.00038850,-0.07589109,-0.11975225,0.23514137,0.0001127
 6,-0.00001034,0.00071096,-0.00004009,0.00003074,-0.00001146,0.01272206
 ,0.01781797,0.00919281,-0.00005770,0.00001488,-0.00004899,-0.00000026,
 0.00018437,-0.00011810,-0.00174354,-0.00004783,0.00162435,-0.00009171,
 0.00011007,0.00007149,0.00092151,-0.00050211,0.00117633,0.00120977,0.0
 0024565,-0.00060677,-0.01848362,-0.01815897,-0.00782404,-0.16106963,-0
 .11819152,-0.05113005,-0.00001041,-0.00000547,-0.00001860,0.00012418,0
 .00001115,-0.00002095,0.00003981,0.00040268,-0.00029388,0.00000903,-0.
 00000088,0.00000457,0.00001011,-0.00000618,-0.00000325,0.00017851,-0.0
 0008509,-0.00005690,0.00001853,-0.00000886,0.00000379,0.00003876,-0.00
 003663,-0.00003925,-0.00002114,-0.00001162,-0.00000147,0.00009465,-0.0
 0008938,-0.00003305,-0.00006189,0.00002264,0.00004954,0.00038186,0.000
 50143,-0.00049432,0.00011283,0.00024868,0.00021702,-0.00014624,-0.0001
 2666,-0.00008955,0.00062077,0.00007147,0.00053428,-0.00311064,0.002808
 92,-0.00303608,-0.00564170,-0.00602407,-0.00287093,0.17387236,0.000176
 46,0.00029513,-0.00040095,0.00002688,-0.00001022,0.00000088,-0.0032524
 0,-0.02455745,-0.02001341,0.00016885,0.00010887,0.00003450,0.00001559,
 -0.00008821,0.00017448,0.00036432,0.00231370,0.00172063,0.00041933,0.0
 0028610,-0.00018943,0.00035890,0.00099053,-0.00064959,-0.00325795,-0.0
 0321476,0.00376832,0.00940221,0.01077269,0.00573464,-0.11524105,-0.168
 60734,-0.04933085,0.00001009,0.00001842,-0.00000124,-0.00006617,-0.000
 04101,0.00004526,0.00042596,-0.00035908,-0.00001974,-0.00000268,0.0000
 0166,-0.00000247,-0.00000255,0.00000147,0.00000125,0.00014727,-0.00005
 228,-0.00004618,0.00002528,-0.00000893,0.00000692,-0.00007007,0.000029
 66,0.00002734,-0.00002174,0.00002715,-0.00000597,-0.00012147,0.0001575
 0,-0.00012355,0.00000295,-0.00005743,0.00002649,-0.00022806,-0.0001800
 1,-0.00049725,-0.00006997,-0.00000116,-0.00017617,0.00023825,0.0001700
 4,-0.00027851,-0.00102278,0.00057400,-0.00064414,0.00260415,-0.0003220
 1,0.00233010,-0.01186610,-0.01042245,-0.00428899,0.12083585,0.19217650
 ,0.00063483,0.00000495,-0.00001184,0.00004234,-0.00001510,0.00000755,-
 0.00484672,-0.02337595,-0.01342940,0.00014642,0.00004777,-0.00003181,-
 0.00007856,-0.00008041,0.00002285,0.00103225,0.00127607,0.00024822,0.0
 0028515,0.00013896,-0.00044647,0.00003451,-0.00130924,0.00067792,-0.00
 329865,-0.00350940,0.00152073,-0.01289402,-0.01079767,-0.00431561,-0.0
 4818716,-0.04471744,-0.07389087,-0.00000612,0.00004134,0.00003005,-0.0
 0009871,0.00000015,0.00003277,0.00005248,-0.00005785,0.00004099,-0.000
 00824,-0.00000015,-0.00000563,-0.00000851,0.00000434,0.00000354,0.0000
 3150,0.00004225,-0.00000325,-0.00002227,-0.00000854,-0.00001130,-0.000
 03216,0.00001376,0.00001235,-0.00000945,0.00002621,0.00000216,-0.00005
 070,0.00009384,-0.00009311,0.00005508,0.00002983,0.00010029,0.00020483
 ,0.00034564,-0.00008306,0.00018677,0.00020523,0.00019660,0.00026824,0.
 00030067,-0.00012348,0.00026163,0.00018684,0.00057427,-0.00260987,0.00
 125126,-0.00078155,0.01583509,0.01706408,0.00957876,0.05310248,0.06280
 008,0.08018918,0.00132972,0.00011063,-0.00124551,-0.00328744,-0.003303
 96,0.01316837,-0.00001209,0.00002937,0.00007998,-0.00009411,0.00029325
 ,0.00015916,-0.00198115,0.00680650,-0.03383012,0.00013310,-0.00007653,
 0.00053706,0.00001209,0.00004617,0.00005261,-0.00001472,0.00000517,-0.
 00001883,0.00005641,-0.00016316,-0.00015955,0.00000425,0.00000341,0.00
 000185,-0.00000461,-0.00002175,0.00000196,-0.04790629,0.00264937,-0.00
 260096,0.00054386,-0.00020935,-0.00018364,-0.00011979,-0.00011213,0.00
 039220,0.00069832,0.00034895,0.00029702,-0.00011911,-0.00315247,0.0004
 4919,0.00000766,-0.00008903,0.00004445,0.00002546,0.00064884,0.0000097
 0,-0.00618898,-0.00042011,-0.00193471,0.00131713,-0.00030166,0.0007244
 8,0.00000032,-0.00000081,-0.00000233,0.00000453,-0.00000308,0.00000356
 ,-0.00000081,0.00000235,0.00000048,-0.00000532,0.00000666,0.00000430,0
 .00004526,0.00010792,0.00003271,-0.00000186,0.00000015,0.00000078,0.00
 000035,-0.00000110,0.00000003,-0.00000409,0.00000300,0.00000507,-0.000
 00288,0.00000517,0.00000252,0.05503834,0.00044378,0.00012455,0.0006269
 9,-0.00181397,-0.00568671,0.03112514,-0.00005869,-0.00001505,0.0000299
 0,-0.00010092,-0.00046137,0.00082125,0.00062459,0.00033845,-0.00323980
 ,-0.00015331,0.00001861,-0.00013544,-0.00001363,-0.00001692,0.00000448
 ,-0.00000090,-0.00000110,-0.00000535,0.00010834,0.00009220,-0.00000404
 ,0.00000174,0.00000180,0.00000164,0.00002215,-0.00001267,-0.00001311,0
 .00170360,-0.05951352,0.04863121,0.00027574,-0.00119159,-0.00064293,0.
 00007474,0.00001192,-0.00006630,0.00071446,0.00161577,-0.00044719,-0.0
 0160959,-0.00459582,0.00088335,-0.00000514,0.00010887,-0.00016417,0.00
 042541,-0.00078374,-0.00045899,-0.00083422,0.00078646,0.00004851,0.000
 43605,0.00006968,-0.00013129,0.00000097,0.00000069,0.00000075,-0.00001
 086,0.00000239,-0.00000449,0.00000049,-0.00000240,0.00000072,-0.000003
 59,0.00000295,0.00000043,0.00000116,-0.00000344,0.00000140,-0.00000286
 ,0.00000135,0.00000078,-0.00000138,-0.00000067,-0.00000089,-0.00000431
 ,-0.00000035,0.00000341,0.00000279,-0.00000240,-0.00000289,0.00113791,
 0.06458806,0.00048000,-0.00097174,0.00049638,0.00062367,-0.00087525,-0
 .00399473,-0.00011425,-0.00000144,0.00008393,0.00045988,-0.00056903,-0
 .00145882,-0.00192345,0.00208658,-0.01085721,-0.00034364,0.00003263,-0
 .00002035,-0.00001299,0.00000402,0.00003628,-0.00001029,-0.00000015,-0
 .00002240,0.00023906,0.00010744,-0.00007043,0.00000280,0.00000568,0.00
 000299,0.00004154,-0.00003720,-0.00002682,-0.00173927,0.05159437,-0.30
 069547,-0.00058948,0.00100681,0.00069591,-0.00055584,0.00054277,-0.000
 05024,0.00005449,0.00013431,0.00139776,0.00013182,0.00096552,0.0012061
 0,-0.00001077,0.00002372,0.00035892,0.00057199,-0.00047334,0.00053919,
 -0.00217914,-0.00056761,0.00070089,-0.00016888,-0.00024948,0.00026975,
 -0.00000005,0.00000110,0.00000020,-0.00001477,0.00000113,-0.00000598,0
 .00000111,-0.00000452,0.00000072,-0.00001134,0.00000733,0.00000326,0.0
 0002782,0.00005003,0.00003627,-0.00000592,0.00000342,0.00000199,-0.000
 00325,-0.00000153,-0.00000213,-0.00001115,0.00000036,0.00000897,0.0000
 0546,-0.00000277,-0.00000644,0.00507346,-0.05528934,0.32601369,-0.0027
 6510,-0.00266879,-0.00418922,0.00702860,-0.00740403,-0.00528329,-0.000
 35375,-0.00015162,0.00021338,-0.00081660,-0.00077387,-0.00021094,-0.01
 884080,0.02081168,0.01609919,-0.00314232,0.00156042,0.00007506,-0.0000
 6665,-0.00011771,0.00003088,-0.00000571,-0.00000577,-0.00004201,0.0010
 1314,0.00106453,0.00015669,0.00001032,0.00001670,0.00000464,0.00014126
 ,-0.00008276,-0.00009549,-0.13818632,0.10620756,0.07273524,0.00083409,
 -0.00267230,0.00026732,-0.00003680,0.00005607,0.00045190,-0.00099971,0
 .00051757,-0.00035313,0.00127802,0.00005190,-0.00011369,0.00010574,0.0
 0013296,-0.00008177,0.00015343,0.00000609,-0.00003009,0.00139206,0.000
 03906,-0.00019658,0.00135876,-0.00042273,0.00050925,0.00000497,0.00000
 518,0.00000388,-0.00007380,0.00001336,-0.00004010,0.00000324,-0.000031
 81,-0.00000379,-0.00003565,0.00001089,0.00000204,0.00007414,-0.0001329
 4,0.00001133,-0.00001725,0.00001016,0.00000573,-0.00000994,-0.00000608
 ,-0.00000512,-0.00002640,-0.00000712,0.00001893,0.00001396,-0.00000452
 ,-0.00002496,0.00052644,-0.00136056,-0.00001862,0.15143863,-0.00136522
 ,0.00052936,-0.00064575,0.01834656,-0.01679983,-0.01284088,0.00003915,
 -0.00000299,-0.00001216,-0.00166953,0.00007191,0.00123930,-0.00326971,
 0.00310640,0.00329837,-0.00033868,0.00037678,-0.00000371,0.00000124,-0
 .00000243,-0.00001210,0.00000192,-0.00000040,0.00000489,-0.00001207,0.
 00002683,0.00002983,-0.00000029,-0.00000022,-0.00000185,-0.00001553,0.
 00001070,0.00000773,0.10662662,-0.16946793,-0.08385516,0.00005940,-0.0
 0706843,0.00022762,0.00015633,-0.00005444,0.00011110,-0.00122089,-0.00
 061351,-0.00006874,0.00072855,0.00142360,0.00045902,0.00013627,0.00001
 432,-0.00010935,0.00008241,0.00004376,-0.00012338,0.00033586,-0.000027
 69,-0.00002392,0.00037959,0.00050319,0.00039348,0.00000073,-0.00000131
 ,0.00000098,0.00000202,-0.00000132,0.00000010,-0.00000059,-0.00000084,
 -0.00000079,0.00000197,-0.00000256,-0.00000086,0.00000300,-0.00002087,
 -0.00000859,0.00000143,-0.00000141,-0.00000012,0.00000110,0.00000023,0
 .00000115,0.00000330,-0.00000045,-0.00000264,-0.00000368,0.00000132,0.
 00000134,-0.00434970,0.00452395,0.00247621,-0.11466155,0.18343427,-0.0
 0179654,-0.00088216,-0.00042979,-0.00442052,0.00546920,0.00137301,-0.0
 0003400,-0.00003041,0.00001337,0.00022638,-0.00018022,-0.00105191,-0.0
 0813562,0.00941358,0.00612467,-0.00088092,0.00051910,0.00002542,-0.000
 00490,-0.00001339,-0.00000748,-0.00000154,0.00000089,-0.00000290,0.000
 15873,0.00021971,0.00008254,0.00000119,0.00000079,-0.00000047,0.000017
 94,-0.00000544,-0.00001075,0.07513109,-0.08600774,-0.10564716,-0.00032
 061,0.00316414,0.00023382,-0.00023712,0.00022916,0.00018590,0.00000603
 ,-0.00007204,0.00032927,-0.00055355,0.00024655,0.00096785,-0.00001484,
 -0.00004275,0.00022763,0.00022980,-0.00004510,0.00044564,0.00078063,0.
 00021984,0.00051462,0.00080075,-0.00003934,0.00030158,-0.00000005,0.00
 000048,0.00000065,-0.00000748,0.00000060,-0.00000534,-0.00000110,-0.00
 000618,-0.00000165,-0.00000499,-0.00000139,-0.00000077,0.00002398,-0.0
 0004161,-0.00001213,-0.00000152,0.00000069,0.00000046,-0.00000104,-0.0
 0000062,-0.00000051,-0.00000282,-0.00000180,0.00000125,0.00000457,0.00
 000032,-0.00000441,0.01893470,-0.02157375,-0.01464220,-0.07989665,0.08
 945890,0.11098978\\-0.00069779,-0.00066552,0.00058617,-0.00000252,-0.0
 0000702,-0.00000619,0.00002262,0.00000871,-0.00002564,0.00000517,-0.00
 000825,-0.00001452,0.00038593,0.00053543,-0.00022412,0.00068382,-0.000
 04202,-0.00101401,-0.00000618,-0.00000212,0.00000796,0.00000441,-0.000
 00813,0.00000028,-0.00039023,0.00016738,0.00068578,0.00000121,0.000000
 64,0.00000347,-0.00001163,0.00001358,-0.00000188,-0.00000178,0.0000001
 8,0.00000104,-0.00000107,0.00000452,0.00000702,0.00000503,-0.00000099,
 0.00000306,0.00000208,0.00000056,-0.00000582,-0.00000310,-0.00000600,-
 0.00000689,0.00000137,0.00000224,-0.00000942,0.00000063,0.00000367,0.0
 0000131,-0.00000110,-0.00000453,-0.00000118,-0.00000363,-0.00000227,0.
 00000343,-0.00000062,-0.00000221,0.00000169,-0.00000193,-0.00000332,-0
 .00000049,0.00000019,0.00000388,0.00000069,-0.00000205,-0.00000016,-0.
 00000065,-0.00000269,-0.00000875,-0.00000175,0.00000174,0.00000546,0.0
 0000047,-0.00000160,0.00000191,0.00000613,0.00000555,0.00000371,0.0000
 0244,0.00000474,0.00000846,0.00000165,0.00000110,0.00000296,0.00000021
 ,0.00000230,-0.00000200,-0.00000024\\\@


 TOM, TOM, THE BURGLAR'S SON
 STOLE A MACHINE AND AWAY HE RUN
 THE JOB WAS NEAT, BUT TOM GOT BEAT
 BY THE TIME HE GOT HOME IT WAS OBSOLETE.
 Job cpu time:       0 days 14 hours  6 minutes 35.4 seconds.
 Elapsed time:       0 days  0 hours 52 minutes 56.2 seconds.
 File lengths (MBytes):  RWF=    694 Int=      0 D2E=      0 Chk=     33 Scr=      1
 Normal termination of Gaussian 16 at Sun Nov  4 22:51:30 2018.
