 Entering Gaussian System, Link 0=g16
 Initial command:
 /apps/gaussian/g16a03/g16/l1.exe "/jobfs/local/2012015.r-man2/Gau-30220.inp" -scrdir="/jobfs/local/2012015.r-man2/"
 Entering Link 1 = /apps/gaussian/g16a03/g16/l1.exe PID=     30221.
  
 Copyright (c) 1988,1990,1992,1993,1995,1998,2003,2009,2016,
            Gaussian, Inc.  All Rights Reserved.
  
 This is part of the Gaussian(R) 16 program.  It is based on
 the Gaussian(R) 09 system (copyright 2009, Gaussian, Inc.),
 the Gaussian(R) 03 system (copyright 2003, Gaussian, Inc.),
 the Gaussian(R) 98 system (copyright 1998, Gaussian, Inc.),
 the Gaussian(R) 94 system (copyright 1995, Gaussian, Inc.),
 the Gaussian 92(TM) system (copyright 1992, Gaussian, Inc.),
 the Gaussian 90(TM) system (copyright 1990, Gaussian, Inc.),
 the Gaussian 88(TM) system (copyright 1988, Gaussian, Inc.),
 the Gaussian 86(TM) system (copyright 1986, Carnegie Mellon
 University), and the Gaussian 82(TM) system (copyright 1983,
 Carnegie Mellon University). Gaussian is a federally registered
 trademark of Gaussian, Inc.
  
 This software contains proprietary and confidential information,
 including trade secrets, belonging to Gaussian, Inc.
  
 This software is provided under written license and may be
 used, copied, transmitted, or stored only in accord with that
 written license.
  
 The following legend is applicable only to US Government
 contracts under FAR:
  
                    RESTRICTED RIGHTS LEGEND
  
 Use, reproduction and disclosure by the US Government is
 subject to restrictions as set forth in subparagraphs (a)
 and (c) of the Commercial Computer Software - Restricted
 Rights clause in FAR 52.227-19.
  
 Gaussian, Inc.
 340 Quinnipiac St., Bldg. 40, Wallingford CT 06492
  
  
 ---------------------------------------------------------------
 Warning -- This program may not be used in any manner that
 competes with the business of Gaussian, Inc. or will provide
 assistance to any competitor of Gaussian, Inc.  The licensee
 of this program is prohibited from giving any competitor of
 Gaussian, Inc. access to this program.  By using this program,
 the user acknowledges that Gaussian, Inc. is engaged in the
 business of creating and licensing software in the field of
 computational chemistry and represents and warrants to the
 licensee that it is not a competitor of Gaussian, Inc. and that
 it will not use this program in any manner prohibited above.
 ---------------------------------------------------------------
  

 Cite this work as:
 Gaussian 16, Revision A.03,
 M. J. Frisch, G. W. Trucks, H. B. Schlegel, G. E. Scuseria, 
 M. A. Robb, J. R. Cheeseman, G. Scalmani, V. Barone, 
 G. A. Petersson, H. Nakatsuji, X. Li, M. Caricato, A. V. Marenich, 
 J. Bloino, B. G. Janesko, R. Gomperts, B. Mennucci, H. P. Hratchian, 
 J. V. Ortiz, A. F. Izmaylov, J. L. Sonnenberg, D. Williams-Young, 
 F. Ding, F. Lipparini, F. Egidi, J. Goings, B. Peng, A. Petrone, 
 T. Henderson, D. Ranasinghe, V. G. Zakrzewski, J. Gao, N. Rega, 
 G. Zheng, W. Liang, M. Hada, M. Ehara, K. Toyota, R. Fukuda, 
 J. Hasegawa, M. Ishida, T. Nakajima, Y. Honda, O. Kitao, H. Nakai, 
 T. Vreven, K. Throssell, J. A. Montgomery, Jr., J. E. Peralta, 
 F. Ogliaro, M. J. Bearpark, J. J. Heyd, E. N. Brothers, K. N. Kudin, 
 V. N. Staroverov, T. A. Keith, R. Kobayashi, J. Normand, 
 K. Raghavachari, A. P. Rendell, J. C. Burant, S. S. Iyengar, 
 J. Tomasi, M. Cossi, J. M. Millam, M. Klene, C. Adamo, R. Cammi, 
 J. W. Ochterski, R. L. Martin, K. Morokuma, O. Farkas, 
 J. B. Foresman, and D. J. Fox, Gaussian, Inc., Wallingford CT, 2016.
 
 ******************************************
 Gaussian 16:  ES64L-G16RevA.03 25-Dec-2016
                 4-Nov-2018 
 ******************************************
 %mem=6000mb
 %nproc=24
 Will use up to   24 processors via shared memory.
 %chk=D_a1-4_2SO_PSI.inp_extract_14.chk
 ----------------------------------------------------------------------
 #M062X/6-311++G(2d,2p) opt=ModRedundant freq=noraman SCRF=(Solvent=Wat
 er)
 ----------------------------------------------------------------------
 1/18=120,19=15,26=3,38=1/1,3;
 2/9=110,12=2,17=6,18=5,40=1/2;
 3/5=4,6=6,7=1212,11=2,25=1,30=1,70=2201,71=1,72=1,74=-55/1,2,3;
 4//1;
 5/5=2,38=5,53=1/2;
 6/7=2,8=2,9=2,10=2,28=1/1;
 7//1,2,3,16;
 1/18=20,19=15,26=3/3(2);
 2/9=110/2;
 99//99;
 2/9=110/2;
 3/5=4,6=6,7=1212,11=2,25=1,30=1,70=2205,71=1,72=1,74=-55/1,2,3;
 4/5=5,16=3,69=1/1;
 5/5=2,38=5,53=1/2;
 7//1,2,3,16;
 1/18=20,19=15,26=3/3(-5);
 2/9=110/2;
 6/7=2,8=2,9=2,10=2,19=2,28=1/1;
 99/9=1/99;
 -----------------------------
 D_a1-4_2SO_PSI.inp_extract_14
 -----------------------------
 Symbolic Z-matrix:
 Charge =  0 Multiplicity = 1
 C                     1.10441   0.09199   0.97009 
 C                     3.5393    0.00475  -0.70501 
 O                    -1.36952  -0.87889  -0.87408 
 C                     1.88487   1.28849   0.39954 
 C                     1.64447  -1.21362   0.38612 
 O                    -0.307     0.227     0.85335 
 C                    -2.01839   1.38265  -0.34113 
 C                    -3.21582   0.86025   0.45383 
 C                    -0.89275   0.35996  -0.41179 
 C                    -3.64265  -0.49976  -0.098 
 C                    -2.4517   -1.4423   -0.14487 
 C                     3.16577  -1.10505   0.28657 
 O                     2.50869   0.97307  -0.82564 
 H                     1.25702   0.0824    2.04092 
 H                     4.45963   0.49955  -0.40903 
 H                     3.67414  -0.39814  -1.69966 
 H                     1.22951   2.12767   0.2158 
 H                     2.63935   1.60363   1.11392 
 H                     1.23205  -1.38348  -0.60168 
 H                     1.34736  -2.04811   1.01206 
 H                    -1.63019   2.30266   0.0822 
 H                    -2.32809   1.59655  -1.36066 
 H                    -2.95403   0.76346   1.50427 
 H                    -4.03464   1.57077   0.39564 
 H                    -0.15339   0.66051  -1.13667 
 H                    -4.42225  -0.94405   0.51439 
 H                    -4.04406  -0.38001  -1.1017 
 H                    -2.696    -2.36387  -0.65498 
 H                    -2.12034  -1.69029   0.85793 
 H                     3.57936  -0.89079   1.2682 
 H                     3.60222  -2.0419   -0.04191 
 
 The following ModRedundant input section has been read:
 D       5       1       6       9 F                                           
 

 GradGradGradGradGradGradGradGradGradGradGradGradGradGradGradGradGradGrad
 Berny optimization.
 Initialization pass.
                           ----------------------------
                           !    Initial Parameters    !
                           ! (Angstroms and Degrees)  !
 --------------------------                            --------------------------
 ! Name  Definition              Value          Derivative Info.                !
 --------------------------------------------------------------------------------
 ! R1    R(1,4)                  1.5383         estimate D2E/DX2                !
 ! R2    R(1,5)                  1.5288         estimate D2E/DX2                !
 ! R3    R(1,6)                  1.4227         estimate D2E/DX2                !
 ! R4    R(1,14)                 1.0817         estimate D2E/DX2                !
 ! R5    R(2,12)                 1.5344         estimate D2E/DX2                !
 ! R6    R(2,13)                 1.4193         estimate D2E/DX2                !
 ! R7    R(2,15)                 1.086          estimate D2E/DX2                !
 ! R8    R(2,16)                 1.0816         estimate D2E/DX2                !
 ! R9    R(3,9)                  1.4056         estimate D2E/DX2                !
 ! R10   R(3,11)                 1.4214         estimate D2E/DX2                !
 ! R11   R(4,13)                 1.4106         estimate D2E/DX2                !
 ! R12   R(4,17)                 1.0805         estimate D2E/DX2                !
 ! R13   R(4,18)                 1.0858         estimate D2E/DX2                !
 ! R14   R(5,12)                 1.5284         estimate D2E/DX2                !
 ! R15   R(5,19)                 1.0838         estimate D2E/DX2                !
 ! R16   R(5,20)                 1.0846         estimate D2E/DX2                !
 ! R17   R(6,9)                  1.4005         estimate D2E/DX2                !
 ! R18   R(7,8)                  1.5293         estimate D2E/DX2                !
 ! R19   R(7,9)                  1.5225         estimate D2E/DX2                !
 ! R20   R(7,21)                 1.0846         estimate D2E/DX2                !
 ! R21   R(7,22)                 1.0868         estimate D2E/DX2                !
 ! R22   R(8,10)                 1.5285         estimate D2E/DX2                !
 ! R23   R(8,23)                 1.0869         estimate D2E/DX2                !
 ! R24   R(8,24)                 1.0857         estimate D2E/DX2                !
 ! R25   R(9,25)                 1.0782         estimate D2E/DX2                !
 ! R26   R(10,11)                1.5195         estimate D2E/DX2                !
 ! R27   R(10,26)                1.0864         estimate D2E/DX2                !
 ! R28   R(10,27)                1.0876         estimate D2E/DX2                !
 ! R29   R(11,28)                1.0813         estimate D2E/DX2                !
 ! R30   R(11,29)                1.0849         estimate D2E/DX2                !
 ! R31   R(12,30)                1.0865         estimate D2E/DX2                !
 ! R32   R(12,31)                1.0845         estimate D2E/DX2                !
 ! A1    A(4,1,5)              110.0818         estimate D2E/DX2                !
 ! A2    A(4,1,6)              113.522          estimate D2E/DX2                !
 ! A3    A(4,1,14)             107.6071         estimate D2E/DX2                !
 ! A4    A(5,1,6)              113.5883         estimate D2E/DX2                !
 ! A5    A(5,1,14)             108.7071         estimate D2E/DX2                !
 ! A6    A(6,1,14)             102.8294         estimate D2E/DX2                !
 ! A7    A(12,2,13)            111.8155         estimate D2E/DX2                !
 ! A8    A(12,2,15)            111.082          estimate D2E/DX2                !
 ! A9    A(12,2,16)            110.8067         estimate D2E/DX2                !
 ! A10   A(13,2,15)            109.1281         estimate D2E/DX2                !
 ! A11   A(13,2,16)            105.4565         estimate D2E/DX2                !
 ! A12   A(15,2,16)            108.3426         estimate D2E/DX2                !
 ! A13   A(9,3,11)             116.0316         estimate D2E/DX2                !
 ! A14   A(1,4,13)             111.8764         estimate D2E/DX2                !
 ! A15   A(1,4,17)             111.0662         estimate D2E/DX2                !
 ! A16   A(1,4,18)             109.5289         estimate D2E/DX2                !
 ! A17   A(13,4,17)            107.1095         estimate D2E/DX2                !
 ! A18   A(13,4,18)            109.2121         estimate D2E/DX2                !
 ! A19   A(17,4,18)            107.935          estimate D2E/DX2                !
 ! A20   A(1,5,12)             108.4104         estimate D2E/DX2                !
 ! A21   A(1,5,19)             110.3374         estimate D2E/DX2                !
 ! A22   A(1,5,20)             109.8671         estimate D2E/DX2                !
 ! A23   A(12,5,19)            109.3003         estimate D2E/DX2                !
 ! A24   A(12,5,20)            111.4006         estimate D2E/DX2                !
 ! A25   A(19,5,20)            107.527          estimate D2E/DX2                !
 ! A26   A(1,6,9)              119.8731         estimate D2E/DX2                !
 ! A27   A(8,7,9)              111.9363         estimate D2E/DX2                !
 ! A28   A(8,7,21)             111.5384         estimate D2E/DX2                !
 ! A29   A(8,7,22)             109.3751         estimate D2E/DX2                !
 ! A30   A(9,7,21)             108.8614         estimate D2E/DX2                !
 ! A31   A(9,7,22)             107.4195         estimate D2E/DX2                !
 ! A32   A(21,7,22)            107.5299         estimate D2E/DX2                !
 ! A33   A(7,8,10)             109.5677         estimate D2E/DX2                !
 ! A34   A(7,8,23)             110.1338         estimate D2E/DX2                !
 ! A35   A(7,8,24)             109.8232         estimate D2E/DX2                !
 ! A36   A(10,8,23)            109.6911         estimate D2E/DX2                !
 ! A37   A(10,8,24)            110.6312         estimate D2E/DX2                !
 ! A38   A(23,8,24)            106.9621         estimate D2E/DX2                !
 ! A39   A(3,9,6)              110.8111         estimate D2E/DX2                !
 ! A40   A(3,9,7)              110.8865         estimate D2E/DX2                !
 ! A41   A(3,9,25)             104.902          estimate D2E/DX2                !
 ! A42   A(6,9,7)              109.3342         estimate D2E/DX2                !
 ! A43   A(6,9,25)             110.3039         estimate D2E/DX2                !
 ! A44   A(7,9,25)             110.5467         estimate D2E/DX2                !
 ! A45   A(8,10,11)            110.1321         estimate D2E/DX2                !
 ! A46   A(8,10,26)            111.1471         estimate D2E/DX2                !
 ! A47   A(8,10,27)            109.7713         estimate D2E/DX2                !
 ! A48   A(11,10,26)           109.0356         estimate D2E/DX2                !
 ! A49   A(11,10,27)           109.2147         estimate D2E/DX2                !
 ! A50   A(26,10,27)           107.481          estimate D2E/DX2                !
 ! A51   A(3,11,10)            111.5111         estimate D2E/DX2                !
 ! A52   A(3,11,28)            105.5346         estimate D2E/DX2                !
 ! A53   A(3,11,29)            109.4079         estimate D2E/DX2                !
 ! A54   A(10,11,28)           111.4773         estimate D2E/DX2                !
 ! A55   A(10,11,29)           110.651          estimate D2E/DX2                !
 ! A56   A(28,11,29)           108.0754         estimate D2E/DX2                !
 ! A57   A(2,12,5)             109.6195         estimate D2E/DX2                !
 ! A58   A(2,12,30)            110.3982         estimate D2E/DX2                !
 ! A59   A(2,12,31)            109.3365         estimate D2E/DX2                !
 ! A60   A(5,12,30)            109.5142         estimate D2E/DX2                !
 ! A61   A(5,12,31)            111.0354         estimate D2E/DX2                !
 ! A62   A(30,12,31)           106.9062         estimate D2E/DX2                !
 ! A63   A(2,13,4)             113.5704         estimate D2E/DX2                !
 ! D1    D(5,1,4,13)            22.2117         estimate D2E/DX2                !
 ! D2    D(5,1,4,17)           141.8417         estimate D2E/DX2                !
 ! D3    D(5,1,4,18)           -99.0306         estimate D2E/DX2                !
 ! D4    D(6,1,4,13)          -106.3827         estimate D2E/DX2                !
 ! D5    D(6,1,4,17)            13.2472         estimate D2E/DX2                !
 ! D6    D(6,1,4,18)           132.3749         estimate D2E/DX2                !
 ! D7    D(14,1,4,13)          140.5253         estimate D2E/DX2                !
 ! D8    D(14,1,4,17)          -99.8447         estimate D2E/DX2                !
 ! D9    D(14,1,4,18)           19.2829         estimate D2E/DX2                !
 ! D10   D(4,1,5,12)            38.9682         estimate D2E/DX2                !
 ! D11   D(4,1,5,19)           -80.6938         estimate D2E/DX2                !
 ! D12   D(4,1,5,20)           160.9184         estimate D2E/DX2                !
 ! D13   D(6,1,5,12)           167.5264         estimate D2E/DX2                !
 ! D14   D(6,1,5,19)            47.8644         estimate D2E/DX2                !
 ! D15   D(6,1,5,20)           -70.5233         estimate D2E/DX2                !
 ! D16   D(14,1,5,12)          -78.6662         estimate D2E/DX2                !
 ! D17   D(14,1,5,19)          161.6719         estimate D2E/DX2                !
 ! D18   D(14,1,5,20)           43.2841         estimate D2E/DX2                !
 ! D19   D(4,1,6,9)             60.1706         estimate D2E/DX2                !
 ! D20   D(5,1,6,9)            -66.6046         Frozen                          !
 ! D21   D(14,1,6,9)           176.1133         estimate D2E/DX2                !
 ! D22   D(13,2,12,5)           24.8456         estimate D2E/DX2                !
 ! D23   D(13,2,12,30)         -95.8789         estimate D2E/DX2                !
 ! D24   D(13,2,12,31)         146.7792         estimate D2E/DX2                !
 ! D25   D(15,2,12,5)          147.0262         estimate D2E/DX2                !
 ! D26   D(15,2,12,30)          26.3017         estimate D2E/DX2                !
 ! D27   D(15,2,12,31)         -91.0402         estimate D2E/DX2                !
 ! D28   D(16,2,12,5)          -92.49           estimate D2E/DX2                !
 ! D29   D(16,2,12,30)         146.7855         estimate D2E/DX2                !
 ! D30   D(16,2,12,31)          29.4437         estimate D2E/DX2                !
 ! D31   D(12,2,13,4)           39.5818         estimate D2E/DX2                !
 ! D32   D(15,2,13,4)          -83.7114         estimate D2E/DX2                !
 ! D33   D(16,2,13,4)          160.0897         estimate D2E/DX2                !
 ! D34   D(11,3,9,6)            66.2279         estimate D2E/DX2                !
 ! D35   D(11,3,9,7)           -55.3821         estimate D2E/DX2                !
 ! D36   D(11,3,9,25)         -174.7408         estimate D2E/DX2                !
 ! D37   D(9,3,11,10)           57.2755         estimate D2E/DX2                !
 ! D38   D(9,3,11,28)          178.4755         estimate D2E/DX2                !
 ! D39   D(9,3,11,29)          -65.461          estimate D2E/DX2                !
 ! D40   D(1,4,13,2)           -66.2339         estimate D2E/DX2                !
 ! D41   D(17,4,13,2)          171.8369         estimate D2E/DX2                !
 ! D42   D(18,4,13,2)           55.1914         estimate D2E/DX2                !
 ! D43   D(1,5,12,2)           -64.0645         estimate D2E/DX2                !
 ! D44   D(1,5,12,30)           57.1944         estimate D2E/DX2                !
 ! D45   D(1,5,12,31)          175.0243         estimate D2E/DX2                !
 ! D46   D(19,5,12,2)           56.2453         estimate D2E/DX2                !
 ! D47   D(19,5,12,30)         177.5041         estimate D2E/DX2                !
 ! D48   D(19,5,12,31)         -64.666          estimate D2E/DX2                !
 ! D49   D(20,5,12,2)          174.9283         estimate D2E/DX2                !
 ! D50   D(20,5,12,30)         -63.8128         estimate D2E/DX2                !
 ! D51   D(20,5,12,31)          54.0171         estimate D2E/DX2                !
 ! D52   D(1,6,9,3)             97.2925         estimate D2E/DX2                !
 ! D53   D(1,6,9,7)           -140.1901         estimate D2E/DX2                !
 ! D54   D(1,6,9,25)           -18.4272         estimate D2E/DX2                !
 ! D55   D(9,7,8,10)           -52.4158         estimate D2E/DX2                !
 ! D56   D(9,7,8,23)            68.3273         estimate D2E/DX2                !
 ! D57   D(9,7,8,24)          -174.1268         estimate D2E/DX2                !
 ! D58   D(21,7,8,10)         -174.6667         estimate D2E/DX2                !
 ! D59   D(21,7,8,23)          -53.9236         estimate D2E/DX2                !
 ! D60   D(21,7,8,24)           63.6223         estimate D2E/DX2                !
 ! D61   D(22,7,8,10)           66.5138         estimate D2E/DX2                !
 ! D62   D(22,7,8,23)         -172.7431         estimate D2E/DX2                !
 ! D63   D(22,7,8,24)          -55.1972         estimate D2E/DX2                !
 ! D64   D(8,7,9,3)             52.3921         estimate D2E/DX2                !
 ! D65   D(8,7,9,6)            -70.0802         estimate D2E/DX2                !
 ! D66   D(8,7,9,25)           168.3034         estimate D2E/DX2                !
 ! D67   D(21,7,9,3)           176.1593         estimate D2E/DX2                !
 ! D68   D(21,7,9,6)            53.687          estimate D2E/DX2                !
 ! D69   D(21,7,9,25)          -67.9294         estimate D2E/DX2                !
 ! D70   D(22,7,9,3)           -67.687          estimate D2E/DX2                !
 ! D71   D(22,7,9,6)           169.8407         estimate D2E/DX2                !
 ! D72   D(22,7,9,25)           48.2242         estimate D2E/DX2                !
 ! D73   D(7,8,10,11)           52.9435         estimate D2E/DX2                !
 ! D74   D(7,8,10,26)          173.8915         estimate D2E/DX2                !
 ! D75   D(7,8,10,27)          -67.3383         estimate D2E/DX2                !
 ! D76   D(23,8,10,11)         -68.0679         estimate D2E/DX2                !
 ! D77   D(23,8,10,26)          52.8802         estimate D2E/DX2                !
 ! D78   D(23,8,10,27)         171.6503         estimate D2E/DX2                !
 ! D79   D(24,8,10,11)         174.1681         estimate D2E/DX2                !
 ! D80   D(24,8,10,26)         -64.8839         estimate D2E/DX2                !
 ! D81   D(24,8,10,27)          53.8862         estimate D2E/DX2                !
 ! D82   D(8,10,11,3)          -54.5777         estimate D2E/DX2                !
 ! D83   D(8,10,11,28)        -172.2508         estimate D2E/DX2                !
 ! D84   D(8,10,11,29)          67.4441         estimate D2E/DX2                !
 ! D85   D(26,10,11,3)        -176.7824         estimate D2E/DX2                !
 ! D86   D(26,10,11,28)         65.5445         estimate D2E/DX2                !
 ! D87   D(26,10,11,29)        -54.7607         estimate D2E/DX2                !
 ! D88   D(27,10,11,3)          66.0393         estimate D2E/DX2                !
 ! D89   D(27,10,11,28)        -51.6338         estimate D2E/DX2                !
 ! D90   D(27,10,11,29)       -171.9389         estimate D2E/DX2                !
 --------------------------------------------------------------------------------
 Trust Radius=3.00D-01 FncErr=1.00D-07 GrdErr=1.00D-06 EigMax=2.50D+02 EigMin=1.00D-04
 Number of steps in this run=    186 maximum allowed number of steps=    186.
 GradGradGradGradGradGradGradGradGradGradGradGradGradGradGradGradGradGrad

                          Input orientation:                          
 ---------------------------------------------------------------------
 Center     Atomic      Atomic             Coordinates (Angstroms)
 Number     Number       Type             X           Y           Z
 ---------------------------------------------------------------------
      1          6           0        1.104408    0.091985    0.970087
      2          6           0        3.539300    0.004749   -0.705014
      3          8           0       -1.369516   -0.878894   -0.874083
      4          6           0        1.884866    1.288490    0.399541
      5          6           0        1.644466   -1.213624    0.386117
      6          8           0       -0.307003    0.226997    0.853346
      7          6           0       -2.018388    1.382647   -0.341131
      8          6           0       -3.215823    0.860246    0.453829
      9          6           0       -0.892750    0.359961   -0.411791
     10          6           0       -3.642648   -0.499762   -0.098002
     11          6           0       -2.451700   -1.442304   -0.144868
     12          6           0        3.165770   -1.105052    0.286566
     13          8           0        2.508688    0.973074   -0.825643
     14          1           0        1.257022    0.082399    2.040924
     15          1           0        4.459634    0.499553   -0.409030
     16          1           0        3.674139   -0.398138   -1.699663
     17          1           0        1.229507    2.127666    0.215796
     18          1           0        2.639349    1.603629    1.113922
     19          1           0        1.232048   -1.383481   -0.601681
     20          1           0        1.347361   -2.048109    1.012056
     21          1           0       -1.630187    2.302656    0.082201
     22          1           0       -2.328094    1.596551   -1.360658
     23          1           0       -2.954032    0.763461    1.504267
     24          1           0       -4.034643    1.570771    0.395637
     25          1           0       -0.153390    0.660507   -1.136665
     26          1           0       -4.422247   -0.944051    0.514389
     27          1           0       -4.044059   -0.380008   -1.101695
     28          1           0       -2.696003   -2.363874   -0.654983
     29          1           0       -2.120344   -1.690290    0.857932
     30          1           0        3.579359   -0.890789    1.268196
     31          1           0        3.602218   -2.041895   -0.041905
 ---------------------------------------------------------------------
                    Distance matrix (angstroms):
                    1          2          3          4          5
     1  C    0.000000
     2  C    2.956733   0.000000
     3  O    3.234790   4.990580   0.000000
     4  C    1.538266   2.367527   4.112259   0.000000
     5  C    1.528823   2.503077   3.283936   2.513672   0.000000
     6  O    1.422652   4.155951   2.309965   2.477296   2.470207
     7  C    3.624494   5.737500   2.412393   3.974022   4.548188
     8  C    4.418274   6.906988   2.863007   5.118923   5.284688
     9  C    2.443366   4.455920   1.405625   3.039009   3.090355
    10  C    4.901583   7.225190   2.431701   5.830849   5.357009
    11  C    4.030269   6.188684   1.421375   5.153583   4.136764
    12  C    2.479781   1.534410   4.686904   2.717080   1.528419
    13  O    2.443965   1.419284   4.297976   1.410573   2.645164
    14  H    1.081700   3.571414   4.039808   2.131427   2.137329
    15  H    3.650427   1.086026   6.007943   2.811697   3.390045
    16  H    3.737821   1.081585   5.133339   3.233090   3.022428
    17  H    2.174535   3.269528   4.120942   1.080497   3.371264
    18  H    2.159120   2.583575   5.117234   1.085770   3.075127
    19  H    2.159571   2.694675   2.664009   2.927122   1.083829
    20  H    2.154249   3.459357   3.507992   3.434673   1.084636
    21  H    3.626764   5.711714   3.332370   3.672170   4.814555
    22  H    4.413407   6.114738   2.698788   4.576269   5.170062
    23  H    4.148152   6.900719   3.296145   4.991093   5.128870
    24  H    5.378350   7.812072   3.836137   5.926237   6.324968
    25  H    2.518666   3.775222   1.979310   2.628456   3.010568
    26  H    5.641360   8.110080   3.354291   6.691570   6.074054
    27  H    5.569719   7.603468   2.730179   6.339538   5.938671
    28  H    4.807829   6.670223   2.003182   5.952827   4.609407
    29  H    3.686205   6.111262   2.054746   5.012480   3.824083
    30  H    2.679570   2.167291   5.392668   2.893981   2.150836
    31  H    3.437532   2.152307   5.173319   3.773014   2.168416
                    6          7          8          9         10
     6  O    0.000000
     7  C    2.385611   0.000000
     8  C    3.003640   1.529286   0.000000
     9  C    1.400482   1.522478   2.529081   0.000000
    10  C    3.543976   2.498159   1.528502   2.898194   0.000000
    11  C    2.895293   2.864721   2.498811   2.397860   1.519519
    12  C    3.762412   5.784302   6.679454   4.370990   6.846081
    13  O    3.362105   4.571315   5.866839   3.480943   6.366918
    14  H    1.969118   4.253603   4.809393   3.273281   5.377795
    15  H    4.938493   6.538290   7.732223   5.354205   8.169599
    16  H    4.770549   6.117325   7.327526   4.805185   7.490729
    17  H    2.525842   3.378468   4.628604   2.832423   5.544343
    18  H    3.262515   4.884724   5.938971   4.043542   6.734723
    19  H    2.660718   4.276059   5.092344   2.755071   4.979690
    20  H    2.817484   4.992942   5.439926   3.583886   5.341329
    21  H    2.579504   1.084586   2.175522   2.135862   3.454854
    22  H    3.295800   1.086788   2.150016   2.118895   2.777927
    23  H    2.778175   2.159702   1.086886   2.843057   2.153414
    24  H    3.988800   2.154879   1.085679   3.462585   2.164358
    25  H    2.042467   2.152342   3.456597   1.078157   3.820990
    26  H    4.292025   3.453111   2.171316   3.874998   1.086366
    27  H    4.261013   2.790834   2.154962   3.309724   1.087599
    28  H    3.833404   3.820221   3.448859   3.275689   2.163626
    29  H    2.638980   3.300165   2.805104   2.706051   2.156056
    30  H    4.065139   6.252457   7.064263   4.938268   7.360488
    31  H    4.607749   6.588493   7.426564   5.109840   7.407389
                   11         12         13         14         15
    11  C    0.000000
    12  C    5.644098   0.000000
    13  O    5.559043   2.446911   0.000000
    14  H    4.566949   2.851514   3.252257   0.000000
    15  H    7.183810   2.175476   2.050361   4.053766   0.000000
    16  H    6.405745   2.168703   2.000602   4.479438   1.757437
    17  H    5.140627   3.768898   2.013450   2.741344   3.670815
    18  H    6.064737   2.880727   2.043669   2.254840   2.617595
    19  H    3.712430   2.146110   2.689483   3.022050   3.741690
    20  H    4.017255   2.173086   3.722011   2.367656   4.265713
    21  H    3.840725   5.886887   4.440975   4.135470   6.370118
    22  H    3.275372   6.339917   4.906060   5.168798   6.941344
    23  H    2.799533   6.513533   5.942535   4.299398   7.661122
    24  H    3.446226   7.682309   6.683109   5.737939   8.599287
    25  H    3.269205   4.019902   2.698350   3.524279   4.672831
    26  H    2.136804   7.593143   7.314979   5.969758   9.045690
    27  H    2.140000   7.377980   6.696680   6.179914   8.577075
    28  H    1.081292   6.068899   6.184914   5.373879   7.711216
    29  H    1.084851   5.349015   5.599631   3.993557   7.049590
    30  H    6.218890   1.086537   3.000747   2.633904   2.349686
    31  H    6.084409   1.084461   3.301529   3.788238   2.707194
                   16         17         18         19         20
    16  H    0.000000
    17  H    4.003111   0.000000
    18  H    3.604736   1.751827   0.000000
    19  H    2.853116   3.605056   3.721104   0.000000
    20  H    3.935698   4.252648   3.874894   1.749050   0.000000
    21  H    6.213308   2.868156   4.447699   4.716746   5.353464
    22  H    6.334075   3.927317   5.549692   4.704386   5.694057
    23  H    7.452995   4.585108   5.669582   5.154381   5.162284
    24  H    8.227527   5.296579   6.712614   6.120481   6.514770
    25  H    4.010944   2.427779   3.708640   2.526566   3.769066
    26  H    8.411392   6.439482   7.531019   5.780118   5.895337
    27  H    7.741348   5.986210   7.315170   5.393911   6.026435
    28  H    6.747902   6.028417   6.880123   4.048901   4.384919
    29  H    6.464285   5.119632   5.793972   3.669214   3.489522
    30  H    3.009963   3.967420   2.670120   3.041226   2.527214
    31  H    2.335652   4.804311   3.943716   2.522809   2.489026
                   21         22         23         24         25
    21  H    0.000000
    22  H    1.751428   0.000000
    23  H    2.478701   3.048546   0.000000
    24  H    2.532846   2.448989   1.746004   0.000000
    25  H    2.522542   2.378169   3.850807   4.270908   0.000000
    26  H    4.303893   3.788923   2.459901   2.547287   4.850126
    27  H    3.798036   2.630282   3.047412   2.459193   4.027555
    28  H    4.843130   4.039592   3.809090   4.286863   3.980424
    29  H    4.097027   3.970973   2.670895   3.809564   3.656989
    30  H    6.224471   6.927895   6.743699   8.049451   4.703540
    31  H    6.802102   7.081384   7.296923   8.459577   4.754584
                   26         27         28         29         30
    26  H    0.000000
    27  H    1.752968   0.000000
    28  H    2.522548   2.439781   0.000000
    29  H    2.444106   3.042640   1.753286   0.000000
    30  H    8.037211   7.999611   6.726720   5.770107   0.000000
    31  H    8.118298   7.896238   6.336176   5.803538   1.744114
                   31
    31  H    0.000000
 Stoichiometry    C10H18O3
 Framework group  C1[X(C10H18O3)]
 Deg. of freedom    87
 Full point group                 C1      NOp   1
 Largest Abelian subgroup         C1      NOp   1
 Largest concise Abelian subgroup C1      NOp   1
                         Standard orientation:                         
 ---------------------------------------------------------------------
 Center     Atomic      Atomic             Coordinates (Angstroms)
 Number     Number       Type             X           Y           Z
 ---------------------------------------------------------------------
      1          6           0       -1.104408   -0.091985    0.970087
      2          6           0       -3.539300   -0.004749   -0.705014
      3          8           0        1.369516    0.878894   -0.874083
      4          6           0       -1.884866   -1.288490    0.399541
      5          6           0       -1.644466    1.213624    0.386117
      6          8           0        0.307003   -0.226997    0.853346
      7          6           0        2.018388   -1.382647   -0.341131
      8          6           0        3.215823   -0.860246    0.453829
      9          6           0        0.892750   -0.359961   -0.411791
     10          6           0        3.642648    0.499762   -0.098002
     11          6           0        2.451700    1.442304   -0.144868
     12          6           0       -3.165770    1.105052    0.286566
     13          8           0       -2.508688   -0.973074   -0.825643
     14          1           0       -1.257022   -0.082399    2.040924
     15          1           0       -4.459634   -0.499553   -0.409030
     16          1           0       -3.674139    0.398138   -1.699663
     17          1           0       -1.229507   -2.127666    0.215796
     18          1           0       -2.639349   -1.603629    1.113922
     19          1           0       -1.232048    1.383481   -0.601681
     20          1           0       -1.347361    2.048109    1.012056
     21          1           0        1.630187   -2.302656    0.082201
     22          1           0        2.328094   -1.596551   -1.360658
     23          1           0        2.954032   -0.763461    1.504267
     24          1           0        4.034643   -1.570771    0.395637
     25          1           0        0.153390   -0.660507   -1.136665
     26          1           0        4.422247    0.944051    0.514389
     27          1           0        4.044059    0.380008   -1.101695
     28          1           0        2.696003    2.363874   -0.654983
     29          1           0        2.120344    1.690290    0.857932
     30          1           0       -3.579359    0.890789    1.268196
     31          1           0       -3.602218    2.041895   -0.041905
 ---------------------------------------------------------------------
 Rotational constants (GHZ):           1.9107762           0.4418319           0.4066961
 Standard basis: 6-311++G(2d,2p) (5D, 7F)
 There are   557 symmetry adapted cartesian basis functions of A   symmetry.
 There are   531 symmetry adapted basis functions of A   symmetry.
   531 basis functions,   762 primitive gaussians,   557 cartesian basis functions
    51 alpha electrons       51 beta electrons
       nuclear repulsion energy       902.7421863810 Hartrees.
 NAtoms=   31 NActive=   31 NUniq=   31 SFac= 1.00D+00 NAtFMM=   60 NAOKFM=F Big=F
 Integral buffers will be    131072 words long.
 Raffenetti 2 integral format.
 Two-electron integral symmetry is turned on.
 ------------------------------------------------------------------------------
 Polarizable Continuum Model (PCM)
 =================================
 Model                : PCM.
 Atomic radii         : UFF (Universal Force Field).
 Polarization charges : Total charges.
 Charge compensation  : None.
 Solution method      : On-the-fly selection.
 Cavity type          : Scaled VdW (van der Waals Surface) (Alpha=1.100).
 Cavity algorithm     : GePol (No added spheres)
                        Default sphere list used, NSphG=   31.
                        Lebedev-Laikov grids with approx.  5.0 points / Ang**2.
                        Smoothing algorithm: York/Karplus (Gamma=1.0000).
                        Polarization charges: spherical gaussians, with
                                              point-specific exponents (IZeta= 3).
                        Self-potential: point-specific (ISelfS= 7).
                        Self-field    : sphere-specific E.n sum rule (ISelfD= 2).
 1st derivatives      : Analytical E(r).r(x)/FMM algorithm (CHGder, D1EAlg=3).
                        Cavity 1st derivative terms included.
 Solvent              : Water, Eps=  78.355300 Eps(inf)=   1.777849
 ------------------------------------------------------------------------------
 One-electron integrals computed using PRISM.
 NBasis=   531 RedAO= T EigKep=  4.16D-06  NBF=   531
 NBsUse=   531 1.00D-06 EigRej= -1.00D+00 NBFU=   531
 ExpMin= 3.60D-02 ExpMax= 8.59D+03 ExpMxC= 1.30D+03 IAcc=3 IRadAn=         5 AccDes= 0.00D+00
 Harris functional with IExCor= 1009 and IRadAn=       5 diagonalized for initial guess.
 HarFok:  IExCor= 1009 AccDes= 0.00D+00 IRadAn=         5 IDoV= 1 UseB2=F ITyADJ=14
 ICtDFT=  3500011 ScaDFX=  1.000000  1.000000  1.000000  1.000000
 FoFCou: FMM=F IPFlag=           0 FMFlag=      100000 FMFlg1=           0
         NFxFlg=           0 DoJE=T BraDBF=F KetDBF=T FulRan=T
         wScrn=  0.000000 ICntrl=       500 IOpCl=  0 I1Cent=   200000004 NGrid=           0
         NMat0=    1 NMatS0=      1 NMatT0=    0 NMatD0=    1 NMtDS0=    0 NMtDT0=    0
 Petite list used in FoFCou.
 Requested convergence on RMS density matrix=1.00D-08 within 128 cycles.
 Requested convergence on MAX density matrix=1.00D-06.
 Requested convergence on             energy=1.00D-06.
 No special actions if energy rises.
 Inv3:  Mode=1 IEnd=    12570627.
 Iteration    1 A*A^-1 deviation from unit magnitude is 5.55D-15 for   2040.
 Iteration    1 A*A^-1 deviation from orthogonality  is 2.34D-15 for   1774    110.
 Iteration    1 A^-1*A deviation from unit magnitude is 5.77D-15 for   2040.
 Iteration    1 A^-1*A deviation from orthogonality  is 9.87D-13 for   1915   1896.
 Error on total polarization charges =  0.01461
 SCF Done:  E(RM062X) =  -617.491251644     A.U. after   12 cycles
            NFock= 12  Conv=0.61D-08     -V/T= 2.0035

 **********************************************************************

            Population analysis using the SCF density.

 **********************************************************************

 Orbital symmetries:
       Occupied  (A) (A) (A) (A) (A) (A) (A) (A) (A) (A) (A) (A)
                 (A) (A) (A) (A) (A) (A) (A) (A) (A) (A) (A) (A)
                 (A) (A) (A) (A) (A) (A) (A) (A) (A) (A) (A) (A)
                 (A) (A) (A) (A) (A) (A) (A) (A) (A) (A) (A) (A)
                 (A) (A) (A)
       Virtual   (A) (A) (A) (A) (A) (A) (A) (A) (A) (A) (A) (A)
                 (A) (A) (A) (A) (A) (A) (A) (A) (A) (A) (A) (A)
                 (A) (A) (A) (A) (A) (A) (A) (A) (A) (A) (A) (A)
                 (A) (A) (A) (A) (A) (A) (A) (A) (A) (A) (A) (A)
                 (A) (A) (A) (A) (A) (A) (A) (A) (A) (A) (A) (A)
                 (A) (A) (A) (A) (A) (A) (A) (A) (A) (A) (A) (A)
                 (A) (A) (A) (A) (A) (A) (A) (A) (A) (A) (A) (A)
                 (A) (A) (A) (A) (A) (A) (A) (A) (A) (A) (A) (A)
                 (A) (A) (A) (A) (A) (A) (A) (A) (A) (A) (A) (A)
                 (A) (A) (A) (A) (A) (A) (A) (A) (A) (A) (A) (A)
                 (A) (A) (A) (A) (A) (A) (A) (A) (A) (A) (A) (A)
                 (A) (A) (A) (A) (A) (A) (A) (A) (A) (A) (A) (A)
                 (A) (A) (A) (A) (A) (A) (A) (A) (A) (A) (A) (A)
                 (A) (A) (A) (A) (A) (A) (A) (A) (A) (A) (A) (A)
                 (A) (A) (A) (A) (A) (A) (A) (A) (A) (A) (A) (A)
                 (A) (A) (A) (A) (A) (A) (A) (A) (A) (A) (A) (A)
                 (A) (A) (A) (A) (A) (A) (A) (A) (A) (A) (A) (A)
                 (A) (A) (A) (A) (A) (A) (A) (A) (A) (A) (A) (A)
                 (A) (A) (A) (A) (A) (A) (A) (A) (A) (A) (A) (A)
                 (A) (A) (A) (A) (A) (A) (A) (A) (A) (A) (A) (A)
                 (A) (A) (A) (A) (A) (A) (A) (A) (A) (A) (A) (A)
                 (A) (A) (A) (A) (A) (A) (A) (A) (A) (A) (A) (A)
                 (A) (A) (A) (A) (A) (A) (A) (A) (A) (A) (A) (A)
                 (A) (A) (A) (A) (A) (A) (A) (A) (A) (A) (A) (A)
                 (A) (A) (A) (A) (A) (A) (A) (A) (A) (A) (A) (A)
                 (A) (A) (A) (A) (A) (A) (A) (A) (A) (A) (A) (A)
                 (A) (A) (A) (A) (A) (A) (A) (A) (A) (A) (A) (A)
                 (A) (A) (A) (A) (A) (A) (A) (A) (A) (A) (A) (A)
                 (A) (A) (A) (A) (A) (A) (A) (A) (A) (A) (A) (A)
                 (A) (A) (A) (A) (A) (A) (A) (A) (A) (A) (A) (A)
                 (A) (A) (A) (A) (A) (A) (A) (A) (A) (A) (A) (A)
                 (A) (A) (A) (A) (A) (A) (A) (A) (A) (A) (A) (A)
                 (A) (A) (A) (A) (A) (A) (A) (A) (A) (A) (A) (A)
                 (A) (A) (A) (A) (A) (A) (A) (A) (A) (A) (A) (A)
                 (A) (A) (A) (A) (A) (A) (A) (A) (A) (A) (A) (A)
                 (A) (A) (A) (A) (A) (A) (A) (A) (A) (A) (A) (A)
                 (A) (A) (A) (A) (A) (A) (A) (A) (A) (A) (A) (A)
                 (A) (A) (A) (A) (A) (A) (A) (A) (A) (A) (A) (A)
                 (A) (A) (A) (A) (A) (A) (A) (A) (A) (A) (A) (A)
                 (A) (A) (A) (A) (A) (A) (A) (A) (A) (A) (A) (A)
 The electronic state is 1-A.
 Alpha  occ. eigenvalues --  -19.62685 -19.62668 -19.62438 -10.63191 -10.58889
 Alpha  occ. eigenvalues --  -10.58007 -10.57869 -10.57480 -10.53223 -10.53022
 Alpha  occ. eigenvalues --  -10.52902 -10.52817 -10.52671  -1.19734  -1.16581
 Alpha  occ. eigenvalues --   -1.13247  -0.90702  -0.89596  -0.87131  -0.84801
 Alpha  occ. eigenvalues --   -0.75184  -0.74797  -0.73226  -0.71036  -0.65312
 Alpha  occ. eigenvalues --   -0.61552  -0.61417  -0.58797  -0.57298  -0.56410
 Alpha  occ. eigenvalues --   -0.54426  -0.53334  -0.52529  -0.50975  -0.49338
 Alpha  occ. eigenvalues --   -0.47841  -0.46655  -0.45530  -0.45062  -0.45057
 Alpha  occ. eigenvalues --   -0.44009  -0.42294  -0.42082  -0.40629  -0.39950
 Alpha  occ. eigenvalues --   -0.38181  -0.37659  -0.36452  -0.33978  -0.32944
 Alpha  occ. eigenvalues --   -0.31542
 Alpha virt. eigenvalues --   -0.00167   0.00748   0.00847   0.01144   0.02254
 Alpha virt. eigenvalues --    0.02453   0.02582   0.03347   0.03617   0.04314
 Alpha virt. eigenvalues --    0.04386   0.04915   0.05480   0.05743   0.07227
 Alpha virt. eigenvalues --    0.07347   0.07836   0.07968   0.08547   0.09655
 Alpha virt. eigenvalues --    0.10028   0.10367   0.10788   0.11157   0.12090
 Alpha virt. eigenvalues --    0.12352   0.12868   0.13106   0.13315   0.13357
 Alpha virt. eigenvalues --    0.13916   0.14070   0.14219   0.14659   0.14871
 Alpha virt. eigenvalues --    0.15118   0.15363   0.15423   0.15748   0.16094
 Alpha virt. eigenvalues --    0.16521   0.16923   0.17241   0.17616   0.17929
 Alpha virt. eigenvalues --    0.18014   0.18657   0.18938   0.19106   0.19483
 Alpha virt. eigenvalues --    0.19719   0.20003   0.20359   0.20560   0.20737
 Alpha virt. eigenvalues --    0.22119   0.22314   0.22809   0.23081   0.23801
 Alpha virt. eigenvalues --    0.24211   0.24780   0.26009   0.26177   0.26955
 Alpha virt. eigenvalues --    0.27879   0.28517   0.28620   0.28914   0.29700
 Alpha virt. eigenvalues --    0.30625   0.31006   0.31347   0.31755   0.32076
 Alpha virt. eigenvalues --    0.32807   0.33137   0.34073   0.34313   0.34491
 Alpha virt. eigenvalues --    0.35198   0.35386   0.35707   0.35869   0.36317
 Alpha virt. eigenvalues --    0.36898   0.37454   0.37616   0.38049   0.38773
 Alpha virt. eigenvalues --    0.39368   0.39694   0.39918   0.40303   0.41323
 Alpha virt. eigenvalues --    0.42126   0.42941   0.43368   0.44583   0.45458
 Alpha virt. eigenvalues --    0.46870   0.47716   0.49452   0.50623   0.50825
 Alpha virt. eigenvalues --    0.51848   0.52532   0.52809   0.53442   0.55525
 Alpha virt. eigenvalues --    0.56500   0.56686   0.57647   0.59013   0.59741
 Alpha virt. eigenvalues --    0.59873   0.60219   0.60827   0.60873   0.61436
 Alpha virt. eigenvalues --    0.62063   0.62302   0.62936   0.63277   0.63874
 Alpha virt. eigenvalues --    0.64402   0.65252   0.65902   0.66599   0.66884
 Alpha virt. eigenvalues --    0.67810   0.68555   0.68927   0.70065   0.70582
 Alpha virt. eigenvalues --    0.71021   0.72140   0.72422   0.73034   0.73362
 Alpha virt. eigenvalues --    0.73735   0.74143   0.74353   0.75346   0.75941
 Alpha virt. eigenvalues --    0.76408   0.76625   0.77800   0.77986   0.79336
 Alpha virt. eigenvalues --    0.79901   0.81836   0.82975   0.84058   0.85757
 Alpha virt. eigenvalues --    0.86667   0.87358   0.88463   0.89028   0.89267
 Alpha virt. eigenvalues --    0.90176   0.91613   0.92084   0.93943   0.96110
 Alpha virt. eigenvalues --    0.98739   0.99266   0.99937   1.00492   1.02330
 Alpha virt. eigenvalues --    1.03440   1.03647   1.04657   1.05902   1.07426
 Alpha virt. eigenvalues --    1.08392   1.10792   1.11381   1.11554   1.13000
 Alpha virt. eigenvalues --    1.14184   1.15109   1.15698   1.16897   1.17618
 Alpha virt. eigenvalues --    1.18197   1.18729   1.19546   1.19894   1.20640
 Alpha virt. eigenvalues --    1.21102   1.21527   1.22509   1.23506   1.24751
 Alpha virt. eigenvalues --    1.25010   1.25711   1.26097   1.26891   1.27999
 Alpha virt. eigenvalues --    1.29057   1.29334   1.29857   1.30408   1.31498
 Alpha virt. eigenvalues --    1.32068   1.33019   1.33577   1.34020   1.35374
 Alpha virt. eigenvalues --    1.36039   1.36941   1.37209   1.37749   1.38495
 Alpha virt. eigenvalues --    1.39248   1.39989   1.40685   1.41849   1.42087
 Alpha virt. eigenvalues --    1.42867   1.43356   1.44243   1.44500   1.45808
 Alpha virt. eigenvalues --    1.45965   1.47320   1.47661   1.48082   1.48679
 Alpha virt. eigenvalues --    1.49319   1.49718   1.50401   1.51603   1.52648
 Alpha virt. eigenvalues --    1.53276   1.53695   1.54455   1.54821   1.56113
 Alpha virt. eigenvalues --    1.56505   1.57100   1.57501   1.58616   1.59146
 Alpha virt. eigenvalues --    1.59608   1.60374   1.60867   1.61599   1.61741
 Alpha virt. eigenvalues --    1.62999   1.63996   1.65290   1.65886   1.65993
 Alpha virt. eigenvalues --    1.67882   1.69238   1.69480   1.70379   1.71437
 Alpha virt. eigenvalues --    1.73163   1.74094   1.75772   1.76026   1.77805
 Alpha virt. eigenvalues --    1.79341   1.80788   1.81217   1.82815   1.84005
 Alpha virt. eigenvalues --    1.84840   1.86840   1.91194   1.96842   2.00124
 Alpha virt. eigenvalues --    2.03246   2.06704   2.10154   2.13644   2.20549
 Alpha virt. eigenvalues --    2.23118   2.25904   2.28257   2.34564   2.39401
 Alpha virt. eigenvalues --    2.41647   2.44212   2.46519   2.47804   2.54659
 Alpha virt. eigenvalues --    2.58884   2.76787   2.77667   2.80919   2.82363
 Alpha virt. eigenvalues --    2.84284   2.89651   2.92375   2.92950   2.93883
 Alpha virt. eigenvalues --    2.94685   2.97571   2.99413   3.03193   3.03744
 Alpha virt. eigenvalues --    3.05423   3.07530   3.07996   3.11618   3.11911
 Alpha virt. eigenvalues --    3.13336   3.14390   3.18652   3.18921   3.21747
 Alpha virt. eigenvalues --    3.25033   3.27510   3.30722   3.31900   3.33460
 Alpha virt. eigenvalues --    3.34388   3.36194   3.37707   3.39083   3.40307
 Alpha virt. eigenvalues --    3.41315   3.42353   3.44609   3.45207   3.46757
 Alpha virt. eigenvalues --    3.48086   3.48771   3.49313   3.50018   3.51609
 Alpha virt. eigenvalues --    3.52596   3.53330   3.54570   3.55152   3.55815
 Alpha virt. eigenvalues --    3.56625   3.56927   3.57669   3.58362   3.59758
 Alpha virt. eigenvalues --    3.60860   3.61548   3.63200   3.64060   3.64893
 Alpha virt. eigenvalues --    3.65541   3.67600   3.69114   3.69411   3.69986
 Alpha virt. eigenvalues --    3.70495   3.71067   3.72788   3.73000   3.74000
 Alpha virt. eigenvalues --    3.75239   3.75866   3.76850   3.78145   3.79755
 Alpha virt. eigenvalues --    3.81153   3.81767   3.83085   3.83759   3.86372
 Alpha virt. eigenvalues --    3.86877   3.88683   3.89350   3.90112   3.92596
 Alpha virt. eigenvalues --    3.92785   3.94057   3.94527   3.97770   3.98339
 Alpha virt. eigenvalues --    4.00579   4.01292   4.01899   4.03262   4.04546
 Alpha virt. eigenvalues --    4.05149   4.06436   4.07641   4.07999   4.09289
 Alpha virt. eigenvalues --    4.09756   4.10298   4.11502   4.11798   4.12318
 Alpha virt. eigenvalues --    4.12699   4.13244   4.13844   4.15000   4.15512
 Alpha virt. eigenvalues --    4.16942   4.17786   4.19163   4.19966   4.20104
 Alpha virt. eigenvalues --    4.21139   4.23858   4.24742   4.26112   4.27918
 Alpha virt. eigenvalues --    4.28588   4.31134   4.31334   4.31848   4.33239
 Alpha virt. eigenvalues --    4.33917   4.34469   4.36471   4.38331   4.39502
 Alpha virt. eigenvalues --    4.41467   4.42940   4.43984   4.46988   4.49019
 Alpha virt. eigenvalues --    4.58513   4.60591   4.72407   4.75464   4.82923
 Alpha virt. eigenvalues --    4.85766   4.93305   4.95492   5.00348   5.02809
 Alpha virt. eigenvalues --    5.04703   5.06901   5.07911   5.11360   5.13242
 Alpha virt. eigenvalues --    5.13788   5.14812   5.16986   5.34343   5.39553
 Alpha virt. eigenvalues --    5.43254   5.59765   5.62378   5.66642   5.85579
 Alpha virt. eigenvalues --    5.88474   6.01343   7.02861   7.04781   7.06903
 Alpha virt. eigenvalues --    7.07238   7.10624   7.13140   7.14337   7.18127
 Alpha virt. eigenvalues --    7.27320   7.36673   7.43253   7.44629   7.53735
 Alpha virt. eigenvalues --    7.55104   7.64373  23.96463  23.97580  24.06455
 Alpha virt. eigenvalues --   24.07441  24.10772  24.11375  24.13445  24.15752
 Alpha virt. eigenvalues --   24.17342  24.19926  50.16990  50.20664  50.27649
          Condensed to atoms (all electrons):
               1          2          3          4          5          6
     1  C    9.097714   0.089379   0.042536  -1.391680  -1.482879  -0.165749
     2  C    0.089379   5.459995  -0.006303  -0.103831  -0.043575  -0.005256
     3  O    0.042536  -0.006303   8.255851  -0.017759   0.029635  -0.051195
     4  C   -1.391680  -0.103831  -0.017759   6.629549   0.547777   0.051727
     5  C   -1.482879  -0.043575   0.029635   0.547777   6.582636  -0.004529
     6  O   -0.165749  -0.005256  -0.051195   0.051727  -0.004529   8.298685
     7  C    0.240990  -0.012213   0.022081  -0.073815  -0.165261  -0.058688
     8  C    0.114007  -0.000875   0.026137  -0.008172  -0.012525  -0.052400
     9  C   -1.241221   0.037686   0.108588   0.175021   0.277864   0.385188
    10  C   -0.013689   0.000140  -0.071247  -0.030282   0.005391  -0.002000
    11  C    0.071988  -0.001325   0.100253   0.006012  -0.016000  -0.007724
    12  C    0.034665  -0.063929   0.003924  -0.126579  -0.190382   0.007518
    13  O    0.135912   0.078180  -0.002325   0.078075  -0.098458  -0.003177
    14  H    0.645294   0.000257   0.008094  -0.117791  -0.068359  -0.076114
    15  H    0.085615   0.510334  -0.000099  -0.073614  -0.030661  -0.001232
    16  H   -0.045820   0.436704   0.000877   0.036053   0.001292   0.001493
    17  H   -0.048512   0.007783   0.001430   0.367294   0.006843   0.008105
    18  H    0.028295   0.011291  -0.000612   0.449199  -0.033525  -0.008437
    19  H    0.039648  -0.026171  -0.005849  -0.036640   0.473884  -0.020147
    20  H   -0.032817  -0.003618  -0.009311   0.010543   0.400191   0.007602
    21  H    0.009750  -0.000025   0.008815  -0.002082  -0.000699  -0.001691
    22  H   -0.007655   0.000315  -0.004188   0.009406   0.004172   0.008400
    23  H   -0.012865   0.000267   0.001134   0.007696   0.001984  -0.001219
    24  H    0.009803  -0.000100  -0.001761  -0.002774  -0.002321  -0.000691
    25  H    0.062746  -0.002019  -0.074702  -0.074475  -0.018053  -0.032327
    26  H    0.003960   0.000054   0.009359  -0.000599  -0.001233  -0.000170
    27  H   -0.003560  -0.000064  -0.002717  -0.000381   0.001079   0.000328
    28  H    0.002737  -0.000061  -0.073816   0.000352   0.000572   0.000674
    29  H   -0.015941   0.000553  -0.035952   0.001562   0.001261   0.002069
    30  H   -0.069286  -0.074626   0.000166   0.017860   0.010222   0.003229
    31  H    0.017384  -0.028546   0.000668  -0.010037  -0.033396  -0.001774
               7          8          9         10         11         12
     1  C    0.240990   0.114007  -1.241221  -0.013689   0.071988   0.034665
     2  C   -0.012213  -0.000875   0.037686   0.000140  -0.001325  -0.063929
     3  O    0.022081   0.026137   0.108588  -0.071247   0.100253   0.003924
     4  C   -0.073815  -0.008172   0.175021  -0.030282   0.006012  -0.126579
     5  C   -0.165261  -0.012525   0.277864   0.005391  -0.016000  -0.190382
     6  O   -0.058688  -0.052400   0.385188  -0.002000  -0.007724   0.007518
     7  C    7.101668   0.047369  -1.443679  -0.247263   0.182603   0.040962
     8  C    0.047369   5.649710  -0.289840   0.010416  -0.033047   0.003481
     9  C   -1.443679  -0.289840   7.985487   0.416997  -0.454547  -0.012645
    10  C   -0.247263   0.010416   0.416997   5.768750  -0.122200  -0.001255
    11  C    0.182603  -0.033047  -0.454547  -0.122200   5.558067   0.003458
    12  C    0.040962   0.003481  -0.012645  -0.001255   0.003458   5.902139
    13  O    0.011283  -0.000445  -0.026420   0.001586   0.000457   0.039940
    14  H    0.004971   0.009348  -0.080704  -0.002168   0.004423  -0.015525
    15  H    0.001673  -0.000059  -0.003373   0.000145  -0.000046  -0.090604
    16  H    0.002456   0.000593   0.003232  -0.000530   0.000705  -0.010179
    17  H   -0.016426  -0.011548   0.065369   0.004970   0.000081  -0.004717
    18  H    0.000983   0.002280  -0.012028  -0.000842   0.000003  -0.026583
    19  H   -0.021173  -0.000303  -0.049827  -0.002431   0.015937  -0.034808
    20  H   -0.008674  -0.001029   0.023477  -0.001024  -0.002365  -0.006497
    21  H    0.398296  -0.026230  -0.017811  -0.008783   0.003014  -0.000100
    22  H    0.528576  -0.007674  -0.143740  -0.024988   0.021086  -0.000010
    23  H   -0.038814   0.526705  -0.033099  -0.077743   0.006849  -0.000659
    24  H   -0.031407   0.412578  -0.000566  -0.016640   0.007886   0.000432
    25  H   -0.125549  -0.020800   0.534200   0.027141  -0.034737   0.009781
    26  H   -0.007666  -0.053460   0.017999   0.437550  -0.034798  -0.000014
    27  H    0.002132  -0.014213  -0.021519   0.488365  -0.084406   0.000140
    28  H   -0.012510   0.007830   0.007131  -0.034635   0.440695   0.001957
    29  H    0.045171  -0.008213  -0.035754  -0.073200   0.488355  -0.000371
    30  H   -0.000702   0.000271  -0.004012  -0.000558   0.001149   0.487257
    31  H    0.000390  -0.000124   0.003898   0.000977  -0.001036   0.409972
              13         14         15         16         17         18
     1  C    0.135912   0.645294   0.085615  -0.045820  -0.048512   0.028295
     2  C    0.078180   0.000257   0.510334   0.436704   0.007783   0.011291
     3  O   -0.002325   0.008094  -0.000099   0.000877   0.001430  -0.000612
     4  C    0.078075  -0.117791  -0.073614   0.036053   0.367294   0.449199
     5  C   -0.098458  -0.068359  -0.030661   0.001292   0.006843  -0.033525
     6  O   -0.003177  -0.076114  -0.001232   0.001493   0.008105  -0.008437
     7  C    0.011283   0.004971   0.001673   0.002456  -0.016426   0.000983
     8  C   -0.000445   0.009348  -0.000059   0.000593  -0.011548   0.002280
     9  C   -0.026420  -0.080704  -0.003373   0.003232   0.065369  -0.012028
    10  C    0.001586  -0.002168   0.000145  -0.000530   0.004970  -0.000842
    11  C    0.000457   0.004423  -0.000046   0.000705   0.000081   0.000003
    12  C    0.039940  -0.015525  -0.090604  -0.010179  -0.004717  -0.026583
    13  O    8.304085   0.001732  -0.062706  -0.078544  -0.059588  -0.046540
    14  H    0.001732   0.435890   0.001786  -0.000367  -0.004434   0.000231
    15  H   -0.062706   0.001786   0.518743  -0.024457  -0.002570   0.009731
    16  H   -0.078544  -0.000367  -0.024457   0.503623   0.001558  -0.003976
    17  H   -0.059588  -0.004434  -0.002570   0.001558   0.497211  -0.010780
    18  H   -0.046540   0.000231   0.009731  -0.003976  -0.010780   0.470520
    19  H   -0.002890   0.009412  -0.005469   0.005544   0.003637  -0.003523
    20  H    0.001750  -0.010298   0.002019  -0.002600   0.000349   0.002200
    21  H    0.000075   0.001018  -0.000045   0.000012  -0.000354  -0.000193
    22  H   -0.000046   0.000100  -0.000022  -0.000050  -0.000191   0.000120
    23  H   -0.000145  -0.001157  -0.000025   0.000041  -0.000723   0.000196
    24  H    0.000050   0.000580   0.000016   0.000009  -0.000397   0.000046
    25  H    0.003805  -0.002482   0.001831  -0.004524  -0.011243  -0.001468
    26  H    0.000023  -0.000033  -0.000000  -0.000008   0.000073  -0.000018
    27  H    0.000034  -0.000067  -0.000000   0.000007  -0.000291  -0.000001
    28  H   -0.000117   0.000381  -0.000002   0.000039   0.000261  -0.000099
    29  H   -0.000259  -0.002072  -0.000026   0.000019  -0.000328  -0.000107
    30  H    0.001459  -0.002859  -0.018108   0.008711  -0.000113  -0.007981
    31  H    0.010995   0.000324   0.004562  -0.011316   0.001238  -0.000735
              19         20         21         22         23         24
     1  C    0.039648  -0.032817   0.009750  -0.007655  -0.012865   0.009803
     2  C   -0.026171  -0.003618  -0.000025   0.000315   0.000267  -0.000100
     3  O   -0.005849  -0.009311   0.008815  -0.004188   0.001134  -0.001761
     4  C   -0.036640   0.010543  -0.002082   0.009406   0.007696  -0.002774
     5  C    0.473884   0.400191  -0.000699   0.004172   0.001984  -0.002321
     6  O   -0.020147   0.007602  -0.001691   0.008400  -0.001219  -0.000691
     7  C   -0.021173  -0.008674   0.398296   0.528576  -0.038814  -0.031407
     8  C   -0.000303  -0.001029  -0.026230  -0.007674   0.526705   0.412578
     9  C   -0.049827   0.023477  -0.017811  -0.143740  -0.033099  -0.000566
    10  C   -0.002431  -0.001024  -0.008783  -0.024988  -0.077743  -0.016640
    11  C    0.015937  -0.002365   0.003014   0.021086   0.006849   0.007886
    12  C   -0.034808  -0.006497  -0.000100  -0.000010  -0.000659   0.000432
    13  O   -0.002890   0.001750   0.000075  -0.000046  -0.000145   0.000050
    14  H    0.009412  -0.010298   0.001018   0.000100  -0.001157   0.000580
    15  H   -0.005469   0.002019  -0.000045  -0.000022  -0.000025   0.000016
    16  H    0.005544  -0.002600   0.000012  -0.000050   0.000041   0.000009
    17  H    0.003637   0.000349  -0.000354  -0.000191  -0.000723  -0.000397
    18  H   -0.003523   0.002200  -0.000193   0.000120   0.000196   0.000046
    19  H    0.480962  -0.017555   0.000242   0.000178  -0.000470  -0.000120
    20  H   -0.017555   0.474084   0.000175  -0.000613   0.000134  -0.000016
    21  H    0.000242   0.000175   0.491845  -0.004856  -0.001459  -0.010749
    22  H    0.000178  -0.000613  -0.004856   0.454921   0.002506  -0.002540
    23  H   -0.000470   0.000134  -0.001459   0.002506   0.457355  -0.004937
    24  H   -0.000120  -0.000016  -0.010749  -0.002540  -0.004937   0.470157
    25  H   -0.005421   0.002408  -0.004720  -0.015945  -0.003441   0.000795
    26  H    0.000447   0.000181   0.001761  -0.002960  -0.003886  -0.009570
    27  H   -0.000696   0.000070  -0.000997  -0.001833   0.001391  -0.000494
    28  H    0.000279  -0.000445   0.001321  -0.000095  -0.001925   0.000529
    29  H   -0.001180  -0.000441  -0.000557  -0.000715  -0.001514  -0.000622
    30  H    0.005701  -0.003939   0.000128  -0.000011   0.000053  -0.000019
    31  H   -0.000901  -0.011262  -0.000086   0.000050  -0.000042   0.000009
              25         26         27         28         29         30
     1  C    0.062746   0.003960  -0.003560   0.002737  -0.015941  -0.069286
     2  C   -0.002019   0.000054  -0.000064  -0.000061   0.000553  -0.074626
     3  O   -0.074702   0.009359  -0.002717  -0.073816  -0.035952   0.000166
     4  C   -0.074475  -0.000599  -0.000381   0.000352   0.001562   0.017860
     5  C   -0.018053  -0.001233   0.001079   0.000572   0.001261   0.010222
     6  O   -0.032327  -0.000170   0.000328   0.000674   0.002069   0.003229
     7  C   -0.125549  -0.007666   0.002132  -0.012510   0.045171  -0.000702
     8  C   -0.020800  -0.053460  -0.014213   0.007830  -0.008213   0.000271
     9  C    0.534200   0.017999  -0.021519   0.007131  -0.035754  -0.004012
    10  C    0.027141   0.437550   0.488365  -0.034635  -0.073200  -0.000558
    11  C   -0.034737  -0.034798  -0.084406   0.440695   0.488355   0.001149
    12  C    0.009781  -0.000014   0.000140   0.001957  -0.000371   0.487257
    13  O    0.003805   0.000023   0.000034  -0.000117  -0.000259   0.001459
    14  H   -0.002482  -0.000033  -0.000067   0.000381  -0.002072  -0.002859
    15  H    0.001831  -0.000000  -0.000000  -0.000002  -0.000026  -0.018108
    16  H   -0.004524  -0.000008   0.000007   0.000039   0.000019   0.008711
    17  H   -0.011243   0.000073  -0.000291   0.000261  -0.000328  -0.000113
    18  H   -0.001468  -0.000018  -0.000001  -0.000099  -0.000107  -0.007981
    19  H   -0.005421   0.000447  -0.000696   0.000279  -0.001180   0.005701
    20  H    0.002408   0.000181   0.000070  -0.000445  -0.000441  -0.003939
    21  H   -0.004720   0.001761  -0.000997   0.001321  -0.000557   0.000128
    22  H   -0.015945  -0.002960  -0.001833  -0.000095  -0.000715  -0.000011
    23  H   -0.003441  -0.003886   0.001391  -0.001925  -0.001514   0.000053
    24  H    0.000795  -0.009570  -0.000494   0.000529  -0.000622  -0.000019
    25  H    0.456178   0.002185   0.000941   0.000634   0.000853  -0.001135
    26  H    0.002185   0.487725  -0.010378  -0.009272   0.001428   0.000019
    27  H    0.000941  -0.010378   0.481927  -0.004414   0.003100  -0.000015
    28  H    0.000634  -0.009272  -0.004414   0.481609  -0.010368   0.000059
    29  H    0.000853   0.001428   0.003100  -0.010368   0.485398  -0.000012
    30  H   -0.001135   0.000019  -0.000015   0.000059  -0.000012   0.476565
    31  H    0.000999  -0.000023   0.000026  -0.000143   0.000049  -0.012003
              31
     1  C    0.017384
     2  C   -0.028546
     3  O    0.000668
     4  C   -0.010037
     5  C   -0.033396
     6  O   -0.001774
     7  C    0.000390
     8  C   -0.000124
     9  C    0.003898
    10  C    0.000977
    11  C   -0.001036
    12  C    0.409972
    13  O    0.010995
    14  H    0.000324
    15  H    0.004562
    16  H   -0.011316
    17  H    0.001238
    18  H   -0.000735
    19  H   -0.000901
    20  H   -0.011262
    21  H   -0.000086
    22  H    0.000050
    23  H   -0.000042
    24  H    0.000009
    25  H    0.000999
    26  H   -0.000023
    27  H    0.000026
    28  H   -0.000143
    29  H    0.000049
    30  H   -0.012003
    31  H    0.500333
 Mulliken charges:
               1
     1  C   -0.200748
     2  C   -0.260403
     3  O   -0.261712
     4  C   -0.317614
     5  C   -0.142946
     6  O   -0.280495
     7  C   -0.367764
     8  C   -0.269766
     9  C   -0.171354
    10  C   -0.430948
    11  C   -0.120791
    12  C   -0.360768
    13  O   -0.287782
    14  H    0.260587
    15  H    0.176667
    16  H    0.179403
    17  H    0.206012
    18  H    0.182354
    19  H    0.199702
    20  H    0.187322
    21  H    0.164989
    22  H    0.188305
    23  H    0.177812
    24  H    0.182835
    25  H    0.328542
    26  H    0.171324
    27  H    0.166505
    28  H    0.200841
    29  H    0.157811
    30  H    0.182532
    31  H    0.159548
 Sum of Mulliken charges =  -0.00000
 Mulliken charges with hydrogens summed into heavy atoms:
               1
     1  C    0.059839
     2  C    0.095667
     3  O   -0.261712
     4  C    0.070751
     5  C    0.244078
     6  O   -0.280495
     7  C   -0.014470
     8  C    0.090881
     9  C    0.157188
    10  C   -0.093119
    11  C    0.237862
    12  C   -0.018688
    13  O   -0.287782
 Electronic spatial extent (au):  <R**2>=           2914.3792
 Charge=              0.0000 electrons
 Dipole moment (field-independent basis, Debye):
    X=             -0.5892    Y=              0.2018    Z=              1.7612  Tot=              1.8681
 Quadrupole moment (field-independent basis, Debye-Ang):
   XX=            -68.7424   YY=            -78.5064   ZZ=            -82.9079
   XY=             -3.3371   XZ=             -3.3630   YZ=             -0.3146
 Traceless Quadrupole moment (field-independent basis, Debye-Ang):
   XX=              7.9765   YY=             -1.7875   ZZ=             -6.1890
   XY=             -3.3371   XZ=             -3.3630   YZ=             -0.3146
 Octapole moment (field-independent basis, Debye-Ang**2):
  XXX=             -7.9337  YYY=              1.1598  ZZZ=              1.7750  XYY=              4.3122
  XXY=             13.4118  XXZ=              5.8803  XZZ=             -5.0892  YZZ=              1.2072
  YYZ=              2.8437  XYZ=              9.9532
 Hexadecapole moment (field-independent basis, Debye-Ang**3):
 XXXX=          -2838.7951 YYYY=           -590.9138 ZZZZ=           -312.4234 XXXY=             -2.5549
 XXXZ=              0.8996 YYYX=             10.8788 YYYZ=             -6.5396 ZZZX=             -1.0845
 ZZZY=              0.3694 XXYY=           -586.8569 XXZZ=           -548.8472 YYZZ=           -157.5054
 XXYZ=            -18.0626 YYXZ=             -7.8841 ZZXY=             -4.3075
 N-N= 9.027421863810D+02 E-N=-3.247586394920D+03  KE= 6.153275971742D+02
 D1PCM: PCM CHGder 1st derivatives, ID1Alg=3 FixD1E=F DoIter=F DoCFld=F I1PDM=0.
 Calling FoFJK, ICntrl=      2127 FMM=F ISym2X=0 I1Cent= 0 IOpClX= 0 NMat=1 NMatS=1 NMatT=0.
 ***** Axes restored to original set *****
 -------------------------------------------------------------------
 Center     Atomic                   Forces (Hartrees/Bohr)
 Number     Number              X              Y              Z
 -------------------------------------------------------------------
      1        6          -0.001943994   -0.001605658   -0.005457794
      2        6          -0.003726428   -0.001056437    0.005119802
      3        8           0.004342548   -0.004871806   -0.009400932
      4        6           0.003223932   -0.007374201   -0.000910802
      5        6           0.003610663    0.003299801    0.000609920
      6        8          -0.005181179    0.003583753    0.009411403
      7        6          -0.000558306   -0.001453290    0.002079374
      8        6           0.001997454   -0.002022647   -0.002670362
      9        6          -0.004704365   -0.002947404    0.004662538
     10        6           0.001904441    0.000383844    0.001920772
     11        6          -0.001000743    0.006675631   -0.000025214
     12        6          -0.001280492    0.000492220   -0.001464279
     13        8          -0.004889944    0.003294749   -0.008742964
     14        1           0.001302295   -0.000561005    0.005712554
     15        1           0.004829245    0.001695048    0.002060939
     16        1           0.000224176   -0.002018340   -0.004261367
     17        1          -0.004413820    0.003458596   -0.000765125
     18        1           0.003697517    0.001906114    0.004770579
     19        1          -0.002978465    0.000899520   -0.004423979
     20        1          -0.001206442   -0.001937023    0.001701339
     21        1           0.001391574    0.002701146    0.001621942
     22        1          -0.001145030    0.000115743   -0.003298767
     23        1           0.001894941   -0.000751760    0.003039204
     24        1          -0.001940970    0.001697753   -0.000217661
     25        1           0.006931741    0.002246269   -0.006085652
     26        1          -0.002224387   -0.000820013    0.001605905
     27        1          -0.000565303    0.000519374   -0.003252649
     28        1          -0.001132516   -0.003688983   -0.002220687
     29        1           0.001515343   -0.000351420    0.006060052
     30        1           0.000888843    0.000987491    0.003321586
     31        1           0.001137672   -0.002497065   -0.000499673
 -------------------------------------------------------------------
 Cartesian Forces:  Max     0.009411403 RMS     0.003438067

 GradGradGradGradGradGradGradGradGradGradGradGradGradGradGradGradGradGrad
 Berny optimization.
 FormGI is forming the generalized inverse of G from B-inverse, IUseBI=4.
 Internal  Forces:  Max     0.019782296 RMS     0.002383011
 Search for a local minimum.
 Step number   1 out of a maximum of  186
 All quantities printed in internal units (Hartrees-Bohrs-Radians)
 Mixed Optimization -- RFO/linear search
 Second derivative matrix not updated -- first step.
 ITU=  0
     Eigenvalues ---    0.00391   0.00608   0.00627   0.00721   0.01407
     Eigenvalues ---    0.01409   0.01685   0.02704   0.02734   0.03075
     Eigenvalues ---    0.03268   0.03923   0.04098   0.04490   0.04727
     Eigenvalues ---    0.04744   0.04892   0.04930   0.05042   0.05135
     Eigenvalues ---    0.05257   0.05648   0.05690   0.05942   0.06169
     Eigenvalues ---    0.06232   0.06432   0.06987   0.07602   0.07638
     Eigenvalues ---    0.07833   0.07841   0.07953   0.08055   0.08228
     Eigenvalues ---    0.08828   0.09261   0.10288   0.11273   0.11604
     Eigenvalues ---    0.11731   0.11766   0.11796   0.12402   0.12756
     Eigenvalues ---    0.14689   0.15264   0.16472   0.18308   0.19128
     Eigenvalues ---    0.19919   0.21954   0.22629   0.25000   0.26830
     Eigenvalues ---    0.27860   0.28504   0.28631   0.28842   0.28945
     Eigenvalues ---    0.29006   0.30279   0.35092   0.35175   0.35186
     Eigenvalues ---    0.35216   0.35236   0.35276   0.35306   0.35317
     Eigenvalues ---    0.35415   0.35440   0.35446   0.35461   0.35536
     Eigenvalues ---    0.35790   0.35803   0.35839   0.35934   0.36218
     Eigenvalues ---    0.40319   0.40877   0.41654   0.42064   0.43189
     Eigenvalues ---    0.455411000.000001000.000001000.000001000.00000
     Eigenvalues --- 1000.000001000.000001000.000001000.000001000.00000
     Eigenvalues --- 1000.000001000.000001000.000001000.000001000.00000
     Eigenvalues --- 1000.000001000.000001000.000001000.000001000.00000
     Eigenvalues --- 1000.000001000.000001000.000001000.000001000.00000
     Eigenvalues --- 1000.000001000.000001000.000001000.000001000.00000
     Eigenvalues --- 1000.000001000.000001000.000001000.000001000.00000
     Eigenvalues --- 1000.000001000.000001000.000001000.000001000.00000
     Eigenvalues --- 1000.000001000.000001000.000001000.000001000.00000
     Eigenvalues --- 1000.000001000.000001000.000001000.000001000.00000
     Eigenvalues --- 1000.000001000.000001000.000001000.000001000.00000
     Eigenvalues --- 1000.000001000.000001000.000001000.000001000.00000
     Eigenvalues --- 1000.000001000.000001000.000001000.000001000.00000
     Eigenvalues --- 1000.000001000.000001000.000001000.000001000.00000
     Eigenvalues --- 1000.000001000.000001000.000001000.000001000.00000
     Eigenvalues --- 1000.000001000.000001000.000001000.000001000.00000
     Eigenvalues --- 1000.000001000.000001000.000001000.000001000.00000
     Eigenvalues --- 1000.000001000.000001000.000001000.000001000.00000
     Eigenvalues --- 1000.000001000.000001000.000001000.000001000.00000
     Eigenvalues --- 1000.000001000.000001000.000001000.000001000.00000
 RFO step:  Lambda=-4.81661860D-03 EMin= 3.90808980D-03
 Linear search not attempted -- first point.
 Iteration  1 RMS(Cart)=  0.08640307 RMS(Int)=  0.00152036
 Iteration  2 RMS(Cart)=  0.00423020 RMS(Int)=  0.00009246
 Iteration  3 RMS(Cart)=  0.00000501 RMS(Int)=  0.00009243
 Iteration  4 RMS(Cart)=  0.00000000 RMS(Int)=  0.00009243
 Iteration  1 RMS(Cart)=  0.00005466 RMS(Int)=  0.00001286
 Iteration  2 RMS(Cart)=  0.00003048 RMS(Int)=  0.00001435
 Iteration  3 RMS(Cart)=  0.00001699 RMS(Int)=  0.00001625
 Iteration  4 RMS(Cart)=  0.00000948 RMS(Int)=  0.00001754
 Iteration  5 RMS(Cart)=  0.00000528 RMS(Int)=  0.00001831
 Iteration  6 RMS(Cart)=  0.00000295 RMS(Int)=  0.00001875
 Iteration  7 RMS(Cart)=  0.00000164 RMS(Int)=  0.00001901
 Iteration  8 RMS(Cart)=  0.00000092 RMS(Int)=  0.00001915
 Variable       Old X    -DE/DX   Delta X   Delta X   Delta X     New X
                                 (Linear)    (Quad)   (Total)
    R1        2.90690   0.00009   0.00000   0.00056   0.00067   2.90757
    R2        2.88906  -0.00136   0.00000  -0.00575  -0.00563   2.88343
    R3        2.68842  -0.00168   0.00000  -0.00396  -0.00396   2.68447
    R4        2.04412   0.00584   0.00000   0.01611   0.01611   2.06023
    R5        2.89961   0.00073   0.00000   0.00265   0.00257   2.90218
    R6        2.68206   0.00335   0.00000   0.00901   0.00893   2.69099
    R7        2.05229   0.00543   0.00000   0.01518   0.01518   2.06747
    R8        2.04390   0.00470   0.00000   0.01295   0.01295   2.05685
    R9        2.65625   0.00357   0.00000   0.00737   0.00739   2.66364
   R10        2.68601   0.00272   0.00000   0.00628   0.00629   2.69230
   R11        2.66560   0.00301   0.00000   0.00734   0.00729   2.67289
   R12        2.04184   0.00549   0.00000   0.01509   0.01509   2.05693
   R13        2.05181   0.00626   0.00000   0.01749   0.01749   2.06930
   R14        2.88829  -0.00025   0.00000  -0.00246  -0.00248   2.88581
   R15        2.04814   0.00502   0.00000   0.01395   0.01395   2.06209
   R16        2.04967   0.00280   0.00000   0.00780   0.00780   2.05746
   R17        2.64653   0.00253   0.00000   0.00549   0.00549   2.65202
   R18        2.88993  -0.00158   0.00000  -0.00520  -0.00520   2.88473
   R19        2.87707  -0.00039   0.00000  -0.00192  -0.00194   2.87512
   R20        2.04957   0.00342   0.00000   0.00952   0.00952   2.05909
   R21        2.05373   0.00344   0.00000   0.00965   0.00965   2.06338
   R22        2.88845  -0.00087   0.00000  -0.00210  -0.00212   2.88633
   R23        2.05392   0.00346   0.00000   0.00971   0.00971   2.06363
   R24        2.05164   0.00259   0.00000   0.00722   0.00722   2.05886
   R25        2.03742   0.00947   0.00000   0.02581   0.02581   2.06323
   R26        2.87148   0.00020   0.00000   0.00124   0.00126   2.87274
   R27        2.05293   0.00284   0.00000   0.00795   0.00795   2.06088
   R28        2.05526   0.00327   0.00000   0.00918   0.00918   2.06445
   R29        2.04335   0.00445   0.00000   0.01225   0.01225   2.05559
   R30        2.05007   0.00615   0.00000   0.01712   0.01712   2.06719
   R31        2.05326   0.00353   0.00000   0.00990   0.00990   2.06316
   R32        2.04933   0.00277   0.00000   0.00769   0.00769   2.05703
    A1        1.92129   0.00030   0.00000  -0.01094  -0.01138   1.90991
    A2        1.98133  -0.00151   0.00000  -0.01577  -0.01637   1.96496
    A3        1.87810   0.00077   0.00000   0.01839   0.01848   1.89658
    A4        1.98249  -0.00061   0.00000  -0.01867  -0.01916   1.96333
    A5        1.89730  -0.00027   0.00000   0.00865   0.00883   1.90613
    A6        1.79471   0.00153   0.00000   0.02446   0.02468   1.81939
    A7        1.95155   0.00174   0.00000   0.00365   0.00348   1.95503
    A8        1.93875  -0.00096   0.00000  -0.00540  -0.00544   1.93331
    A9        1.93394  -0.00090   0.00000  -0.00494  -0.00484   1.92910
   A10        1.90464   0.00053   0.00000   0.00671   0.00684   1.91149
   A11        1.84056  -0.00098   0.00000  -0.00197  -0.00197   1.83859
   A12        1.89093   0.00058   0.00000   0.00229   0.00225   1.89318
   A13        2.02513  -0.00572   0.00000  -0.03702  -0.03690   1.98823
   A14        1.95261   0.00067   0.00000   0.00054   0.00040   1.95301
   A15        1.93847  -0.00158   0.00000  -0.01915  -0.01922   1.91925
   A16        1.91164  -0.00036   0.00000   0.00543   0.00537   1.91702
   A17        1.86941  -0.00075   0.00000  -0.00643  -0.00656   1.86286
   A18        1.90611   0.00154   0.00000   0.01772   0.01768   1.92379
   A19        1.88382   0.00053   0.00000   0.00227   0.00229   1.88611
   A20        1.89212  -0.00058   0.00000  -0.00329  -0.00331   1.88881
   A21        1.92575  -0.00053   0.00000  -0.01435  -0.01431   1.91144
   A22        1.91754  -0.00048   0.00000  -0.00158  -0.00159   1.91595
   A23        1.90765   0.00115   0.00000   0.00627   0.00622   1.91387
   A24        1.94431   0.00030   0.00000   0.00818   0.00815   1.95246
   A25        1.87670   0.00015   0.00000   0.00458   0.00450   1.88120
   A26        2.09218  -0.01978   0.00000  -0.07763  -0.07763   2.01455
   A27        1.95366  -0.00165   0.00000  -0.01539  -0.01552   1.93814
   A28        1.94671  -0.00027   0.00000  -0.00131  -0.00142   1.94530
   A29        1.90896   0.00113   0.00000   0.00696   0.00706   1.91601
   A30        1.89999   0.00065   0.00000  -0.00106  -0.00104   1.89895
   A31        1.87482   0.00021   0.00000   0.00514   0.00513   1.87995
   A32        1.87675  -0.00000   0.00000   0.00677   0.00674   1.88349
   A33        1.91232   0.00180   0.00000  -0.00195  -0.00195   1.91037
   A34        1.92220  -0.00098   0.00000  -0.00621  -0.00621   1.91599
   A35        1.91678  -0.00049   0.00000   0.00164   0.00163   1.91840
   A36        1.91447  -0.00076   0.00000  -0.00125  -0.00135   1.91312
   A37        1.93088  -0.00025   0.00000   0.00214   0.00221   1.93308
   A38        1.86684   0.00061   0.00000   0.00573   0.00573   1.87257
   A39        1.93402   0.00062   0.00000   0.00214   0.00230   1.93632
   A40        1.93533   0.00320   0.00000   0.01360   0.01342   1.94875
   A41        1.83088  -0.00212   0.00000  -0.00827  -0.00831   1.82258
   A42        1.90824  -0.00282   0.00000  -0.01264  -0.01259   1.89565
   A43        1.92517   0.00087   0.00000   0.00069   0.00067   1.92584
   A44        1.92940   0.00036   0.00000   0.00504   0.00507   1.93447
   A45        1.92217  -0.00097   0.00000  -0.00468  -0.00488   1.91729
   A46        1.93988  -0.00054   0.00000  -0.00233  -0.00230   1.93758
   A47        1.91587   0.00088   0.00000   0.00147   0.00155   1.91742
   A48        1.90303   0.00061   0.00000   0.00333   0.00338   1.90641
   A49        1.90616   0.00006   0.00000  -0.00089  -0.00082   1.90533
   A50        1.87590   0.00000   0.00000   0.00332   0.00329   1.87918
   A51        1.94624   0.00236   0.00000   0.00663   0.00660   1.95284
   A52        1.84193  -0.00131   0.00000  -0.00217  -0.00218   1.83975
   A53        1.90953   0.00012   0.00000   0.00117   0.00122   1.91075
   A54        1.94565  -0.00034   0.00000  -0.00222  -0.00216   1.94348
   A55        1.93122  -0.00161   0.00000  -0.00764  -0.00768   1.92355
   A56        1.88627   0.00079   0.00000   0.00456   0.00454   1.89082
   A57        1.91322  -0.00068   0.00000  -0.01060  -0.01067   1.90255
   A58        1.92681   0.00093   0.00000   0.00430   0.00432   1.93113
   A59        1.90828  -0.00030   0.00000   0.00293   0.00292   1.91120
   A60        1.91138  -0.00054   0.00000  -0.00121  -0.00125   1.91013
   A61        1.93793   0.00068   0.00000   0.00253   0.00262   1.94055
   A62        1.86586  -0.00005   0.00000   0.00251   0.00249   1.86835
   A63        1.98218  -0.00458   0.00000  -0.02989  -0.02992   1.95226
    D1        0.38767   0.00129   0.00000   0.02428   0.02435   0.41201
    D2        2.47560  -0.00029   0.00000   0.00344   0.00352   2.47913
    D3       -1.72841  -0.00085   0.00000  -0.00217  -0.00213  -1.73054
    D4       -1.85673   0.00310   0.00000   0.07184   0.07178  -1.78495
    D5        0.23121   0.00151   0.00000   0.05100   0.05096   0.28217
    D6        2.31038   0.00096   0.00000   0.04539   0.04530   2.35568
[...]
 00317,-0.00020347,-0.00229259,0.00014654,-0.00001572,0.00017749,0.0000
 8077,0.00094521,-0.00035730,0.00080624,-0.00017530,-0.00015407,0.00025
 380,0.00016600,-0.00012104,0.00001651,0.00003148,-0.00005884,-0.000035
 15,-0.00049091,-0.00079531,-0.00033877,0.00029027,-0.00022299,0.000063
 77,-0.00005548,0.00037531,0.00003883,0.00010465,-0.00009474,0.00007301
 ,0.00014037,0.00010460,0.00002195,0.00011792,-0.00042413,0.00058282,-0
 .00020566,-0.00003003,0.00011321,-0.00008398,0.00008918,-0.00001141,-0
 .11906174,-0.05513780,0.17367608,0.00036515,-0.00003915,0.00007662,0.0
 0004389,-0.00001994,-0.00001789,-0.00730289,0.00253391,0.00099889,0.00
 001427,0.00002434,-0.00002337,-0.00008333,0.00000032,0.00009587,-0.000
 49177,-0.00011991,-0.00059199,0.00117318,-0.00100063,-0.00122780,-0.00
 441385,-0.00262630,0.00242826,0.00128655,0.00187494,0.00108998,-0.1781
 2675,-0.08303138,0.10123539,-0.01569676,-0.01559919,0.01485869,0.00000
 258,0.00001789,-0.00003924,-0.00009247,-0.00000071,0.00002595,-0.00005
 825,0.00000304,-0.00003363,-0.00001485,-0.00000290,0.00000133,-0.00000
 397,0.00000461,0.00000647,0.00001622,0.00002281,0.00000741,-0.00003486
 ,-0.00000868,0.00000445,0.00006161,-0.00004816,-0.00006588,-0.00000443
 ,0.00000818,-0.00001806,-0.00016432,-0.00005346,0.00036772,-0.00009120
 ,-0.00005743,0.00021159,0.00006404,0.00013355,-0.00005757,0.00040407,-
 0.00012933,-0.00029350,0.00000041,-0.00018119,-0.00007585,0.19251238,0
 .00008330,0.00001345,-0.00000641,0.00000905,-0.00001376,0.00000136,0.0
 0626394,-0.00047302,-0.00106493,0.00000784,-0.00000837,-0.00000769,0.0
 0000264,-0.00002592,-0.00005248,-0.00015034,0.00028468,0.00015917,-0.0
 0054880,-0.00526818,-0.00407898,-0.02120114,-0.01283718,0.01753225,0.0
 0052396,-0.00189319,-0.00060369,-0.08386999,-0.10254380,0.06815043,0.0
 1087565,0.01022419,-0.01112412,-0.00000170,0.00001723,0.00003079,-0.00
 002859,0.00001268,0.00000862,-0.00001946,0.00000523,-0.00000602,-0.000
 00299,0.00000194,-0.00000118,-0.00000185,0.00000207,0.00000066,0.00002
 583,0.00001257,0.00000351,-0.00001043,0.00000012,0.00000141,-0.0000144
 8,0.00001175,0.00003165,-0.00000132,0.00000187,0.00000397,-0.00181932,
 -0.00064348,0.00085323,0.00033902,0.00013318,-0.00008937,0.00032777,0.
 00132854,-0.00015057,0.00073125,0.00095576,0.00057730,-0.00006326,0.00
 034952,0.00008533,0.09244391,0.11178532,-0.00007097,0.00000489,-0.0000
 1502,-0.00000734,0.00000031,0.00000441,0.00112276,-0.00003414,0.001537
 46,0.00000283,-0.00000595,0.00000730,0.00002456,-0.00000824,-0.0000390
 7,0.00011796,0.00010377,0.00013866,-0.00034325,-0.00255015,-0.00054866
 ,-0.01156964,-0.00669345,0.00776262,-0.00017745,-0.00058082,-0.0004484
 1,0.10346355,0.06842247,-0.12955436,-0.00118443,0.00059213,-0.00206664
 ,-0.00000162,-0.00000007,0.00001521,0.00001049,0.00000363,-0.00000473,
 0.00001085,0.00000048,0.00000588,0.00000246,0.00000169,-0.00000096,0.0
 0000060,-0.00000055,-0.00000147,0.00000547,-0.00000258,-0.00000144,0.0
 0000457,0.00000252,-0.00000086,-0.00000668,0.00000837,0.00002811,-0.00
 000003,-0.00000055,0.00000147,-0.00042235,-0.00043419,0.00046219,-0.00
 017661,-0.00018772,0.00027029,0.00003502,0.00078578,0.00073910,0.00033
 133,0.00077268,0.00024372,-0.00000148,0.00007973,-0.00003840,-0.112349
 30,-0.07240502,0.13672697,0.00009423,-0.00002765,0.00004493,0.00000214
 ,-0.00000190,-0.00000446,0.00285410,-0.00085294,0.00052849,-0.00001447
 ,0.00000727,-0.00001272,-0.00000363,0.00000672,-0.00001978,-0.00000345
 ,-0.00017240,0.00013034,-0.00002240,0.00039907,-0.00066777,-0.00279551
 ,0.00067793,-0.00592445,-0.00027899,0.00000395,-0.00021847,-0.08138915
 ,0.00881298,-0.08317999,-0.01208158,0.00541363,-0.02748575,0.00000569,
 0.00000005,0.00001248,-0.00001400,0.00000068,0.00001087,0.,0.00000064,
 -0.00000624,-0.00000250,-0.00000150,0.00000116,-0.00000079,0.00000081,
 0.00000131,0.00000220,0.00000285,0.,-0.00000870,-0.00000484,0.00000174
 ,0.00002088,0.00000210,0.00000642,-0.00000362,-0.00001229,0.00000861,0
 .00007719,-0.00002213,0.00014714,-0.00017191,-0.00024637,0.00010252,0.
 00060120,-0.00106241,-0.00053150,0.00038445,-0.00013060,0.00042018,-0.
 00004031,-0.00002346,-0.00001340,0.00908993,-0.00209827,0.02088666,0.0
 8641991,-0.00011425,0.00001604,0.00002433,-0.00000267,0.00000170,0.000
 00295,-0.00149012,0.00119835,-0.00137058,0.00000239,0.00000200,0.00000
 172,-0.00001034,-0.00000818,0.00000781,0.00010073,0.00027612,0.0001254
 3,0.00072265,0.00157481,-0.00062425,-0.01135467,0.00205309,-0.02995933
 ,-0.00005467,-0.00056923,-0.00018665,0.00977842,-0.05075026,0.02874940
 ,0.00771917,-0.00507646,0.02145810,-0.00000287,0.00000708,-0.00000173,
 0.00001329,-0.00000059,-0.00000648,0.00001164,-0.00000172,0.00000517,0
 .00000267,0.00000118,-0.00000086,0.00000072,-0.00000103,-0.00000098,-0
 .00000011,-0.00000450,0.00000038,0.00000650,0.00000107,-0.00000014,-0.
 00002256,0.00000125,0.00000048,0.00000395,0.00000845,-0.00000831,0.000
 37871,0.00001121,0.00023669,-0.00000433,-0.00012845,0.00061329,-0.0018
 8129,-0.00523093,-0.00230927,0.00059342,0.00136283,0.00062104,-0.00003
 511,0.00011388,0.00003538,0.00586770,-0.00234464,0.01259657,-0.0133258
 3,0.05840461,0.00019264,-0.00004070,0.00006555,0.00001912,-0.00001201,
 -0.00000705,-0.00099807,-0.00098690,0.00119246,-0.00000060,0.00001567,
 -0.00001542,-0.00002483,-0.00000746,0.00000346,-0.00028831,0.00000724,
 -0.00014664,0.00053184,0.00067797,0.00067827,-0.00417376,0.00039120,-0
 .01360392,0.00007411,0.00013075,0.00013931,-0.08513564,0.02943794,-0.2
 7173994,0.00153558,0.00049617,0.00058987,0.00000062,0.00001543,0.00000
 064,-0.00004472,0.00000170,0.00001777,-0.00002466,0.00000320,-0.000015
 23,-0.00000657,-0.00000009,0.00000003,-0.00000222,0.00000266,0.0000027
 1,0.00000837,0.00000898,0.00000252,-0.00001614,-0.00000675,0.00000319,
 0.00001676,-0.00001176,-0.00000511,-0.00000490,0.00000177,-0.00000469,
 0.00008871,-0.00015947,0.00026528,-0.00051153,-0.00018373,0.00040899,-
 0.00039689,-0.00284828,0.00038261,0.00035461,-0.00004807,0.00046544,-0
 .00009527,0.00001837,-0.00004701,-0.00598309,0.00189523,-0.01547979,0.
 09468298,-0.02934354,0.29485275,0.00054251,-0.00007821,0.00012088,0.00
 005607,-0.00004251,-0.00002074,-0.01234780,-0.03145863,-0.00926121,0.0
 0000979,0.00000125,-0.00003315,-0.00007439,-0.00002617,0.00005408,-0.0
 0033563,-0.00017056,-0.00052629,-0.00052787,-0.00044118,-0.00003660,-0
 .00546054,0.00243680,-0.00058036,-0.00263725,0.00082325,0.00429081,0.0
 0691222,0.02529798,0.01394260,-0.05417242,-0.03201114,-0.02110107,0.00
 000305,0.00003211,-0.00000577,-0.00013479,0.00001274,0.00002557,-0.000
 07430,0.00001747,-0.00004254,-0.00002038,0.00000211,-0.00000049,-0.000
 00658,0.00000719,0.00000833,0.00000779,0.00005105,-0.00000050,-0.00005
 500,-0.00000161,0.00000606,0.00003701,-0.00003474,-0.00003932,0.000000
 61,0.00000995,-0.00001666,0.00030418,-0.00007493,-0.00009716,0.0000825
 8,0.00000889,-0.00006027,-0.00002883,-0.00016035,0.00008383,0.00038260
 ,0.00183631,0.00059501,-0.00029669,-0.00128801,-0.00038103,0.00077473,
 -0.00113941,-0.00000669,0.00117671,-0.00085494,-0.00034491,0.06679911,
 0.00041922,-0.00002682,0.00004239,0.00004828,-0.00003632,-0.00002026,-
 0.01049547,-0.01877063,-0.00416506,0.00004170,0.00000928,-0.00001397,-
 0.00008507,-0.00000855,0.00005508,-0.00022448,0.00024346,-0.00080521,-
 0.00007845,0.00038016,-0.00019510,0.00403025,-0.00033557,0.00052556,-0
 .00069331,0.00249636,0.00419321,-0.00221407,-0.01472607,-0.00943721,-0
 .03724339,-0.24586589,-0.11100595,0.00000086,0.00002075,-0.00001801,-0
 .00012223,0.00001006,0.00001644,-0.00007348,0.00001056,-0.00003355,-0.
 00001848,0.00000102,0.00000054,-0.00000515,0.00000705,0.00000712,0.000
 01765,0.00003826,0.00000537,-0.00003923,0.00000030,0.00000261,0.000050
 66,-0.00004543,-0.00004745,-0.00001173,-0.00000140,-0.00000889,0.00001
 962,-0.00008645,-0.00005230,-0.00001537,-0.00001909,0.00005532,-0.0000
 4197,0.00007724,-0.00010607,-0.00037813,-0.00102929,-0.00042570,-0.000
 24118,-0.00080833,-0.00034608,0.00028644,0.00026666,-0.00012277,-0.000
 58909,0.00059477,0.00046257,0.04634978,0.27057905,0.00014583,-0.000139
 37,0.00014479,-0.00000031,0.00001359,0.00000024,0.00877647,0.02302488,
 0.00969346,-0.00010271,0.00003229,-0.00006230,-0.00004441,0.00001092,-
 0.00001485,-0.00041748,-0.00065570,0.00116347,0.00031576,0.00016700,-0
 .00013521,0.00071286,-0.00008287,0.00102249,0.00205611,0.00113043,-0.0
 0349595,-0.00125545,0.00148911,0.00013599,-0.02666602,-0.12018752,-0.1
 1846430,0.00000180,0.00000705,0.00000563,0.00002300,-0.00000712,0.0000
 3593,0.00001268,-0.00000351,-0.00000587,0.00000292,-0.00000621,0.00000
 075,-0.00000074,-0.00000088,0.00000071,-0.00000079,-0.00000771,0.00000
 017,-0.00001620,-0.00002484,0.00001241,-0.00000197,0.00000516,-0.00001
 123,0.00000335,-0.00001133,0.00000938,-0.00014556,0.00001747,0.0000593
 6,0.00000093,-0.00001662,0.00002538,0.00004305,0.00037687,0.00029256,-
 0.00009867,-0.00036325,0.00017971,0.00022690,0.00079544,0.00023637,0.0
 0018692,-0.00016348,0.00000054,0.00063613,0.00016024,0.00067078,0.0196
 9463,0.11952399,0.12104364,0.00017423,-0.00020699,0.00004804,0.0000233
 4,-0.00002135,-0.00000416,0.00156284,-0.01224597,0.03257149,0.00000405
 ,0.00001532,0.00001229,0.00015066,0.00005932,-0.00005425,-0.00151700,-
 0.00067960,-0.00097720,-0.00022378,-0.00020020,-0.00008039,0.00077578,
 -0.00136918,-0.00018519,0.00182455,0.00227716,0.00186141,-0.01056356,0
 .00565599,-0.02640843,-0.08003463,0.01828971,-0.08683308,-0.00001546,0
 .00002721,0.00001786,-0.00006179,0.00000554,0.00001896,-0.00003821,0.0
 0001295,-0.00003644,-0.00000986,0.00000220,-0.00000371,-0.00000117,0.0
 0000330,0.00000158,0.00001443,0.00001086,0.00000397,-0.00001402,-0.000
 00687,-0.00000040,0.00011546,-0.00003647,0.00003361,-0.00001222,-0.000
 00253,-0.00003372,0.00017269,-0.00006481,-0.00008218,-0.00006384,-0.00
 002235,0.00003931,0.00024366,0.00033367,0.00056267,0.00002132,-0.00021
 195,0.00028110,-0.00013787,-0.00002772,-0.00025048,0.00081534,-0.00066
 975,0.00028689,-0.00389433,0.00394789,0.00055900,-0.00087881,0.0013429
 7,-0.00408099,0.09157163,-0.00046429,0.00011124,-0.00004683,-0.0000127
 1,0.00000217,0.00000664,-0.00396116,-0.00598584,0.01993797,0.00008844,
 -0.00001942,0.00008357,0.00000866,-0.00001639,0.00008965,-0.00036952,-
 0.00001461,-0.00107475,-0.00017277,-0.00044329,-0.00009863,-0.00040181
 ,0.00106116,0.00126744,0.00152396,0.00124959,0.00341489,0.00882136,-0.
 00330739,0.01805737,0.01743520,-0.06218278,0.03623220,-0.00000345,-0.0
 0003507,-0.00005404,0.00002494,-0.00000817,-0.00005072,0.00002893,-0.0
 0001407,0.00001599,0.00000334,0.00000504,-0.00000150,0.00000347,-0.000
 00180,-0.00000334,-0.00000245,-0.00001059,-0.00000084,0.00003678,0.000
 02697,-0.00001501,0.00002076,-0.00003329,-0.00002693,0.00001323,0.0000
 1960,-0.00001127,0.00003560,-0.00008426,-0.00004443,-0.00003023,0.0000
 9490,-0.00006730,-0.00006396,-0.00014646,-0.00048405,-0.00009691,0.000
 18362,-0.00029868,-0.00008681,-0.00008723,-0.00027984,-0.00030244,0.00
 064270,-0.00034980,0.00324247,-0.00151230,0.00008175,-0.00910502,0.007
 02358,-0.02508301,-0.01622087,0.06348110,0.00007663,-0.00012705,0.0002
 3564,-0.00003195,0.00002507,0.00000101,0.00933279,0.01353835,-0.020981
 32,-0.00013854,0.00000174,-0.00006502,0.00009494,0.00004096,-0.0002001
 2,-0.00094510,-0.00140445,0.00262748,0.00029821,0.00031677,0.00038947,
 0.00047807,0.00014667,0.00071144,-0.00204705,-0.00398489,-0.00380322,-
 0.00067746,-0.00149607,0.00203209,-0.08270289,0.04162920,-0.26365167,0
 .00000656,-0.00001087,0.00008518,0.00005681,0.00000167,0.00003354,0.00
 009585,0.00000213,-0.00003136,0.00000610,-0.00000854,0.00000270,0.,-0.
 00000102,-0.00000112,-0.00000085,-0.00000913,-0.00000498,-0.00001301,-
 0.00002541,0.00000724,0.00001101,0.00005084,0.00004666,0.00002398,-0.0
 0006439,0.00003698,-0.00012359,0.00016502,0.00006930,0.00000837,-0.000
 05759,-0.00001149,-0.00001193,0.00061196,-0.00007039,-0.00003600,0.000
 07247,0.00010467,0.00012557,0.00027474,0.00018913,-0.00081933,0.000418
 37,0.00025605,0.00044282,-0.00082679,0.00132274,-0.00626630,0.00191280
 ,-0.01254623,0.08273413,-0.05119460,0.29321581,0.00072312,-0.00089434,
 -0.00152418,0.00136817,0.00153780,0.01034710,-0.00070587,0.00030551,-0
 .00003390,-0.00007645,-0.00016640,-0.00044329,-0.01638131,-0.00785048,
 -0.03120841,0.00049890,0.,0.00046804,0.00002315,-0.00000938,0.00008332
 ,-0.00001316,0.00000640,-0.00001998,0.00013689,-0.00052882,-0.00027026
 ,-0.00003432,-0.00003447,0.00004075,0.00018343,0.00018954,-0.00013808,
 -0.09036725,-0.02321857,-0.09436345,0.00025368,0.00030109,-0.00005063,
 -0.00017499,0.00035971,0.00055754,0.00093798,0.00051763,0.00029815,0.0
 0032539,-0.00171287,0.00180070,0.00006970,0.00001920,0.00016747,0.0002
 0014,0.00036140,-0.00007384,-0.00623943,0.00007760,0.00171926,0.001191
 10,-0.00026854,0.00042786,-0.00001197,0.00002028,0.00000529,0.00001129
 ,-0.00000967,-0.00000046,0.00000081,-0.00000124,0.00000420,-0.00000968
 ,0.00000342,0.00000581,-0.00002080,-0.00003533,0.00005026,-0.00002576,
 0.00001198,0.00000824,0.00000051,0.00000261,-0.00000301,-0.00001250,-0
 .00001726,-0.00000063,0.00000427,-0.00001301,0.00002250,0.10280572,0.0
 0109461,-0.00000237,0.00087420,0.00877582,0.00586786,0.02199085,-0.000
 17243,-0.00004553,-0.00006429,0.00013823,-0.00039465,0.00029703,-0.000
 82028,-0.00073854,-0.00178532,-0.00039609,0.00013030,-0.00019416,-0.00
 000381,0.00000258,-0.00001948,0.00000130,0.00000527,-0.00000768,0.0001
 3230,-0.00007349,0.00021746,-0.00000445,-0.00000672,0.00001053,0.00005
 267,0.00004278,-0.00004062,-0.02448712,-0.06560974,-0.05715323,-0.0001
 6839,-0.00074291,0.00025626,-0.00026036,0.00023236,-0.00013949,0.00057
 707,0.00127767,-0.00064528,-0.00065599,-0.00202478,0.00287442,-0.00001
 974,0.00010189,-0.00006232,0.00037023,-0.00083592,-0.00003713,-0.00026
 820,0.00083842,0.00059073,0.00004698,-0.00006839,-0.00012368,-0.000003
 79,0.00000049,-0.00000100,-0.00001488,0.00000650,-0.00000474,0.0000028
 4,-0.00000035,-0.00000201,-0.00000752,0.00000022,0.00000155,0.00000954
 ,-0.00000691,-0.00000685,-0.00000756,0.00000155,0.00000263,-0.00000091
 ,0.00000130,-0.00000204,-0.00000729,-0.00000586,-0.00000111,0.00000064
 ,0.00000300,0.00000435,0.02873851,0.06880254,0.00026290,-0.00043477,0.
 00101351,-0.00651511,-0.00709662,-0.02008280,-0.00007797,-0.00009823,-
 0.00004509,-0.00017423,-0.00092513,-0.00124160,0.00078333,0.00124631,0
 .00449319,-0.00040533,0.00020266,0.00006775,-0.00000658,-0.00000052,-0
 .00000217,0.00000135,0.00000656,-0.00000386,0.00019588,-0.00002046,0.0
 0015029,-0.00000237,-0.00000355,0.00000441,0.00003339,0.00002023,-0.00
 002162,-0.09269864,-0.05474534,-0.25116614,-0.00049695,0.00197690,0.00
 018218,-0.00051916,0.00047644,-0.00010783,0.00001313,-0.00004564,0.001
 54159,0.00083739,0.00352454,-0.00177270,0.00009052,0.00014160,0.000239
 67,0.00040237,0.00001632,0.00039730,0.00119366,-0.00024910,0.00098787,
 -0.00070353,0.00004629,0.00031551,-0.00000134,-0.00000081,-0.00000087,
 -0.00000908,0.00000248,-0.00000509,0.00000208,-0.00000058,-0.00000178,
 -0.00000618,0.00000038,0.00000056,0.00002677,0.00000051,-0.00000850,-0
 .00000447,0.00000008,0.00000110,-0.00000096,0.00000056,-0.00000171,-0.
 00000579,-0.00000397,-0.00000073,-0.00000240,0.00000256,0.00000032,0.1
 0108251,0.05849245,0.27325608,-0.00465546,-0.00369484,-0.00149813,0.00
 232945,-0.00625215,-0.00268187,-0.00023188,-0.00031393,-0.00020252,-0.
 00060681,-0.00073787,0.00021943,-0.01189522,0.03111118,0.01094617,-0.0
 0276907,0.00252429,0.00034102,-0.00004752,-0.00004937,-0.00018239,0.00
 001430,0.00003453,-0.00002003,0.00058273,0.00011066,0.00126808,-0.0000
 0187,-0.00000219,0.00002228,0.00014276,0.00006988,-0.00005606,-0.08231
 724,0.08780394,0.02734822,0.00065937,-0.00077608,0.00035757,0.00008461
 ,0.00006943,0.00028756,-0.00092172,0.00038378,0.00001325,0.00103518,0.
 00006504,-0.00018291,0.00006237,0.00006264,-0.00007043,0.00026025,0.00
 006867,-0.00000193,0.00142287,-0.00017053,-0.00060765,0.00167900,-0.00
 046628,0.00013838,0.00000704,-0.00001435,-0.00000100,-0.00009150,0.000
 04072,-0.00002733,0.00001722,-0.00000302,-0.00001566,-0.00003209,-0.00
 000080,0.00000288,0.00000119,-0.00001111,-0.00007757,-0.00001888,-0.00
 000502,0.00000360,-0.00000380,0.00000129,-0.00000919,-0.00002520,-0.00
 001990,-0.00000742,-0.00000768,0.00002027,-0.00000034,0.00533921,-0.01
 264192,-0.00329519,0.08998840,-0.00140495,0.00068659,0.00022531,0.0084
 1329,-0.01654707,-0.00777728,0.00012455,0.00004296,0.00002226,-0.00085
 082,0.00070657,0.00093583,-0.00194736,0.00487496,0.00204127,-0.0002598
 9,0.00024314,0.00015669,0.00000788,0.00002757,-0.00000181,0.00000341,-
 0.00001311,0.00000746,-0.00011658,-0.00005518,-0.00005974,0.00000255,0
 .00000329,-0.00000875,-0.00004853,-0.00002763,0.00003019,0.08976688,-0
 .26179404,-0.06882349,0.00013419,-0.00387281,0.00240649,0.00005940,0.0
 0007053,0.00000725,-0.00078126,-0.00046650,0.00082798,0.00050237,0.001
 53445,-0.00003146,0.00010389,-0.00002756,-0.00001530,0.00014363,0.0000
 1443,-0.00002111,0.00047799,0.00004211,-0.00002062,0.00056518,0.000500
 33,-0.00007512,-0.00000244,-0.00000055,-0.00000043,0.00001043,-0.00000
 467,0.00000159,-0.00000135,0.00000140,0.00000041,0.00000969,0.00000088
 ,-0.00000357,-0.00003072,0.00001077,-0.00003742,0.00000675,0.00000053,
 -0.00000166,0.00000144,-0.00000147,0.00000222,0.00000780,0.00000713,0.
 00000008,0.00000186,-0.00000170,-0.00000231,0.00230770,-0.00675858,-0.
 00253216,-0.09720696,0.28080322,0.00090041,0.00062990,0.00090111,-0.00
 994301,0.01920209,0.00574498,0.00008722,0.00003535,0.00005497,0.000537
 95,-0.00065167,-0.00151301,0.00074893,-0.00237465,-0.00195460,0.000490
 26,-0.00046731,0.00017876,0.00000999,0.00000796,0.00007189,-0.00000736
 ,-0.00000410,0.00000398,-0.00005141,-0.00001832,-0.00033133,0.00000148
 ,0.00000127,-0.00000671,-0.00004297,-0.00002716,0.00001680,0.02890363,
 -0.07065656,-0.06921006,-0.00089577,0.00600873,-0.00288987,-0.00024520
 ,0.00022626,0.00010416,0.00104227,0.00018426,-0.00004021,-0.00089666,0
 .00009670,0.00119581,-0.00000805,0.00006199,0.00025845,0.00019944,0.00
 011101,0.00030088,0.00014984,0.00035131,0.00028820,-0.00008221,-0.0001
 3260,-0.00002027,-0.00000193,0.00000053,-0.00000163,0.00002507,-0.0000
 1498,0.00000520,-0.00000373,0.00000089,0.00000345,0.00000648,-0.000000
 52,-0.00000070,0.00003309,0.00000437,0.00003298,0.00000545,0.00000061,
 -0.00000126,0.00000075,-0.00000063,0.00000214,0.00000505,0.00000455,0.
 00000292,0.00000072,-0.00000448,-0.00000052,0.01104112,-0.02532202,-0.
 00818885,-0.03201082,0.07274720,0.07499232\\0.00032787,0.00144524,-0.0
 0162939,0.00002115,-0.00001426,-0.00000061,0.00000034,0.00002221,-0.00
 001333,-0.00001314,-0.00000469,0.00002181,-0.00015785,-0.00055828,0.00
 115880,-0.00034523,-0.00230816,0.00039452,0.00001886,-0.00001003,0.000
 00255,0.00000267,-0.00000429,0.00000374,0.00017960,0.00143687,0.000060
 64,0.00000287,-0.00000163,-0.00000129,-0.00002115,-0.00001941,0.000019
 01,-0.00001021,0.00000352,0.00000693,-0.00000542,0.00000074,-0.0000159
 2,-0.00000110,0.00000058,-0.00000004,-0.00000577,0.00000128,0.00000439
 ,-0.00000084,0.00000177,0.00000321,0.00000204,-0.00000147,-0.00000277,
 0.00000150,-0.00000186,0.00000086,0.00000446,-0.00000213,0.00000597,0.
 00000056,-0.00000032,0.00000522,-0.00000525,0.00000077,-0.00000224,-0.
 00000045,0.00000281,-0.00000571,-0.00000264,-0.00000025,-0.00000198,0.
 00000124,0.00000274,-0.00000587,0.00000239,0.00000220,0.00000204,-0.00
 000176,0.00000600,-0.00000281,0.00000115,-0.00000032,-0.00000351,0.000
 00152,0.00000220,-0.00000128,0.00000246,0.00000336,-0.00000522,0.00000
 252,-0.00000143,0.00000131,-0.00000240,-0.00000374,0.00000095\\\@


 A MATHEMATICIAN IS A MACHINE FOR TURNING COFFEE INTO THEOREMS.
     -- QUOTED BY PAUL ERDOS
 Job cpu time:       0 days 14 hours 43 minutes 29.3 seconds.
 Elapsed time:       0 days  0 hours 55 minutes 15.1 seconds.
 File lengths (MBytes):  RWF=    684 Int=      0 D2E=      0 Chk=     33 Scr=      1
 Normal termination of Gaussian 16 at Sun Nov  4 22:55:01 2018.
