 Entering Gaussian System, Link 0=g16
 Initial command:
 /apps/gaussian/g16a03/g16/l1.exe "/jobfs/local/2012010.r-man2/Gau-28619.inp" -scrdir="/jobfs/local/2012010.r-man2/"
 Entering Link 1 = /apps/gaussian/g16a03/g16/l1.exe PID=     28620.
  
 Copyright (c) 1988,1990,1992,1993,1995,1998,2003,2009,2016,
            Gaussian, Inc.  All Rights Reserved.
  
 This is part of the Gaussian(R) 16 program.  It is based on
 the Gaussian(R) 09 system (copyright 2009, Gaussian, Inc.),
 the Gaussian(R) 03 system (copyright 2003, Gaussian, Inc.),
 the Gaussian(R) 98 system (copyright 1998, Gaussian, Inc.),
 the Gaussian(R) 94 system (copyright 1995, Gaussian, Inc.),
 the Gaussian 92(TM) system (copyright 1992, Gaussian, Inc.),
 the Gaussian 90(TM) system (copyright 1990, Gaussian, Inc.),
 the Gaussian 88(TM) system (copyright 1988, Gaussian, Inc.),
 the Gaussian 86(TM) system (copyright 1986, Carnegie Mellon
 University), and the Gaussian 82(TM) system (copyright 1983,
 Carnegie Mellon University). Gaussian is a federally registered
 trademark of Gaussian, Inc.
  
 This software contains proprietary and confidential information,
 including trade secrets, belonging to Gaussian, Inc.
  
 This software is provided under written license and may be
 used, copied, transmitted, or stored only in accord with that
 written license.
  
 The following legend is applicable only to US Government
 contracts under FAR:
  
                    RESTRICTED RIGHTS LEGEND
  
 Use, reproduction and disclosure by the US Government is
 subject to restrictions as set forth in subparagraphs (a)
 and (c) of the Commercial Computer Software - Restricted
 Rights clause in FAR 52.227-19.
  
 Gaussian, Inc.
 340 Quinnipiac St., Bldg. 40, Wallingford CT 06492
  
  
 ---------------------------------------------------------------
 Warning -- This program may not be used in any manner that
 competes with the business of Gaussian, Inc. or will provide
 assistance to any competitor of Gaussian, Inc.  The licensee
 of this program is prohibited from giving any competitor of
 Gaussian, Inc. access to this program.  By using this program,
 the user acknowledges that Gaussian, Inc. is engaged in the
 business of creating and licensing software in the field of
 computational chemistry and represents and warrants to the
 licensee that it is not a competitor of Gaussian, Inc. and that
 it will not use this program in any manner prohibited above.
 ---------------------------------------------------------------
  

 Cite this work as:
 Gaussian 16, Revision A.03,
 M. J. Frisch, G. W. Trucks, H. B. Schlegel, G. E. Scuseria, 
 M. A. Robb, J. R. Cheeseman, G. Scalmani, V. Barone, 
 G. A. Petersson, H. Nakatsuji, X. Li, M. Caricato, A. V. Marenich, 
 J. Bloino, B. G. Janesko, R. Gomperts, B. Mennucci, H. P. Hratchian, 
 J. V. Ortiz, A. F. Izmaylov, J. L. Sonnenberg, D. Williams-Young, 
 F. Ding, F. Lipparini, F. Egidi, J. Goings, B. Peng, A. Petrone, 
 T. Henderson, D. Ranasinghe, V. G. Zakrzewski, J. Gao, N. Rega, 
 G. Zheng, W. Liang, M. Hada, M. Ehara, K. Toyota, R. Fukuda, 
 J. Hasegawa, M. Ishida, T. Nakajima, Y. Honda, O. Kitao, H. Nakai, 
 T. Vreven, K. Throssell, J. A. Montgomery, Jr., J. E. Peralta, 
 F. Ogliaro, M. J. Bearpark, J. J. Heyd, E. N. Brothers, K. N. Kudin, 
 V. N. Staroverov, T. A. Keith, R. Kobayashi, J. Normand, 
 K. Raghavachari, A. P. Rendell, J. C. Burant, S. S. Iyengar, 
 J. Tomasi, M. Cossi, J. M. Millam, M. Klene, C. Adamo, R. Cammi, 
 J. W. Ochterski, R. L. Martin, K. Morokuma, O. Farkas, 
 J. B. Foresman, and D. J. Fox, Gaussian, Inc., Wallingford CT, 2016.
 
 ******************************************
 Gaussian 16:  ES64L-G16RevA.03 25-Dec-2016
                 4-Nov-2018 
 ******************************************
 %mem=6000mb
 %nproc=24
 Will use up to   24 processors via shared memory.
 %chk=D_a1-4_2SO_PSI.inp_extract_0.chk
 ----------------------------------------------------------------------
 #M062X/6-311++G(2d,2p) opt=ModRedundant freq=noraman SCRF=(Solvent=Wat
 er)
 ----------------------------------------------------------------------
 1/18=120,19=15,26=3,38=1/1,3;
 2/9=110,12=2,17=6,18=5,40=1/2;
 3/5=4,6=6,7=1212,11=2,25=1,30=1,70=2201,71=1,72=1,74=-55/1,2,3;
 4//1;
 5/5=2,38=5,53=1/2;
 6/7=2,8=2,9=2,10=2,28=1/1;
 7//1,2,3,16;
 1/18=20,19=15,26=3/3(2);
 2/9=110/2;
 99//99;
 2/9=110/2;
 3/5=4,6=6,7=1212,11=2,25=1,30=1,70=2205,71=1,72=1,74=-55/1,2,3;
 4/5=5,16=3,69=1/1;
 5/5=2,38=5,53=1/2;
 7//1,2,3,16;
 1/18=20,19=15,26=3/3(-5);
 2/9=110/2;
 6/7=2,8=2,9=2,10=2,19=2,28=1/1;
 99/9=1/99;
 ----------------------------
 D_a1-4_2SO_PSI.inp_extract_0
 ----------------------------
 Symbolic Z-matrix:
 Charge =  0 Multiplicity = 1
 C                     0.99697   0.01162  -0.478 
 C                     3.78686  -0.32322   0.46987 
 O                    -1.81525   0.30888  -1.29114 
 C                     1.71258  -1.29197  -0.12557 
 C                     1.93463   1.2027   -0.23867 
 O                    -0.17253   0.11067   0.32352 
 C                    -2.21198   1.15388   0.93852 
 C                    -3.00241  -0.1098    1.28218 
 C                    -1.20663   0.90728  -0.1755 
 C                    -3.60134  -0.70529   0.00784 
 C                    -2.51864  -0.90075  -1.04027 
 C                     3.37877   0.78298  -0.50873 
 O                     2.66959  -1.09255   0.89118 
 H                     0.70153  -0.03603  -1.51866 
 H                     4.52614  -0.98384   0.02672 
 H                     4.20595   0.09993   1.37301 
 H                     1.006    -2.02265   0.24042 
 H                     2.19893  -1.70006  -1.00629 
 H                     1.83651   1.51899   0.79554 
 H                     1.65455   2.04372  -0.8628 
 H                    -1.68861   1.54438   1.80459 
 H                    -2.89481   1.92574   0.59421 
 H                    -2.35244  -0.8399    1.7568 
 H                    -3.78486   0.129     1.99594 
 H                    -0.80702   1.84034  -0.54629 
 H                    -4.07685  -1.6611    0.20898 
 H                    -4.36407  -0.03808  -0.38706 
 H                    -2.93764  -1.19512  -1.99258 
 H                    -1.81693  -1.66722  -0.72882 
 H                     3.47222   0.43687  -1.53411 
 H                     4.0541    1.62445  -0.39808 
 
 The following ModRedundant input section has been read:
 D       5       1       6       9 F                                           
 

 GradGradGradGradGradGradGradGradGradGradGradGradGradGradGradGradGradGrad
 Berny optimization.
 Initialization pass.
                           ----------------------------
                           !    Initial Parameters    !
                           ! (Angstroms and Degrees)  !
 --------------------------                            --------------------------
 ! Name  Definition              Value          Derivative Info.                !
 --------------------------------------------------------------------------------
 ! R1    R(1,4)                  1.5283         estimate D2E/DX2                !
 ! R2    R(1,5)                  1.5346         estimate D2E/DX2                !
 ! R3    R(1,6)                  1.4213         estimate D2E/DX2                !
 ! R4    R(1,14)                 1.0828         estimate D2E/DX2                !
 ! R5    R(2,12)                 1.5323         estimate D2E/DX2                !
 ! R6    R(2,13)                 1.4204         estimate D2E/DX2                !
 ! R7    R(2,15)                 1.086          estimate D2E/DX2                !
 ! R8    R(2,16)                 1.0818         estimate D2E/DX2                !
 ! R9    R(3,9)                  1.4047         estimate D2E/DX2                !
 ! R10   R(3,11)                 1.4216         estimate D2E/DX2                !
 ! R11   R(4,13)                 1.4105         estimate D2E/DX2                !
 ! R12   R(4,17)                 1.0803         estimate D2E/DX2                !
 ! R13   R(4,18)                 1.0857         estimate D2E/DX2                !
 ! R14   R(5,12)                 1.528          estimate D2E/DX2                !
 ! R15   R(5,19)                 1.0859         estimate D2E/DX2                !
 ! R16   R(5,20)                 1.0841         estimate D2E/DX2                !
 ! R17   R(6,9)                  1.3975         estimate D2E/DX2                !
 ! R18   R(7,8)                  1.5296         estimate D2E/DX2                !
 ! R19   R(7,9)                  1.5207         estimate D2E/DX2                !
 ! R20   R(7,21)                 1.0847         estimate D2E/DX2                !
 ! R21   R(7,22)                 1.0865         estimate D2E/DX2                !
 ! R22   R(8,10)                 1.5288         estimate D2E/DX2                !
 ! R23   R(8,23)                 1.0866         estimate D2E/DX2                !
 ! R24   R(8,24)                 1.0857         estimate D2E/DX2                !
 ! R25   R(9,25)                 1.0806         estimate D2E/DX2                !
 ! R26   R(10,11)                1.5195         estimate D2E/DX2                !
 ! R27   R(10,26)                1.0863         estimate D2E/DX2                !
 ! R28   R(10,27)                1.0876         estimate D2E/DX2                !
 ! R29   R(11,28)                1.0813         estimate D2E/DX2                !
 ! R30   R(11,29)                1.0848         estimate D2E/DX2                !
 ! R31   R(12,30)                1.0862         estimate D2E/DX2                !
 ! R32   R(12,31)                1.0846         estimate D2E/DX2                !
 ! A1    A(4,1,5)              109.8743         estimate D2E/DX2                !
 ! A2    A(4,1,6)              108.3426         estimate D2E/DX2                !
 ! A3    A(4,1,14)             108.1702         estimate D2E/DX2                !
 ! A4    A(5,1,6)              111.1451         estimate D2E/DX2                !
 ! A5    A(5,1,14)             110.5322         estimate D2E/DX2                !
 ! A6    A(6,1,14)             108.6955         estimate D2E/DX2                !
 ! A7    A(12,2,13)            111.7746         estimate D2E/DX2                !
 ! A8    A(12,2,15)            111.0915         estimate D2E/DX2                !
 ! A9    A(12,2,16)            110.73           estimate D2E/DX2                !
 ! A10   A(13,2,15)            109.0876         estimate D2E/DX2                !
 ! A11   A(13,2,16)            105.6008         estimate D2E/DX2                !
 ! A12   A(15,2,16)            108.3541         estimate D2E/DX2                !
 ! A13   A(9,3,11)             115.8943         estimate D2E/DX2                !
 ! A14   A(1,4,13)             111.3059         estimate D2E/DX2                !
 ! A15   A(1,4,17)             110.4133         estimate D2E/DX2                !
 ! A16   A(1,4,18)             110.0787         estimate D2E/DX2                !
 ! A17   A(13,4,17)            107.1685         estimate D2E/DX2                !
 ! A18   A(13,4,18)            109.5091         estimate D2E/DX2                !
 ! A19   A(17,4,18)            108.2744         estimate D2E/DX2                !
 ! A20   A(1,5,12)             109.6773         estimate D2E/DX2                !
 ! A21   A(1,5,19)             108.6248         estimate D2E/DX2                !
 ! A22   A(1,5,20)             110.7606         estimate D2E/DX2                !
 ! A23   A(12,5,19)            109.4958         estimate D2E/DX2                !
 ! A24   A(12,5,20)            110.8252         estimate D2E/DX2                !
 ! A25   A(19,5,20)            107.3966         estimate D2E/DX2                !
 ! A26   A(1,6,9)              116.5673         estimate D2E/DX2                !
 ! A27   A(8,7,9)              111.8538         estimate D2E/DX2                !
 ! A28   A(8,7,21)             111.5536         estimate D2E/DX2                !
 ! A29   A(8,7,22)             109.4703         estimate D2E/DX2                !
 ! A30   A(9,7,21)             108.924          estimate D2E/DX2                !
 ! A31   A(9,7,22)             107.3688         estimate D2E/DX2                !
 ! A32   A(21,7,22)            107.4887         estimate D2E/DX2                !
 ! A33   A(7,8,10)             109.6917         estimate D2E/DX2                !
 ! A34   A(7,8,23)             110.1273         estimate D2E/DX2                !
 ! A35   A(7,8,24)             109.7799         estimate D2E/DX2                !
 ! A36   A(10,8,23)            109.6761         estimate D2E/DX2                !
 ! A37   A(10,8,24)            110.5692         estimate D2E/DX2                !
 ! A38   A(23,8,24)            106.9608         estimate D2E/DX2                !
 ! A39   A(3,9,6)              111.185          estimate D2E/DX2                !
 ! A40   A(3,9,7)              111.3741         estimate D2E/DX2                !
 ! A41   A(3,9,25)             104.8049         estimate D2E/DX2                !
 ! A42   A(6,9,7)              108.666          estimate D2E/DX2                !
 ! A43   A(6,9,25)             109.9423         estimate D2E/DX2                !
 ! A44   A(7,9,25)             110.8435         estimate D2E/DX2                !
 ! A45   A(8,10,11)            110.2374         estimate D2E/DX2                !
 ! A46   A(8,10,26)            111.0915         estimate D2E/DX2                !
 ! A47   A(8,10,27)            109.7821         estimate D2E/DX2                !
 ! A48   A(11,10,26)           109.051          estimate D2E/DX2                !
 ! A49   A(11,10,27)           109.1569         estimate D2E/DX2                !
 ! A50   A(26,10,27)           107.4588         estimate D2E/DX2                !
 ! A51   A(3,11,10)            111.3964         estimate D2E/DX2                !
 ! A52   A(3,11,28)            105.5435         estimate D2E/DX2                !
 ! A53   A(3,11,29)            109.3786         estimate D2E/DX2                !
 ! A54   A(10,11,28)           111.4941         estimate D2E/DX2                !
 ! A55   A(10,11,29)           110.7164         estimate D2E/DX2                !
 ! A56   A(28,11,29)           108.1292         estimate D2E/DX2                !
 ! A57   A(2,12,5)             109.7032         estimate D2E/DX2                !
 ! A58   A(2,12,30)            110.4828         estimate D2E/DX2                !
 ! A59   A(2,12,31)            109.2147         estimate D2E/DX2                !
 ! A60   A(5,12,30)            109.6138         estimate D2E/DX2                !
 ! A61   A(5,12,31)            110.9375         estimate D2E/DX2                !
 ! A62   A(30,12,31)           106.8544         estimate D2E/DX2                !
 ! A63   A(2,13,4)             113.3561         estimate D2E/DX2                !
 ! D1    D(5,1,4,13)            29.8098         estimate D2E/DX2                !
 ! D2    D(5,1,4,17)           148.7052         estimate D2E/DX2                !
 ! D3    D(5,1,4,18)           -91.8052         estimate D2E/DX2                !
 ! D4    D(6,1,4,13)           -91.7883         estimate D2E/DX2                !
 ! D5    D(6,1,4,17)            27.1072         estimate D2E/DX2                !
 ! D6    D(6,1,4,18)           146.5968         estimate D2E/DX2                !
 ! D7    D(14,1,4,13)          150.5511         estimate D2E/DX2                !
 ! D8    D(14,1,4,17)          -90.5535         estimate D2E/DX2                !
 ! D9    D(14,1,4,18)           28.9361         estimate D2E/DX2                !
 ! D10   D(4,1,5,12)            32.0474         estimate D2E/DX2                !
 ! D11   D(4,1,5,19)           -87.5922         estimate D2E/DX2                !
 ! D12   D(4,1,5,20)           154.6865         estimate D2E/DX2                !
 ! D13   D(6,1,5,12)           151.9547         estimate D2E/DX2                !
 ! D14   D(6,1,5,19)            32.3151         estimate D2E/DX2                !
 ! D15   D(6,1,5,20)           -85.4062         estimate D2E/DX2                !
 ! D16   D(14,1,5,12)          -87.2583         estimate D2E/DX2                !
 ! D17   D(14,1,5,19)          153.1021         estimate D2E/DX2                !
 ! D18   D(14,1,5,20)           35.3808         estimate D2E/DX2                !
 ! D19   D(4,1,6,9)           -155.7914         estimate D2E/DX2                !
 ! D20   D(5,1,6,9)             83.3953         Frozen                          !
 ! D21   D(14,1,6,9)           -38.4672         estimate D2E/DX2                !
 ! D22   D(13,2,12,5)           27.9736         estimate D2E/DX2                !
 ! D23   D(13,2,12,30)         -92.9831         estimate D2E/DX2                !
 ! D24   D(13,2,12,31)         149.7616         estimate D2E/DX2                !
 ! D25   D(15,2,12,5)          150.08           estimate D2E/DX2                !
 ! D26   D(15,2,12,30)          29.1233         estimate D2E/DX2                !
 ! D27   D(15,2,12,31)         -88.132          estimate D2E/DX2                !
 ! D28   D(16,2,12,5)          -89.4667         estimate D2E/DX2                !
 ! D29   D(16,2,12,30)         149.5766         estimate D2E/DX2                !
 ! D30   D(16,2,12,31)          32.3213         estimate D2E/DX2                !
 ! D31   D(12,2,13,4)           36.4147         estimate D2E/DX2                !
 ! D32   D(15,2,13,4)          -86.8344         estimate D2E/DX2                !
 ! D33   D(16,2,13,4)          156.8973         estimate D2E/DX2                !
 ! D34   D(11,3,9,6)            66.1066         estimate D2E/DX2                !
 ! D35   D(11,3,9,7)           -55.2449         estimate D2E/DX2                !
 ! D36   D(11,3,9,25)         -175.1562         estimate D2E/DX2                !
 ! D37   D(9,3,11,10)           57.242          estimate D2E/DX2                !
 ! D38   D(9,3,11,28)          178.4033         estimate D2E/DX2                !
 ! D39   D(9,3,11,29)          -65.4799         estimate D2E/DX2                !
 ! D40   D(1,4,13,2)           -69.0279         estimate D2E/DX2                !
 ! D41   D(17,4,13,2)          170.1531         estimate D2E/DX2                !
 ! D42   D(18,4,13,2)           52.918          estimate D2E/DX2                !
 ! D43   D(1,5,12,2)           -62.3409         estimate D2E/DX2                !
 ! D44   D(1,5,12,30)           59.139          estimate D2E/DX2                !
 ! D45   D(1,5,12,31)          176.9079         estimate D2E/DX2                !
 ! D46   D(19,5,12,2)           56.7639         estimate D2E/DX2                !
 ! D47   D(19,5,12,30)         178.2439         estimate D2E/DX2                !
 ! D48   D(19,5,12,31)         -63.9872         estimate D2E/DX2                !
 ! D49   D(20,5,12,2)          175.0583         estimate D2E/DX2                !
 ! D50   D(20,5,12,30)         -63.4618         estimate D2E/DX2                !
 ! D51   D(20,5,12,31)          54.3072         estimate D2E/DX2                !
 ! D52   D(1,6,9,3)             70.1862         estimate D2E/DX2                !
 ! D53   D(1,6,9,7)           -166.8914         estimate D2E/DX2                !
 ! D54   D(1,6,9,25)           -45.4181         estimate D2E/DX2                !
 ! D55   D(9,7,8,10)           -51.8149         estimate D2E/DX2                !
 ! D56   D(9,7,8,23)            68.9848         estimate D2E/DX2                !
 ! D57   D(9,7,8,24)          -173.5009         estimate D2E/DX2                !
 ! D58   D(21,7,8,10)         -174.0986         estimate D2E/DX2                !
 ! D59   D(21,7,8,23)          -53.2989         estimate D2E/DX2                !
 ! D60   D(21,7,8,24)           64.2154         estimate D2E/DX2                !
 ! D61   D(22,7,8,10)           67.0622         estimate D2E/DX2                !
 ! D62   D(22,7,8,23)         -172.1381         estimate D2E/DX2                !
 ! D63   D(22,7,8,24)          -54.6238         estimate D2E/DX2                !
 ! D64   D(8,7,9,3)             51.9206         estimate D2E/DX2                !
 ! D65   D(8,7,9,6)            -70.8878         estimate D2E/DX2                !
 ! D66   D(8,7,9,25)           168.1923         estimate D2E/DX2                !
 ! D67   D(21,7,9,3)           175.6958         estimate D2E/DX2                !
 ! D68   D(21,7,9,6)            52.8874         estimate D2E/DX2                !
 ! D69   D(21,7,9,25)          -68.0326         estimate D2E/DX2                !
 ! D70   D(22,7,9,3)           -68.1938         estimate D2E/DX2                !
 ! D71   D(22,7,9,6)           168.9978         estimate D2E/DX2                !
 ! D72   D(22,7,9,25)           48.0778         estimate D2E/DX2                !
 ! D73   D(7,8,10,11)           52.8531         estimate D2E/DX2                !
 ! D74   D(7,8,10,26)          173.8545         estimate D2E/DX2                !
 ! D75   D(7,8,10,27)          -67.4304         estimate D2E/DX2                !
 ! D76   D(23,8,10,11)         -68.2192         estimate D2E/DX2                !
 ! D77   D(23,8,10,26)          52.7823         estimate D2E/DX2                !
 ! D78   D(23,8,10,27)         171.4973         estimate D2E/DX2                !
 ! D79   D(24,8,10,11)         174.0649         estimate D2E/DX2                !
 ! D80   D(24,8,10,26)         -64.9336         estimate D2E/DX2                !
 ! D81   D(24,8,10,27)          53.7814         estimate D2E/DX2                !
 ! D82   D(8,10,11,3)          -54.7356         estimate D2E/DX2                !
 ! D83   D(8,10,11,28)        -172.3562         estimate D2E/DX2                !
 ! D84   D(8,10,11,29)          67.2152         estimate D2E/DX2                !
 ! D85   D(26,10,11,3)        -176.9487         estimate D2E/DX2                !
 ! D86   D(26,10,11,28)         65.4307         estimate D2E/DX2                !
 ! D87   D(26,10,11,29)        -54.9979         estimate D2E/DX2                !
 ! D88   D(27,10,11,3)          65.9235         estimate D2E/DX2                !
 ! D89   D(27,10,11,28)        -51.697          estimate D2E/DX2                !
 ! D90   D(27,10,11,29)       -172.1257         estimate D2E/DX2                !
 --------------------------------------------------------------------------------
 Trust Radius=3.00D-01 FncErr=1.00D-07 GrdErr=1.00D-06 EigMax=2.50D+02 EigMin=1.00D-04
 Number of steps in this run=    186 maximum allowed number of steps=    186.
 GradGradGradGradGradGradGradGradGradGradGradGradGradGradGradGradGradGrad

                          Input orientation:                          
 ---------------------------------------------------------------------
 Center     Atomic      Atomic             Coordinates (Angstroms)
 Number     Number       Type             X           Y           Z
 ---------------------------------------------------------------------
      1          6           0        0.996970    0.011623   -0.477998
      2          6           0        3.786863   -0.323221    0.469865
      3          8           0       -1.815253    0.308880   -1.291137
      4          6           0        1.712577   -1.291965   -0.125571
      5          6           0        1.934629    1.202696   -0.238671
      6          8           0       -0.172534    0.110671    0.323515
      7          6           0       -2.211980    1.153881    0.938520
      8          6           0       -3.002413   -0.109801    1.282179
      9          6           0       -1.206630    0.907281   -0.175498
     10          6           0       -3.601343   -0.705289    0.007842
     11          6           0       -2.518639   -0.900752   -1.040268
     12          6           0        3.378772    0.782981   -0.508734
     13          8           0        2.669593   -1.092555    0.891184
     14          1           0        0.701529   -0.036030   -1.518663
     15          1           0        4.526140   -0.983842    0.026717
     16          1           0        4.205951    0.099925    1.373006
     17          1           0        1.006004   -2.022646    0.240415
     18          1           0        2.198929   -1.700062   -1.006288
     19          1           0        1.836505    1.518992    0.795544
     20          1           0        1.654551    2.043722   -0.862802
     21          1           0       -1.688606    1.544376    1.804594
     22          1           0       -2.894813    1.925743    0.594206
     23          1           0       -2.352437   -0.839901    1.756800
     24          1           0       -3.784855    0.129000    1.995943
     25          1           0       -0.807019    1.840341   -0.546293
     26          1           0       -4.076846   -1.661097    0.208975
     27          1           0       -4.364071   -0.038078   -0.387058
     28          1           0       -2.937644   -1.195121   -1.992578
     29          1           0       -1.816933   -1.667223   -0.728821
     30          1           0        3.472219    0.436869   -1.534108
     31          1           0        4.054104    1.624452   -0.398083
 ---------------------------------------------------------------------
                    Distance matrix (angstroms):
                    1          2          3          4          5
     1  C    0.000000
     2  C    2.965479   0.000000
     3  O    2.942474   5.906300   0.000000
     4  C    1.528280   2.365517   4.045594   0.000000
     5  C    1.534645   2.502242   3.996024   2.507076   0.000000
     6  O    1.421258   3.985788   2.311907   2.392219   2.438997
     7  C    3.688989   6.195772   2.417186   4.745166   4.310746
     8  C    4.371273   6.841028   2.864716   5.060672   5.330105
     9  C    2.397825   5.183204   1.404691   3.655263   3.155752
    10  C    4.679154   7.412491   2.430227   5.347872   5.860730
    11  C    3.675334   6.509485   1.421582   4.346597   4.989854
    12  C    2.503781   1.532278   5.273976   2.688572   1.527954
    13  O    2.427249   1.420449   5.180771   1.410473   2.661752
    14  H    1.082839   3.681848   2.550475   2.130797   2.166416
    15  H    3.701450   1.085970   6.604630   2.834478   3.401075
    16  H    3.705614   1.081828   6.587581   3.224904   2.995415
    17  H    2.157417   3.267089   3.967513   1.080317   3.390383
    18  H    2.157235   2.568317   4.497849   1.085700   3.014149
    19  H    2.144502   2.702538   4.376522   2.960623   1.085943
    20  H    2.170233   3.453285   3.902908   3.416677   1.084116
    21  H    3.843420   5.937186   3.335572   4.830985   4.173669
    22  H    4.467600   7.051106   2.708175   5.665666   4.953786
    23  H    4.115573   6.293978   3.301240   4.502446   5.151023
    24  H    5.385166   7.737204   3.836220   6.061495   6.233684
    25  H    2.569679   5.178545   1.979066   4.041870   2.831582
    26  H    5.386421   7.980971   3.353498   5.810817   6.673794
    27  H    5.362043   8.200814   2.726575   6.210174   6.421461
    28  H    4.385359   7.214072   2.003447   5.011951   5.706554
    29  H    3.286257   5.886061   2.054552   3.600301   4.748779
    30  H    2.724529   2.166251   5.294599   2.840631   2.151472
    31  H    3.457408   2.148995   6.080923   3.750000   2.166902
                    6          7          8          9         10
     6  O    0.000000
     7  C    2.371889   0.000000
     8  C    2.995974   1.529633   0.000000
     9  C    1.397482   1.520716   2.526681   0.000000
    10  C    3.538668   2.500601   1.528809   2.892861   0.000000
    11  C    2.896047   2.869000   2.500680   2.395449   1.519536
    12  C    3.708964   5.786935   6.687597   4.599175   7.155683
    13  O    3.138102   5.373869   5.769778   4.490240   6.344675
    14  H    2.044291   3.992765   4.644281   2.516942   4.614416
    15  H    4.833589   7.127658   7.682398   6.040024   8.132277
    16  H    4.502519   6.518392   7.211986   5.687330   7.966548
    17  H    2.438626   4.575270   4.561979   3.695024   4.797621
    18  H    3.266645   5.602088   5.900845   4.368785   5.971699
    19  H    2.498483   4.067429   5.128831   3.252350   5.927739
    20  H    2.912434   4.357366   5.561108   3.154400   5.994957
    21  H    2.558824   1.084662   2.176076   2.135171   3.456570
    22  H    3.283072   1.086547   2.151354   2.116523   2.786635
    23  H    2.776665   2.159740   1.086637   2.845926   2.153309
    24  H    3.980730   2.154637   1.085680   3.459497   2.163853
    25  H    2.037375   2.156342   3.459208   1.080638   3.820412
    26  H    4.289048   3.454571   2.170874   3.870727   1.086336
    27  H    4.253942   2.794534   2.155367   3.302710   1.087599
    28  H    3.836041   3.825668   3.450529   3.273879   2.163819
    29  H    2.640524   3.300714   2.806251   2.703092   2.156875
    30  H    4.103827   6.240041   7.081750   4.894766   7.329216
    31  H    4.547165   6.424310   7.458240   5.314057   8.012386
                   11         12         13         14         15
    11  C    0.000000
    12  C    6.156049   0.000000
    13  O    5.539408   2.445473   0.000000
    14  H    3.368395   2.976301   3.285861   0.000000
    15  H    7.125607   2.173666   2.050826   4.232517   0.000000
    16  H    7.214247   2.166042   2.003636   4.545460   1.757716
    17  H    3.914320   3.750039   2.013976   2.670899   3.676430
    18  H    4.784924   2.793759   2.047191   2.296462   2.644992
    19  H    5.309675   2.149754   2.742874   3.010285   3.753586
    20  H    5.110473   2.165126   3.734034   2.379868   4.266546
    21  H    3.841985   5.622235   5.175096   4.387991   6.940879
    22  H    3.286653   6.471495   6.337265   4.609387   7.991137
    23  H    2.802662   6.372844   5.102344   4.549898   7.094274
    24  H    3.447067   7.616997   6.661275   5.701520   8.613298
    25  H    3.269135   4.317438   4.770225   2.596534   6.061925
    26  H    2.136994   7.878760   6.804637   5.334646   8.631527
    27  H    2.139278   7.787205   7.226220   5.190456   8.949946
    28  H    1.081255   6.783199   6.306164   3.848593   7.735002
    29  H    1.084836   5.748677   4.804537   3.102788   6.424362
    30  H    6.158205   1.086240   2.977480   2.810800   2.359098
    31  H    7.070361   1.084615   3.310771   3.905465   2.684487
                   16         17         18         19         20
    16  H    0.000000
    17  H    4.003465   0.000000
    18  H    3.595710   1.755391   0.000000
    19  H    2.821611   3.679823   3.706785   0.000000
    20  H    3.909837   4.262986   3.785876   1.748874   0.000000
    21  H    6.084284   4.736161   5.791404   3.666774   4.305932
    22  H    7.372991   5.561593   6.454010   4.753036   4.778442
    23  H    6.636492   3.870069   5.393465   4.902614   5.588698
    24  H    8.015103   5.537489   6.940067   5.913774   6.436282
    25  H    5.642927   4.339197   4.667095   2.981947   2.490154
    26  H    8.547566   5.095789   6.392475   6.739789   6.908205
    27  H    8.749980   5.759335   6.798427   6.501550   6.386238
    28  H    8.002203   4.606888   5.254723   6.158939   5.731907
    29  H    6.619337   3.005781   4.025570   5.081660   5.083332
    30  H    3.017152   3.909010   2.542899   3.045296   2.517250
    31  H    2.341793   4.795823   3.855383   2.520637   2.479840
                   21         22         23         24         25
    21  H    0.000000
    22  H    1.750833   0.000000
    23  H    2.475426   3.048702   0.000000
    24  H    2.536565   2.446493   1.745789   0.000000
    25  H    2.528134   2.380528   3.856974   4.273074   0.000000
    26  H    4.304039   3.796186   2.458396   2.546166   4.849976
    27  H    3.803369   2.641627   3.047248   2.458068   4.025721
    28  H    4.845973   4.053773   3.811362   4.287116   3.980620
    29  H    4.092558   3.977641   2.673862   3.810967   3.654620
    30  H    6.245608   6.876450   6.810788   8.075962   4.610574
    31  H    6.151172   7.025871   7.194465   8.331687   4.868171
                   26         27         28         29         30
    26  H    0.000000
    27  H    1.752696   0.000000
    28  H    2.522251   2.439495   0.000000
    29  H    2.446775   3.042832   1.753840   0.000000
    30  H    8.026717   7.934024   6.630228   5.748984   0.000000
    31  H    8.790660   8.580781   7.705644   6.738960   1.743415
                   31
    31  H    0.000000
 Stoichiometry    C10H18O3
 Framework group  C1[X(C10H18O3)]
 Deg. of freedom    87
 Full point group                 C1      NOp   1
 Largest Abelian subgroup         C1      NOp   1
 Largest concise Abelian subgroup C1      NOp   1
                         Standard orientation:                         
 ---------------------------------------------------------------------
 Center     Atomic      Atomic             Coordinates (Angstroms)
 Number     Number       Type             X           Y           Z
 ---------------------------------------------------------------------
      1          6           0        0.996970    0.011623   -0.477998
      2          6           0        3.786863   -0.323221    0.469865
      3          8           0       -1.815253    0.308880   -1.291137
      4          6           0        1.712577   -1.291965   -0.125571
      5          6           0        1.934629    1.202696   -0.238671
      6          8           0       -0.172534    0.110671    0.323515
      7          6           0       -2.211980    1.153881    0.938520
      8          6           0       -3.002413   -0.109801    1.282179
      9          6           0       -1.206630    0.907281   -0.175498
     10          6           0       -3.601343   -0.705289    0.007842
     11          6           0       -2.518639   -0.900752   -1.040268
     12          6           0        3.378772    0.782981   -0.508734
     13          8           0        2.669593   -1.092555    0.891184
     14          1           0        0.701529   -0.036030   -1.518663
     15          1           0        4.526140   -0.983842    0.026717
     16          1           0        4.205951    0.099925    1.373006
     17          1           0        1.006004   -2.022646    0.240415
     18          1           0        2.198929   -1.700062   -1.006288
     19          1           0        1.836505    1.518992    0.795544
     20          1           0        1.654551    2.043722   -0.862802
     21          1           0       -1.688606    1.544376    1.804594
     22          1           0       -2.894813    1.925743    0.594206
     23          1           0       -2.352437   -0.839901    1.756800
     24          1           0       -3.784855    0.129000    1.995943
     25          1           0       -0.807019    1.840341   -0.546293
     26          1           0       -4.076846   -1.661097    0.208975
     27          1           0       -4.364071   -0.038078   -0.387058
     28          1           0       -2.937644   -1.195121   -1.992578
     29          1           0       -1.816933   -1.667223   -0.728821
     30          1           0        3.472219    0.436869   -1.534108
     31          1           0        4.054104    1.624452   -0.398083
 ---------------------------------------------------------------------
 Rotational constants (GHZ):           1.9283322           0.4002941           0.3923092
 Standard basis: 6-311++G(2d,2p) (5D, 7F)
 There are   557 symmetry adapted cartesian basis functions of A   symmetry.
 There are   531 symmetry adapted basis functions of A   symmetry.
   531 basis functions,   762 primitive gaussians,   557 cartesian basis functions
    51 alpha electrons       51 beta electrons
       nuclear repulsion energy       893.8022335104 Hartrees.
 NAtoms=   31 NActive=   31 NUniq=   31 SFac= 1.00D+00 NAtFMM=   60 NAOKFM=F Big=F
 Integral buffers will be    131072 words long.
 Raffenetti 2 integral format.
 Two-electron integral symmetry is turned on.
 ------------------------------------------------------------------------------
 Polarizable Continuum Model (PCM)
 =================================
 Model                : PCM.
 Atomic radii         : UFF (Universal Force Field).
 Polarization charges : Total charges.
 Charge compensation  : None.
 Solution method      : On-the-fly selection.
 Cavity type          : Scaled VdW (van der Waals Surface) (Alpha=1.100).
 Cavity algorithm     : GePol (No added spheres)
                        Default sphere list used, NSphG=   31.
                        Lebedev-Laikov grids with approx.  5.0 points / Ang**2.
                        Smoothing algorithm: York/Karplus (Gamma=1.0000).
                        Polarization charges: spherical gaussians, with
                                              point-specific exponents (IZeta= 3).
                        Self-potential: point-specific (ISelfS= 7).
                        Self-field    : sphere-specific E.n sum rule (ISelfD= 2).
 1st derivatives      : Analytical E(r).r(x)/FMM algorithm (CHGder, D1EAlg=3).
                        Cavity 1st derivative terms included.
 Solvent              : Water, Eps=  78.355300 Eps(inf)=   1.777849
 ------------------------------------------------------------------------------
 One-electron integrals computed using PRISM.
 NBasis=   531 RedAO= T EigKep=  4.74D-06  NBF=   531
 NBsUse=   531 1.00D-06 EigRej= -1.00D+00 NBFU=   531
 ExpMin= 3.60D-02 ExpMax= 8.59D+03 ExpMxC= 1.30D+03 IAcc=3 IRadAn=         5 AccDes= 0.00D+00
 Harris functional with IExCor= 1009 and IRadAn=       5 diagonalized for initial guess.
 HarFok:  IExCor= 1009 AccDes= 0.00D+00 IRadAn=         5 IDoV= 1 UseB2=F ITyADJ=14
 ICtDFT=  3500011 ScaDFX=  1.000000  1.000000  1.000000  1.000000
 FoFCou: FMM=F IPFlag=           0 FMFlag=      100000 FMFlg1=           0
         NFxFlg=           0 DoJE=T BraDBF=F KetDBF=T FulRan=T
         wScrn=  0.000000 ICntrl=       500 IOpCl=  0 I1Cent=   200000004 NGrid=           0
         NMat0=    1 NMatS0=      1 NMatT0=    0 NMatD0=    1 NMtDS0=    0 NMtDT0=    0
 Petite list used in FoFCou.
 Requested convergence on RMS density matrix=1.00D-08 within 128 cycles.
 Requested convergence on MAX density matrix=1.00D-06.
 Requested convergence on             energy=1.00D-06.
 No special actions if energy rises.
 Inv3:  Mode=1 IEnd=    13054188.
 Iteration    1 A*A^-1 deviation from unit magnitude is 6.11D-15 for   2075.
 Iteration    1 A*A^-1 deviation from orthogonality  is 3.00D-15 for   2049    985.
 Iteration    1 A^-1*A deviation from unit magnitude is 6.11D-15 for   2075.
 Iteration    1 A^-1*A deviation from orthogonality  is 1.36D-15 for   2078   1981.
 Error on total polarization charges =  0.01478
 SCF Done:  E(RM062X) =  -617.494932629     A.U. after   12 cycles
            NFock= 12  Conv=0.39D-08     -V/T= 2.0035

 **********************************************************************

            Population analysis using the SCF density.

 **********************************************************************

 Orbital symmetries:
       Occupied  (A) (A) (A) (A) (A) (A) (A) (A) (A) (A) (A) (A)
                 (A) (A) (A) (A) (A) (A) (A) (A) (A) (A) (A) (A)
                 (A) (A) (A) (A) (A) (A) (A) (A) (A) (A) (A) (A)
                 (A) (A) (A) (A) (A) (A) (A) (A) (A) (A) (A) (A)
                 (A) (A) (A)
       Virtual   (A) (A) (A) (A) (A) (A) (A) (A) (A) (A) (A) (A)
                 (A) (A) (A) (A) (A) (A) (A) (A) (A) (A) (A) (A)
                 (A) (A) (A) (A) (A) (A) (A) (A) (A) (A) (A) (A)
                 (A) (A) (A) (A) (A) (A) (A) (A) (A) (A) (A) (A)
                 (A) (A) (A) (A) (A) (A) (A) (A) (A) (A) (A) (A)
                 (A) (A) (A) (A) (A) (A) (A) (A) (A) (A) (A) (A)
                 (A) (A) (A) (A) (A) (A) (A) (A) (A) (A) (A) (A)
                 (A) (A) (A) (A) (A) (A) (A) (A) (A) (A) (A) (A)
                 (A) (A) (A) (A) (A) (A) (A) (A) (A) (A) (A) (A)
                 (A) (A) (A) (A) (A) (A) (A) (A) (A) (A) (A) (A)
                 (A) (A) (A) (A) (A) (A) (A) (A) (A) (A) (A) (A)
                 (A) (A) (A) (A) (A) (A) (A) (A) (A) (A) (A) (A)
                 (A) (A) (A) (A) (A) (A) (A) (A) (A) (A) (A) (A)
                 (A) (A) (A) (A) (A) (A) (A) (A) (A) (A) (A) (A)
                 (A) (A) (A) (A) (A) (A) (A) (A) (A) (A) (A) (A)
                 (A) (A) (A) (A) (A) (A) (A) (A) (A) (A) (A) (A)
                 (A) (A) (A) (A) (A) (A) (A) (A) (A) (A) (A) (A)
                 (A) (A) (A) (A) (A) (A) (A) (A) (A) (A) (A) (A)
                 (A) (A) (A) (A) (A) (A) (A) (A) (A) (A) (A) (A)
                 (A) (A) (A) (A) (A) (A) (A) (A) (A) (A) (A) (A)
                 (A) (A) (A) (A) (A) (A) (A) (A) (A) (A) (A) (A)
                 (A) (A) (A) (A) (A) (A) (A) (A) (A) (A) (A) (A)
                 (A) (A) (A) (A) (A) (A) (A) (A) (A) (A) (A) (A)
                 (A) (A) (A) (A) (A) (A) (A) (A) (A) (A) (A) (A)
                 (A) (A) (A) (A) (A) (A) (A) (A) (A) (A) (A) (A)
                 (A) (A) (A) (A) (A) (A) (A) (A) (A) (A) (A) (A)
                 (A) (A) (A) (A) (A) (A) (A) (A) (A) (A) (A) (A)
                 (A) (A) (A) (A) (A) (A) (A) (A) (A) (A) (A) (A)
                 (A) (A) (A) (A) (A) (A) (A) (A) (A) (A) (A) (A)
                 (A) (A) (A) (A) (A) (A) (A) (A) (A) (A) (A) (A)
                 (A) (A) (A) (A) (A) (A) (A) (A) (A) (A) (A) (A)
                 (A) (A) (A) (A) (A) (A) (A) (A) (A) (A) (A) (A)
                 (A) (A) (A) (A) (A) (A) (A) (A) (A) (A) (A) (A)
                 (A) (A) (A) (A) (A) (A) (A) (A) (A) (A) (A) (A)
                 (A) (A) (A) (A) (A) (A) (A) (A) (A) (A) (A) (A)
                 (A) (A) (A) (A) (A) (A) (A) (A) (A) (A) (A) (A)
                 (A) (A) (A) (A) (A) (A) (A) (A) (A) (A) (A) (A)
                 (A) (A) (A) (A) (A) (A) (A) (A) (A) (A) (A) (A)
                 (A) (A) (A) (A) (A) (A) (A) (A) (A) (A) (A) (A)
                 (A) (A) (A) (A) (A) (A) (A) (A) (A) (A) (A) (A)
 The electronic state is 1-A.
 Alpha  occ. eigenvalues --  -19.62757 -19.62664 -19.62551 -10.63265 -10.58584
 Alpha  occ. eigenvalues --  -10.57847 -10.57802 -10.57578 -10.53247 -10.53113
 Alpha  occ. eigenvalues --  -10.52944 -10.52904 -10.52727  -1.20128  -1.16471
 Alpha  occ. eigenvalues --   -1.13336  -0.90765  -0.89595  -0.87445  -0.84501
 Alpha  occ. eigenvalues --   -0.75006  -0.74484  -0.73195  -0.71269  -0.64890
 Alpha  occ. eigenvalues --   -0.62660  -0.60112  -0.59370  -0.58059  -0.55880
 Alpha  occ. eigenvalues --   -0.54748  -0.53596  -0.52708  -0.50441  -0.49658
 Alpha  occ. eigenvalues --   -0.47244  -0.46488  -0.46068  -0.45328  -0.44981
 Alpha  occ. eigenvalues --   -0.43521  -0.42760  -0.42141  -0.41048  -0.39516
 Alpha  occ. eigenvalues --   -0.38482  -0.36993  -0.35834  -0.34431  -0.33285
 Alpha  occ. eigenvalues --   -0.31977
 Alpha virt. eigenvalues --   -0.00118   0.00758   0.00950   0.01025   0.02207
 Alpha virt. eigenvalues --    0.02422   0.02606   0.03351   0.03724   0.04390
 Alpha virt. eigenvalues --    0.04431   0.04590   0.05316   0.06011   0.07012
 Alpha virt. eigenvalues --    0.07549   0.07803   0.07936   0.09039   0.09566
 Alpha virt. eigenvalues --    0.09994   0.10438   0.10888   0.11484   0.12156
 Alpha virt. eigenvalues --    0.12228   0.12666   0.12765   0.12906   0.13388
 Alpha virt. eigenvalues --    0.13736   0.13815   0.14115   0.14541   0.14732
 Alpha virt. eigenvalues --    0.15268   0.15338   0.15587   0.16071   0.16376
 Alpha virt. eigenvalues --    0.16749   0.16986   0.17231   0.17283   0.17491
 Alpha virt. eigenvalues --    0.18191   0.18481   0.18585   0.19066   0.19794
 Alpha virt. eigenvalues --    0.20092   0.20349   0.20403   0.20994   0.21500
 Alpha virt. eigenvalues --    0.21862   0.22349   0.22589   0.23507   0.23692
 Alpha virt. eigenvalues --    0.24369   0.24719   0.25427   0.25657   0.27128
 Alpha virt. eigenvalues --    0.27379   0.27849   0.28545   0.28792   0.29653
 Alpha virt. eigenvalues --    0.30102   0.30487   0.30925   0.31607   0.32288
 Alpha virt. eigenvalues --    0.32306   0.32762   0.34186   0.34218   0.34569
 Alpha virt. eigenvalues --    0.34855   0.35325   0.35742   0.35951   0.36310
 Alpha virt. eigenvalues --    0.36920   0.37311   0.37461   0.38043   0.38474
 Alpha virt. eigenvalues --    0.39030   0.39040   0.39754   0.40934   0.41134
 Alpha virt. eigenvalues --    0.41732   0.42855   0.43830   0.44375   0.44654
 Alpha virt. eigenvalues --    0.45969   0.48475   0.49001   0.50066   0.50786
 Alpha virt. eigenvalues --    0.51557   0.53328   0.53412   0.53779   0.54201
 Alpha virt. eigenvalues --    0.55638   0.56798   0.57833   0.58100   0.58612
 Alpha virt. eigenvalues --    0.59421   0.59939   0.60830   0.61480   0.61730
 Alpha virt. eigenvalues --    0.61842   0.62200   0.62993   0.63377   0.63899
 Alpha virt. eigenvalues --    0.64273   0.64741   0.65446   0.65962   0.66593
 Alpha virt. eigenvalues --    0.67195   0.67690   0.69342   0.69408   0.69692
 Alpha virt. eigenvalues --    0.70592   0.71333   0.71998   0.72652   0.73031
 Alpha virt. eigenvalues --    0.73588   0.73898   0.74166   0.75192   0.75595
 Alpha virt. eigenvalues --    0.75911   0.76949   0.77599   0.77704   0.78887
 Alpha virt. eigenvalues --    0.79507   0.83636   0.84391   0.84770   0.85942
 Alpha virt. eigenvalues --    0.86374   0.87186   0.88112   0.88609   0.89218
 Alpha virt. eigenvalues --    0.90855   0.92071   0.93036   0.95416   0.96004
 Alpha virt. eigenvalues --    0.96467   0.98506   0.99277   1.01111   1.01790
 Alpha virt. eigenvalues --    1.02506   1.02959   1.04594   1.05603   1.06029
 Alpha virt. eigenvalues --    1.07606   1.08100   1.10237   1.11720   1.12133
 Alpha virt. eigenvalues --    1.13340   1.14395   1.14888   1.16226   1.16656
 Alpha virt. eigenvalues --    1.17774   1.18264   1.18522   1.19993   1.20775
 Alpha virt. eigenvalues --    1.22007   1.22725   1.23327   1.24356   1.24487
 Alpha virt. eigenvalues --    1.24966   1.25478   1.26972   1.27253   1.27373
 Alpha virt. eigenvalues --    1.27774   1.28552   1.29417   1.30560   1.30668
 Alpha virt. eigenvalues --    1.32215   1.32321   1.32947   1.33458   1.34697
 Alpha virt. eigenvalues --    1.34712   1.35724   1.37128   1.37452   1.37727
 Alpha virt. eigenvalues --    1.38327   1.39331   1.39957   1.40623   1.41357
 Alpha virt. eigenvalues --    1.42334   1.42649   1.44062   1.44406   1.45175
 Alpha virt. eigenvalues --    1.45450   1.46671   1.47089   1.47564   1.47756
 Alpha virt. eigenvalues --    1.48327   1.49322   1.50234   1.50679   1.52032
 Alpha virt. eigenvalues --    1.52958   1.53845   1.54773   1.55003   1.55437
 Alpha virt. eigenvalues --    1.56143   1.56585   1.57201   1.58012   1.58334
 Alpha virt. eigenvalues --    1.59331   1.59633   1.60610   1.61489   1.61778
 Alpha virt. eigenvalues --    1.63400   1.64173   1.64849   1.65318   1.65909
 Alpha virt. eigenvalues --    1.68338   1.69010   1.69636   1.70266   1.71719
 Alpha virt. eigenvalues --    1.72138   1.73018   1.74742   1.75455   1.76052
 Alpha virt. eigenvalues --    1.77846   1.79531   1.80692   1.81625   1.83586
 Alpha virt. eigenvalues --    1.85519   1.86564   1.88707   1.98402   2.00020
 Alpha virt. eigenvalues --    2.02496   2.06784   2.11514   2.14827   2.19113
 Alpha virt. eigenvalues --    2.22707   2.25328   2.28949   2.33033   2.40607
 Alpha virt. eigenvalues --    2.42031   2.42308   2.44614   2.45649   2.51400
 Alpha virt. eigenvalues --    2.60364   2.76294   2.77711   2.79990   2.80819
 Alpha virt. eigenvalues --    2.83876   2.87032   2.90244   2.91280   2.92791
 Alpha virt. eigenvalues --    2.93672   2.95943   2.98561   3.01453   3.02920
 Alpha virt. eigenvalues --    3.03690   3.06363   3.08149   3.09854   3.10911
 Alpha virt. eigenvalues --    3.12938   3.14643   3.15486   3.19889   3.22202
 Alpha virt. eigenvalues --    3.23253   3.30223   3.31564   3.31783   3.33678
 Alpha virt. eigenvalues --    3.34484   3.35806   3.36316   3.38991   3.40417
 Alpha virt. eigenvalues --    3.41324   3.43604   3.43634   3.44331   3.45516
 Alpha virt. eigenvalues --    3.46288   3.48352   3.49824   3.51065   3.51521
 Alpha virt. eigenvalues --    3.52268   3.53072   3.53739   3.54687   3.55687
 Alpha virt. eigenvalues --    3.56938   3.57288   3.57963   3.58501   3.59412
 Alpha virt. eigenvalues --    3.60619   3.62590   3.62885   3.63582   3.64445
 Alpha virt. eigenvalues --    3.65643   3.66970   3.67996   3.68218   3.69464
 Alpha virt. eigenvalues --    3.70682   3.70805   3.72849   3.73457   3.74520
 Alpha virt. eigenvalues --    3.74705   3.75876   3.76601   3.77582   3.79243
 Alpha virt. eigenvalues --    3.79970   3.81586   3.82204   3.83227   3.83837
 Alpha virt. eigenvalues --    3.85805   3.88278   3.90103   3.91403   3.92786
 Alpha virt. eigenvalues --    3.92947   3.94286   3.96194   3.97130   3.98653
 Alpha virt. eigenvalues --    4.00015   4.00719   4.02019   4.03099   4.04062
 Alpha virt. eigenvalues --    4.05405   4.06442   4.07320   4.07632   4.08105
 Alpha virt. eigenvalues --    4.08536   4.09221   4.10204   4.10588   4.11812
 Alpha virt. eigenvalues --    4.12167   4.13511   4.13842   4.14406   4.15002
 Alpha virt. eigenvalues --    4.15547   4.17292   4.18392   4.18665   4.20065
 Alpha virt. eigenvalues --    4.21838   4.22495   4.24302   4.25494   4.26126
 Alpha virt. eigenvalues --    4.28115   4.29634   4.31241   4.31692   4.32714
 Alpha virt. eigenvalues --    4.33021   4.33458   4.35614   4.36662   4.37437
 Alpha virt. eigenvalues --    4.39777   4.41782   4.42720   4.46425   4.50002
 Alpha virt. eigenvalues --    4.58218   4.61286   4.72631   4.75899   4.81663
 Alpha virt. eigenvalues --    4.85029   4.93284   4.95336   5.00857   5.01322
 Alpha virt. eigenvalues --    5.04784   5.06795   5.07923   5.11800   5.12759
 Alpha virt. eigenvalues --    5.14092   5.14733   5.16281   5.32471   5.37286
 Alpha virt. eigenvalues --    5.41849   5.58095   5.61020   5.65080   5.85169
 Alpha virt. eigenvalues --    5.88077   6.06563   7.03731   7.05830   7.07090
 Alpha virt. eigenvalues --    7.07709   7.09993   7.11515   7.13107   7.19481
 Alpha virt. eigenvalues --    7.26508   7.35129   7.36709   7.46113   7.53305
 Alpha virt. eigenvalues --    7.54408   7.66323  23.96091  23.97898  24.05779
 Alpha virt. eigenvalues --   24.06671  24.10827  24.11787  24.11956  24.15237
 Alpha virt. eigenvalues --   24.17321  24.21544  50.17285  50.18719  50.25346
          Condensed to atoms (all electrons):
               1          2          3          4          5          6
     1  C    8.954225   0.083980   0.029128  -0.817750  -1.850834  -0.085644
     2  C    0.083980   5.630409  -0.001740  -0.149419  -0.028089   0.015773
     3  O    0.029128  -0.001740   8.212687  -0.022468  -0.014055  -0.054432
     4  C   -0.817750  -0.149419  -0.022468   6.422569   0.176551  -0.087767
     5  C   -1.850834  -0.028089  -0.014055   0.176551   7.262461  -0.065188
     6  O   -0.085644   0.015773  -0.054432  -0.087767  -0.065188   8.300118
     7  C    0.132910  -0.004765  -0.020318  -0.080010  -0.030640  -0.089163
     8  C    0.034638   0.001558  -0.005061  -0.018370  -0.002231  -0.021473
     9  C   -1.079964   0.043719   0.281865   0.069074   0.380986   0.371089
    10  C    0.065192  -0.001487  -0.047920  -0.010868  -0.018006  -0.019063
    11  C    0.129894   0.002695   0.094070   0.017431  -0.047629  -0.016757
    12  C    0.280698  -0.276008   0.003450   0.035599  -0.340179  -0.019618
    13  O   -0.013045   0.097244  -0.000060   0.103424  -0.043328   0.022421
    14  H    0.560243  -0.001603  -0.000980  -0.053945  -0.097861  -0.024099
    15  H    0.041650   0.522715   0.000071  -0.025030  -0.033233  -0.000247
    16  H   -0.019650   0.405846  -0.000034   0.025100  -0.010298   0.001083
    17  H    0.069126   0.017700  -0.000383   0.348012  -0.026985  -0.008636
    18  H   -0.100052   0.037128   0.000903   0.462662   0.017214   0.012611
    19  H   -0.119776  -0.034009  -0.000715  -0.019979   0.517292   0.001342
    20  H   -0.049078  -0.003419   0.000920   0.013076   0.417984   0.000493
    21  H   -0.006475   0.001171   0.007135   0.002659   0.003421  -0.000374
    22  H    0.002282  -0.000209  -0.005208  -0.000400  -0.000738   0.008472
    23  H   -0.017541   0.000383   0.002668  -0.000031   0.005599  -0.005945
    24  H    0.005452  -0.000087  -0.004272  -0.002091  -0.000665   0.000788
    25  H    0.020151   0.004052  -0.067449   0.000495   0.008298  -0.022993
    26  H    0.003529   0.000127   0.009301   0.001386  -0.001134   0.000650
    27  H   -0.004321  -0.000028  -0.001984  -0.000711   0.000467  -0.000633
    28  H    0.013582   0.000284  -0.073934   0.000815  -0.002519   0.000293
    29  H   -0.074048  -0.002809  -0.034584   0.010519   0.031011   0.022382
    30  H   -0.059727  -0.086822  -0.000314  -0.010769   0.006022   0.002288
    31  H   -0.000666  -0.016097   0.000109   0.003385  -0.017546  -0.002151
               7          8          9         10         11         12
     1  C    0.132910   0.034638  -1.079964   0.065192   0.129894   0.280698
     2  C   -0.004765   0.001558   0.043719  -0.001487   0.002695  -0.276008
     3  O   -0.020318  -0.005061   0.281865  -0.047920   0.094070   0.003450
     4  C   -0.080010  -0.018370   0.069074  -0.010868   0.017431   0.035599
     5  C   -0.030640  -0.002231   0.380986  -0.018006  -0.047629  -0.340179
     6  O   -0.089163  -0.021473   0.371089  -0.019063  -0.016757  -0.019618
     7  C    6.564504  -0.043565  -0.896007  -0.159903   0.207420   0.016659
     8  C   -0.043565   5.655339  -0.101868   0.009982  -0.023823   0.002703
     9  C   -0.896007  -0.101868   7.104307   0.211254  -0.493128  -0.150821
    10  C   -0.159903   0.009982   0.211254   5.661803  -0.049727  -0.005061
    11  C    0.207420  -0.023823  -0.493128  -0.049727   5.530055   0.006221
    12  C    0.016659   0.002703  -0.150821  -0.005061   0.006221   6.001034
    13  O    0.002584   0.000257   0.004010   0.000408  -0.000036   0.014357
    14  H   -0.008609  -0.004821  -0.043724  -0.001687   0.011180   0.013781
    15  H   -0.000416   0.000024  -0.002018   0.000070   0.000305  -0.101891
    16  H    0.000163   0.000003  -0.000035  -0.000058  -0.000123   0.020901
    17  H   -0.008490  -0.001055  -0.024364   0.005148   0.004573   0.000957
    18  H    0.004721   0.000127   0.017674  -0.000725   0.002154  -0.053713
    19  H   -0.010188   0.002101   0.007806   0.000179  -0.002723   0.002227
    20  H    0.009758   0.001951  -0.001703   0.000047   0.003628   0.011054
    21  H    0.432011  -0.041898  -0.025075  -0.002895   0.003954  -0.001100
    22  H    0.551000  -0.005643  -0.156793  -0.022398   0.015902   0.000796
    23  H   -0.042165   0.522520  -0.013849  -0.074001   0.001878  -0.000249
    24  H   -0.062678   0.418508   0.028979  -0.014768   0.006361   0.000209
    25  H   -0.119502  -0.012340   0.511351   0.016414  -0.024167  -0.021849
    26  H   -0.006935  -0.042707   0.006377   0.434554  -0.032859  -0.000072
    27  H   -0.005411  -0.025520  -0.000889   0.501320  -0.093082  -0.000139
    28  H   -0.000032   0.006087  -0.014770  -0.020379   0.442687  -0.000019
    29  H    0.029358   0.002178   0.020480  -0.094921   0.455565  -0.000037
    30  H   -0.000231   0.000168   0.002157   0.000046  -0.001095   0.524354
    31  H    0.000362  -0.000093   0.000282  -0.000083  -0.000003   0.384667
              13         14         15         16         17         18
     1  C   -0.013045   0.560243   0.041650  -0.019650   0.069126  -0.100052
     2  C    0.097244  -0.001603   0.522715   0.405846   0.017700   0.037128
     3  O   -0.000060  -0.000980   0.000071  -0.000034  -0.000383   0.000903
     4  C    0.103424  -0.053945  -0.025030   0.025100   0.348012   0.462662
     5  C   -0.043328  -0.097861  -0.033233  -0.010298  -0.026985   0.017214
     6  O    0.022421  -0.024099  -0.000247   0.001083  -0.008636   0.012611
     7  C    0.002584  -0.008609  -0.000416   0.000163  -0.008490   0.004721
     8  C    0.000257  -0.004821   0.000024   0.000003  -0.001055   0.000127
     9  C    0.004010  -0.043724  -0.002018  -0.000035  -0.024364   0.017674
    10  C    0.000408  -0.001687   0.000070  -0.000058   0.005148  -0.000725
    11  C   -0.000036   0.011180   0.000305  -0.000123   0.004573   0.002154
    12  C    0.014357   0.013781  -0.101891   0.020901   0.000957  -0.053713
    13  O    8.382024   0.002985  -0.067973  -0.077442  -0.083724  -0.032566
    14  H    0.002985   0.412606   0.000212   0.000651   0.003403  -0.009550
    15  H   -0.067973   0.000212   0.526119  -0.028456  -0.000221   0.008817
    16  H   -0.077442   0.000651  -0.028456   0.510300  -0.000652  -0.003754
    17  H   -0.083724   0.003403  -0.000221  -0.000652   0.507363  -0.012055
    18  H   -0.032566  -0.009550   0.008817  -0.003754  -0.012055   0.473087
    19  H   -0.004709   0.001990  -0.003880   0.005075   0.003192  -0.001341
    20  H    0.002075  -0.007093   0.001733  -0.002053  -0.002029   0.002762
    21  H    0.000893  -0.000527   0.000065  -0.000052  -0.000510   0.000220
    22  H    0.000035  -0.000854  -0.000028   0.000040  -0.000522   0.000261
    23  H    0.000372  -0.000703  -0.000007   0.000060  -0.003078   0.000504
    24  H   -0.000008   0.000084  -0.000005   0.000002   0.000440  -0.000040
    25  H   -0.001472   0.000432  -0.000082  -0.000191   0.004602  -0.001947
    26  H    0.000020   0.000137   0.000011  -0.000003   0.000867  -0.000094
    27  H    0.000003  -0.000025   0.000002  -0.000005  -0.000040  -0.000062
    28  H    0.000038  -0.000254   0.000017  -0.000019   0.002053  -0.000063
    29  H    0.000861  -0.004984  -0.000556   0.000328  -0.015952   0.000781
    30  H   -0.000143  -0.003087  -0.014658   0.008085  -0.002012  -0.007091
    31  H    0.009331  -0.001436   0.001929  -0.010694   0.002432  -0.001237
              19         20         21         22         23         24
     1  C   -0.119776  -0.049078  -0.006475   0.002282  -0.017541   0.005452
     2  C   -0.034009  -0.003419   0.001171  -0.000209   0.000383  -0.000087
     3  O   -0.000715   0.000920   0.007135  -0.005208   0.002668  -0.004272
     4  C   -0.019979   0.013076   0.002659  -0.000400  -0.000031  -0.002091
     5  C    0.517292   0.417984   0.003421  -0.000738   0.005599  -0.000665
     6  O    0.001342   0.000493  -0.000374   0.008472  -0.005945   0.000788
     7  C   -0.010188   0.009758   0.432011   0.551000  -0.042165  -0.062678
     8  C    0.002101   0.001951  -0.041898  -0.005643   0.522520   0.418508
     9  C    0.007806  -0.001703  -0.025075  -0.156793  -0.013849   0.028979
    10  C    0.000179   0.000047  -0.002895  -0.022398  -0.074001  -0.014768
    11  C   -0.002723   0.003628   0.003954   0.015902   0.001878   0.006361
    12  C    0.002227   0.011054  -0.001100   0.000796  -0.000249   0.000209
    13  O   -0.004709   0.002075   0.000893   0.000035   0.000372  -0.000008
    14  H    0.001990  -0.007093  -0.000527  -0.000854  -0.000703   0.000084
    15  H   -0.003880   0.001733   0.000065  -0.000028  -0.000007  -0.000005
    16  H    0.005075  -0.002053  -0.000052   0.000040   0.000060   0.000002
    17  H    0.003192  -0.002029  -0.000510  -0.000522  -0.003078   0.000440
    18  H   -0.001341   0.002762   0.000220   0.000261   0.000504  -0.000040
    19  H    0.459513  -0.022387  -0.002341  -0.000361  -0.000399   0.000359
    20  H   -0.022387   0.491889   0.000498   0.001238   0.000441  -0.000143
    21  H   -0.002341   0.000498   0.473028  -0.003697  -0.001761  -0.008723
    22  H   -0.000361   0.001238  -0.003697   0.452607   0.002416  -0.003157
    23  H   -0.000399   0.000441  -0.001761   0.002416   0.462658  -0.007668
    24  H    0.000359  -0.000143  -0.008723  -0.003157  -0.007668   0.468827
    25  H    0.002844  -0.011288  -0.006821  -0.017874  -0.004740   0.003376
    26  H   -0.000031   0.000013   0.001253  -0.003080  -0.005426  -0.005945
    27  H    0.000046  -0.000158  -0.001746  -0.001416   0.002147  -0.003848
    28  H   -0.000061   0.000138   0.001098   0.000305  -0.002714   0.001578
    29  H    0.000173  -0.000244  -0.000302  -0.000300   0.001891  -0.002105
    30  H    0.001616  -0.004582  -0.000092  -0.000003  -0.000001   0.000012
    31  H    0.002787  -0.011038   0.000073  -0.000037   0.000006   0.000002
              25         26         27         28         29         30
     1  C    0.020151   0.003529  -0.004321   0.013582  -0.074048  -0.059727
     2  C    0.004052   0.000127  -0.000028   0.000284  -0.002809  -0.086822
     3  O   -0.067449   0.009301  -0.001984  -0.073934  -0.034584  -0.000314
     4  C    0.000495   0.001386  -0.000711   0.000815   0.010519  -0.010769
     5  C    0.008298  -0.001134   0.000467  -0.002519   0.031011   0.006022
     6  O   -0.022993   0.000650  -0.000633   0.000293   0.022382   0.002288
     7  C   -0.119502  -0.006935  -0.005411  -0.000032   0.029358  -0.000231
     8  C   -0.012340  -0.042707  -0.025520   0.006087   0.002178   0.000168
     9  C    0.511351   0.006377  -0.000889  -0.014770   0.020480   0.002157
    10  C    0.016414   0.434554   0.501320  -0.020379  -0.094921   0.000046
    11  C   -0.024167  -0.032859  -0.093082   0.442687   0.455565  -0.001095
    12  C   -0.021849  -0.000072  -0.000139  -0.000019  -0.000037   0.524354
    13  O   -0.001472   0.000020   0.000003   0.000038   0.000861  -0.000143
    14  H    0.000432   0.000137  -0.000025  -0.000254  -0.004984  -0.003087
    15  H   -0.000082   0.000011   0.000002   0.000017  -0.000556  -0.014658
    16  H   -0.000191  -0.000003  -0.000005  -0.000019   0.000328   0.008085
    17  H    0.004602   0.000867  -0.000040   0.002053  -0.015952  -0.002012
    18  H   -0.001947  -0.000094  -0.000062  -0.000063   0.000781  -0.007091
    19  H    0.002844  -0.000031   0.000046  -0.000061   0.000173   0.001616
    20  H   -0.011288   0.000013  -0.000158   0.000138  -0.000244  -0.004582
    21  H   -0.006821   0.001253  -0.001746   0.001098  -0.000302  -0.000092
    22  H   -0.017874  -0.003080  -0.001416   0.000305  -0.000300  -0.000003
    23  H   -0.004740  -0.005426   0.002147  -0.002714   0.001891  -0.000001
    24  H    0.003376  -0.005945  -0.003848   0.001578  -0.002105   0.000012
    25  H    0.466289   0.002175  -0.000742   0.000463  -0.002155   0.000058
    26  H    0.002175   0.491298  -0.012711  -0.008388  -0.002561  -0.000011
    27  H   -0.000742  -0.012711   0.483984  -0.006779   0.004837   0.000006
    28  H    0.000463  -0.008388  -0.006779   0.480438  -0.021847  -0.000097
    29  H   -0.002155  -0.002561   0.004837  -0.021847   0.549766   0.000659
    30  H    0.000058  -0.000011   0.000006  -0.000097   0.000659   0.462066
    31  H    0.000862  -0.000007   0.000007   0.000017  -0.000070  -0.006781
              31
     1  C   -0.000666
     2  C   -0.016097
     3  O    0.000109
     4  C    0.003385
     5  C   -0.017546
     6  O   -0.002151
     7  C    0.000362
     8  C   -0.000093
     9  C    0.000282
    10  C   -0.000083
    11  C   -0.000003
    12  C    0.384667
    13  O    0.009331
    14  H   -0.001436
    15  H    0.001929
    16  H   -0.010694
    17  H    0.002432
    18  H   -0.001237
    19  H    0.002787
    20  H   -0.011038
    21  H    0.000073
    22  H   -0.000037
    23  H    0.000006
    24  H    0.000002
    25  H    0.000862
    26  H   -0.000007
    27  H    0.000007
    28  H    0.000017
    29  H   -0.000070
    30  H   -0.006781
    31  H    0.491230
 Mulliken charges:
               1
     1  C   -0.128109
     2  C   -0.258192
     3  O   -0.286398
     4  C   -0.393146
     5  C   -0.196149
     6  O   -0.235620
     7  C   -0.362422
     8  C   -0.307675
     9  C   -0.056401
    10  C   -0.362466
    11  C   -0.150819
    12  C   -0.348911
    13  O   -0.318833
    14  H    0.258136
    15  H    0.174964
    16  H    0.175882
    17  H    0.220838
    18  H    0.182663
    19  H    0.214358
    20  H    0.155514
    21  H    0.176909
    22  H    0.187363
    23  H    0.176733
    24  H    0.181227
    25  H    0.273752
    26  H    0.170265
    27  H    0.167428
    28  H    0.201983
    29  H    0.126685
    30  H    0.189980
    31  H    0.170459
 Sum of Mulliken charges =  -0.00000
 Mulliken charges with hydrogens summed into heavy atoms:
               1
     1  C    0.130027
     2  C    0.092653
     3  O   -0.286398
     4  C    0.010355
     5  C    0.173723
     6  O   -0.235620
     7  C    0.001851
     8  C    0.050286
     9  C    0.217351
    10  C   -0.024773
    11  C    0.177849
    12  C    0.011529
    13  O   -0.318833
 Electronic spatial extent (au):  <R**2>=           3069.6984
 Charge=              0.0000 electrons
 Dipole moment (field-independent basis, Debye):
    X=              0.0891    Y=              0.9025    Z=             -1.3586  Tot=              1.6335
 Quadrupole moment (field-independent basis, Debye-Ang):
   XX=            -70.3471   YY=            -77.5206   ZZ=            -84.3446
   XY=              5.5619   XZ=             -6.9596   YZ=              4.5076
 Traceless Quadrupole moment (field-independent basis, Debye-Ang):
   XX=              7.0570   YY=             -0.1165   ZZ=             -6.9406
   XY=              5.5619   XZ=             -6.9596   YZ=              4.5076
 Octapole moment (field-independent basis, Debye-Ang**2):
  XXX=             12.7954  YYY=              0.7850  ZZZ=             -0.0293  XYY=             -5.4945
  XXY=              5.5942  XXZ=             -3.9459  XZZ=              0.4522  YZZ=             -0.3532
  YYZ=             -4.4365  XYZ=              2.4318
 Hexadecapole moment (field-independent basis, Debye-Ang**3):
 XXXX=          -3015.7902 YYYY=           -495.0802 ZZZZ=           -422.3440 XXXY=             34.7752
 XXXZ=              0.5710 YYYX=              1.2020 YYYZ=             -2.4396 ZZZX=              3.9951
 ZZZY=             10.9606 XXYY=           -611.8742 XXZZ=           -606.5441 YYZZ=           -155.2739
 XXYZ=             34.2136 YYXZ=             -5.0034 ZZXY=             11.8407
 N-N= 8.938022335104D+02 E-N=-3.229626853278D+03  KE= 6.153411212337D+02
 D1PCM: PCM CHGder 1st derivatives, ID1Alg=3 FixD1E=F DoIter=F DoCFld=F I1PDM=0.
 Calling FoFJK, ICntrl=      2127 FMM=F ISym2X=0 I1Cent= 0 IOpClX= 0 NMat=1 NMatS=1 NMatT=0.
 ***** Axes restored to original set *****
 -------------------------------------------------------------------
 Center     Atomic                   Forces (Hartrees/Bohr)
 Number     Number              X              Y              Z
 -------------------------------------------------------------------
      1        6           0.000245784    0.001345746    0.002364997
      2        6          -0.004810624    0.001355675   -0.004194873
      3        8           0.000406694    0.004983079   -0.010239248
      4        6           0.003773898    0.005950525   -0.000029547
      5        6           0.001573969   -0.002960484   -0.001793924
      6        8          -0.000116737   -0.006115582    0.010488444
      7        6           0.000635191   -0.002673952    0.000407198
      8        6           0.000728775    0.001197487   -0.003699822
      9        6          -0.003347959   -0.005645129    0.002492648
     10        6           0.002553516   -0.000610231    0.001037256
     11        6          -0.001311437    0.003841443    0.005417991
     12        6          -0.000818861    0.000007487    0.001724045
     13        8          -0.002521225   -0.002321551    0.008729577
     14        1          -0.001912976    0.000058268   -0.006816040
     15        1           0.003970242   -0.002523473   -0.002922385
     16        1           0.001523937    0.002240249    0.003937099
     17        1          -0.004335836   -0.002401776    0.001729534
     18        1           0.002052446   -0.001935058   -0.005603789
     19        1          -0.000859746   -0.000312067    0.003877183
     20        1          -0.000831453    0.002395273   -0.001982857
     21        1           0.001769324    0.000836275    0.002523621
     22        1          -0.002194337    0.002046780   -0.001580271
     23        1           0.002904535   -0.002069300    0.000717028
     24        1          -0.001884786    0.000663911    0.001630142
     25        1           0.002450930    0.006985165   -0.003379171
     26        1          -0.001384799   -0.002355741    0.000804847
     27        1          -0.001782775    0.002447892   -0.001385289
     28        1          -0.001826730   -0.001111088   -0.003860017
     29        1           0.003898219   -0.004296654    0.002947193
     30        1          -0.000184295   -0.001285524   -0.003249816
     31        1           0.001637118    0.002262353   -0.000091754
 -------------------------------------------------------------------
 Cartesian Forces:  Max     0.010488444 RMS     0.003303840

 GradGradGradGradGradGradGradGradGradGradGradGradGradGradGradGradGradGrad
 Berny optimization.
 FormGI is forming the generalized inverse of G from B-inverse, IUseBI=4.
 Internal  Forces:  Max     0.011549984 RMS     0.002014838
 Search for a local minimum.
 Step number   1 out of a maximum of  186
 All quantities printed in internal units (Hartrees-Bohrs-Radians)
 Mixed Optimization -- RFO/linear search
 Second derivative matrix not updated -- first step.
 ITU=  0
     Eigenvalues ---    0.00423   0.00608   0.00623   0.00728   0.01413
     Eigenvalues ---    0.01449   0.01725   0.02702   0.02780   0.03075
     Eigenvalues ---    0.03355   0.04095   0.04177   0.04612   0.04705
     Eigenvalues ---    0.04748   0.04888   0.04908   0.05097   0.05140
     Eigenvalues ---    0.05253   0.05593   0.05684   0.06009   0.06168
     Eigenvalues ---    0.06228   0.06606   0.07008   0.07604   0.07811
     Eigenvalues ---    0.07857   0.07858   0.07969   0.08123   0.08223
     Eigenvalues ---    0.08823   0.09273   0.10200   0.11177   0.11602
     Eigenvalues ---    0.11671   0.11763   0.11780   0.12402   0.12687
     Eigenvalues ---    0.14704   0.14733   0.16482   0.17744   0.19169
     Eigenvalues ---    0.19854   0.21950   0.22483   0.25000   0.27112
     Eigenvalues ---    0.27512   0.28590   0.28653   0.28857   0.28940
     Eigenvalues ---    0.29492   0.30354   0.35092   0.35204   0.35215
     Eigenvalues ---    0.35239   0.35251   0.35283   0.35286   0.35314
     Eigenvalues ---    0.35317   0.35416   0.35437   0.35442   0.35502
     Eigenvalues ---    0.35654   0.35774   0.35843   0.35917   0.35956
     Eigenvalues ---    0.40154   0.40850   0.41621   0.42272   0.43327
     Eigenvalues ---    0.460401000.000001000.000001000.000001000.00000
     Eigenvalues --- 1000.000001000.000001000.000001000.000001000.00000
     Eigenvalues --- 1000.000001000.000001000.000001000.000001000.00000
     Eigenvalues --- 1000.000001000.000001000.000001000.000001000.00000
     Eigenvalues --- 1000.000001000.000001000.000001000.000001000.00000
     Eigenvalues --- 1000.000001000.000001000.000001000.000001000.00000
     Eigenvalues --- 1000.000001000.000001000.000001000.000001000.00000
     Eigenvalues --- 1000.000001000.000001000.000001000.000001000.00000
     Eigenvalues --- 1000.000001000.000001000.000001000.000001000.00000
     Eigenvalues --- 1000.000001000.000001000.000001000.000001000.00000
     Eigenvalues --- 1000.000001000.000001000.000001000.000001000.00000
     Eigenvalues --- 1000.000001000.000001000.000001000.000001000.00000
     Eigenvalues --- 1000.000001000.000001000.000001000.000001000.00000
     Eigenvalues --- 1000.000001000.000001000.000001000.000001000.00000
     Eigenvalues --- 1000.000001000.000001000.000001000.000001000.00000
     Eigenvalues --- 1000.000001000.000001000.000001000.000001000.00000
     Eigenvalues --- 1000.000001000.000001000.000001000.000001000.00000
     Eigenvalues --- 1000.000001000.000001000.000001000.000001000.00000
     Eigenvalues --- 1000.000001000.000001000.000001000.000001000.00000
     Eigenvalues --- 1000.000001000.000001000.000001000.000001000.00000
 RFO step:  Lambda=-3.22954582D-03 EMin= 4.22842433D-03
 Linear search not attempted -- first point.
 Iteration  1 RMS(Cart)=  0.04835863 RMS(Int)=  0.00054734
 Iteration  2 RMS(Cart)=  0.00165753 RMS(Int)=  0.00005269
 Iteration  3 RMS(Cart)=  0.00000085 RMS(Int)=  0.00005269
 Iteration  1 RMS(Cart)=  0.00000944 RMS(Int)=  0.00000220
 Iteration  2 RMS(Cart)=  0.00000524 RMS(Int)=  0.00000246
 Iteration  3 RMS(Cart)=  0.00000291 RMS(Int)=  0.00000278
 Iteration  4 RMS(Cart)=  0.00000162 RMS(Int)=  0.00000300
 Iteration  5 RMS(Cart)=  0.00000090 RMS(Int)=  0.00000313
 Variable       Old X    -DE/DX   Delta X   Delta X   Delta X     New X
                                 (Linear)    (Quad)   (Total)
    R1        2.88803  -0.00028   0.00000  -0.00106  -0.00105   2.88698
    R2        2.90006  -0.00081   0.00000  -0.00396  -0.00396   2.89610
    R3        2.68579   0.00108   0.00000   0.00254   0.00254   2.68833
    R4        2.04627   0.00707   0.00000   0.01965   0.01965   2.06592
    R5        2.89559   0.00061   0.00000   0.00278   0.00278   2.89836
    R6        2.68426   0.00342   0.00000   0.00918   0.00918   2.69345
    R7        2.05219   0.00543   0.00000   0.01525   0.01525   2.06744
    R8        2.04436   0.00475   0.00000   0.01317   0.01317   2.05752
    R9        2.65448   0.00361   0.00000   0.00759   0.00760   2.66208
   R10        2.68640   0.00307   0.00000   0.00706   0.00707   2.69347
   R11        2.66541   0.00283   0.00000   0.00662   0.00662   2.67203
   R12        2.04150   0.00505   0.00000   0.01391   0.01391   2.05541
   R13        2.05168   0.00619   0.00000   0.01738   0.01738   2.06905
   R14        2.88741  -0.00034   0.00000  -0.00240  -0.00241   2.88500
   R15        2.05213   0.00368   0.00000   0.01033   0.01033   2.06246
   R16        2.04868   0.00322   0.00000   0.00898   0.00898   2.05766
   R17        2.64086   0.00341   0.00000   0.00736   0.00736   2.64821
   R18        2.89059  -0.00147   0.00000  -0.00474  -0.00475   2.88584
   R19        2.87374  -0.00067   0.00000  -0.00252  -0.00254   2.87119
   R20        2.04971   0.00317   0.00000   0.00887   0.00887   2.05858
   R21        2.05328   0.00333   0.00000   0.00938   0.00938   2.06266
   R22        2.88903  -0.00090   0.00000  -0.00240  -0.00241   2.88662
   R23        2.05345   0.00344   0.00000   0.00969   0.00969   2.06314
   R24        2.05164   0.00258   0.00000   0.00723   0.00723   2.05887
   R25        2.04211   0.00810   0.00000   0.02234   0.02234   2.06445
   R26        2.87151   0.00012   0.00000   0.00069   0.00071   2.87222
   R27        2.05288   0.00283   0.00000   0.00796   0.00796   2.06083
   R28        2.05526   0.00325   0.00000   0.00919   0.00919   2.06445
   R29        2.04328   0.00441   0.00000   0.01219   0.01219   2.05547
   R30        2.05004   0.00640   0.00000   0.01792   0.01792   2.06796
   R31        2.05270   0.00346   0.00000   0.00973   0.00973   2.06243
   R32        2.04963   0.00277   0.00000   0.00773   0.00773   2.05736
    A1        1.91767   0.00046   0.00000  -0.00695  -0.00707   1.91060
    A2        1.89093  -0.00096   0.00000  -0.00487  -0.00486   1.88607
    A3        1.88793   0.00075   0.00000   0.00813   0.00818   1.89610
    A4        1.93985   0.00053   0.00000  -0.00175  -0.00176   1.93809
    A5        1.92915  -0.00104   0.00000   0.00129   0.00132   1.93047
    A6        1.89709   0.00026   0.00000   0.00441   0.00439   1.90149
    A7        1.95083   0.00186   0.00000   0.00512   0.00502   1.95586
    A8        1.93891  -0.00116   0.00000  -0.00632  -0.00635   1.93256
    A9        1.93260  -0.00089   0.00000  -0.00587  -0.00583   1.92678
   A10        1.90394   0.00045   0.00000   0.00754   0.00762   1.91156
   A11        1.84308  -0.00086   0.00000  -0.00210  -0.00208   1.84100
   A12        1.89114   0.00061   0.00000   0.00198   0.00193   1.89307
   A13        2.02274  -0.00573   0.00000  -0.03724  -0.03715   1.98558
   A14        1.94265   0.00064   0.00000   0.00043   0.00026   1.94291
   A15        1.92708  -0.00162   0.00000  -0.01649  -0.01648   1.91060
   A16        1.92124  -0.00064   0.00000  -0.00023  -0.00025   1.92099
   A17        1.87044  -0.00032   0.00000  -0.00053  -0.00055   1.86989
   A18        1.91129   0.00127   0.00000   0.01320   0.01323   1.92453
   A19        1.88975   0.00070   0.00000   0.00390   0.00384   1.89359
   A20        1.91423  -0.00061   0.00000  -0.00615  -0.00632   1.90791
   A21        1.89586  -0.00029   0.00000  -0.00857  -0.00853   1.88733
   A22        1.93314  -0.00006   0.00000   0.00136   0.00144   1.93458
   A23        1.91106   0.00086   0.00000   0.00328   0.00327   1.91433
   A24        1.93427  -0.00014   0.00000   0.00282   0.00286   1.93712
   A25        1.87442   0.00027   0.00000   0.00734   0.00730   1.88173
   A26        2.03448  -0.01155   0.00000  -0.04561  -0.04561   1.98887
   A27        1.95222  -0.00163   0.00000  -0.01494  -0.01508   1.93714
   A28        1.94698  -0.00031   0.00000  -0.00156  -0.00166   1.94532
   A29        1.91062   0.00120   0.00000   0.00740   0.00749   1.91811
   A30        1.90108   0.00073   0.00000  -0.00080  -0.00078   1.90031
   A31        1.87394   0.00008   0.00000   0.00389   0.00389   1.87783
   A32        1.87603   0.00001   0.00000   0.00708   0.00705   1.88308
   A33        1.91448   0.00192   0.00000  -0.00160  -0.00160   1.91288
   A34        1.92208  -0.00099   0.00000  -0.00655  -0.00656   1.91553
   A35        1.91602  -0.00055   0.00000   0.00166   0.00165   1.91767
   A36        1.91421  -0.00084   0.00000  -0.00174  -0.00183   1.91238
   A37        1.92980  -0.00024   0.00000   0.00233   0.00239   1.93219
   A38        1.86682   0.00064   0.00000   0.00600   0.00600   1.87282
   A39        1.94054   0.00034   0.00000  -0.00249  -0.00233   1.93821
   A40        1.94385   0.00332   0.00000   0.01196   0.01175   1.95559
   A41        1.82919  -0.00221   0.00000  -0.00960  -0.00961   1.81958
   A42        1.89658  -0.00329   0.00000  -0.01622  -0.01613   1.88045
   A43        1.91886   0.00186   0.00000   0.01294   0.01293   1.93179
   A44        1.93458   0.00013   0.00000   0.00429   0.00436   1.93895
   A45        1.92401  -0.00102   0.00000  -0.00544  -0.00565   1.91835
   A46        1.93891  -0.00051   0.00000  -0.00164  -0.00161   1.93730
   A47        1.91606   0.00091   0.00000   0.00148   0.00156   1.91762
   A48        1.90330   0.00060   0.00000   0.00361   0.00367   1.90697
   A49        1.90515   0.00005   0.00000  -0.00138  -0.00133   1.90382
   A50        1.87551  -0.00000   0.00000   0.00362   0.00359   1.87910
   A51        1.94423   0.00233   0.00000   0.00597   0.00591   1.95014
   A52        1.84208  -0.00133   0.00000  -0.00196  -0.00197   1.84011
   A53        1.90902   0.00019   0.00000   0.00172   0.00179   1.91081
   A54        1.94594  -0.00028   0.00000  -0.00189  -0.00182   1.94412
   A55        1.93237  -0.00165   0.00000  -0.00773  -0.00777   1.92459
   A56        1.88721   0.00075   0.00000   0.00426   0.00425   1.89146
   A57        1.91468  -0.00055   0.00000  -0.00936  -0.00944   1.90524
   A58        1.92829   0.00066   0.00000   0.00303   0.00301   1.93130
   A59        1.90616  -0.00007   0.00000   0.00410   0.00413   1.91029
   A60        1.91312  -0.00041   0.00000  -0.00178  -0.00179   1.91134
   A61        1.93623   0.00045   0.00000   0.00227   0.00233   1.93856
   A62        1.86496  -0.00005   0.00000   0.00216   0.00213   1.86709
   A63        1.97844  -0.00450   0.00000  -0.02767  -0.02771   1.95073
    D1        0.52028   0.00169   0.00000   0.01465   0.01466   0.53494
    D2        2.59540   0.00064   0.00000   0.00353   0.00356   2.59895
    D3       -1.60230   0.00009   0.00000  -0.00218  -0.00213  -1.60443
    D4       -1.60201   0.00135   0.00000   0.02410   0.02408  -1.57793
    D5        0.47311   0.00031   0.00000   0.01298   0.01297   0.48608
    D6        2.55860  -0.00025   0.00000   0.00728   0.00729   2.56589
    D7        2.62761   0.00115   0.00000   0.01708   0.01705   2.64466
    D8       -1.58046   0.00011   0.00000   0.00596   0.00595  -1.57451
    D9        0.50503  -0.00045   0.00000   0.00026   0.00027   0.50530
[...]
 6,-0.00025322,-0.00003594,-0.00017179,-0.00002346,-0.00005253,-0.00024
 497,-0.00000746,0.00029293,-0.00001460,0.00000385,0.00001497,-0.000019
 24,-0.00001060,-0.00000162,0.00005921,-0.00014254,0.00000122,-0.000133
 47,0.00006836,0.00001796,-0.00004313,-0.00000646,-0.00014107,0.0003315
 4,-0.00019649,0.00015437,-0.00088117,-0.00014442,0.00050588,-0.0003310
 7,-0.00045451,0.00089145,-0.00021549,-0.00002164,0.00000725,0.00074357
 ,0.00132645,-0.00020899,-0.02683472,-0.06966616,0.08783455,0.00022717,
 0.00000823,-0.00013855,0.00002664,0.00000346,-0.00000013,-0.00525260,-
 0.00170638,0.00432710,0.00001279,-0.00005052,0.00004062,-0.00002638,0.
 00002877,0.00002319,-0.00055741,0.00019005,-0.00017719,0.00038437,0.00
 001098,-0.00241956,-0.00544974,-0.00943569,0.00129195,0.00131253,0.000
 80602,0.00137706,-0.09171149,-0.09444801,0.01696217,-0.00809777,-0.022
 87787,0.00051537,-0.00000132,-0.00002319,-0.00000994,-0.00006302,0.000
 01558,-0.00003327,0.00003401,-0.00002262,-0.00000927,-0.00000612,0.000
 00554,0.00000111,-0.00000488,-0.00000213,-0.00000229,0.00000585,-0.000
 00369,-0.00000335,-0.00002289,0.00001929,-0.00000140,-0.00000101,-0.00
 000558,-0.00000020,0.00000564,0.00000073,-0.00000235,-0.00004992,-0.00
 058199,0.00020491,-0.00003322,-0.00034485,0.00010673,0.00016008,0.0001
 1364,0.00045796,0.00036791,0.00039827,-0.00008620,-0.00003677,-0.00006
 933,-0.00015251,0.09710169,0.00015895,0.00000566,-0.00009450,0.0000200
 2,0.00000268,-0.00000168,0.00024724,0.00163210,-0.00069504,0.00001349,
 -0.00001977,0.00003942,-0.00002440,0.00002073,0.00001224,-0.00036027,0
 .00008391,0.00009709,-0.00079400,0.00071830,-0.00311938,-0.00358405,-0
 .00973914,0.00227089,0.00091058,0.00000016,-0.00022757,-0.09674516,-0.
 26548753,0.03685774,0.00205677,0.00223608,-0.00031966,-0.00000281,-0.0
 0001715,-0.00000681,-0.00004208,0.00000512,-0.00002028,-0.00000065,-0.
 00000353,0.00000316,-0.00000445,0.00000361,0.00000077,-0.00000352,-0.0
 0000189,-0.00000131,0.00000326,-0.00000789,0.00000044,-0.00001771,0.00
 001516,-0.00000088,-0.00000047,-0.00000286,0.00000004,0.00000268,0.000
 00062,-0.00000215,-0.00068300,-0.00063190,0.00034488,0.00021856,0.0003
 4046,-0.00002170,-0.00007014,0.00074924,-0.00014525,0.00038148,0.00006
 707,0.00001467,-0.00002795,-0.00000057,0.00014006,0.10679160,0.2861261
 0,-0.00006499,-0.00000902,-0.00001720,-0.00001212,-0.00000290,0.000002
 17,0.00669984,0.00188804,-0.00278921,-0.00002580,0.00002718,0.00001594
 ,-0.00000622,-0.00000486,0.00000570,0.00027214,-0.00003533,0.00044161,
 -0.00202466,-0.00151592,-0.00577168,-0.01273739,-0.02772825,0.00568659
 ,-0.00041520,-0.00076852,-0.00236155,0.01771221,0.03681511,-0.05328468
 ,0.00479058,0.02083016,-0.00156184,-0.00000189,0.00000398,0.00000151,0
 .00003168,-0.00000997,0.00001541,-0.00004325,0.00001911,0.00004798,0.0
 0000250,-0.00000144,-0.00000056,0.00000224,0.00000103,0.00000049,0.000
 00144,-0.00000035,-0.00000087,0.00000534,-0.00000014,-0.00000095,0.000
 00637,0.00000667,0.00000249,-0.00000035,0.00000221,-0.00000258,-0.0010
 9448,-0.00158335,0.00034356,0.00018715,0.00004282,-0.00001764,0.000345
 61,0.00079237,0.00128250,0.00084921,0.00053660,0.00118403,-0.00003256,
 0.00018893,0.00034068,-0.01822376,-0.03869988,0.05789505,0.00021647,0.
 00000116,-0.00004841,0.00002059,0.00000509,-0.00000826,0.00240068,-0.0
 0065490,-0.00092544,0.00006473,0.00000979,0.00001539,-0.00001540,0.000
 01405,0.00000579,-0.00008051,-0.00019869,-0.00003361,0.00003536,0.0006
 1411,0.00023732,-0.00788449,0.00639346,-0.00459133,-0.00025628,0.00010
 200,-0.00000284,-0.17693192,0.10828674,-0.06759160,-0.02019576,0.01740
 330,-0.00820238,-0.00000290,-0.00001389,-0.00000457,-0.00005493,-0.000
 01275,-0.00001176,0.00002209,0.00000738,0.00000214,-0.00000431,0.00000
 276,0.00000179,-0.00000520,-0.00000311,-0.00000041,0.00001581,-0.00002
 849,0.00001979,-0.00001260,0.00000767,0.00000156,-0.00000373,-0.000002
 04,-0.00000113,-0.00000066,-0.00000282,-0.00000111,0.00017982,-0.00017
 553,0.00004280,-0.00022657,-0.00044623,0.00001449,0.00032364,-0.000976
 12,-0.00182541,0.00068101,-0.00034555,0.00009512,-0.00009068,-0.000027
 95,0.00000153,0.01039197,-0.00752992,0.00508047,0.19306645,-0.00014924
 ,-0.00003570,0.00011231,-0.00001452,-0.00000272,0.00000296,-0.00010228
 ,0.00196768,-0.00012900,-0.00001966,0.00001143,-0.00002756,0.00001465,
 -0.00000938,-0.00000812,0.00032875,0.00001666,0.00011091,-0.00031302,0
 .00119766,-0.00009177,-0.00967969,0.00732524,-0.00464074,-0.00026503,-
 0.00016049,-0.00046187,0.11020183,-0.14455868,0.05826128,0.00179912,-0
 .00428905,0.00122183,0.00000135,0.00000905,0.00000341,0.00003270,0.000
 00244,0.00001257,-0.00003508,0.00000173,-0.00000495,0.00000309,-0.0000
 0205,-0.00000084,0.00000311,0.00000132,0.00000083,-0.00001321,0.000008
 44,-0.00000646,0.00001055,-0.00001051,0.00000197,-0.00000004,0.0000003
 8,-0.00000043,-0.00000164,0.00000051,0.00000142,0.00019708,0.00012540,
 0.00003782,0.00032831,-0.00002571,-0.00002360,-0.00142388,-0.00001350,
 -0.00230153,0.00030672,0.00048975,0.00072186,0.00005898,0.00002241,0.0
 0005547,0.02047909,-0.01655899,0.00979883,-0.12207983,0.15324606,-0.00
 002831,-0.00008675,-0.00003114,-0.00000373,-0.00000163,0.00000648,-0.0
 0243718,-0.00010683,0.00076419,-0.00003955,-0.00001688,0.00000406,-0.0
 0001304,0.00000755,0.00002883,-0.00008583,0.00017932,0.00019436,0.0008
 0607,0.00113663,0.00102394,-0.02163026,0.01822704,-0.01357560,0.000077
 34,-0.00021186,-0.00027344,-0.06847440,0.05933934,-0.08266902,0.018825
 99,-0.01637044,0.00768766,-0.00000293,-0.00000483,-0.00000228,0.000019
 88,0.00001158,0.00000174,-0.00003230,-0.00001295,0.00003193,0.00000050
 ,0.00000023,-0.00000085,0.00000220,0.00000121,-0.00000054,-0.00001094,
 0.00001700,-0.00002054,-0.00000135,0.00000122,-0.00000072,0.00000789,0
 .00000289,-0.00000121,0.00000140,0.00000254,-0.00000130,0.00041681,-0.
 00014504,0.00002305,0.00003313,-0.00066771,0.00033346,-0.00215007,-0.0
 0311918,-0.00457108,0.00076021,0.00041031,0.00105251,-0.00007357,0.000
 03266,0.00010261,-0.00316432,0.00278822,-0.00252355,0.07400559,-0.0614
 9890,0.09378823,0.00056491,0.00001469,-0.00026518,0.00004915,0.0000109
 2,-0.00001496,-0.00810389,-0.01133632,-0.01509492,0.00010289,0.0000050
 7,0.00003834,-0.00006062,0.00003786,0.00003120,-0.00043222,-0.00050159
 ,-0.00013711,-0.00034648,-0.00028418,-0.00021925,-0.00446030,-0.000041
 42,0.00279656,-0.00050643,-0.00136322,0.00261395,0.01016348,0.00828817
 ,0.02450979,-0.08013965,-0.02148337,-0.08052978,0.00000050,-0.00003640
 ,-0.00001416,-0.00013203,-0.00001179,-0.00003196,0.00001271,-0.0000039
 3,0.00000481,-0.00001283,0.00000817,0.00000262,-0.00001281,-0.00000619
 ,-0.00000199,0.00002851,-0.00006284,0.00003076,-0.00004497,0.00002441,
 0.00000788,-0.00000390,-0.00000784,0.00000505,0.00000708,-0.00000366,-
 0.00000563,0.00017170,0.00007812,-0.00013732,0.00004940,0.00005830,-0.
 00004282,0.00007371,-0.00013291,0.00011918,0.00051078,0.00065946,0.001
 47146,-0.00026729,-0.00048081,-0.00070645,0.00073269,-0.00046042,-0.00
 105805,0.00123741,0.00000977,-0.00093594,0.08735863,0.00021218,0.00004
 511,-0.00015632,0.00000926,0.00000088,0.00001487,-0.01972637,-0.021639
 35,-0.03248693,-0.00007577,-0.00008273,0.00007175,-0.00000736,-0.00000
 637,0.00002747,-0.00053186,0.00161612,-0.00031644,-0.00038714,-0.00009
 702,0.00008535,0.00001559,0.00088582,0.00006369,0.00020453,-0.00464574
 ,0.00538716,0.00095272,0.00026450,-0.00302251,-0.01801108,-0.06490969,
 -0.05718970,0.00000843,-0.00000022,-0.00002226,-0.00001877,0.00003269,
 -0.00003101,0.00003785,-0.00003701,0.00001787,-0.00000470,0.00000585,-
 0.00000190,-0.00000053,0.00000027,-0.00000325,-0.00001900,0.00003487,-
 0.00002739,-0.00001959,0.00002470,-0.00000713,0.00000884,-0.00000734,-
 0.00000049,0.00000726,0.00002103,-0.00001721,0.00015016,0.00008831,-0.
 00018109,0.00001482,0.00000393,-0.00000352,-0.00014052,-0.00002505,-0.
 00032205,-0.00012530,0.00023447,0.00005003,-0.00063839,-0.00086063,-0.
 00133254,0.00025436,0.00010410,-0.00019483,-0.00051954,0.00004943,-0.0
 0006377,0.03226488,0.08117708,0.00022613,-0.00004637,-0.00007773,0.000
 03081,0.00000431,-0.00000857,0.00212114,0.00130325,0.00827505,0.000065
 17,-0.00000193,0.00002712,-0.00004110,0.00003936,0.00000826,-0.0002088
 5,-0.00034453,0.00007051,0.00013220,0.00054668,0.00018550,0.00494028,0
 .00020107,-0.00121497,0.00121381,0.00199868,0.00154843,-0.00782197,-0.
 00473487,-0.01807584,-0.08483168,-0.06783531,-0.27431608,-0.00000432,-
 0.00002749,-0.00000497,-0.00006829,-0.00000344,-0.00002158,-0.00003042
 ,-0.00002091,-0.00004664,-0.00000603,0.00000460,0.00000210,-0.00000638
 ,-0.00000291,-0.00000084,0.00000557,-0.00002829,0.00001244,-0.00002295
 ,0.00001492,0.00000400,-0.00000456,-0.00000437,0.00000042,0.00000484,-
 0.00000640,0.00000154,-0.00012450,-0.00007871,0.00001926,0.00000076,-0
 .00007781,0.00002895,0.00002178,0.00015716,0.00027980,-0.00053402,-0.0
 0082066,-0.00123014,0.00001141,0.00013881,0.00013050,0.00007984,0.0003
 5513,0.00022475,-0.00003249,-0.00019774,0.00118716,0.08767883,0.071396
 10,0.29068378,0.00013777,-0.00023656,-0.00011001,-0.00005491,-0.000018
 44,0.00004151,0.01358027,-0.01585674,0.00661147,-0.00024597,-0.0001299
 5,0.00001095,-0.00003975,-0.00004898,0.00012921,-0.00165204,-0.0012663
 1,-0.00094029,-0.00005088,-0.00012426,0.00005827,0.00092200,-0.0005466
 4,-0.00112364,0.00103929,0.00024931,0.00031518,-0.01901525,0.01617467,
 -0.00814980,-0.17563643,0.11647191,-0.05696797,-0.00000663,0.00000989,
 0.00001460,0.00017434,0.00002470,0.00001269,0.00003519,-0.00009655,0.0
 0032279,0.00001194,-0.00000382,-0.00000671,0.00001784,0.00001104,-0.00
 000181,0.00007728,0.00015950,-0.00017186,0.00004759,0.00004241,-0.0000
 2943,0.00003735,0.00004910,0.00000472,0.00000046,0.00002100,-0.0000057
 3,0.00007996,0.00008695,-0.00003676,-0.00006239,-0.00005319,-0.0000158
 5,0.00041813,0.00009952,0.00068632,0.00011849,-0.00030938,0.00005987,-
 0.00016117,0.00016638,0.00000099,0.00056778,-0.00044228,-0.00024943,-0
 .00288128,0.00031480,0.00412855,-0.00651215,0.00609734,-0.00277876,0.1
 8904287,-0.00064913,-0.00019423,-0.00009411,-0.00004358,-0.00001421,0.
 00003682,0.00845839,-0.03981669,0.01116790,-0.00024229,-0.00004325,0.0
 0003372,0.00004614,-0.00003470,0.00005497,-0.00120481,0.00251047,-0.00
 100423,-0.00049159,-0.00019379,-0.00051479,-0.00019086,-0.00018053,0.0
 0033818,0.00487481,-0.00013945,0.00587241,0.00301922,0.00028097,0.0008
 4210,0.11220960,-0.14882837,0.04618751,0.00000957,0.00003607,-0.000007
 75,0.00015129,0.00007277,0.00000388,-0.00006186,-0.00016100,0.00006315
 ,0.00000933,-0.00000208,-0.00000668,0.00001530,0.00000850,-0.00000149,
 -0.00006446,0.00012339,-0.00001989,0.00000070,-0.00001677,-0.00001161,
 0.00002880,0.00000916,-0.00000444,0.00001038,0.00003076,-0.00001261,0.
 00011227,0.00000227,-0.00023888,-0.00004855,0.00005719,0.00006987,0.00
 001199,-0.00015065,-0.00029142,-0.00009957,0.00010636,-0.00009300,-0.0
 0038922,-0.00001280,-0.00040784,0.00044046,0.00035655,-0.00039749,0.00
 016769,0.00119304,0.00014767,-0.00525145,0.00771720,-0.00193311,-0.120
 84340,0.17728677,-0.00023263,0.00003804,0.00036593,-0.00002410,-0.0000
 0048,0.00000477,-0.00023889,0.00848544,0.00108559,-0.00002221,-0.00005
 952,-0.00000272,0.00004712,-0.00004614,-0.00009104,-0.00019730,-0.0012
 9577,-0.00003411,0.00016457,-0.00017107,-0.00000990,0.00029090,-0.0002
 5007,0.00188805,-0.00042294,-0.00144598,-0.00137357,0.01700732,-0.0151
 1008,0.00686146,-0.05688764,0.05070007,-0.07960637,0.00001482,0.000030
 77,0.00001115,0.00005849,-0.00000087,0.00000621,0.00006426,0.00009846,
 -0.00010336,0.00000585,-0.00000374,-0.00000284,0.00000579,0.00000327,0
 .00000192,0.00004256,0.00006451,-0.00005212,0.00005673,0.00000580,-0.0
 0001712,-0.00001607,-0.00000735,-0.00000259,-0.00000105,0.00000698,0.0
 0000084,-0.00006472,-0.00001866,0.00007633,-0.00003854,0.00007443,-0.0
 0001548,-0.00030764,0.00049590,-0.00009784,-0.00019142,0.00028957,0.00
 006469,0.00000895,0.00015176,0.00003439,-0.00096781,0.00042829,0.00084
 342,0.00375421,-0.00094792,-0.00255841,-0.02012356,0.01826245,-0.00769
 725,0.05819738,-0.05977287,0.08042338,0.00123137,0.00048226,0.00127683
 ,-0.00304040,-0.00328351,-0.01052490,0.00001020,-0.00002586,-0.0000292
 7,-0.00011651,-0.00031293,0.00009197,-0.00199300,0.01298180,0.03145033
 ,0.00015309,-0.00031052,-0.00047320,0.00001947,-0.00003058,0.00001047,
 -0.00000579,0.00000056,0.00000463,0.00003617,0.00011250,-0.00002681,0.
 00000226,0.00000061,-0.00000040,-0.00000980,-0.00000540,-0.00000933,-0
 .04816411,-0.00093745,0.00370734,0.00052473,0.00014179,0.00002906,-0.0
 0019495,-0.00010473,-0.00040112,0.00062499,-0.00039278,-0.00011350,0.0
 0020052,0.00209370,-0.00183263,0.00001485,0.00004985,-0.00010000,-0.00
 005653,-0.00052351,0.00035172,-0.00595887,0.00190017,0.00114986,0.0012
 7995,-0.00022916,-0.00074107,0.00000180,0.00000180,-0.00000201,0.00000
 620,-0.00000217,-0.00000583,-0.00000056,-0.00000157,0.00000158,0.00000
 023,-0.00000204,0.00000086,0.00002369,-0.00002838,0.00003822,0.0000002
 8,0.00000042,-0.00000097,0.00000068,0.00000006,-0.00000008,-0.00000035
 ,-0.00000102,0.00000010,-0.00000268,-0.00000194,-0.00000022,0.05473845
 ,-0.00072503,0.00011001,0.00076818,0.00140999,0.00898404,0.02355952,0.
 00010693,0.00003029,0.00005569,-0.00018917,-0.00053975,0.00021892,0.00
 061200,-0.00464492,-0.01040850,0.00029814,0.00000203,-0.00002292,0.000
 01412,0.00000142,0.00001906,0.00000457,-0.00001012,-0.00000665,-0.0002
 1938,0.00008717,-0.00012543,-0.00000375,0.00000527,-0.00000236,-0.0000
 3447,-0.00003739,0.00000879,-0.00056577,-0.08759192,-0.09361891,0.0000
 3288,-0.00051645,0.00020425,0.00029476,0.00021944,-0.00020324,-0.00056
 079,0.00150029,-0.00044426,0.00100286,-0.00217755,0.00314685,0.0000124
 3,0.00011245,0.00000251,-0.00066156,-0.00045847,0.00029891,0.00235542,
 0.00023531,0.00016517,-0.00036775,-0.00001460,0.00012406,-0.00000203,0
 .00000102,0.00000098,0.00001586,-0.00000230,-0.00000627,-0.00000012,-0
 .00000168,0.00000329,0.00000719,0.00000425,-0.00000277,-0.00001555,0.0
 0000736,-0.00000485,0.00000451,0.00000289,-0.00000116,0.00000226,-0.00
 000171,0.00000030,0.00000745,0.00000458,0.00000359,-0.00000429,-0.0000
 0412,-0.00000270,-0.00392224,0.09438956,-0.00009568,-0.00062599,0.0004
 6879,-0.00178150,-0.00939701,-0.01889340,0.00006501,0.00001951,0.00003
 303,-0.00047934,-0.00107819,-0.00128074,0.00193417,-0.00251004,-0.0058
 9843,0.00019298,0.00005160,0.00007023,0.00000343,0.00001242,0.00000681
 ,0.00000406,-0.00000724,-0.00000551,-0.00012262,0.00004844,-0.00006394
 ,-0.00000128,0.00000332,-0.00000179,-0.00001940,-0.00002338,0.00000683
 ,0.00262318,-0.09057415,-0.27248997,0.00081684,0.00177008,-0.00007556,
 0.00054836,0.00031413,-0.00023784,0.00034107,0.00007978,0.00161044,-0.
 00070188,0.00317635,-0.00149939,0.00001258,0.00018157,0.00033418,-0.00
 018678,0.00042586,0.00059829,0.00109855,-0.00047934,0.00103947,0.00041
 345,-0.00007824,0.00036091,-0.00000005,0.00000036,0.00000077,0.0000061
 3,-0.00000192,-0.00000199,-0.00000053,-0.00000137,0.00000145,0.0000049
 9,0.00000289,-0.00000166,-0.00002423,0.00001594,-0.00001154,0.00000240
 ,0.00000202,-0.00000085,0.00000146,-0.00000107,0.00000003,0.00000511,0
 .00000324,0.00000253,-0.00000181,-0.00000251,-0.00000160,-0.00392051,0
 .09932418,0.29645499,-0.00222192,0.00472423,0.00184056,0.00608813,0.00
 708042,0.00026144,-0.00038431,-0.00007515,-0.00027360,-0.00059733,0.00
 082975,-0.00024529,-0.02003292,-0.02431730,-0.00251796,-0.00336459,-0.
 00105823,0.00058077,-0.00007978,0.00005993,-0.00011165,-0.00000101,0.0
 0003768,0.00002101,0.00098477,-0.00083761,0.00074596,0.00001480,-0.000
 01654,0.00001104,0.00013548,0.00013893,-0.00001727,-0.15775752,-0.1338
 7896,-0.00526619,0.00099293,0.00155447,-0.00132195,-0.00002544,-0.0002
 5074,-0.00029529,-0.00094228,-0.00017477,0.00056231,0.00124116,0.00005
 263,0.00013667,0.00008039,-0.00006750,0.00013672,0.00014325,-0.0000148
 1,0.00003659,0.00132220,-0.00000516,0.00023603,0.00136046,0.00002755,-
 0.00061897,0.00000408,-0.00000381,0.00000314,-0.00007434,0.00002009,0.
 00004207,-0.00000055,0.00001873,-0.00001942,-0.00003389,-0.00001046,0.
 00000845,0.00006135,0.00008543,-0.00009578,-0.00001686,-0.00001180,0.0
 0000435,-0.00000950,0.00000717,-0.00000177,-0.00002763,-0.00001127,-0.
 00001637,0.00001299,0.00001678,0.00001778,0.00067461,0.00109053,-0.000
 73816,0.17245327,0.00224495,-0.00094413,-0.00068500,-0.01424721,-0.014
 21231,-0.00264033,0.00002533,-0.00000910,0.00003845,0.00131503,0.00008
 330,0.00044376,0.00934923,0.01118280,0.00127638,0.00107765,0.00047754,
 -0.00032673,0.00001093,-0.00001751,0.00000773,-0.00000049,-0.00000288,
 -0.00000113,-0.00011116,0.00019689,-0.00012181,-0.00000327,0.00000151,
 -0.00000331,-0.00001099,-0.00001513,0.00000155,-0.13552672,-0.20835819
 ,-0.00632291,-0.00029341,-0.00335036,0.00265482,0.00001171,0.00018971,
 0.00013058,0.00104804,-0.00049028,0.00044207,-0.00028638,0.00160492,0.
 00002902,-0.00011259,0.00002286,0.00001942,-0.00020365,0.00009930,0.00
 010134,-0.00080530,0.00026420,0.00011643,-0.00082574,0.00066041,0.0002
 1371,-0.00000034,-0.00000002,0.00000028,0.00000822,-0.00000442,-0.0000
 0557,0.00000132,-0.00000437,0.00000279,0.00000393,-0.00000103,0.000000
 55,-0.00001366,-0.00002926,0.00002415,0.00000127,0.00000069,0.00000040
 ,-0.00000008,-0.00000013,0.00000109,0.00000107,0.00000023,0.00000120,0
 .00000225,0.00000118,-0.00000251,-0.00764975,-0.00969641,-0.00065124,0
 .14498980,0.22234996,0.00054466,-0.00073010,0.00062787,0.01517124,0.01
 527362,-0.00032183,0.00004652,0.00000004,0.00002616,-0.00114324,-0.000
 88791,-0.00122091,0.00475485,0.00580078,-0.00056203,0.00046019,0.00010
 563,-0.00005124,0.00000477,-0.00000177,0.00000610,0.00000189,-0.000002
 54,-0.00000320,-0.00009036,0.00011760,-0.00006333,-0.00000170,0.000000
 90,0.00000037,-0.00001955,-0.00001200,0.00000227,-0.00719277,-0.008269
 69,-0.04738145,0.00089738,0.00543808,-0.00361093,0.00029766,0.00019281
 ,-0.00003768,-0.00068205,0.00048821,0.00008259,0.00086304,-0.00021351,
 0.00080817,0.00009302,0.00009359,0.00022834,-0.00013393,0.00019795,0.0
 0038535,-0.00039604,0.00042538,0.00024239,-0.00043834,-0.00020114,0.00
 017559,0.00000061,0.00000012,-0.00000064,0.00000494,-0.00000181,-0.000
 00338,0.00000054,-0.00000217,0.00000152,0.00000386,0.00000043,-0.00000
 081,-0.00001272,-0.00001009,0.00000562,0.00000167,0.00000103,-0.000000
 72,0.00000130,-0.00000097,-0.00000055,0.00000355,0.00000039,0.00000252
 ,-0.00000465,-0.00000346,-0.00000180,-0.01993112,-0.02305423,-0.000524
 55,0.00689477,0.00525482,0.05119019\\-0.00078870,0.00027300,-0.0011062
 2,-0.00000474,0.00000814,-0.00000240,0.00001256,0.00000957,0.00001792,
 -0.00000032,0.00001290,0.00000653,0.00044497,-0.00045275,0.00066917,0.
 00076930,0.00099988,0.00086718,-0.00000784,-0.00000351,-0.00000582,0.0
 0000641,0.00000399,-0.00000179,-0.00042768,-0.00085138,-0.00045021,-0.
 00000257,-0.00000309,0.00000201,-0.00000508,0.00000104,0.00000618,0.00
 000177,-0.00000323,-0.00000292,-0.00000369,-0.00000217,-0.00000638,-0.
 00000090,-0.00000148,0.00000058,0.00000285,0.00000316,-0.00000003,0.00
 000146,0.00000781,-0.00000252,0.00000045,0.00000046,0.00000341,-0.0000
 0029,-0.00000088,-0.00000092,-0.00000101,0.00000454,-0.00000379,-0.000
 00125,-0.00000041,-0.00000588,0.00000248,0.00000033,-0.00000132,-0.000
 00010,0.00000217,0.00000152,0.00000156,-0.00000176,0.00000491,0.000000
 20,0.00000151,0.00000231,-0.00000413,0.00000824,-0.00000414,0.00000113
 ,-0.00000213,0.00000697,-0.00000063,-0.00000464,0.00000088,0.00000169,
 -0.00000513,0.00000415,0.00000206,-0.00000601,0.00000577,-0.00000024,-
 0.00000068,-0.00000152,0.00000026,0.00000250,-0.00000363\\\@


 What some people mistake for the high cost
 of living is really the cost of living high.
                              -- Doug Larson
 Job cpu time:       0 days 14 hours 14 minutes 22.9 seconds.
 Elapsed time:       0 days  0 hours 53 minutes 25.3 seconds.
 File lengths (MBytes):  RWF=    696 Int=      0 D2E=      0 Chk=     33 Scr=      1
 Normal termination of Gaussian 16 at Sun Nov  4 22:50:50 2018.
