 Entering Gaussian System, Link 0=g16
 Initial command:
 /apps/gaussian/g16a03/g16/l1.exe "/jobfs/local/2012011.r-man2/Gau-12960.inp" -scrdir="/jobfs/local/2012011.r-man2/"
 Entering Link 1 = /apps/gaussian/g16a03/g16/l1.exe PID=     12961.
  
 Copyright (c) 1988,1990,1992,1993,1995,1998,2003,2009,2016,
            Gaussian, Inc.  All Rights Reserved.
  
 This is part of the Gaussian(R) 16 program.  It is based on
 the Gaussian(R) 09 system (copyright 2009, Gaussian, Inc.),
 the Gaussian(R) 03 system (copyright 2003, Gaussian, Inc.),
 the Gaussian(R) 98 system (copyright 1998, Gaussian, Inc.),
 the Gaussian(R) 94 system (copyright 1995, Gaussian, Inc.),
 the Gaussian 92(TM) system (copyright 1992, Gaussian, Inc.),
 the Gaussian 90(TM) system (copyright 1990, Gaussian, Inc.),
 the Gaussian 88(TM) system (copyright 1988, Gaussian, Inc.),
 the Gaussian 86(TM) system (copyright 1986, Carnegie Mellon
 University), and the Gaussian 82(TM) system (copyright 1983,
 Carnegie Mellon University). Gaussian is a federally registered
 trademark of Gaussian, Inc.
  
 This software contains proprietary and confidential information,
 including trade secrets, belonging to Gaussian, Inc.
  
 This software is provided under written license and may be
 used, copied, transmitted, or stored only in accord with that
 written license.
  
 The following legend is applicable only to US Government
 contracts under FAR:
  
                    RESTRICTED RIGHTS LEGEND
  
 Use, reproduction and disclosure by the US Government is
 subject to restrictions as set forth in subparagraphs (a)
 and (c) of the Commercial Computer Software - Restricted
 Rights clause in FAR 52.227-19.
  
 Gaussian, Inc.
 340 Quinnipiac St., Bldg. 40, Wallingford CT 06492
  
  
 ---------------------------------------------------------------
 Warning -- This program may not be used in any manner that
 competes with the business of Gaussian, Inc. or will provide
 assistance to any competitor of Gaussian, Inc.  The licensee
 of this program is prohibited from giving any competitor of
 Gaussian, Inc. access to this program.  By using this program,
 the user acknowledges that Gaussian, Inc. is engaged in the
 business of creating and licensing software in the field of
 computational chemistry and represents and warrants to the
 licensee that it is not a competitor of Gaussian, Inc. and that
 it will not use this program in any manner prohibited above.
 ---------------------------------------------------------------
  

 Cite this work as:
 Gaussian 16, Revision A.03,
 M. J. Frisch, G. W. Trucks, H. B. Schlegel, G. E. Scuseria, 
 M. A. Robb, J. R. Cheeseman, G. Scalmani, V. Barone, 
 G. A. Petersson, H. Nakatsuji, X. Li, M. Caricato, A. V. Marenich, 
 J. Bloino, B. G. Janesko, R. Gomperts, B. Mennucci, H. P. Hratchian, 
 J. V. Ortiz, A. F. Izmaylov, J. L. Sonnenberg, D. Williams-Young, 
 F. Ding, F. Lipparini, F. Egidi, J. Goings, B. Peng, A. Petrone, 
 T. Henderson, D. Ranasinghe, V. G. Zakrzewski, J. Gao, N. Rega, 
 G. Zheng, W. Liang, M. Hada, M. Ehara, K. Toyota, R. Fukuda, 
 J. Hasegawa, M. Ishida, T. Nakajima, Y. Honda, O. Kitao, H. Nakai, 
 T. Vreven, K. Throssell, J. A. Montgomery, Jr., J. E. Peralta, 
 F. Ogliaro, M. J. Bearpark, J. J. Heyd, E. N. Brothers, K. N. Kudin, 
 V. N. Staroverov, T. A. Keith, R. Kobayashi, J. Normand, 
 K. Raghavachari, A. P. Rendell, J. C. Burant, S. S. Iyengar, 
 J. Tomasi, M. Cossi, J. M. Millam, M. Klene, C. Adamo, R. Cammi, 
 J. W. Ochterski, R. L. Martin, K. Morokuma, O. Farkas, 
 J. B. Foresman, and D. J. Fox, Gaussian, Inc., Wallingford CT, 2016.
 
 ******************************************
 Gaussian 16:  ES64L-G16RevA.03 25-Dec-2016
                 4-Nov-2018 
 ******************************************
 %mem=6000mb
 %nproc=24
 Will use up to   24 processors via shared memory.
 %chk=D_a1-4_2SO_PSI.inp_extract_10.chk
 ----------------------------------------------------------------------
 #M062X/6-311++G(2d,2p) opt=ModRedundant freq=noraman SCRF=(Solvent=Wat
 er)
 ----------------------------------------------------------------------
 1/18=120,19=15,26=3,38=1/1,3;
 2/9=110,12=2,17=6,18=5,40=1/2;
 3/5=4,6=6,7=1212,11=2,25=1,30=1,70=2201,71=1,72=1,74=-55/1,2,3;
 4//1;
 5/5=2,38=5,53=1/2;
 6/7=2,8=2,9=2,10=2,28=1/1;
 7//1,2,3,16;
 1/18=20,19=15,26=3/3(2);
 2/9=110/2;
 99//99;
 2/9=110/2;
 3/5=4,6=6,7=1212,11=2,25=1,30=1,70=2205,71=1,72=1,74=-55/1,2,3;
 4/5=5,16=3,69=1/1;
 5/5=2,38=5,53=1/2;
 7//1,2,3,16;
 1/18=20,19=15,26=3/3(-5);
 2/9=110/2;
 6/7=2,8=2,9=2,10=2,19=2,28=1/1;
 99/9=1/99;
 -----------------------------
 D_a1-4_2SO_PSI.inp_extract_10
 -----------------------------
 Symbolic Z-matrix:
 Charge =  0 Multiplicity = 1
 C                     1.09949   1.11862   0.11889 
 C                     3.23118  -0.94483  -0.09817 
 O                    -1.11553  -0.73664  -0.91074 
 C                     1.71147   0.52466  -1.16052 
 C                     1.68415   0.39305   1.33227 
 O                    -0.32699   1.11821   0.24055 
 C                    -2.6003    1.10654  -0.41075 
 C                    -3.18914   0.32185   0.76156 
 C                    -1.1872    0.65571  -0.75672 
 C                    -3.05646  -1.17603   0.48963 
 C                    -1.6123   -1.51955   0.16715 
 C                     3.14708   0.04216   1.07134 
 O                     2.12317  -0.81099  -0.97557 
 H                     1.38331   2.1637    0.14914 
 H                     4.14981  -0.80871  -0.66132 
 H                     3.19789  -1.96577   0.25773 
 H                     1.03869   0.5341   -2.00104 
 H                     2.57207   1.12831  -1.43174 
 H                     1.11881  -0.51591   1.50491 
 H                     1.58101   1.01257   2.21688 
 H                    -2.58954   2.17284  -0.21321 
 H                    -3.21298   0.94546  -1.29374 
 H                    -2.66934   0.57426   1.68202 
 H                    -4.23063   0.59544   0.90024 
 H                    -0.90126   1.05961  -1.71524 
 H                    -3.37483  -1.76027   1.34839 
 H                    -3.68947  -1.45627  -0.34923 
 H                    -1.51093  -2.54737  -0.15295 
 H                    -0.98479  -1.37405   1.03864 
 H                     3.7069    0.94614   0.84853 
 H                     3.60209  -0.40176   1.95004 
 
 The following ModRedundant input section has been read:
 D       5       1       6       9 F                                           
 

 GradGradGradGradGradGradGradGradGradGradGradGradGradGradGradGradGradGrad
 Berny optimization.
 Initialization pass.
                           ----------------------------
                           !    Initial Parameters    !
                           ! (Angstroms and Degrees)  !
 --------------------------                            --------------------------
 ! Name  Definition              Value          Derivative Info.                !
 --------------------------------------------------------------------------------
 ! R1    R(1,4)                  1.5376         estimate D2E/DX2                !
 ! R2    R(1,5)                  1.5299         estimate D2E/DX2                !
 ! R3    R(1,6)                  1.4317         estimate D2E/DX2                !
 ! R4    R(1,14)                 1.0834         estimate D2E/DX2                !
 ! R5    R(2,12)                 1.5326         estimate D2E/DX2                !
 ! R6    R(2,13)                 1.4197         estimate D2E/DX2                !
 ! R7    R(2,15)                 1.0861         estimate D2E/DX2                !
 ! R8    R(2,16)                 1.0817         estimate D2E/DX2                !
 ! R9    R(3,9)                  1.4027         estimate D2E/DX2                !
 ! R10   R(3,11)                 1.4218         estimate D2E/DX2                !
 ! R11   R(4,13)                 1.4098         estimate D2E/DX2                !
 ! R12   R(4,17)                 1.0767         estimate D2E/DX2                !
 ! R13   R(4,18)                 1.0856         estimate D2E/DX2                !
 ! R14   R(5,12)                 1.5269         estimate D2E/DX2                !
 ! R15   R(5,19)                 1.0843         estimate D2E/DX2                !
 ! R16   R(5,20)                 1.0849         estimate D2E/DX2                !
 ! R17   R(6,9)                  1.3959         estimate D2E/DX2                !
 ! R18   R(7,8)                  1.5287         estimate D2E/DX2                !
 ! R19   R(7,9)                  1.5231         estimate D2E/DX2                !
 ! R20   R(7,21)                 1.0845         estimate D2E/DX2                !
 ! R21   R(7,22)                 1.0867         estimate D2E/DX2                !
 ! R22   R(8,10)                 1.5281         estimate D2E/DX2                !
 ! R23   R(8,23)                 1.0868         estimate D2E/DX2                !
 ! R24   R(8,24)                 1.0857         estimate D2E/DX2                !
 ! R25   R(9,25)                 1.0787         estimate D2E/DX2                !
 ! R26   R(10,11)                1.5191         estimate D2E/DX2                !
 ! R27   R(10,26)                1.0863         estimate D2E/DX2                !
 ! R28   R(10,27)                1.0876         estimate D2E/DX2                !
 ! R29   R(11,28)                1.0813         estimate D2E/DX2                !
 ! R30   R(11,29)                1.0837         estimate D2E/DX2                !
 ! R31   R(12,30)                1.0864         estimate D2E/DX2                !
 ! R32   R(12,31)                1.0845         estimate D2E/DX2                !
 ! A1    A(4,1,5)              108.9432         estimate D2E/DX2                !
 ! A2    A(4,1,6)              117.851          estimate D2E/DX2                !
 ! A3    A(4,1,14)             106.9543         estimate D2E/DX2                !
 ! A4    A(5,1,6)              108.2547         estimate D2E/DX2                !
 ! A5    A(5,1,14)             109.5868         estimate D2E/DX2                !
 ! A6    A(6,1,14)             105.0072         estimate D2E/DX2                !
 ! A7    A(12,2,13)            111.5963         estimate D2E/DX2                !
 ! A8    A(12,2,15)            111.1841         estimate D2E/DX2                !
 ! A9    A(12,2,16)            110.7965         estimate D2E/DX2                !
 ! A10   A(13,2,15)            109.1399         estimate D2E/DX2                !
 ! A11   A(13,2,16)            105.5634         estimate D2E/DX2                !
 ! A12   A(15,2,16)            108.3565         estimate D2E/DX2                !
 ! A13   A(9,3,11)             116.4548         estimate D2E/DX2                !
 ! A14   A(1,4,13)             111.9029         estimate D2E/DX2                !
 ! A15   A(1,4,17)             113.4215         estimate D2E/DX2                !
 ! A16   A(1,4,18)             107.9749         estimate D2E/DX2                !
 ! A17   A(13,4,17)            107.0491         estimate D2E/DX2                !
 ! A18   A(13,4,18)            109.151          estimate D2E/DX2                !
 ! A19   A(17,4,18)            107.184          estimate D2E/DX2                !
 ! A20   A(1,5,12)             109.8528         estimate D2E/DX2                !
 ! A21   A(1,5,19)             108.9416         estimate D2E/DX2                !
 ! A22   A(1,5,20)             109.8484         estimate D2E/DX2                !
 ! A23   A(12,5,19)            109.5195         estimate D2E/DX2                !
 ! A24   A(12,5,20)            111.2028         estimate D2E/DX2                !
 ! A25   A(19,5,20)            107.4168         estimate D2E/DX2                !
 ! A26   A(1,6,9)              123.6015         estimate D2E/DX2                !
 ! A27   A(8,7,9)              112.3115         estimate D2E/DX2                !
 ! A28   A(8,7,21)             111.644          estimate D2E/DX2                !
 ! A29   A(8,7,22)             109.2599         estimate D2E/DX2                !
 ! A30   A(9,7,21)             108.8566         estimate D2E/DX2                !
 ! A31   A(9,7,22)             107.1355         estimate D2E/DX2                !
 ! A32   A(21,7,22)            107.4176         estimate D2E/DX2                !
 ! A33   A(7,8,10)             109.4661         estimate D2E/DX2                !
 ! A34   A(7,8,23)             110.2466         estimate D2E/DX2                !
 ! A35   A(7,8,24)             109.7618         estimate D2E/DX2                !
 ! A36   A(10,8,23)            109.6841         estimate D2E/DX2                !
 ! A37   A(10,8,24)            110.6718         estimate D2E/DX2                !
 ! A38   A(23,8,24)            106.9833         estimate D2E/DX2                !
 ! A39   A(3,9,6)              112.0775         estimate D2E/DX2                !
 ! A40   A(3,9,7)              111.4792         estimate D2E/DX2                !
 ! A41   A(3,9,25)             105.1027         estimate D2E/DX2                !
 ! A42   A(6,9,7)              108.1436         estimate D2E/DX2                !
 ! A43   A(6,9,25)             110.3302         estimate D2E/DX2                !
 ! A44   A(7,9,25)             109.6902         estimate D2E/DX2                !
 ! A45   A(8,10,11)            109.9977         estimate D2E/DX2                !
 ! A46   A(8,10,26)            111.164          estimate D2E/DX2                !
 ! A47   A(8,10,27)            109.8325         estimate D2E/DX2                !
 ! A48   A(11,10,26)           108.9542         estimate D2E/DX2                !
 ! A49   A(11,10,27)           109.3479         estimate D2E/DX2                !
 ! A50   A(26,10,27)           107.491          estimate D2E/DX2                !
 ! A51   A(3,11,10)            111.6279         estimate D2E/DX2                !
 ! A52   A(3,11,28)            105.4407         estimate D2E/DX2                !
 ! A53   A(3,11,29)            109.4754         estimate D2E/DX2                !
 ! A54   A(10,11,28)           111.5266         estimate D2E/DX2                !
 ! A55   A(10,11,29)           110.4504         estimate D2E/DX2                !
 ! A56   A(28,11,29)           108.1438         estimate D2E/DX2                !
 ! A57   A(2,12,5)             109.3274         estimate D2E/DX2                !
 ! A58   A(2,12,30)            110.5531         estimate D2E/DX2                !
 ! A59   A(2,12,31)            109.3684         estimate D2E/DX2                !
 ! A60   A(5,12,30)            109.7275         estimate D2E/DX2                !
 ! A61   A(5,12,31)            110.9514         estimate D2E/DX2                !
 ! A62   A(30,12,31)           106.8924         estimate D2E/DX2                !
 ! A63   A(2,13,4)             113.4722         estimate D2E/DX2                !
 ! D1    D(5,1,4,13)            26.4011         estimate D2E/DX2                !
 ! D2    D(5,1,4,17)           147.6355         estimate D2E/DX2                !
 ! D3    D(5,1,4,18)           -93.7423         estimate D2E/DX2                !
 ! D4    D(6,1,4,13)           -97.3726         estimate D2E/DX2                !
 ! D5    D(6,1,4,17)            23.8618         estimate D2E/DX2                !
 ! D6    D(6,1,4,18)           142.484          estimate D2E/DX2                !
 ! D7    D(14,1,4,13)          144.7714         estimate D2E/DX2                !
 ! D8    D(14,1,4,17)          -93.9942         estimate D2E/DX2                !
 ! D9    D(14,1,4,18)           24.6279         estimate D2E/DX2                !
 ! D10   D(4,1,5,12)            35.6885         estimate D2E/DX2                !
 ! D11   D(4,1,5,19)           -84.2779         estimate D2E/DX2                !
 ! D12   D(4,1,5,20)           158.3139         estimate D2E/DX2                !
 ! D13   D(6,1,5,12)           164.9829         estimate D2E/DX2                !
 ! D14   D(6,1,5,19)            45.0165         estimate D2E/DX2                !
 ! D15   D(6,1,5,20)           -72.3917         estimate D2E/DX2                !
 ! D16   D(14,1,5,12)          -81.0146         estimate D2E/DX2                !
 ! D17   D(14,1,5,19)          159.019          estimate D2E/DX2                !
 ! D18   D(14,1,5,20)           41.6108         estimate D2E/DX2                !
 ! D19   D(4,1,6,9)             -2.4868         estimate D2E/DX2                !
 ! D20   D(5,1,6,9)           -126.6046         Frozen                          !
 ! D21   D(14,1,6,9)           116.4018         estimate D2E/DX2                !
 ! D22   D(13,2,12,5)           26.4355         estimate D2E/DX2                !
 ! D23   D(13,2,12,30)         -94.4635         estimate D2E/DX2                !
 ! D24   D(13,2,12,31)         148.101          estimate D2E/DX2                !
 ! D25   D(15,2,12,5)          148.5492         estimate D2E/DX2                !
 ! D26   D(15,2,12,30)          27.6502         estimate D2E/DX2                !
 ! D27   D(15,2,12,31)         -89.7853         estimate D2E/DX2                !
 ! D28   D(16,2,12,5)          -90.888          estimate D2E/DX2                !
 ! D29   D(16,2,12,30)         148.213          estimate D2E/DX2                !
 ! D30   D(16,2,12,31)          30.7774         estimate D2E/DX2                !
 ! D31   D(12,2,13,4)           37.9401         estimate D2E/DX2                !
 ! D32   D(15,2,13,4)          -85.343          estimate D2E/DX2                !
 ! D33   D(16,2,13,4)          158.3804         estimate D2E/DX2                !
 ! D34   D(11,3,9,6)            67.9614         estimate D2E/DX2                !
 ! D35   D(11,3,9,7)           -53.419          estimate D2E/DX2                !
 ! D36   D(11,3,9,25)         -172.1845         estimate D2E/DX2                !
 ! D37   D(9,3,11,10)           56.4004         estimate D2E/DX2                !
 ! D38   D(9,3,11,28)          177.6669         estimate D2E/DX2                !
 ! D39   D(9,3,11,29)          -66.2071         estimate D2E/DX2                !
 ! D40   D(1,4,13,2)           -68.2198         estimate D2E/DX2                !
 ! D41   D(17,4,13,2)          166.9318         estimate D2E/DX2                !
 ! D42   D(18,4,13,2)           51.234          estimate D2E/DX2                !
 ! D43   D(1,5,12,2)           -63.8464         estimate D2E/DX2                !
 ! D44   D(1,5,12,30)           57.5536         estimate D2E/DX2                !
 ! D45   D(1,5,12,31)          175.4484         estimate D2E/DX2                !
 ! D46   D(19,5,12,2)           55.7678         estimate D2E/DX2                !
 ! D47   D(19,5,12,30)         177.1678         estimate D2E/DX2                !
 ! D48   D(19,5,12,31)         -64.9374         estimate D2E/DX2                !
 ! D49   D(20,5,12,2)          174.3327         estimate D2E/DX2                !
 ! D50   D(20,5,12,30)         -64.2673         estimate D2E/DX2                !
 ! D51   D(20,5,12,31)          53.6275         estimate D2E/DX2                !
 ! D52   D(1,6,9,3)             69.6855         estimate D2E/DX2                !
 ! D53   D(1,6,9,7)           -167.0351         estimate D2E/DX2                !
 ! D54   D(1,6,9,25)           -47.0661         estimate D2E/DX2                !
 ! D55   D(9,7,8,10)           -51.9488         estimate D2E/DX2                !
 ! D56   D(9,7,8,23)            68.792          estimate D2E/DX2                !
 ! D57   D(9,7,8,24)          -173.6058         estimate D2E/DX2                !
 ! D58   D(21,7,8,10)         -174.5437         estimate D2E/DX2                !
 ! D59   D(21,7,8,23)          -53.8029         estimate D2E/DX2                !
 ! D60   D(21,7,8,24)           63.7994         estimate D2E/DX2                !
 ! D61   D(22,7,8,10)           66.7851         estimate D2E/DX2                !
 ! D62   D(22,7,8,23)         -172.4741         estimate D2E/DX2                !
 ! D63   D(22,7,8,24)          -54.8719         estimate D2E/DX2                !
 ! D64   D(8,7,9,3)             50.752          estimate D2E/DX2                !
 ! D65   D(8,7,9,6)            -72.8891         estimate D2E/DX2                !
 ! D66   D(8,7,9,25)           166.7409         estimate D2E/DX2                !
 ! D67   D(21,7,9,3)           174.9081         estimate D2E/DX2                !
 ! D68   D(21,7,9,6)            51.267          estimate D2E/DX2                !
 ! D69   D(21,7,9,25)          -69.103          estimate D2E/DX2                !
 ! D70   D(22,7,9,3)           -69.2237         estimate D2E/DX2                !
 ! D71   D(22,7,9,6)           167.1352         estimate D2E/DX2                !
 ! D72   D(22,7,9,25)           46.7653         estimate D2E/DX2                !
 ! D73   D(7,8,10,11)           53.5095         estimate D2E/DX2                !
 ! D74   D(7,8,10,26)          174.2765         estimate D2E/DX2                !
 ! D75   D(7,8,10,27)          -66.8912         estimate D2E/DX2                !
 ! D76   D(23,8,10,11)         -67.5727         estimate D2E/DX2                !
 ! D77   D(23,8,10,26)          53.1944         estimate D2E/DX2                !
 ! D78   D(23,8,10,27)         172.0267         estimate D2E/DX2                !
 ! D79   D(24,8,10,11)         174.617          estimate D2E/DX2                !
 ! D80   D(24,8,10,26)         -64.616          estimate D2E/DX2                !
 ! D81   D(24,8,10,27)          54.2164         estimate D2E/DX2                !
 ! D82   D(8,10,11,3)          -55.0398         estimate D2E/DX2                !
 ! D83   D(8,10,11,28)        -172.7031         estimate D2E/DX2                !
 ! D84   D(8,10,11,29)          67.0081         estimate D2E/DX2                !
 ! D85   D(26,10,11,3)        -177.1274         estimate D2E/DX2                !
 ! D86   D(26,10,11,28)         65.2093         estimate D2E/DX2                !
 ! D87   D(26,10,11,29)        -55.0795         estimate D2E/DX2                !
 ! D88   D(27,10,11,3)          65.6531         estimate D2E/DX2                !
 ! D89   D(27,10,11,28)        -52.0102         estimate D2E/DX2                !
 ! D90   D(27,10,11,29)       -172.299          estimate D2E/DX2                !
 --------------------------------------------------------------------------------
 Trust Radius=3.00D-01 FncErr=1.00D-07 GrdErr=1.00D-06 EigMax=2.50D+02 EigMin=1.00D-04
 Number of steps in this run=    186 maximum allowed number of steps=    186.
 GradGradGradGradGradGradGradGradGradGradGradGradGradGradGradGradGradGrad

                          Input orientation:                          
 ---------------------------------------------------------------------
 Center     Atomic      Atomic             Coordinates (Angstroms)
 Number     Number       Type             X           Y           Z
 ---------------------------------------------------------------------
      1          6           0        1.099489    1.118619    0.118886
      2          6           0        3.231182   -0.944833   -0.098173
      3          8           0       -1.115528   -0.736642   -0.910741
      4          6           0        1.711471    0.524660   -1.160519
      5          6           0        1.684154    0.393045    1.332273
      6          8           0       -0.326986    1.118208    0.240548
      7          6           0       -2.600298    1.106542   -0.410750
      8          6           0       -3.189135    0.321854    0.761559
      9          6           0       -1.187195    0.655714   -0.756718
     10          6           0       -3.056455   -1.176029    0.489634
     11          6           0       -1.612300   -1.519554    0.167145
     12          6           0        3.147084    0.042156    1.071344
     13          8           0        2.123166   -0.810987   -0.975574
     14          1           0        1.383312    2.163696    0.149142
     15          1           0        4.149809   -0.808713   -0.661315
     16          1           0        3.197887   -1.965767    0.257725
     17          1           0        1.038695    0.534102   -2.001041
     18          1           0        2.572072    1.128306   -1.431739
     19          1           0        1.118812   -0.515909    1.504913
     20          1           0        1.581005    1.012574    2.216879
     21          1           0       -2.589540    2.172840   -0.213207
     22          1           0       -3.212983    0.945457   -1.293744
     23          1           0       -2.669342    0.574263    1.682019
     24          1           0       -4.230633    0.595443    0.900235
     25          1           0       -0.901262    1.059610   -1.715240
     26          1           0       -3.374829   -1.760265    1.348390
     27          1           0       -3.689465   -1.456266   -0.349228
     28          1           0       -1.510931   -2.547370   -0.152946
     29          1           0       -0.984789   -1.374050    1.038638
     30          1           0        3.706900    0.946137    0.848527
     31          1           0        3.602088   -0.401756    1.950041
 ---------------------------------------------------------------------
                    Distance matrix (angstroms):
                    1          2          3          4          5
     1  C    0.000000
     2  C    2.974738   0.000000
     3  O    3.067316   4.426906   0.000000
     4  C    1.537591   2.365906   3.105671   0.000000
     5  C    1.529902   2.495874   3.761054   2.496414   0.000000
     6  O    1.431654   4.126915   2.321149   2.543736   2.400502
     7  C    3.737524   6.189669   2.419062   4.414985   4.680143
     8  C    4.409100   6.600311   2.866504   5.267965   4.907110
     9  C    2.491965   4.745259   1.402681   2.929590   3.560551
    10  C    4.761799   6.319284   2.433374   5.324328   5.064129
    11  C    3.783660   4.884672   1.421820   4.121766   3.985244
    12  C    2.501718   1.532641   4.764981   2.697222   1.526883
    13  O    2.443182   1.419664   3.240196   1.409841   2.639807
    14  H    1.083354   3.624740   3.972344   2.123520   2.150700
    15  H    3.691582   1.086063   5.271734   2.823576   3.390880
    16  H    3.733094   1.081702   4.634826   3.228479   3.001672
    17  H    2.199874   3.258091   2.728410   1.076659   3.398161
    18  H    2.138465   2.551613   4.165077   1.085626   2.994790
    19  H    2.143158   2.686255   3.297936   2.922081   1.084257
    20  H    2.155151   3.451665   4.484758   3.414952   1.084889
    21  H    3.851052   6.604084   3.335319   4.702403   4.880639
    22  H    4.541247   6.821279   2.715781   4.944195   5.584181
    23  H    4.116284   6.347670   3.294725   5.222452   4.371280
    24  H    5.412432   7.684267   3.841610   6.289699   5.933998
    25  H    2.714867   4.869270   1.979811   2.724016   4.051669
    26  H    5.460694   6.811524   3.354984   6.114405   5.498210
    27  H    5.457403   6.944058   2.730990   5.809679   5.926481
    28  H    4.508621   5.005873   2.002332   4.564696   4.589170
    29  H    3.376915   4.387594   2.055106   3.963737   3.214359
    30  H    2.713064   2.167560   5.402090   2.862804   2.152074
    31  H    3.453646   2.151205   5.527397   3.756097   2.166060
                    6          7          8          9         10
     6  O    0.000000
     7  C    2.364799   0.000000
     8  C    3.016211   1.528651   0.000000
     9  C    1.395851   1.523089   2.534638   0.000000
    10  C    3.574293   2.495777   1.528136   2.898760   0.000000
    11  C    2.935168   2.864696   2.496101   2.401255   1.519076
    12  C    3.730586   6.030085   6.349950   4.743863   6.348721
    13  O    3.347236   5.129040   5.702763   3.627341   5.395235
    14  H    2.006619   4.159351   4.967364   3.114819   5.566078
    15  H    4.956619   7.021035   7.560612   5.535093   7.306836
    16  H    4.683581   6.595824   6.803022   5.208666   6.308269
    17  H    2.689049   4.012354   5.054855   2.552982   5.089034
    18  H    3.346817   5.272220   6.217108   3.848517   6.378240
    19  H    2.521763   4.487080   4.451160   3.435890   4.347345
    20  H    2.749086   4.939287   5.034807   4.078303   5.411044
    21  H    2.537182   1.084495   2.176197   2.136269   3.453537
    22  H    3.273053   1.086743   2.147957   2.115695   2.775904
    23  H    2.803631   2.160502   1.086803   2.854966   2.152942
    24  H    3.993361   2.153578   1.085726   3.465781   2.164579
    25  H    2.039199   2.142573   3.451547   1.078728   3.808465
    26  H    4.336158   3.451529   2.171191   3.879971   1.086350
    27  H    4.275748   2.785328   2.155432   3.299676   1.087623
    28  H    3.872083   3.821552   3.447482   3.275529   2.163823
    29  H    2.698333   3.296048   2.794996   2.717391   2.152305
    30  H    4.083073   6.433681   6.924781   5.158810   7.097560
    31  H    4.546458   6.805725   6.932302   5.601966   6.860647
                   11         12         13         14         15
    11  C    0.000000
    12  C    5.090015   0.000000
    13  O    3.970086   2.442567   0.000000
    14  H    4.747667   2.909000   3.265135   0.000000
    15  H    5.864601   2.175211   2.050865   4.140720   0.000000
    16  H    4.831688   2.167098   2.002391   4.511866   1.757716
    17  H    3.993283   3.758572   2.009210   2.719857   3.643768
    18  H    5.203514   2.788509   2.042171   2.232570   2.614355
    19  H    3.202483   2.147861   2.692325   3.014690   3.737007
    20  H    4.561828   2.169462   3.716325   2.374805   4.266127
    21  H    3.838416   6.252899   5.629745   3.989353   7.383040
    22  H    3.282173   6.845440   5.626794   4.969100   7.595248
    23  H    2.792177   5.872553   5.652420   4.615194   7.341979
    24  H    3.444750   7.400413   6.772552   5.877069   8.639554
    25  H    3.271244   5.018901   3.632273   3.148683   5.487687
    26  H    2.135366   6.772062   6.043996   6.282959   7.846308
    27  H    2.141322   7.141547   5.881783   6.251845   7.872162
    28  H    1.081268   5.468239   4.110767   5.537332   5.943513
    29  H    1.083717   4.367961   3.746128   4.349109   5.438156
    30  H    5.902356   1.086381   2.987146   2.714894   2.356966
    31  H    5.622991   1.084525   3.303620   3.840280   2.699035
                   16         17         18         19         20
    16  H    0.000000
    17  H    4.001685   0.000000
    18  H    3.580394   1.740238   0.000000
    19  H    2.824910   3.660691   3.665970   0.000000
    20  H    3.914474   4.279472   3.782594   1.748364   0.000000
    21  H    7.130509   4.364161   5.405378   4.892155   4.964371
    22  H    7.209822   4.329694   5.789589   5.360272   5.942331
    23  H    6.550171   5.226479   6.121672   3.945878   4.306233
    24  H    7.883878   6.015562   7.211022   5.497027   5.973499
    25  H    5.463380   2.030092   3.485562   4.114893   4.650314
    26  H    6.665762   5.996833   7.172070   4.665376   5.744841
    27  H    6.932792   5.389392   6.859934   5.238477   6.360655
    28  H    4.762340   4.405850   5.640640   3.713607   5.277247
    29  H    4.295897   4.120095   5.001581   2.319258   3.696962
    30  H    3.014519   3.925446   2.553553   3.044112   2.529077
    31  H    2.339539   4.801860   3.852072   2.525437   2.481191
                   21         22         23         24         25
    21  H    0.000000
    22  H    1.750060   0.000000
    23  H    2.480665   3.047703   0.000000
    24  H    2.533993   2.443699   1.746214   0.000000
    25  H    2.519061   2.352604   3.860445   4.259210   0.000000
    26  H    4.304019   3.785234   2.461512   2.546096   4.843145
    27  H    3.794568   2.624389   3.047895   2.462424   3.996210
    28  H    4.842253   4.049474   3.801790   4.287568   3.977784
    29  H    4.089348   3.973030   2.654728   3.799153   3.676074
    30  H    6.502095   7.243901   6.441231   7.945445   5.274555
    31  H    7.045881   7.666963   6.352581   7.965426   5.987490
                   26         27         28         29         30
    26  H    0.000000
    27  H    1.753088   0.000000
    28  H    2.519456   2.444391   0.000000
    29  H    2.440778   3.041086   1.753105   0.000000
    30  H    7.597721   7.868442   6.358718   5.237495   0.000000
    31  H    7.133365   7.717861   5.930361   4.776552   1.743885
                   31
    31  H    0.000000
 Stoichiometry    C10H18O3
 Framework group  C1[X(C10H18O3)]
 Deg. of freedom    87
 Full point group                 C1      NOp   1
 Largest Abelian subgroup         C1      NOp   1
 Largest concise Abelian subgroup C1      NOp   1
                         Standard orientation:                         
 ---------------------------------------------------------------------
 Center     Atomic      Atomic             Coordinates (Angstroms)
 Number     Number       Type             X           Y           Z
 ---------------------------------------------------------------------
      1          6           0       -1.099489   -1.118619    0.118886
      2          6           0       -3.231182    0.944833   -0.098173
      3          8           0        1.115528    0.736642   -0.910741
      4          6           0       -1.711471   -0.524660   -1.160519
      5          6           0       -1.684154   -0.393045    1.332273
      6          8           0        0.326986   -1.118208    0.240548
      7          6           0        2.600298   -1.106542   -0.410750
      8          6           0        3.189135   -0.321854    0.761559
      9          6           0        1.187195   -0.655714   -0.756718
     10          6           0        3.056455    1.176029    0.489634
     11          6           0        1.612300    1.519554    0.167145
     12          6           0       -3.147084   -0.042156    1.071344
     13          8           0       -2.123166    0.810987   -0.975574
     14          1           0       -1.383312   -2.163696    0.149142
     15          1           0       -4.149809    0.808713   -0.661315
     16          1           0       -3.197887    1.965767    0.257725
     17          1           0       -1.038695   -0.534102   -2.001041
     18          1           0       -2.572072   -1.128306   -1.431739
     19          1           0       -1.118812    0.515909    1.504913
     20          1           0       -1.581005   -1.012574    2.216879
     21          1           0        2.589540   -2.172840   -0.213207
     22          1           0        3.212983   -0.945457   -1.293744
     23          1           0        2.669342   -0.574263    1.682019
     24          1           0        4.230633   -0.595443    0.900235
     25          1           0        0.901262   -1.059610   -1.715240
     26          1           0        3.374829    1.760265    1.348390
     27          1           0        3.689465    1.456266   -0.349228
     28          1           0        1.510931    2.547370   -0.152946
     29          1           0        0.984789    1.374050    1.038638
     30          1           0       -3.706900   -0.946137    0.848527
     31          1           0       -3.602088    0.401756    1.950041
 ---------------------------------------------------------------------
 Rotational constants (GHZ):           1.6865255           0.4796426           0.4613832
 Standard basis: 6-311++G(2d,2p) (5D, 7F)
 There are   557 symmetry adapted cartesian basis functions of A   symmetry.
 There are   531 symmetry adapted basis functions of A   symmetry.
   531 basis functions,   762 primitive gaussians,   557 cartesian basis functions
    51 alpha electrons       51 beta electrons
       nuclear repulsion energy       912.5121599214 Hartrees.
 NAtoms=   31 NActive=   31 NUniq=   31 SFac= 1.00D+00 NAtFMM=   60 NAOKFM=F Big=F
 Integral buffers will be    131072 words long.
 Raffenetti 2 integral format.
 Two-electron integral symmetry is turned on.
 ------------------------------------------------------------------------------
 Polarizable Continuum Model (PCM)
 =================================
 Model                : PCM.
 Atomic radii         : UFF (Universal Force Field).
 Polarization charges : Total charges.
 Charge compensation  : None.
 Solution method      : On-the-fly selection.
 Cavity type          : Scaled VdW (van der Waals Surface) (Alpha=1.100).
 Cavity algorithm     : GePol (No added spheres)
                        Default sphere list used, NSphG=   31.
                        Lebedev-Laikov grids with approx.  5.0 points / Ang**2.
                        Smoothing algorithm: York/Karplus (Gamma=1.0000).
                        Polarization charges: spherical gaussians, with
                                              point-specific exponents (IZeta= 3).
                        Self-potential: point-specific (ISelfS= 7).
                        Self-field    : sphere-specific E.n sum rule (ISelfD= 2).
 1st derivatives      : Analytical E(r).r(x)/FMM algorithm (CHGder, D1EAlg=3).
                        Cavity 1st derivative terms included.
 Solvent              : Water, Eps=  78.355300 Eps(inf)=   1.777849
 ------------------------------------------------------------------------------
 One-electron integrals computed using PRISM.
 NBasis=   531 RedAO= T EigKep=  3.83D-06  NBF=   531
 NBsUse=   531 1.00D-06 EigRej= -1.00D+00 NBFU=   531
 ExpMin= 3.60D-02 ExpMax= 8.59D+03 ExpMxC= 1.30D+03 IAcc=3 IRadAn=         5 AccDes= 0.00D+00
 Harris functional with IExCor= 1009 and IRadAn=       5 diagonalized for initial guess.
 HarFok:  IExCor= 1009 AccDes= 0.00D+00 IRadAn=         5 IDoV= 1 UseB2=F ITyADJ=14
 ICtDFT=  3500011 ScaDFX=  1.000000  1.000000  1.000000  1.000000
 FoFCou: FMM=F IPFlag=           0 FMFlag=      100000 FMFlg1=           0
         NFxFlg=           0 DoJE=T BraDBF=F KetDBF=T FulRan=T
         wScrn=  0.000000 ICntrl=       500 IOpCl=  0 I1Cent=   200000004 NGrid=           0
         NMat0=    1 NMatS0=      1 NMatT0=    0 NMatD0=    1 NMtDS0=    0 NMtDT0=    0
 Petite list used in FoFCou.
 Requested convergence on RMS density matrix=1.00D-08 within 128 cycles.
 Requested convergence on MAX density matrix=1.00D-06.
 Requested convergence on             energy=1.00D-06.
 No special actions if energy rises.
 Inv3:  Mode=1 IEnd=    12411468.
 Iteration    1 A*A^-1 deviation from unit magnitude is 5.66D-15 for   2032.
 Iteration    1 A*A^-1 deviation from orthogonality  is 1.97D-15 for   2024   1388.
 Iteration    1 A^-1*A deviation from unit magnitude is 5.66D-15 for   2032.
 Iteration    1 A^-1*A deviation from orthogonality  is 1.42D-15 for   1719    243.
 Error on total polarization charges =  0.01457
 SCF Done:  E(RM062X) =  -617.486547633     A.U. after   12 cycles
            NFock= 12  Conv=0.54D-08     -V/T= 2.0035

 **********************************************************************

            Population analysis using the SCF density.

 **********************************************************************

 Orbital symmetries:
       Occupied  (A) (A) (A) (A) (A) (A) (A) (A) (A) (A) (A) (A)
                 (A) (A) (A) (A) (A) (A) (A) (A) (A) (A) (A) (A)
                 (A) (A) (A) (A) (A) (A) (A) (A) (A) (A) (A) (A)
                 (A) (A) (A) (A) (A) (A) (A) (A) (A) (A) (A) (A)
                 (A) (A) (A)
       Virtual   (A) (A) (A) (A) (A) (A) (A) (A) (A) (A) (A) (A)
                 (A) (A) (A) (A) (A) (A) (A) (A) (A) (A) (A) (A)
                 (A) (A) (A) (A) (A) (A) (A) (A) (A) (A) (A) (A)
                 (A) (A) (A) (A) (A) (A) (A) (A) (A) (A) (A) (A)
                 (A) (A) (A) (A) (A) (A) (A) (A) (A) (A) (A) (A)
                 (A) (A) (A) (A) (A) (A) (A) (A) (A) (A) (A) (A)
                 (A) (A) (A) (A) (A) (A) (A) (A) (A) (A) (A) (A)
                 (A) (A) (A) (A) (A) (A) (A) (A) (A) (A) (A) (A)
                 (A) (A) (A) (A) (A) (A) (A) (A) (A) (A) (A) (A)
                 (A) (A) (A) (A) (A) (A) (A) (A) (A) (A) (A) (A)
                 (A) (A) (A) (A) (A) (A) (A) (A) (A) (A) (A) (A)
                 (A) (A) (A) (A) (A) (A) (A) (A) (A) (A) (A) (A)
                 (A) (A) (A) (A) (A) (A) (A) (A) (A) (A) (A) (A)
                 (A) (A) (A) (A) (A) (A) (A) (A) (A) (A) (A) (A)
                 (A) (A) (A) (A) (A) (A) (A) (A) (A) (A) (A) (A)
                 (A) (A) (A) (A) (A) (A) (A) (A) (A) (A) (A) (A)
                 (A) (A) (A) (A) (A) (A) (A) (A) (A) (A) (A) (A)
                 (A) (A) (A) (A) (A) (A) (A) (A) (A) (A) (A) (A)
                 (A) (A) (A) (A) (A) (A) (A) (A) (A) (A) (A) (A)
                 (A) (A) (A) (A) (A) (A) (A) (A) (A) (A) (A) (A)
                 (A) (A) (A) (A) (A) (A) (A) (A) (A) (A) (A) (A)
                 (A) (A) (A) (A) (A) (A) (A) (A) (A) (A) (A) (A)
                 (A) (A) (A) (A) (A) (A) (A) (A) (A) (A) (A) (A)
                 (A) (A) (A) (A) (A) (A) (A) (A) (A) (A) (A) (A)
                 (A) (A) (A) (A) (A) (A) (A) (A) (A) (A) (A) (A)
                 (A) (A) (A) (A) (A) (A) (A) (A) (A) (A) (A) (A)
                 (A) (A) (A) (A) (A) (A) (A) (A) (A) (A) (A) (A)
                 (A) (A) (A) (A) (A) (A) (A) (A) (A) (A) (A) (A)
                 (A) (A) (A) (A) (A) (A) (A) (A) (A) (A) (A) (A)
                 (A) (A) (A) (A) (A) (A) (A) (A) (A) (A) (A) (A)
                 (A) (A) (A) (A) (A) (A) (A) (A) (A) (A) (A) (A)
                 (A) (A) (A) (A) (A) (A) (A) (A) (A) (A) (A) (A)
                 (A) (A) (A) (A) (A) (A) (A) (A) (A) (A) (A) (A)
                 (A) (A) (A) (A) (A) (A) (A) (A) (A) (A) (A) (A)
                 (A) (A) (A) (A) (A) (A) (A) (A) (A) (A) (A) (A)
                 (A) (A) (A) (A) (A) (A) (A) (A) (A) (A) (A) (A)
                 (A) (A) (A) (A) (A) (A) (A) (A) (A) (A) (A) (A)
                 (A) (A) (A) (A) (A) (A) (A) (A) (A) (A) (A) (A)
                 (A) (A) (A) (A) (A) (A) (A) (A) (A) (A) (A) (A)
                 (A) (A) (A) (A) (A) (A) (A) (A) (A) (A) (A) (A)
 The electronic state is 1-A.
 Alpha  occ. eigenvalues --  -19.62487 -19.62476 -19.62412 -10.63300 -10.58911
 Alpha  occ. eigenvalues --  -10.58054 -10.57742 -10.57529 -10.53159 -10.53014
 Alpha  occ. eigenvalues --  -10.52889 -10.52847 -10.52685  -1.19619  -1.16316
 Alpha  occ. eigenvalues --   -1.13021  -0.90869  -0.89702  -0.87003  -0.84775
 Alpha  occ. eigenvalues --   -0.75648  -0.74363  -0.73227  -0.70913  -0.64993
 Alpha  occ. eigenvalues --   -0.61668  -0.60748  -0.58863  -0.58397  -0.56252
 Alpha  occ. eigenvalues --   -0.54060  -0.53210  -0.52688  -0.50408  -0.49716
 Alpha  occ. eigenvalues --   -0.47933  -0.46868  -0.45455  -0.45128  -0.44311
 Alpha  occ. eigenvalues --   -0.43893  -0.42565  -0.41753  -0.40877  -0.39804
 Alpha  occ. eigenvalues --   -0.38447  -0.36675  -0.35899  -0.33738  -0.33219
 Alpha  occ. eigenvalues --   -0.31819
 Alpha virt. eigenvalues --   -0.00179   0.00764   0.00837   0.01089   0.02290
 Alpha virt. eigenvalues --    0.02491   0.02619   0.03255   0.03509   0.04485
 Alpha virt. eigenvalues --    0.04738   0.04881   0.05524   0.05727   0.07023
 Alpha virt. eigenvalues --    0.07555   0.07812   0.08169   0.09082   0.09748
 Alpha virt. eigenvalues --    0.10130   0.10337   0.11372   0.11571   0.11852
 Alpha virt. eigenvalues --    0.12041   0.12593   0.12867   0.13189   0.13326
 Alpha virt. eigenvalues --    0.13860   0.14106   0.14502   0.14612   0.15057
 Alpha virt. eigenvalues --    0.15120   0.15312   0.15920   0.16102   0.16246
 Alpha virt. eigenvalues --    0.16435   0.16827   0.17280   0.17613   0.17780
 Alpha virt. eigenvalues --    0.18007   0.18113   0.18962   0.19469   0.19627
 Alpha virt. eigenvalues --    0.20165   0.20231   0.20429   0.20965   0.21318
 Alpha virt. eigenvalues --    0.21983   0.22589   0.22758   0.23552   0.24066
 Alpha virt. eigenvalues --    0.24403   0.24922   0.25313   0.26298   0.27475
 Alpha virt. eigenvalues --    0.27784   0.28122   0.28593   0.29560   0.30040
 Alpha virt. eigenvalues --    0.30455   0.30764   0.31248   0.31616   0.32093
 Alpha virt. eigenvalues --    0.32791   0.32870   0.33893   0.33940   0.34722
 Alpha virt. eigenvalues --    0.35056   0.35437   0.35719   0.36391   0.36662
 Alpha virt. eigenvalues --    0.36752   0.37638   0.37927   0.38067   0.38848
 Alpha virt. eigenvalues --    0.39166   0.40009   0.40392   0.40838   0.41332
 Alpha virt. eigenvalues --    0.42126   0.42644   0.43359   0.43719   0.46142
 Alpha virt. eigenvalues --    0.46898   0.48764   0.49875   0.50402   0.51815
 Alpha virt. eigenvalues --    0.52168   0.52605   0.54429   0.54887   0.55847
 Alpha virt. eigenvalues --    0.56338   0.57544   0.58329   0.59189   0.59592
 Alpha virt. eigenvalues --    0.60148   0.60351   0.60968   0.61235   0.61699
 Alpha virt. eigenvalues --    0.62064   0.62538   0.62710   0.64235   0.64383
 Alpha virt. eigenvalues --    0.64994   0.65747   0.65831   0.66525   0.67174
 Alpha virt. eigenvalues --    0.67659   0.68842   0.69269   0.69846   0.70624
 Alpha virt. eigenvalues --    0.71088   0.72203   0.72591   0.72740   0.73537
 Alpha virt. eigenvalues --    0.74379   0.74867   0.75047   0.75559   0.75702
 Alpha virt. eigenvalues --    0.76118   0.76868   0.77025   0.78699   0.79057
 Alpha virt. eigenvalues --    0.79635   0.81518   0.84345   0.84678   0.86675
 Alpha virt. eigenvalues --    0.86934   0.87274   0.88336   0.89379   0.90090
 Alpha virt. eigenvalues --    0.91109   0.92058   0.94657   0.95291   0.96208
 Alpha virt. eigenvalues --    0.97177   0.98930   0.99781   1.01067   1.02257
 Alpha virt. eigenvalues --    1.03184   1.04112   1.04960   1.06240   1.06529
 Alpha virt. eigenvalues --    1.08755   1.08963   1.09758   1.11655   1.12399
 Alpha virt. eigenvalues --    1.13808   1.14607   1.15415   1.15877   1.16513
 Alpha virt. eigenvalues --    1.18242   1.18708   1.19323   1.20024   1.21654
 Alpha virt. eigenvalues --    1.22368   1.22911   1.23538   1.24289   1.24614
 Alpha virt. eigenvalues --    1.25307   1.26377   1.26725   1.27402   1.27828
 Alpha virt. eigenvalues --    1.28416   1.29054   1.30257   1.31432   1.31805
 Alpha virt. eigenvalues --    1.32301   1.33411   1.34050   1.34808   1.35578
 Alpha virt. eigenvalues --    1.36245   1.36520   1.37391   1.38043   1.38969
 Alpha virt. eigenvalues --    1.39647   1.40859   1.41066   1.41837   1.42083
 Alpha virt. eigenvalues --    1.43179   1.44491   1.44819   1.45115   1.45298
 Alpha virt. eigenvalues --    1.46527   1.47122   1.47634   1.47984   1.48227
 Alpha virt. eigenvalues --    1.49868   1.50005   1.50733   1.51096   1.52783
 Alpha virt. eigenvalues --    1.53030   1.53512   1.54601   1.55255   1.55802
 Alpha virt. eigenvalues --    1.56363   1.57361   1.57868   1.58104   1.59057
 Alpha virt. eigenvalues --    1.59986   1.60319   1.61085   1.61957   1.62660
 Alpha virt. eigenvalues --    1.63505   1.63693   1.64877   1.66329   1.66825
 Alpha virt. eigenvalues --    1.67764   1.68636   1.70270   1.71627   1.72524
 Alpha virt. eigenvalues --    1.74124   1.74580   1.74889   1.77249   1.77489
 Alpha virt. eigenvalues --    1.79091   1.80190   1.81603   1.83116   1.83390
 Alpha virt. eigenvalues --    1.84746   1.87434   1.91787   1.97219   1.98933
 Alpha virt. eigenvalues --    2.02222   2.05628   2.10069   2.14266   2.18631
 Alpha virt. eigenvalues --    2.22432   2.25430   2.32814   2.36706   2.39144
 Alpha virt. eigenvalues --    2.40760   2.43976   2.45121   2.49947   2.54666
 Alpha virt. eigenvalues --    2.62855   2.76716   2.78214   2.81316   2.83798
 Alpha virt. eigenvalues --    2.84605   2.88836   2.91270   2.93174   2.93723
 Alpha virt. eigenvalues --    2.94802   2.96967   2.99123   3.01395   3.03575
 Alpha virt. eigenvalues --    3.05863   3.07259   3.08575   3.09895   3.11169
 Alpha virt. eigenvalues --    3.13865   3.16566   3.16767   3.19262   3.20165
 Alpha virt. eigenvalues --    3.24098   3.26328   3.31421   3.33169   3.33527
 Alpha virt. eigenvalues --    3.35138   3.36541   3.36714   3.38982   3.39786
 Alpha virt. eigenvalues --    3.41818   3.42610   3.44137   3.44718   3.45608
 Alpha virt. eigenvalues --    3.47369   3.49201   3.50234   3.50660   3.51399
 Alpha virt. eigenvalues --    3.52745   3.53430   3.54232   3.55665   3.55775
 Alpha virt. eigenvalues --    3.56468   3.57489   3.59083   3.59934   3.60407
 Alpha virt. eigenvalues --    3.60595   3.62071   3.63401   3.64302   3.65602
 Alpha virt. eigenvalues --    3.66054   3.66368   3.68221   3.68768   3.68844
 Alpha virt. eigenvalues --    3.70001   3.71315   3.71600   3.73087   3.74820
 Alpha virt. eigenvalues --    3.75564   3.76298   3.77551   3.78764   3.79165
 Alpha virt. eigenvalues --    3.81397   3.81649   3.82428   3.83665   3.85599
 Alpha virt. eigenvalues --    3.87688   3.88679   3.90978   3.91436   3.91936
 Alpha virt. eigenvalues --    3.92831   3.94396   3.95281   3.98251   3.99134
 Alpha virt. eigenvalues --    4.00868   4.01000   4.02768   4.03332   4.03930
 Alpha virt. eigenvalues --    4.05216   4.06410   4.07272   4.07832   4.08087
 Alpha virt. eigenvalues --    4.08751   4.09113   4.09533   4.10907   4.12023
 Alpha virt. eigenvalues --    4.12544   4.13214   4.14243   4.14794   4.16325
 Alpha virt. eigenvalues --    4.16725   4.17582   4.18248   4.18903   4.20596
 Alpha virt. eigenvalues --    4.21270   4.22756   4.24616   4.26504   4.27604
 Alpha virt. eigenvalues --    4.28671   4.29105   4.30926   4.31914   4.32600
 Alpha virt. eigenvalues --    4.33579   4.35023   4.36673   4.37781   4.41144
 Alpha virt. eigenvalues --    4.41465   4.43668   4.44557   4.48586   4.49122
 Alpha virt. eigenvalues --    4.58424   4.61599   4.72673   4.75609   4.82146
 Alpha virt. eigenvalues --    4.85327   4.93681   4.95242   5.00518   5.01322
 Alpha virt. eigenvalues --    5.04882   5.07229   5.07749   5.12388   5.12572
 Alpha virt. eigenvalues --    5.14289   5.15807   5.17044   5.34451   5.39117
 Alpha virt. eigenvalues --    5.41777   5.57524   5.64113   5.68536   5.86955
 Alpha virt. eigenvalues --    5.87921   6.03760   7.01790   7.05487   7.08755
 Alpha virt. eigenvalues --    7.09383   7.09891   7.13554   7.15890   7.20124
 Alpha virt. eigenvalues --    7.30035   7.35743   7.41229   7.45532   7.53697
 Alpha virt. eigenvalues --    7.54372   7.64709  23.96611  23.98080  24.04983
 Alpha virt. eigenvalues --   24.07923  24.11295  24.11582  24.12921  24.15586
 Alpha virt. eigenvalues --   24.17448  24.20931  50.16109  50.19511  50.29872
          Condensed to atoms (all electrons):
               1          2          3          4          5          6
     1  C    9.653676   0.072044   0.080674  -1.805261  -2.045744  -0.149571
     2  C    0.072044   5.481518  -0.003553  -0.104969  -0.009197   0.001584
     3  O    0.080674  -0.003553   8.199089  -0.033644  -0.042664  -0.064017
     4  C   -1.805261  -0.104969  -0.033644   6.807225   0.854408   0.115518
     5  C   -2.045744  -0.009197  -0.042664   0.854408   6.957706  -0.067320
     6  O   -0.149571   0.001584  -0.064017   0.115518  -0.067320   8.369136
     7  C    0.543023  -0.007601  -0.089500  -0.387530  -0.180318  -0.096508
     8  C    0.034016  -0.005424  -0.001877  -0.011594  -0.001123   0.000615
     9  C   -1.070096   0.053814   0.323078   0.271780   0.306427   0.265065
    10  C    0.053009  -0.009545  -0.080999  -0.028750  -0.032389  -0.034949
    11  C    0.048012   0.008545   0.120616   0.045289  -0.036526   0.026671
    12  C    0.154107  -0.102924  -0.007346  -0.204209  -0.150514   0.032078
    13  O    0.018557   0.073236   0.010667   0.174838  -0.070445  -0.000849
    14  H    0.602727  -0.000064   0.002420  -0.089612  -0.137123  -0.067301
    15  H    0.088730   0.509978  -0.000639  -0.075677  -0.031220  -0.001415
    16  H   -0.045037   0.444065  -0.000125   0.036783  -0.004596   0.002654
    17  H    0.065993   0.000498  -0.008297   0.303076  -0.027146  -0.017983
    18  H    0.052138   0.008833   0.000420   0.431205  -0.028925  -0.007377
    19  H   -0.109450  -0.031685   0.007092   0.011157   0.506432  -0.016264
    20  H    0.011982   0.000718   0.000304  -0.001923   0.399634  -0.004632
    21  H   -0.032830   0.000622   0.011528   0.008677   0.013039  -0.001621
    22  H    0.019399   0.000159  -0.011233  -0.007747  -0.006854   0.009036
    23  H    0.015149   0.000592   0.003332  -0.004473  -0.009383  -0.005773
    24  H    0.004130  -0.000506  -0.006189  -0.001632   0.000620   0.000394
    25  H   -0.059510   0.003826  -0.061712   0.045482   0.025154  -0.019345
    26  H   -0.006505  -0.000278   0.009756   0.004072   0.004191   0.000803
    27  H   -0.003275   0.000234   0.001585  -0.000647  -0.000816  -0.001030
    28  H   -0.002473  -0.000369  -0.069574   0.007345   0.002505   0.002098
    29  H   -0.024945   0.005866  -0.037603  -0.022608   0.011420   0.022641
    30  H   -0.086265  -0.078339  -0.000392   0.018400   0.002186   0.004995
    31  H    0.023639  -0.018326  -0.000496  -0.012741  -0.031760  -0.003417
               7          8          9         10         11         12
     1  C    0.543023   0.034016  -1.070096   0.053009   0.048012   0.154107
     2  C   -0.007601  -0.005424   0.053814  -0.009545   0.008545  -0.102924
     3  O   -0.089500  -0.001877   0.323078  -0.080999   0.120616  -0.007346
     4  C   -0.387530  -0.011594   0.271780  -0.028750   0.045289  -0.204209
     5  C   -0.180318  -0.001123   0.306427  -0.032389  -0.036526  -0.150514
     6  O   -0.096508   0.000615   0.265065  -0.034949   0.026671   0.032078
     7  C    7.243888  -0.036983  -1.279979  -0.132962   0.083663   0.028877
     8  C   -0.036983   5.693862  -0.249869   0.022089  -0.012188   0.000058
     9  C   -1.279979  -0.249869   7.350741   0.191555  -0.336426  -0.043362
    10  C   -0.132962   0.022089   0.191555   5.796568  -0.121166   0.009251
    11  C    0.083663  -0.012188  -0.336426  -0.121166   5.543788  -0.008680
    12  C    0.028877   0.000058  -0.043362   0.009251  -0.008680   5.749277
    13  O    0.003088   0.002734  -0.027663  -0.000729   0.010690   0.046350
    14  H    0.020622   0.004159  -0.051446  -0.002399   0.007382  -0.000635
    15  H    0.000667  -0.000093  -0.000276  -0.000539   0.002331  -0.090967
    16  H   -0.001225   0.000232   0.001504  -0.000089  -0.002783  -0.007837
    17  H    0.021792   0.004676  -0.004651   0.011782  -0.001342   0.015932
    18  H   -0.007396  -0.001473  -0.002271  -0.001584   0.001739  -0.032499
    19  H    0.002799   0.009599  -0.017434   0.017976  -0.005289  -0.013342
    20  H   -0.002270  -0.000472   0.005757   0.001948  -0.005200  -0.021016
    21  H    0.397675  -0.037530   0.005709  -0.008930   0.010073  -0.000409
    22  H    0.533971   0.000776  -0.168323  -0.005121   0.011232   0.000267
    23  H   -0.049817   0.532636  -0.029743  -0.065673   0.002162  -0.002741
    24  H   -0.045661   0.416753   0.013493  -0.020049   0.009602   0.000604
    25  H   -0.081732  -0.020998   0.549363   0.003713  -0.030878  -0.002612
    26  H   -0.010339  -0.051507   0.010822   0.445859  -0.035254   0.000060
    27  H   -0.022435  -0.006557   0.013253   0.478186  -0.089958  -0.000486
    28  H   -0.011503   0.008831  -0.004185  -0.012472   0.435034  -0.000767
    29  H    0.047821   0.006617  -0.006683  -0.120392   0.468853   0.004901
    30  H    0.000021   0.000619  -0.003912   0.000261  -0.001063   0.520559
    31  H   -0.000168   0.000072   0.000661  -0.000718   0.000591   0.401761
              13         14         15         16         17         18
     1  C    0.018557   0.602727   0.088730  -0.045037   0.065993   0.052138
     2  C    0.073236  -0.000064   0.509978   0.444065   0.000498   0.008833
     3  O    0.010667   0.002420  -0.000639  -0.000125  -0.008297   0.000420
     4  C    0.174838  -0.089612  -0.075677   0.036783   0.303076   0.431205
     5  C   -0.070445  -0.137123  -0.031220  -0.004596  -0.027146  -0.028925
     6  O   -0.000849  -0.067301  -0.001415   0.002654  -0.017983  -0.007377
     7  C    0.003088   0.020622   0.000667  -0.001225   0.021792  -0.007396
     8  C    0.002734   0.004159  -0.000093   0.000232   0.004676  -0.001473
     9  C   -0.027663  -0.051446  -0.000276   0.001504  -0.004651  -0.002271
    10  C   -0.000729  -0.002399  -0.000539  -0.000089   0.011782  -0.001584
    11  C    0.010690   0.007382   0.002331  -0.002783  -0.001342   0.001739
    12  C    0.046350  -0.000635  -0.090967  -0.007837   0.015932  -0.032499
    13  O    8.280219   0.000126  -0.072301  -0.073030  -0.057106  -0.049281
    14  H    0.000126   0.477612   0.002785   0.000317   0.001615  -0.000022
    15  H   -0.072301   0.002785   0.528780  -0.026684  -0.001299   0.013773
    16  H   -0.073030   0.000317  -0.026684   0.501948  -0.000804  -0.005322
    17  H   -0.057106   0.001615  -0.001299  -0.000804   0.478918  -0.007723
    18  H   -0.049281  -0.000022   0.013773  -0.005322  -0.007723   0.462665
    19  H   -0.001819   0.000725  -0.007291   0.004454   0.006758  -0.006382
    20  H    0.000451  -0.007521   0.002480  -0.003617  -0.000406   0.003112
    21  H   -0.000004  -0.002091   0.000008   0.000032  -0.001431   0.000266
    22  H    0.000296   0.000762   0.000041  -0.000093   0.003165  -0.000278
    23  H    0.000382   0.001274   0.000077  -0.000123   0.000389   0.000101
    24  H   -0.000055   0.000004  -0.000021   0.000029   0.000019  -0.000117
    25  H   -0.004198  -0.009091  -0.001266   0.001025  -0.015644  -0.000561
    26  H   -0.000280  -0.000268  -0.000013   0.000052   0.000181  -0.000016
    27  H    0.000195  -0.000052  -0.000001  -0.000028  -0.000510   0.000041
    28  H    0.000176   0.000041   0.000072  -0.000546   0.000810   0.000259
    29  H    0.001031   0.000231   0.000425   0.000411  -0.004496   0.000816
    30  H    0.005643  -0.007037  -0.019541   0.008840  -0.002203  -0.010989
    31  H    0.010240  -0.001455   0.004762  -0.012087   0.001459   0.001372
              19         20         21         22         23         24
     1  C   -0.109450   0.011982  -0.032830   0.019399   0.015149   0.004130
     2  C   -0.031685   0.000718   0.000622   0.000159   0.000592  -0.000506
     3  O    0.007092   0.000304   0.011528  -0.011233   0.003332  -0.006189
     4  C    0.011157  -0.001923   0.008677  -0.007747  -0.004473  -0.001632
     5  C    0.506432   0.399634   0.013039  -0.006854  -0.009383   0.000620
     6  O   -0.016264  -0.004632  -0.001621   0.009036  -0.005773   0.000394
     7  C    0.002799  -0.002270   0.397675   0.533971  -0.049817  -0.045661
     8  C    0.009599  -0.000472  -0.037530   0.000776   0.532636   0.416753
     9  C   -0.017434   0.005757   0.005709  -0.168323  -0.029743   0.013493
    10  C    0.017976   0.001948  -0.008930  -0.005121  -0.065673  -0.020049
    11  C   -0.005289  -0.005200   0.010073   0.011232   0.002162   0.009602
    12  C   -0.013342  -0.021016  -0.000409   0.000267  -0.002741   0.000604
    13  O   -0.001819   0.000451  -0.000004   0.000296   0.000382  -0.000055
    14  H    0.000725  -0.007521  -0.002091   0.000762   0.001274   0.000004
    15  H   -0.007291   0.002480   0.000008   0.000041   0.000077  -0.000021
    16  H    0.004454  -0.003617   0.000032  -0.000093  -0.000123   0.000029
    17  H    0.006758  -0.000406  -0.001431   0.003165   0.000389   0.000019
    18  H   -0.006382   0.003112   0.000266  -0.000278   0.000101  -0.000117
    19  H    0.521413  -0.018008  -0.000993   0.000795   0.001778   0.000622
    20  H   -0.018008   0.468394  -0.000049  -0.000156   0.000116  -0.000064
    21  H   -0.000993  -0.000049   0.476598  -0.004021  -0.002713  -0.009018
    22  H    0.000795  -0.000156  -0.004021   0.450720   0.002487  -0.004106
    23  H    0.001778   0.000116  -0.002713   0.002487   0.457431  -0.007043
    24  H    0.000622  -0.000064  -0.009018  -0.004106  -0.007043   0.468703
    25  H   -0.006315   0.001509  -0.009366  -0.018460  -0.004471   0.002544
    26  H    0.000668  -0.000169   0.001536  -0.002203  -0.005705  -0.005942
    27  H    0.000850   0.000109  -0.002042  -0.002932   0.002563  -0.002404
    28  H    0.001970  -0.000096   0.000808   0.001352  -0.002127   0.001803
    29  H   -0.024282   0.001613   0.000155  -0.002961  -0.003911  -0.002157
    30  H   -0.000890  -0.006247  -0.000030  -0.000045  -0.000252   0.000069
    31  H   -0.001545  -0.009255   0.000089  -0.000009   0.000061  -0.000020
              25         26         27         28         29         30
     1  C   -0.059510  -0.006505  -0.003275  -0.002473  -0.024945  -0.086265
     2  C    0.003826  -0.000278   0.000234  -0.000369   0.005866  -0.078339
     3  O   -0.061712   0.009756   0.001585  -0.069574  -0.037603  -0.000392
     4  C    0.045482   0.004072  -0.000647   0.007345  -0.022608   0.018400
     5  C    0.025154   0.004191  -0.000816   0.002505   0.011420   0.002186
     6  O   -0.019345   0.000803  -0.001030   0.002098   0.022641   0.004995
     7  C   -0.081732  -0.010339  -0.022435  -0.011503   0.047821   0.000021
     8  C   -0.020998  -0.051507  -0.006557   0.008831   0.006617   0.000619
     9  C    0.549363   0.010822   0.013253  -0.004185  -0.006683  -0.003912
    10  C    0.003713   0.445859   0.478186  -0.012472  -0.120392   0.000261
    11  C   -0.030878  -0.035254  -0.089958   0.435034   0.468853  -0.001063
    12  C   -0.002612   0.000060  -0.000486  -0.000767   0.004901   0.520559
    13  O   -0.004198  -0.000280   0.000195   0.000176   0.001031   0.005643
    14  H   -0.009091  -0.000268  -0.000052   0.000041   0.000231  -0.007037
    15  H   -0.001266  -0.000013  -0.000001   0.000072   0.000425  -0.019541
    16  H    0.001025   0.000052  -0.000028  -0.000546   0.000411   0.008840
    17  H   -0.015644   0.000181  -0.000510   0.000810  -0.004496  -0.002203
    18  H   -0.000561  -0.000016   0.000041   0.000259   0.000816  -0.010989
    19  H   -0.006315   0.000668   0.000850   0.001970  -0.024282  -0.000890
    20  H    0.001509  -0.000169   0.000109  -0.000096   0.001613  -0.006247
    21  H   -0.009366   0.001536  -0.002042   0.000808   0.000155  -0.000030
    22  H   -0.018460  -0.002203  -0.002932   0.001352  -0.002961  -0.000045
    23  H   -0.004471  -0.005705   0.002563  -0.002127  -0.003911  -0.000252
    24  H    0.002544  -0.005942  -0.002404   0.001803  -0.002157   0.000069
    25  H    0.483812   0.001206   0.000993  -0.001071   0.005996   0.000882
    26  H    0.001206   0.491545  -0.014202  -0.007870  -0.004617   0.000045
    27  H    0.000993  -0.014202   0.489618  -0.008303   0.003466  -0.000025
    28  H   -0.001071  -0.007870  -0.008303   0.480195  -0.025579  -0.000087
    29  H    0.005996  -0.004617   0.003466  -0.025579   0.572902   0.000551
    30  H    0.000882   0.000045  -0.000025  -0.000087   0.000551   0.476244
    31  H   -0.000333  -0.000022  -0.000009   0.000105   0.001259  -0.010323
              31
     1  C    0.023639
     2  C   -0.018326
     3  O   -0.000496
     4  C   -0.012741
     5  C   -0.031760
     6  O   -0.003417
     7  C   -0.000168
     8  C    0.000072
     9  C    0.000661
    10  C   -0.000718
    11  C    0.000591
    12  C    0.401761
    13  O    0.010240
    14  H   -0.001455
    15  H    0.004762
    16  H   -0.012087
    17  H    0.001459
    18  H    0.001372
    19  H   -0.001545
    20  H   -0.009255
    21  H    0.000089
    22  H   -0.000009
    23  H    0.000061
    24  H   -0.000020
    25  H   -0.000333
    26  H   -0.000022
    27  H   -0.000009
    28  H    0.000105
    29  H    0.001259
    30  H   -0.010323
    31  H    0.497492
 Mulliken charges:
               1
     1  C   -0.100045
     2  C   -0.293349
     3  O   -0.250701
     4  C   -0.342240
     5  C   -0.169660
     6  O   -0.293919
     7  C   -0.483980
     8  C   -0.300655
     9  C   -0.066705
    10  C   -0.352742
    11  C   -0.149520
    12  C   -0.273734
    13  O   -0.281159
    14  H    0.253313
    15  H    0.174336
    16  H    0.181677
    17  H    0.233977
    18  H    0.185477
    19  H    0.165902
    20  H    0.182974
    21  H    0.186262
    22  H    0.200082
    23  H    0.173417
    24  H    0.185597
    25  H    0.222061
    26  H    0.174397
    27  H    0.164619
    28  H    0.203617
    29  H    0.123258
    30  H    0.188324
    31  H    0.159119
 Sum of Mulliken charges =  -0.00000
 Mulliken charges with hydrogens summed into heavy atoms:
               1
     1  C    0.153268
     2  C    0.062664
     3  O   -0.250701
     4  C    0.077213
     5  C    0.179217
     6  O   -0.293919
     7  C   -0.097636
     8  C    0.058359
     9  C    0.155355
    10  C   -0.013725
    11  C    0.177355
    12  C    0.073709
    13  O   -0.281159
 Electronic spatial extent (au):  <R**2>=           2715.1225
 Charge=              0.0000 electrons
 Dipole moment (field-independent basis, Debye):
    X=             -0.6486    Y=             -1.4516    Z=              1.4525  Tot=              2.1535
 Quadrupole moment (field-independent basis, Debye-Ang):
   XX=            -68.7596   YY=            -79.2195   ZZ=            -80.9815
   XY=              3.0526   XZ=             -2.4310   YZ=              6.5639
 Traceless Quadrupole moment (field-independent basis, Debye-Ang):
   XX=              7.5606   YY=             -2.8993   ZZ=             -4.6613
   XY=              3.0526   XZ=             -2.4310   YZ=              6.5639
 Octapole moment (field-independent basis, Debye-Ang**2):
  XXX=            -12.5416  YYY=              5.2101  ZZZ=             -2.9204  XYY=             -0.8264
  XXY=             -1.2166  XXZ=              5.5158  XZZ=             -1.6716  YZZ=             -5.9376
  YYZ=              0.8134  XYZ=             -1.9698
 Hexadecapole moment (field-independent basis, Debye-Ang**3):
 XXXX=          -2514.4671 YYYY=           -540.2044 ZZZZ=           -451.9362 XXXY=            -12.9089
 XXXZ=             -7.2542 YYYX=              4.6977 YYYZ=              0.7829 ZZZX=             -4.7404
 ZZZY=              7.7191 XXYY=           -517.3562 XXZZ=           -516.0169 YYZZ=           -172.1771
 XXYZ=             17.2181 YYXZ=             -4.3751 ZZXY=              3.8275
 N-N= 9.125121599214D+02 E-N=-3.267313715321D+03  KE= 6.153145392461D+02
 D1PCM: PCM CHGder 1st derivatives, ID1Alg=3 FixD1E=F DoIter=F DoCFld=F I1PDM=0.
 Calling FoFJK, ICntrl=      2127 FMM=F ISym2X=0 I1Cent= 0 IOpClX= 0 NMat=1 NMatS=1 NMatT=0.
 ***** Axes restored to original set *****
 -------------------------------------------------------------------
 Center     Atomic                   Forces (Hartrees/Bohr)
 Number     Number              X              Y              Z
 -------------------------------------------------------------------
      1        6          -0.002163164   -0.006186706   -0.004706887
      2        6          -0.002732959    0.006047877    0.000995014
      3        8           0.003652601   -0.004246592   -0.009615423
      4        6           0.002357651   -0.002770916    0.007761995
      5        6           0.003346738    0.002807145   -0.001977064
      6        8          -0.004549605    0.001386218    0.010932918
      7        6           0.000822188   -0.000567312    0.002494594
      8        6           0.002022002   -0.001570930   -0.003019290
      9        6          -0.000595815   -0.001475694    0.006149317
     10        6           0.001949965    0.001567888    0.001506982
     11        6          -0.004098422    0.005517847   -0.001412085
     12        6          -0.001678088   -0.001258950   -0.000430457
     13        8          -0.005490995   -0.006993201   -0.003457138
     14        1           0.002548513    0.005643138    0.000752181
     15        1           0.005126860    0.001132014   -0.001920421
     16        1          -0.000488956   -0.004381725    0.001920602
     17        1          -0.005193183   -0.000196284   -0.003846654
     18        1           0.004558869    0.004349270   -0.001497818
     19        1          -0.002898378   -0.003625030   -0.000930617
     20        1          -0.000537582    0.001662590    0.002095971
     21        1           0.000285804    0.003018500    0.000862855
     22        1          -0.001686022   -0.001100233   -0.002742420
     23        1           0.002652724    0.000746151    0.002308807
     24        1          -0.002513353    0.000607704    0.000215742
     25        1           0.001633109    0.001893319   -0.007792947
     26        1          -0.001169035   -0.001322875    0.002270279
     27        1          -0.001385439   -0.000540271   -0.002959664
     28        1           0.000337151   -0.004230101   -0.001299639
     29        1           0.003350544    0.001713338    0.005868435
     30        1           0.001332391    0.003106322   -0.000933161
     31        1           0.001203885   -0.000732502    0.002405995
 -------------------------------------------------------------------
 Cartesian Forces:  Max     0.010932918 RMS     0.003457656

 GradGradGradGradGradGradGradGradGradGradGradGradGradGradGradGradGradGrad
 Berny optimization.
 FormGI is forming the generalized inverse of G from B-inverse, IUseBI=4.
 Internal  Forces:  Max     0.015166449 RMS     0.002198219
 Search for a local minimum.
 Step number   1 out of a maximum of  186
 All quantities printed in internal units (Hartrees-Bohrs-Radians)
 Mixed Optimization -- RFO/linear search
 Second derivative matrix not updated -- first step.
 ITU=  0
     Eigenvalues ---    0.00396   0.00623   0.00629   0.00723   0.01397
     Eigenvalues ---    0.01403   0.01747   0.02696   0.02776   0.03080
     Eigenvalues ---    0.03330   0.03982   0.04085   0.04521   0.04655
     Eigenvalues ---    0.04750   0.04892   0.04919   0.05042   0.05144
     Eigenvalues ---    0.05320   0.05633   0.05706   0.05937   0.06187
     Eigenvalues ---    0.06193   0.06339   0.06979   0.07576   0.07799
     Eigenvalues ---    0.07828   0.07862   0.07934   0.08083   0.08290
     Eigenvalues ---    0.08860   0.09168   0.10216   0.11313   0.11623
     Eigenvalues ---    0.11765   0.11771   0.11786   0.12413   0.12683
     Eigenvalues ---    0.14769   0.14959   0.16542   0.18338   0.19153
     Eigenvalues ---    0.19728   0.21981   0.22538   0.25000   0.26924
     Eigenvalues ---    0.27765   0.28595   0.28639   0.28886   0.28983
     Eigenvalues ---    0.29124   0.30277   0.35089   0.35185   0.35192
     Eigenvalues ---    0.35234   0.35238   0.35272   0.35311   0.35323
     Eigenvalues ---    0.35410   0.35453   0.35457   0.35485   0.35549
     Eigenvalues ---    0.35592   0.35790   0.35842   0.36148   0.36401
     Eigenvalues ---    0.40280   0.40753   0.40830   0.41710   0.43672
     Eigenvalues ---    0.463151000.000001000.000001000.000001000.00000
     Eigenvalues --- 1000.000001000.000001000.000001000.000001000.00000
     Eigenvalues --- 1000.000001000.000001000.000001000.000001000.00000
     Eigenvalues --- 1000.000001000.000001000.000001000.000001000.00000
     Eigenvalues --- 1000.000001000.000001000.000001000.000001000.00000
     Eigenvalues --- 1000.000001000.000001000.000001000.000001000.00000
     Eigenvalues --- 1000.000001000.000001000.000001000.000001000.00000
     Eigenvalues --- 1000.000001000.000001000.000001000.000001000.00000
     Eigenvalues --- 1000.000001000.000001000.000001000.000001000.00000
     Eigenvalues --- 1000.000001000.000001000.000001000.000001000.00000
     Eigenvalues --- 1000.000001000.000001000.000001000.000001000.00000
     Eigenvalues --- 1000.000001000.000001000.000001000.000001000.00000
     Eigenvalues --- 1000.000001000.000001000.000001000.000001000.00000
     Eigenvalues --- 1000.000001000.000001000.000001000.000001000.00000
     Eigenvalues --- 1000.000001000.000001000.000001000.000001000.00000
     Eigenvalues --- 1000.000001000.000001000.000001000.000001000.00000
     Eigenvalues --- 1000.000001000.000001000.000001000.000001000.00000
     Eigenvalues --- 1000.000001000.000001000.000001000.000001000.00000
     Eigenvalues --- 1000.000001000.000001000.000001000.000001000.00000
     Eigenvalues --- 1000.000001000.000001000.000001000.000001000.00000
 RFO step:  Lambda=-4.24407230D-03 EMin= 3.96116922D-03
 Linear search not attempted -- first point.
 Iteration  1 RMS(Cart)=  0.09341040 RMS(Int)=  0.00146257
 Iteration  2 RMS(Cart)=  0.00420892 RMS(Int)=  0.00007681
 Iteration  3 RMS(Cart)=  0.00000503 RMS(Int)=  0.00007676
 Iteration  4 RMS(Cart)=  0.00000000 RMS(Int)=  0.00007676
 Iteration  1 RMS(Cart)=  0.00000185 RMS(Int)=  0.00000042
 Iteration  2 RMS(Cart)=  0.00000103 RMS(Int)=  0.00000047
 Iteration  3 RMS(Cart)=  0.00000058 RMS(Int)=  0.00000053
 Variable       Old X    -DE/DX   Delta X   Delta X   Delta X     New X
                                 (Linear)    (Quad)   (Total)
    R1        2.90563  -0.00023   0.00000   0.00037   0.00041   2.90604
    R2        2.89109  -0.00146   0.00000  -0.00548  -0.00545   2.88564
    R3        2.70543  -0.00040   0.00000  -0.00096  -0.00096   2.70447
    R4        2.04724   0.00613   0.00000   0.01703   0.01703   2.06427
    R5        2.89627   0.00100   0.00000   0.00240   0.00239   2.89866
    R6        2.68278   0.00330   0.00000   0.00820   0.00822   2.69099
    R7        2.05236   0.00547   0.00000   0.01533   0.01533   2.06769
    R8        2.04412   0.00478   0.00000   0.01321   0.01321   2.05733
    R9        2.65068   0.00304   0.00000   0.00607   0.00607   2.65675
   R10        2.68685   0.00225   0.00000   0.00491   0.00491   2.69176
   R11        2.66421   0.00266   0.00000   0.00678   0.00676   2.67097
   R12        2.03459   0.00624   0.00000   0.01695   0.01695   2.05154
   R13        2.05153   0.00641   0.00000   0.01793   0.01793   2.06946
   R14        2.88539  -0.00040   0.00000  -0.00266  -0.00272   2.88267
   R15        2.04895   0.00440   0.00000   0.01227   0.01227   2.06121
   R16        2.05014   0.00271   0.00000   0.00757   0.00757   2.05771
   R17        2.63778   0.00193   0.00000   0.00413   0.00413   2.64190
   R18        2.88873  -0.00148   0.00000  -0.00444  -0.00443   2.88430
   R19        2.87822  -0.00065   0.00000  -0.00248  -0.00251   2.87571
   R20        2.04940   0.00313   0.00000   0.00872   0.00872   2.05812
   R21        2.05365   0.00335   0.00000   0.00939   0.00939   2.06304
   R22        2.88776  -0.00074   0.00000  -0.00160  -0.00159   2.88617
   R23        2.05376   0.00339   0.00000   0.00952   0.00952   2.06328
   R24        2.05172   0.00259   0.00000   0.00725   0.00725   2.05898
   R25        2.03850   0.00807   0.00000   0.02206   0.02206   2.06056
   R26        2.87064   0.00026   0.00000   0.00113   0.00116   2.87180
   R27        2.05290   0.00284   0.00000   0.00797   0.00797   2.06088
   R28        2.05531   0.00323   0.00000   0.00911   0.00911   2.06442
   R29        2.04330   0.00444   0.00000   0.01224   0.01224   2.05554
   R30        2.04793   0.00689   0.00000   0.01914   0.01914   2.06707
   R31        2.05296   0.00346   0.00000   0.00970   0.00970   2.06266
   R32        2.04946   0.00276   0.00000   0.00769   0.00769   2.05715
    A1        1.90142   0.00070   0.00000  -0.01055  -0.01084   1.89058
    A2        2.05689  -0.00236   0.00000  -0.01939  -0.01946   2.03742
    A3        1.86670   0.00130   0.00000   0.01514   0.01524   1.88194
    A4        1.88940   0.00110   0.00000  -0.00262  -0.00296   1.88644
    A5        1.91265  -0.00168   0.00000   0.00258   0.00264   1.91529
    A6        1.83272   0.00083   0.00000   0.01730   0.01740   1.85012
    A7        1.94772   0.00197   0.00000   0.00407   0.00391   1.95164
    A8        1.94053  -0.00116   0.00000  -0.00452  -0.00455   1.93598
    A9        1.93376  -0.00095   0.00000  -0.00734  -0.00728   1.92648
   A10        1.90485   0.00054   0.00000   0.01019   0.01029   1.91514
   A11        1.84243  -0.00101   0.00000  -0.00409  -0.00410   1.83833
   A12        1.89118   0.00062   0.00000   0.00194   0.00190   1.89308
   A13        2.03252  -0.00571   0.00000  -0.03704  -0.03698   1.99554
   A14        1.95307   0.00099   0.00000   0.00571   0.00556   1.95864
   A15        1.97958  -0.00162   0.00000  -0.01765  -0.01764   1.96194
   A16        1.88452  -0.00050   0.00000   0.00169   0.00161   1.88613
   A17        1.86836  -0.00051   0.00000  -0.00626  -0.00627   1.86209
   A18        1.90504   0.00097   0.00000   0.01286   0.01282   1.91787
   A19        1.87071   0.00077   0.00000   0.00477   0.00476   1.87547
   A20        1.91729  -0.00117   0.00000  -0.00706  -0.00728   1.91001
   A21        1.90139  -0.00021   0.00000  -0.00925  -0.00915   1.89224
   A22        1.91722  -0.00007   0.00000  -0.00069  -0.00063   1.91659
   A23        1.91148   0.00100   0.00000   0.00570   0.00566   1.91714
   A24        1.94085   0.00034   0.00000   0.00449   0.00456   1.94542
   A25        1.87478   0.00015   0.00000   0.00685   0.00678   1.88156
   A26        2.15725  -0.01517   0.00000  -0.05965  -0.05965   2.09760
   A27        1.96021  -0.00200   0.00000  -0.01639  -0.01654   1.94367
   A28        1.94855  -0.00020   0.00000  -0.00147  -0.00158   1.94697
   A29        1.90694   0.00128   0.00000   0.00780   0.00790   1.91485
   A30        1.89991   0.00093   0.00000  -0.00001   0.00002   1.89993
   A31        1.86987   0.00013   0.00000   0.00408   0.00408   1.87394
   A32        1.87479  -0.00004   0.00000   0.00726   0.00722   1.88201
   A33        1.91054   0.00187   0.00000  -0.00015  -0.00011   1.91043
   A34        1.92417  -0.00096   0.00000  -0.00687  -0.00689   1.91728
   A35        1.91571  -0.00054   0.00000   0.00166   0.00164   1.91735
   A36        1.91435  -0.00087   0.00000  -0.00218  -0.00229   1.91206
   A37        1.93159  -0.00021   0.00000   0.00183   0.00189   1.93348
   A38        1.86721   0.00064   0.00000   0.00574   0.00575   1.87296
   A39        1.95612   0.00018   0.00000  -0.00342  -0.00323   1.95289
   A40        1.94568   0.00371   0.00000   0.01285   0.01258   1.95826
   A41        1.83439  -0.00266   0.00000  -0.01527  -0.01527   1.81912
   A42        1.88746  -0.00347   0.00000  -0.01622  -0.01611   1.87135
   A43        1.92562   0.00221   0.00000   0.01741   0.01740   1.94303
   A44        1.91446   0.00019   0.00000   0.00575   0.00586   1.92031
   A45        1.91982  -0.00098   0.00000  -0.00390  -0.00413   1.91569
   A46        1.94018  -0.00051   0.00000  -0.00166  -0.00163   1.93855
   A47        1.91694   0.00091   0.00000   0.00113   0.00122   1.91816
   A48        1.90161   0.00062   0.00000   0.00418   0.00425   1.90586
   A49        1.90848  -0.00001   0.00000  -0.00279  -0.00272   1.90576
   A50        1.87607  -0.00000   0.00000   0.00318   0.00314   1.87922
   A51        1.94827   0.00232   0.00000   0.00531   0.00523   1.95350
   A52        1.84029  -0.00126   0.00000  -0.00142  -0.00143   1.83886
   A53        1.91071   0.00006   0.00000   0.00097   0.00105   1.91175
   A54        1.94651  -0.00025   0.00000  -0.00168  -0.00159   1.94492
   A55        1.92772  -0.00155   0.00000  -0.00658  -0.00663   1.92109
   A56        1.88747   0.00068   0.00000   0.00371   0.00369   1.89116
   A57        1.90812  -0.00035   0.00000  -0.00895  -0.00917   1.89896
   A58        1.92952   0.00069   0.00000   0.00370   0.00375   1.93327
   A59        1.90884  -0.00018   0.00000   0.00377   0.00381   1.91265
   A60        1.91511  -0.00057   0.00000  -0.00288  -0.00287   1.91224
   A61        1.93647   0.00044   0.00000   0.00264   0.00277   1.93924
   A62        1.86562  -0.00001   0.00000   0.00210   0.00205   1.86768
   A63        1.98046  -0.00514   0.00000  -0.02716  -0.02720   1.95327
    D1        0.46079   0.00149   0.00000  -0.00620  -0.00612   0.45467
    D2        2.57673   0.00038   0.00000  -0.02307  -0.02297   2.55376
    D3       -1.63611   0.00002   0.00000  -0.02669  -0.02659  -1.66270
    D4       -1.69947   0.00119   0.00000   0.02137   0.02125  -1.67822
    D5        0.41647   0.00008   0.00000   0.00449   0.00440   0.42086
    D6        2.48681  -0.00028   0.00000   0.00087   0.00078   2.48759
    D7        2.52674   0.00060   0.00000  -0.00037  -0.00039   2.52635
    D8       -1.64051  -0.00051   0.00000  -0.01724  -0.01724  -1.65775
    D9        0.42984  -0.00087   0.00000  -0.02086  -0.02086   0.40898
   D10        0.62288   0.00142   0.00000   0.03283   0.03277   0.65565
[...]
 .00008312,-0.00008217,0.00023485,-0.00163000,0.00245046,-0.00002205,0.
 00008442,-0.00027224,0.00048750,0.00000948,0.00060510,-0.00079459,-0.0
 0008365,-0.00012186,0.00000235,0.00002660,0.00003737,0.00005947,-0.000
 00029,0.00004976,0.00102941,-0.00000494,0.00129737,0.00010969,0.000154
 99,0.00037437,0.00008802,-0.00008516,0.00005566,0.00005617,-0.00006176
 ,0.00010508,0.00002950,-0.00009613,-0.00002120,0.00023038,-0.00010503,
 0.00080935,-0.00014799,-0.00007957,0.00015363,0.00006852,0.00030275,-0
 .00038768,-0.06303701,-0.09586687,0.27145598,0.00028474,0.00006617,0.0
 0005621,0.00005303,-0.00002175,0.00004426,-0.00828866,-0.00107974,0.00
 409880,0.00006298,-0.00004871,0.00006622,-0.00002343,-0.00000466,0.000
 02712,-0.00031575,-0.00048663,-0.00041158,0.00073629,0.00145303,0.0001
 4079,0.00071150,0.00192341,-0.00482503,-0.00009028,0.00279064,0.000460
 64,-0.06757937,-0.03811772,0.05334071,-0.00387054,-0.01927515,0.024179
 69,-0.00000327,0.00000824,-0.00002270,-0.00011350,0.00001897,-0.000030
 88,-0.00004482,-0.00001919,-0.00000527,-0.00001898,0.00000037,-0.00000
 450,-0.00000770,0.00000874,-0.00000720,0.00004227,0.00000199,-0.000084
 41,-0.00006516,0.00000994,-0.00002480,0.00000706,-0.00000281,0.0000123
 2,-0.00000175,-0.00000149,-0.00001242,0.00044241,0.00036299,-0.0001727
 7,-0.00009104,-0.00018546,0.00037711,0.00010983,-0.00025781,0.00024287
 ,0.00013952,-0.00038429,-0.00043226,0.00009064,-0.00029430,-0.00001200
 ,0.07025645,0.00016389,0.00000714,-0.00002821,0.00001737,-0.00000463,0
 .00000231,0.00226647,0.00162129,-0.00119679,-0.00000298,-0.00002589,-0
 .00001414,-0.00003823,-0.00000254,0.00002291,-0.00038315,0.00013882,0.
 00004431,0.00140038,-0.00612636,-0.00344311,-0.00924786,-0.01741587,0.
 02623640,0.00122746,-0.00064826,-0.00040516,-0.03877675,-0.12790743,0.
 11653440,0.00028954,0.00288581,-0.00553867,-0.00000040,0.00000680,-0.0
 0002130,-0.00003292,0.00003127,-0.00000592,-0.00003976,-0.00001256,-0.
 00000210,-0.00000309,0.00000026,0.00000356,-0.00000229,0.00000291,-0.0
 0000154,0.00001217,-0.00000004,-0.00001362,-0.00001006,0.00000485,0.00
 001247,0.00000176,-0.00000176,0.00000364,-0.00000124,-0.00000321,-0.00
 000418,-0.00094378,-0.00106909,0.00162680,0.00019286,0.00016036,-0.000
 01969,-0.00035779,0.00139171,-0.00024261,0.00043045,0.00135862,0.00005
 671,-0.00015629,0.00020349,0.00003659,0.04195130,0.14066969,-0.0001984
 9,-0.00005598,-0.00002178,-0.00003791,0.00001584,-0.00002480,0.0029747
 3,0.00073458,0.00038007,-0.00003488,0.00001970,-0.00002379,0.00002265,
 -0.00001591,-0.00001117,0.00027622,0.00028207,0.00019461,0.00022887,-0
 .00155142,0.00059739,-0.00327247,-0.00550931,0.00722822,-0.00030252,-0
 .00133386,-0.00028688,0.05537743,0.11759181,-0.21471157,-0.00092464,0.
 00377096,-0.00655088,0.00000331,0.00000235,0.00001393,0.00008283,-0.00
 001086,0.00001154,0.00003217,0.00001555,0.00000082,0.00001369,0.000000
 02,0.00000137,0.00000407,-0.00000585,0.00000409,-0.00001495,0.00000246
 ,0.00004392,0.00003719,-0.00000544,0.00000890,-0.00001071,0.00001561,-
 0.00001869,0.00000489,0.00000752,0.00000839,0.00007149,-0.00029215,0.0
 0030738,-0.00002007,-0.00017865,0.00025671,-0.00008894,0.00066744,0.00
 062429,-0.00014792,0.00070481,0.00015366,-0.00002840,0.00009050,-0.000
 06186,-0.06125559,-0.12744499,0.23002860,0.00015167,0.00010660,-0.0000
 8693,0.00004275,-0.00002417,-0.00000288,0.00351454,0.00007903,0.000429
 81,0.00003681,0.00002836,-0.00005506,-0.00000133,0.00016433,-0.0000570
 5,0.00002009,-0.00025089,0.00010870,-0.00010158,-0.00031268,-0.0000388
 3,0.00281826,0.00156688,0.00425001,-0.00030741,0.00019994,-0.00003100,
 -0.13485223,-0.03931086,-0.11483156,-0.02261806,-0.00693538,-0.0277440
 0,-0.00000392,-0.00006986,0.00000269,-0.00009315,-0.00001844,0.0000496
 2,-0.00001304,-0.00002820,0.00001850,-0.00001369,0.00000316,0.00000849
 ,-0.00000119,0.00000644,-0.00000180,0.00000989,0.00000796,-0.00000003,
 -0.00001295,-0.00000463,0.00000598,0.00005084,-0.00011231,0.00008722,-
 0.00003319,-0.00005402,-0.00000185,-0.00002125,-0.00006791,0.00011456,
 -0.00015775,-0.00026524,0.00001477,0.00091058,0.00133008,0.00014129,0.
 00048449,-0.00056477,0.00020418,-0.00002124,-0.00009736,-0.00000303,0.
 00547786,0.00316658,0.00691008,0.14888512,0.00001360,-0.00003269,0.000
 09317,-0.00001073,0.00000518,-0.00000028,-0.00080056,0.00010382,-0.000
 61780,-0.00003276,-0.00002317,0.00001136,0.00000521,-0.00003004,0.0000
 1249,-0.00002424,0.00017131,0.00008686,-0.00029376,0.00170291,-0.00103
 890,-0.01924760,-0.01023126,-0.02651757,0.00001502,-0.00054029,-0.0001
 0801,-0.03884747,-0.06475262,-0.04909919,0.00490313,0.00089610,0.00729
 977,0.00000203,0.00001741,-0.00000359,0.00002615,0.00001330,-0.0000125
 8,-0.00000816,0.00000535,-0.00000445,0.00000408,-0.00000071,-0.0000011
 0,-0.00000023,-0.00000135,0.00000003,-0.00000151,-0.00000332,-0.000000
 60,0.00000062,0.00000511,0.00000487,-0.00002681,0.00001929,-0.00003022
 ,0.00001165,0.00001719,-0.00000007,0.00043902,0.00020707,0.00017268,0.
 00014278,-0.00019210,0.00072028,0.00072676,-0.00619597,-0.00097354,0.0
 0035907,0.00147383,0.00040602,-0.00009957,0.00006514,0.00003611,0.0113
 1743,0.00446078,0.01288695,0.04002750,0.07175021,0.00016246,-0.0000064
 4,0.00000520,0.00001297,-0.00000255,0.00000946,-0.00084860,-0.00111166
 ,0.00170489,0.00000600,-0.00003142,0.00001883,0.00000067,-0.00002076,0
 .00003229,-0.00030777,-0.00012610,-0.00009239,0.00042516,0.00071080,0.
 00066547,-0.00350330,-0.00257116,-0.00673284,0.00012891,0.00032183,0.0
 0015383,-0.11713251,-0.04917100,-0.20427836,0.00583299,0.00280338,0.00
 529146,0.00000206,0.00001736,-0.00001251,-0.00002465,0.00002389,-0.000
 01314,-0.00002720,-0.00000905,-0.00000502,-0.00000413,-0.00000032,0.00
 000037,-0.00000238,0.00000231,-0.00000191,0.00000870,-0.00000074,-0.00
 002255,-0.00001883,0.00000394,-0.00000065,0.00000712,0.00001786,-0.000
 00960,0.00000207,0.00000553,-0.00000097,0.00013660,-0.00007694,0.00017
 523,-0.00025560,-0.00014403,0.00043455,0.00068216,-0.00155094,0.001012
 28,0.00024649,-0.00001988,0.00018041,-0.00009886,-0.00004314,0.0000040
 3,-0.01452621,-0.00645444,-0.01862266,0.12799873,0.05699188,0.21884921
 ,0.00036273,0.00010306,-0.00002835,0.00001849,-0.00000587,-0.00002688,
 0.00185237,-0.01403938,-0.00072679,0.00004779,-0.00006002,-0.00002090,
 -0.00010604,0.00013045,-0.00001532,-0.00001752,-0.00038686,0.00025095,
 -0.00007506,-0.00056743,0.00020883,-0.00662501,-0.00062809,0.00130085,
 -0.00092322,-0.00041134,0.00142100,-0.00323579,0.03188607,0.01000760,-
 0.05511959,0.03581530,0.00916284,-0.00000022,-0.00006966,-0.00001539,0
 .00004225,0.00012715,0.00001215,-0.00004502,-0.00002241,0.00000820,-0.
 00000271,0.00000274,0.00000947,-0.00000098,0.00000837,0.00000003,0.000
 01663,-0.00000249,-0.00001901,-0.00002410,0.00001155,0.00000969,0.0000
 8401,-0.00007156,0.00004959,-0.00000853,-0.00002199,-0.00001216,0.0001
 7989,0.00005412,-0.00011354,0.00003981,0.00002184,-0.00009180,0.000100
 80,-0.00003426,0.00018849,-0.00027392,0.00210929,0.00035278,0.00013626
 ,-0.00056493,0.00003988,0.00105036,-0.00077274,-0.00002751,0.00159032,
 -0.00038338,-0.00070058,0.05747451,0.00062639,0.00012935,-0.00001010,0
 .00006336,-0.00002870,0.00002396,-0.00086324,-0.02720356,0.00205589,0.
 00007870,-0.00008368,0.00001777,-0.00008112,0.00008181,0.00001017,-0.0
 0058787,-0.00030484,-0.00057895,-0.00031408,0.00005659,-0.00014779,0.0
 0115876,0.00128950,-0.00014298,-0.00113308,0.00336255,0.00422044,0.000
 89404,-0.00264136,-0.00240873,0.03322438,-0.28644362,-0.07868588,-0.00
 001101,-0.00002398,-0.00004144,-0.00013251,0.00009140,-0.00003137,-0.0
 0009663,-0.00004030,0.00000355,-0.00002047,0.00000271,0.00000532,-0.00
 001437,0.00000880,-0.00000756,0.00005994,-0.00000700,-0.00008567,-0.00
 007294,0.00002132,-0.00000269,-0.00001178,-0.00011164,0.00003282,-0.00
 001682,-0.00002521,-0.00001551,0.00011224,-0.00006466,-0.00008942,0.00
 003181,0.00000200,0.00002788,-0.00006527,0.00008096,0.00001818,-0.0000
 8591,-0.00034308,0.00001758,0.00009569,-0.00118447,-0.00002647,0.00061
 395,0.00000250,-0.00027854,0.00008560,0.00032241,0.00033632,-0.0340608
 5,0.31710731,-0.00008727,-0.00001169,-0.00001911,-0.00000679,-0.000021
 36,-0.00003360,-0.00081301,0.03840728,0.00339203,-0.00004958,-0.000003
 88,-0.00005143,-0.00000077,0.00019763,-0.00006957,0.00048843,-0.000176
 72,0.00152092,0.00024850,0.00033495,-0.00027237,0.00236039,0.00030394,
 0.00045547,0.00102905,0.00022035,-0.00561585,-0.00115723,-0.00645517,-
 0.00151406,0.00908900,-0.09022164,-0.07701425,-0.00000678,-0.00009505,
 0.00002478,0.00004461,-0.00001750,0.00003384,0.00000197,0.00000025,0.0
 0000404,0.00000240,0.00000401,0.00000938,0.00000251,0.00000112,0.00000
 407,-0.00003495,0.00001726,0.00004730,0.00001685,0.00000556,0.00001011
 ,0.00006753,-0.00012951,0.00004218,-0.00001882,-0.00003357,-0.00000220
 ,-0.00018300,-0.00003063,0.00015491,-0.00000639,-0.00001456,0.00004244
 ,-0.00005547,0.00043629,0.00019596,0.00023374,-0.00079005,0.00015978,-
 0.00017054,0.00140593,-0.00001650,-0.00016363,0.00011952,0.00003567,0.
 00026525,0.00057928,0.00049245,-0.01518153,0.07891495,0.08381444,0.000
 27606,-0.00020616,0.00003880,-0.00009901,0.00005516,-0.00003836,0.0098
 9381,0.00123685,0.01200320,-0.00005572,-0.00013385,0.00012817,-0.00068
 200,-0.00060131,-0.00007732,-0.00086584,-0.00074746,0.00035083,-0.0000
 6782,0.00009027,0.00007011,0.00144651,-0.00121301,-0.00075196,0.000400
 94,0.00074327,-0.00035681,-0.02171994,-0.00716459,-0.02516142,-0.14230
 894,-0.02820119,-0.12019794,0.00005297,0.00011423,-0.00003223,0.000454
 30,0.00012138,-0.00014350,-0.00008187,0.00003883,-0.00007601,0.0000355
 4,-0.00000702,0.00000221,0.00000400,-0.00000699,0.00000631,0.00001198,
 0.00000489,-0.00001003,0.00000664,0.00002170,0.00000198,-0.00194936,-0
 .00084420,-0.00072953,0.00006319,0.00006669,-0.00000414,0.00006332,0.0
 0005645,-0.00007085,-0.00000631,-0.00008882,0.00006015,0.00020457,0.00
 068143,0.00051766,0.00026234,-0.00012961,0.00038852,-0.00010892,-0.000
 00792,-0.00008270,0.00106136,-0.00033927,0.00031066,-0.00569053,0.0017
 7039,0.00179912,0.00351120,0.00057135,0.00412657,0.15583134,-0.0002917
 2,-0.00029443,0.00020095,-0.00002269,0.00003426,0.00003339,0.00887549,
 -0.00009776,0.02499090,-0.00000308,0.00005693,0.00010817,-0.00013396,-
 0.00025911,-0.00009836,-0.00100245,-0.00060921,-0.00057054,-0.00001924
 ,-0.00039118,0.00009714,0.00025944,0.00068680,0.00107895,0.00174279,0.
 00247205,0.00229116,0.00479175,0.00184710,0.00445319,-0.03007231,-0.06
 380087,-0.04629848,0.00002937,0.00010924,-0.00000086,-0.00000915,-0.00
 008269,-0.00006576,0.00004215,0.00001706,-0.00003396,0.00000490,-0.000
 00892,-0.00001592,0.00000022,-0.00001240,0.00000081,0.00003796,0.00000
 966,-0.00002733,0.00000825,-0.00001724,-0.00002696,-0.00089995,0.00011
 996,-0.00027983,0.00001785,0.00000526,0.00000487,0.00007719,-0.0000322
 9,-0.00006940,-0.00008213,0.00000859,-0.00004122,-0.00006279,0.0001865
 0,-0.00015976,-0.00013837,0.00002534,-0.00008496,-0.00016464,-0.000234
 54,-0.00026716,-0.00034793,0.00026798,-0.00012374,0.00133500,0.0007695
 4,0.00010449,-0.01817827,-0.00406484,-0.02295705,0.03413718,0.06331268
 ,0.00000056,0.00039783,-0.00021426,0.00007511,-0.00003912,-0.00005002,
 -0.00793455,0.01078365,-0.03493514,-0.00002192,0.00013768,-0.00028916,
 -0.00024318,0.00030274,-0.00025757,0.00099614,-0.00006418,0.00280318,0
 .00025350,0.00055498,0.00018598,0.00018479,0.00063168,0.00040993,-0.00
 120405,-0.00615753,-0.00280504,0.00471820,0.00008351,0.00756071,-0.118
 57690,-0.04026792,-0.19976439,0.00001289,-0.00022594,0.00002564,-0.000
 17404,-0.00011029,0.00014545,0.00002605,-0.00005961,0.00002520,-0.0000
 1684,0.00000522,0.00002206,0.00000787,0.00000465,0.00000565,-0.0000868
 5,-0.00001421,0.00011303,0.00004534,-0.00002551,0.00005313,-0.00051655
 ,-0.00063357,0.00059573,-0.00007788,-0.00016868,-0.00003352,-0.0002050
 9,0.00010853,0.00012258,0.00003109,-0.00006308,-0.00003025,-0.00028979
 ,0.00032341,-0.00015589,-0.00004538,0.00010357,0.00005682,0.00013582,0
 .00051652,0.00014708,-0.00105342,0.00013532,0.00043441,0.00223499,-0.0
 0089241,0.00076223,-0.00605494,-0.00313706,-0.00584061,0.12791691,0.03
 776096,0.23087053,0.00037088,-0.00155923,0.00057741,0.00014607,0.00485
 054,0.00052650,-0.00001048,0.00009466,-0.00006574,-0.00021539,-0.00067
 189,0.00029344,-0.01884216,-0.02808609,0.00801274,0.00045391,0.0005445
 2,0.00002519,0.00002289,0.00002176,0.00004100,-0.00000091,-0.00001098,
 0.00000459,0.00017097,-0.00010155,-0.00007033,-0.00001370,-0.00002530,
 -0.00008834,0.00002569,-0.00002518,0.00025184,-0.11190369,-0.10860361,
 0.02893616,0.00014837,-0.00000146,-0.00072156,-0.00028893,0.00061798,-
 0.00036369,0.00090934,0.00047752,-0.00041940,0.00072770,0.00106747,0.0
 0093256,0.00010965,0.00017783,-0.00003755,0.00022971,-0.00000990,-0.00
 048047,-0.00581806,0.00231578,0.00099953,0.00110107,0.00031448,0.00014
 852,-0.00000562,0.00000492,-0.00000031,0.00001120,-0.00000348,-0.00000
 384,0.00000447,-0.00000106,-0.00000462,-0.00000617,0.00000804,-0.00000
 149,-0.00002650,0.00000033,-0.00003125,0.00000030,-0.00000016,0.000005
 03,-0.00004074,0.00001112,0.00000524,-0.00003429,-0.00002038,-0.000042
 95,0.00004870,0.00004928,-0.00012523,0.12511034,0.00055773,0.00119704,
 0.00038040,-0.00788231,-0.01903213,0.00649964,-0.00005535,-0.00005310,
 0.00000939,-0.00018437,-0.00120641,0.00092072,0.00365158,0.00826922,-0
 .00224092,-0.00043794,-0.00014267,-0.00003453,-0.00001502,-0.00001353,
 -0.00002104,-0.00000288,0.00000518,-0.00000272,0.00008446,0.00013686,0
 .00010430,0.00000098,0.00000140,0.00000950,0.00002277,0.00001838,-0.00
 004128,-0.10730228,-0.22986424,0.05264399,-0.00068943,0.00038286,-0.00
 182423,-0.00053894,-0.00005319,-0.00040594,0.00009728,0.00148306,0.000
 12993,0.00003632,-0.00165225,-0.00369717,0.00008249,0.00019409,-0.0001
 5538,0.00043730,0.00035128,0.00002738,0.00212183,0.00050362,-0.0000077
 1,-0.00079288,0.00034646,0.00002359,0.00000073,-0.00000095,0.00000103,
 -0.00001539,-0.00000105,0.00000170,-0.00000047,-0.00000015,-0.00000268
 ,-0.00000381,-0.00000200,0.00000199,0.00000492,-0.00000156,-0.00002223
 ,-0.00000252,-0.00000141,0.00000179,0.00000206,-0.00000083,-0.00000131
 ,0.00000330,0.00000019,0.00000735,-0.00001517,-0.00001303,-0.00000246,
 0.11678252,0.24983123,-0.00112042,-0.00049590,0.00012024,-0.01171714,-
 0.02282415,0.00615144,0.00003058,0.00005589,0.00002384,-0.00020845,-0.
 00025885,-0.00030929,0.00329740,0.00545179,-0.00182144,0.00033098,0.00
 005906,0.00007956,0.00000739,0.00001233,0.00001885,0.00000188,-0.00000
 199,0.00000181,-0.00015432,-0.00009667,-0.00017102,0.00000212,0.000007
 89,0.00002274,-0.00001769,-0.00000095,-0.00006571,0.03066455,0.0549906
 1,-0.06534390,-0.00005286,-0.00034038,-0.00092792,0.00026611,0.0000094
 8,0.00022681,-0.00043360,0.00067040,0.00149406,-0.00009896,-0.00301492
 ,-0.00256971,0.00001417,0.00005347,0.00009816,-0.00039536,0.00014685,-
 0.00069506,0.00111738,-0.00090704,0.00060192,-0.00023842,0.00010759,-0
 .00007548,0.00000036,-0.00000063,-0.00000041,0.00001607,0.00000049,-0.
 00000047,-0.00000223,0.00000102,0.00000518,0.00000718,-0.00000046,-0.0
 0000212,0.00000367,0.00000260,0.00003176,0.00000310,0.00000142,-0.0000
 0331,0.00001406,-0.00000245,0.00000035,0.00001348,0.00001095,0.0000123
 9,0.00000181,-0.00000731,0.00004615,-0.03549921,-0.05557681,0.06955040
 ,-0.00356797,-0.00088519,0.00397016,-0.00005088,-0.00106518,0.00155653
 ,-0.00009868,-0.00039800,-0.00006718,-0.00037088,-0.00011489,0.0010272
 0,-0.01305553,0.01404868,-0.02772297,-0.00283217,0.00045946,-0.0021995
 2,-0.00008897,-0.00013590,-0.00020312,-0.00001653,0.00002723,-0.000024
 95,0.00033354,0.00105279,0.00089892,0.00000446,0.00000152,0.00001310,0
 .00008796,0.00010215,-0.00007564,-0.09380088,0.04310326,-0.09285975,0.
 00037203,-0.00044621,-0.00066385,0.00009625,0.00034063,-0.00014980,-0.
 00074155,0.00007798,-0.00031700,0.00086051,-0.00012532,-0.00000205,0.0
 0004195,-0.00003114,-0.00009051,0.00024327,0.00002557,-0.00010288,0.00
 121857,-0.00074750,-0.00008058,0.00165637,-0.00013147,0.00032064,0.000
 01107,-0.00000725,0.00000134,-0.00011521,-0.00000329,0.00001784,0.0000
 0635,-0.00000409,-0.00001044,-0.00002439,-0.00001066,0.00001815,-0.000
 04111,-0.00003412,-0.00014093,-0.00001234,-0.00001148,0.00000971,-0.00
 000998,0.00000123,-0.00000683,-0.00001538,-0.00002791,0.00000193,0.000
 00750,0.00001986,-0.00001269,0.00761535,-0.00594750,0.01414635,0.10228
 725,0.00130351,0.00098913,-0.00128758,-0.01068155,0.00802113,-0.017127
 53,-0.00000457,0.00015862,0.00003918,0.00042314,-0.00157423,0.00032337
 ,0.00233091,-0.00408167,0.00574973,0.00090420,0.00001145,0.00096943,0.
 00004031,0.00006996,0.00010138,0.00000713,-0.00001067,0.00001029,-0.00
 005233,-0.00038902,-0.00043088,-0.00000246,-0.00000119,0.00000300,-0.0
 0002221,-0.00002135,0.00000039,0.04496862,-0.08835733,0.08859974,-0.00
 197420,-0.00221314,-0.00564206,-0.00028217,0.00010747,-0.00018254,0.00
 108106,-0.00016391,-0.00034252,-0.00079889,0.00136586,0.00001800,0.000
 04069,0.00025762,-0.00002748,0.00022182,0.00027015,-0.00011964,0.00006
 260,0.00040266,-0.00032011,-0.00028039,0.00000023,0.00007747,-0.000008
 33,0.00000237,0.00000003,0.00005116,-0.00000148,-0.00000802,-0.0000038
 6,0.00000178,0.00000470,0.00000937,0.00000421,-0.00000827,0.00000318,0
 .00000586,0.00005063,0.00000300,0.00000478,-0.00000326,0.00000718,-0.0
 0000159,0.00000229,0.00000830,0.00001152,0.00000272,-0.00000349,-0.000
 01045,0.00001137,0.01178153,-0.01068237,0.02194666,-0.04913327,0.09582
 360,0.00190370,-0.00033094,0.00001424,-0.00964035,0.01060710,-0.016278
 25,-0.00011414,0.00002738,0.00001415,0.00089152,-0.00118494,0.00040682
 ,0.00385363,-0.00454954,0.00802347,0.00057880,-0.00013169,0.00038578,0
 .00002645,0.00000983,0.00003596,-0.00000660,0.00000089,-0.00000135,0.0
 0011743,-0.00015532,-0.00005028,-0.00000076,-0.00000725,-0.00000061,0.
 00000990,0.00004035,-0.00001534,-0.09515056,0.08745395,-0.23165876,-0.
 00111927,-0.00216690,-0.00429053,-0.00007546,-0.00004551,0.00009600,0.
 00075188,-0.00100194,-0.00068797,-0.00044182,0.00013495,0.00168601,-0.
 00008923,0.00006611,0.00000297,-0.00016562,0.00005068,0.00004533,-0.00
 059310,0.00019460,0.00008844,-0.00068791,0.00013001,0.00059113,-0.0000
 0445,0.00000469,0.00000297,0.00001007,0.00000002,-0.00000157,0.0000009
 5,-0.00000016,-0.00000121,-0.00000337,0.00000002,0.00000159,0.00000466
 ,-0.00000880,0.00002114,-0.00000517,0.00000014,0.00000340,-0.00000491,
 0.00000102,0.00000005,-0.00000112,-0.00000562,-0.00000260,0.00000977,0
 .00000362,-0.00000963,-0.00280373,0.00327370,-0.00649981,0.10274881,-0
 .09241048,0.24807845\\0.00028029,0.00157327,0.00224118,0.00001406,0.00
 000107,0.00001043,0.00000874,0.00002737,-0.00003273,0.00000526,-0.0000
 0485,0.00001169,-0.00023932,-0.00219074,-0.00121006,-0.00000615,0.0033
 9989,-0.00225792,0.00000997,0.00001445,-0.00000742,-0.00000220,0.00000
 449,-0.00000076,-0.00004889,-0.00278755,0.00123598,0.00000195,0.000000
 74,-0.00000040,-0.00000498,-0.00001078,0.00002491,-0.00000221,-0.00000
 524,0.00000098,0.00000618,-0.00001709,-0.00000844,0.00001324,0.0000028
 9,0.00000666,0.00000250,-0.00000642,0.00000454,-0.00001465,-0.00000132
 ,0.00000396,-0.00000447,-0.00001045,0.00000280,-0.00000431,-0.00000153
 ,-0.00000189,0.00000367,-0.00000932,0.00000334,-0.00000714,0.00000206,
 -0.00000577,-0.00000303,0.00000375,-0.00000292,-0.00000237,0.00000070,
 -0.00000766,0.00000117,0.00000308,-0.00000127,0.00000030,0.00000622,-0
 .00000428,-0.00000455,-0.00000818,0.00001456,-0.00000659,0.00000545,-0
 .00000254,-0.00000207,0.00000326,-0.00000525,-0.00000079,0.00000403,-0
 .00000565,-0.00000459,0.00000662,-0.00000055,0.00000412,-0.00000086,-0
 .00000376,0.00000686,-0.00000499,-0.00000177\\\@


 DESK:  A WASTEBASKET WITH DRAWERS.
 Job cpu time:       0 days 14 hours 49 minutes 14.1 seconds.
 Elapsed time:       0 days  0 hours 55 minutes 35.7 seconds.
 File lengths (MBytes):  RWF=    691 Int=      0 D2E=      0 Chk=     33 Scr=      1
 Normal termination of Gaussian 16 at Sun Nov  4 22:56:17 2018.
