 Entering Gaussian System, Link 0=g16
 Initial command:
 /apps/gaussian/g16a03/g16/l1.exe "/jobfs/local/2011870.r-man2/Gau-28785.inp" -scrdir="/jobfs/local/2011870.r-man2/"
 Entering Link 1 = /apps/gaussian/g16a03/g16/l1.exe PID=     28786.
  
 Copyright (c) 1988,1990,1992,1993,1995,1998,2003,2009,2016,
            Gaussian, Inc.  All Rights Reserved.
  
 This is part of the Gaussian(R) 16 program.  It is based on
 the Gaussian(R) 09 system (copyright 2009, Gaussian, Inc.),
 the Gaussian(R) 03 system (copyright 2003, Gaussian, Inc.),
 the Gaussian(R) 98 system (copyright 1998, Gaussian, Inc.),
 the Gaussian(R) 94 system (copyright 1995, Gaussian, Inc.),
 the Gaussian 92(TM) system (copyright 1992, Gaussian, Inc.),
 the Gaussian 90(TM) system (copyright 1990, Gaussian, Inc.),
 the Gaussian 88(TM) system (copyright 1988, Gaussian, Inc.),
 the Gaussian 86(TM) system (copyright 1986, Carnegie Mellon
 University), and the Gaussian 82(TM) system (copyright 1983,
 Carnegie Mellon University). Gaussian is a federally registered
 trademark of Gaussian, Inc.
  
 This software contains proprietary and confidential information,
 including trade secrets, belonging to Gaussian, Inc.
  
 This software is provided under written license and may be
 used, copied, transmitted, or stored only in accord with that
 written license.
  
 The following legend is applicable only to US Government
 contracts under FAR:
  
                    RESTRICTED RIGHTS LEGEND
  
 Use, reproduction and disclosure by the US Government is
 subject to restrictions as set forth in subparagraphs (a)
 and (c) of the Commercial Computer Software - Restricted
 Rights clause in FAR 52.227-19.
  
 Gaussian, Inc.
 340 Quinnipiac St., Bldg. 40, Wallingford CT 06492
  
  
 ---------------------------------------------------------------
 Warning -- This program may not be used in any manner that
 competes with the business of Gaussian, Inc. or will provide
 assistance to any competitor of Gaussian, Inc.  The licensee
 of this program is prohibited from giving any competitor of
 Gaussian, Inc. access to this program.  By using this program,
 the user acknowledges that Gaussian, Inc. is engaged in the
 business of creating and licensing software in the field of
 computational chemistry and represents and warrants to the
 licensee that it is not a competitor of Gaussian, Inc. and that
 it will not use this program in any manner prohibited above.
 ---------------------------------------------------------------
  

 Cite this work as:
 Gaussian 16, Revision A.03,
 M. J. Frisch, G. W. Trucks, H. B. Schlegel, G. E. Scuseria, 
 M. A. Robb, J. R. Cheeseman, G. Scalmani, V. Barone, 
 G. A. Petersson, H. Nakatsuji, X. Li, M. Caricato, A. V. Marenich, 
 J. Bloino, B. G. Janesko, R. Gomperts, B. Mennucci, H. P. Hratchian, 
 J. V. Ortiz, A. F. Izmaylov, J. L. Sonnenberg, D. Williams-Young, 
 F. Ding, F. Lipparini, F. Egidi, J. Goings, B. Peng, A. Petrone, 
 T. Henderson, D. Ranasinghe, V. G. Zakrzewski, J. Gao, N. Rega, 
 G. Zheng, W. Liang, M. Hada, M. Ehara, K. Toyota, R. Fukuda, 
 J. Hasegawa, M. Ishida, T. Nakajima, Y. Honda, O. Kitao, H. Nakai, 
 T. Vreven, K. Throssell, J. A. Montgomery, Jr., J. E. Peralta, 
 F. Ogliaro, M. J. Bearpark, J. J. Heyd, E. N. Brothers, K. N. Kudin, 
 V. N. Staroverov, T. A. Keith, R. Kobayashi, J. Normand, 
 K. Raghavachari, A. P. Rendell, J. C. Burant, S. S. Iyengar, 
 J. Tomasi, M. Cossi, J. M. Millam, M. Klene, C. Adamo, R. Cammi, 
 J. W. Ochterski, R. L. Martin, K. Morokuma, O. Farkas, 
 J. B. Foresman, and D. J. Fox, Gaussian, Inc., Wallingford CT, 2016.
 
 ******************************************
 Gaussian 16:  ES64L-G16RevA.03 25-Dec-2016
                 5-Nov-2018 
 ******************************************
 %mem=6000mb
 %nproc=24
 Will use up to   24 processors via shared memory.
 %chk=2SO_1_e4_D_PSI.inp_extract_8.chk
 ----------------------------------------------------------------------
 #M062X/6-311++G(2d,2p) opt=ModRedundant freq=noraman SCRF=(Solvent=Wat
 er)
 ----------------------------------------------------------------------
 1/18=120,19=15,26=3,38=1/1,3;
 2/9=110,12=2,17=6,18=5,40=1/2;
 3/5=4,6=6,7=1212,11=2,25=1,30=1,70=2201,71=1,72=1,74=-55/1,2,3;
 4//1;
 5/5=2,38=5,53=1/2;
 6/7=2,8=2,9=2,10=2,28=1/1;
 7//1,2,3,16;
 1/18=20,19=15,26=3/3(2);
 2/9=110/2;
 99//99;
 2/9=110/2;
 3/5=4,6=6,7=1212,11=2,25=1,30=1,70=2205,71=1,72=1,74=-55/1,2,3;
 4/5=5,16=3,69=1/1;
 5/5=2,38=5,53=1/2;
 7//1,2,3,16;
 1/18=20,19=15,26=3/3(-5);
 2/9=110/2;
 6/7=2,8=2,9=2,10=2,19=2,28=1/1;
 99/9=1/99;
 ----------------------------
 2SO_1_e4_D_PSI.inp_extract_8
 ----------------------------
 Symbolic Z-matrix:
 Charge =  0 Multiplicity = 1
 C                     1.23706   0.17986  -0.68618 
 C                    -3.87849  -0.50342   0.04561 
 C                    -1.0416    0.34207   0.23025 
 C                    -2.67135  -1.18608  -0.59999 
 C                    -3.44267   0.79418   0.75022 
 C                     2.09798   1.3308   -0.17631 
 C                     1.48031  -1.09065   0.13068 
 C                     3.68297  -0.40888   0.67414 
 O                     2.85757  -1.40217   0.09279 
 C                     3.56368   0.90034  -0.08732 
 O                    -0.12036   0.59375  -0.79219 
 C                    -2.18002   1.34746   0.0931 
 O                    -1.5075   -0.98137   0.18551 
 H                     1.53023  -0.04332  -1.70528 
 H                    -4.35063  -1.17358   0.75673 
 H                    -4.60994  -0.29191  -0.7291 
 H                    -0.56329   0.44394   1.19301 
 H                    -2.80494  -2.25629  -0.66724 
 H                    -2.49827  -0.81044  -1.60212 
 H                    -3.23909   0.59535   1.7987 
 H                    -4.23714   1.53191   0.72044 
 H                     1.98586   2.18379  -0.83788 
 H                     1.74229   1.63132   0.80742 
 H                     0.96279  -1.93536  -0.29709 
 H                     1.17043  -0.97468   1.16404 
 H                     3.39862  -0.27668   1.71563 
 H                     4.6921   -0.79623   0.64223 
 H                     4.15682   1.66374   0.40726 
 H                     3.97197   0.76712  -1.08604 
 H                    -2.36228   1.54237  -0.95952 
 H                    -1.87041   2.28323   0.54488 
 
 The following ModRedundant input section has been read:
 D       6       1      11       3 F                                           
 

 GradGradGradGradGradGradGradGradGradGradGradGradGradGradGradGradGradGrad
 Berny optimization.
 Initialization pass.
                           ----------------------------
                           !    Initial Parameters    !
                           ! (Angstroms and Degrees)  !
 --------------------------                            --------------------------
 ! Name  Definition              Value          Derivative Info.                !
 --------------------------------------------------------------------------------
 ! R1    R(1,6)                  1.5251         estimate D2E/DX2                !
 ! R2    R(1,7)                  1.5299         estimate D2E/DX2                !
 ! R3    R(1,11)                 1.4231         estimate D2E/DX2                !
 ! R4    R(1,14)                 1.0837         estimate D2E/DX2                !
 ! R5    R(2,4)                  1.5297         estimate D2E/DX2                !
 ! R6    R(2,5)                  1.5395         estimate D2E/DX2                !
 ! R7    R(2,15)                 1.0852         estimate D2E/DX2                !
 ! R8    R(2,16)                 1.0862         estimate D2E/DX2                !
 ! R9    R(3,11)                 1.3991         estimate D2E/DX2                !
 ! R10   R(3,12)                 1.525          estimate D2E/DX2                !
 ! R11   R(3,13)                 1.4038         estimate D2E/DX2                !
 ! R12   R(3,17)                 1.0798         estimate D2E/DX2                !
 ! R13   R(4,13)                 1.419          estimate D2E/DX2                !
 ! R14   R(4,18)                 1.0806         estimate D2E/DX2                !
 ! R15   R(4,19)                 1.0841         estimate D2E/DX2                !
 ! R16   R(5,12)                 1.5272         estimate D2E/DX2                !
 ! R17   R(5,20)                 1.0864         estimate D2E/DX2                !
 ! R18   R(5,21)                 1.0846         estimate D2E/DX2                !
 ! R19   R(6,10)                 1.5302         estimate D2E/DX2                !
 ! R20   R(6,22)                 1.0853         estimate D2E/DX2                !
 ! R21   R(6,23)                 1.0884         estimate D2E/DX2                !
 ! R22   R(7,9)                  1.4126         estimate D2E/DX2                !
 ! R23   R(7,24)                 1.0791         estimate D2E/DX2                !
 ! R24   R(7,25)                 1.085          estimate D2E/DX2                !
 ! R25   R(8,9)                  1.4163         estimate D2E/DX2                !
 ! R26   R(8,10)                 1.5193         estimate D2E/DX2                !
 ! R27   R(8,26)                 1.0877         estimate D2E/DX2                !
 ! R28   R(8,27)                 1.0814         estimate D2E/DX2                !
 ! R29   R(10,28)                1.0859         estimate D2E/DX2                !
 ! R30   R(10,29)                1.0871         estimate D2E/DX2                !
 ! R31   R(12,30)                1.0859         estimate D2E/DX2                !
 ! R32   R(12,31)                1.0843         estimate D2E/DX2                !
 ! A1    A(6,1,7)              111.0054         estimate D2E/DX2                !
 ! A2    A(6,1,11)             110.1139         estimate D2E/DX2                !
 ! A3    A(6,1,14)             108.4882         estimate D2E/DX2                !
 ! A4    A(7,1,11)             115.6558         estimate D2E/DX2                !
 ! A5    A(7,1,14)             106.7424         estimate D2E/DX2                !
 ! A6    A(11,1,14)            104.3538         estimate D2E/DX2                !
 ! A7    A(4,2,5)              110.2369         estimate D2E/DX2                !
 ! A8    A(4,2,15)             110.1385         estimate D2E/DX2                !
 ! A9    A(4,2,16)             108.4985         estimate D2E/DX2                !
 ! A10   A(5,2,15)             110.1047         estimate D2E/DX2                !
 ! A11   A(5,2,16)             110.6657         estimate D2E/DX2                !
 ! A12   A(15,2,16)            107.1353         estimate D2E/DX2                !
 ! A13   A(11,3,12)            107.8924         estimate D2E/DX2                !
 ! A14   A(11,3,13)            111.398          estimate D2E/DX2                !
 ! A15   A(11,3,17)            110.0548         estimate D2E/DX2                !
 ! A16   A(12,3,13)            111.7725         estimate D2E/DX2                !
 ! A17   A(12,3,17)            110.4049         estimate D2E/DX2                !
 ! A18   A(13,3,17)            105.3293         estimate D2E/DX2                !
 ! A19   A(2,4,13)             110.4411         estimate D2E/DX2                !
 ! A20   A(2,4,18)             111.7577         estimate D2E/DX2                !
 ! A21   A(2,4,19)             111.1911         estimate D2E/DX2                !
 ! A22   A(13,4,18)            106.1843         estimate D2E/DX2                !
 ! A23   A(13,4,19)            109.3152         estimate D2E/DX2                !
 ! A24   A(18,4,19)            107.7801         estimate D2E/DX2                !
 ! A25   A(2,5,12)             110.0281         estimate D2E/DX2                !
 ! A26   A(2,5,20)             109.9066         estimate D2E/DX2                !
 ! A27   A(2,5,21)             110.6942         estimate D2E/DX2                !
 ! A28   A(12,5,20)            109.0647         estimate D2E/DX2                !
 ! A29   A(12,5,21)            110.3281         estimate D2E/DX2                !
 ! A30   A(20,5,21)            106.7531         estimate D2E/DX2                !
 ! A31   A(1,6,10)             110.3572         estimate D2E/DX2                !
 ! A32   A(1,6,22)             109.3315         estimate D2E/DX2                !
 ! A33   A(1,6,23)             109.0303         estimate D2E/DX2                !
 ! A34   A(10,6,22)            110.8246         estimate D2E/DX2                !
 ! A35   A(10,6,23)            109.7641         estimate D2E/DX2                !
 ! A36   A(22,6,23)            107.469          estimate D2E/DX2                !
 ! A37   A(1,7,9)              108.8957         estimate D2E/DX2                !
 ! A38   A(1,7,24)             111.2338         estimate D2E/DX2                !
 ! A39   A(1,7,25)             111.9829         estimate D2E/DX2                !
 ! A40   A(9,7,24)             106.5195         estimate D2E/DX2                !
 ! A41   A(9,7,25)             109.1219         estimate D2E/DX2                !
 ! A42   A(24,7,25)            108.9198         estimate D2E/DX2                !
 ! A43   A(9,8,10)             110.6634         estimate D2E/DX2                !
 ! A44   A(9,8,26)             109.0219         estimate D2E/DX2                !
 ! A45   A(9,8,27)             106.2913         estimate D2E/DX2                !
 ! A46   A(10,8,26)            110.7722         estimate D2E/DX2                !
 ! A47   A(10,8,27)            111.5408         estimate D2E/DX2                !
 ! A48   A(26,8,27)            108.4069         estimate D2E/DX2                !
 ! A49   A(7,9,8)              113.7374         estimate D2E/DX2                !
 ! A50   A(6,10,8)             110.2908         estimate D2E/DX2                !
 ! A51   A(6,10,28)            110.6048         estimate D2E/DX2                !
 ! A52   A(6,10,29)            109.9241         estimate D2E/DX2                !
 ! A53   A(8,10,28)            109.5515         estimate D2E/DX2                !
 ! A54   A(8,10,29)            108.9864         estimate D2E/DX2                !
 ! A55   A(28,10,29)           107.4226         estimate D2E/DX2                !
 ! A56   A(1,11,3)             121.4217         estimate D2E/DX2                !
 ! A57   A(3,12,5)             109.8562         estimate D2E/DX2                !
 ! A58   A(3,12,30)            109.3174         estimate D2E/DX2                !
 ! A59   A(3,12,31)            108.5629         estimate D2E/DX2                !
 ! A60   A(5,12,30)            110.0813         estimate D2E/DX2                !
 ! A61   A(5,12,31)            111.6834         estimate D2E/DX2                !
 ! A62   A(30,12,31)           107.2724         estimate D2E/DX2                !
 ! A63   A(3,13,4)             115.2062         estimate D2E/DX2                !
 ! D1    D(7,1,6,10)            51.7662         estimate D2E/DX2                !
 ! D2    D(7,1,6,22)           173.908          estimate D2E/DX2                !
 ! D3    D(7,1,6,23)           -68.8648         estimate D2E/DX2                !
 ! D4    D(11,1,6,10)         -178.8489         estimate D2E/DX2                !
 ! D5    D(11,1,6,22)          -56.7071         estimate D2E/DX2                !
 ! D6    D(11,1,6,23)           60.5201         estimate D2E/DX2                !
 ! D7    D(14,1,6,10)          -65.2187         estimate D2E/DX2                !
 ! D8    D(14,1,6,22)           56.9231         estimate D2E/DX2                !
 ! D9    D(14,1,6,23)          174.1503         estimate D2E/DX2                !
 ! D10   D(6,1,7,9)            -56.2196         estimate D2E/DX2                !
 ! D11   D(6,1,7,24)          -173.3119         estimate D2E/DX2                !
 ! D12   D(6,1,7,25)            64.5484         estimate D2E/DX2                !
 ! D13   D(11,1,7,9)           177.4042         estimate D2E/DX2                !
 ! D14   D(11,1,7,24)           60.3119         estimate D2E/DX2                !
 ! D15   D(11,1,7,25)          -61.8278         estimate D2E/DX2                !
 ! D16   D(14,1,7,9)            61.8295         estimate D2E/DX2                !
 ! D17   D(14,1,7,24)          -55.2629         estimate D2E/DX2                !
 ! D18   D(14,1,7,25)         -177.4026         estimate D2E/DX2                !
 ! D19   D(6,1,11,3)           -96.0081         Frozen                          !
 ! D20   D(7,1,11,3)            30.8183         estimate D2E/DX2                !
 ! D21   D(14,1,11,3)          147.7409         estimate D2E/DX2                !
 ! D22   D(5,2,4,13)            34.1089         estimate D2E/DX2                !
 ! D23   D(5,2,4,18)           152.0803         estimate D2E/DX2                !
 ! D24   D(5,2,4,19)           -87.431          estimate D2E/DX2                !
 ! D25   D(15,2,4,13)          -87.5861         estimate D2E/DX2                !
 ! D26   D(15,2,4,18)           30.3853         estimate D2E/DX2                !
 ! D27   D(15,2,4,19)          150.874          estimate D2E/DX2                !
 ! D28   D(16,2,4,13)          155.4389         estimate D2E/DX2                !
 ! D29   D(16,2,4,18)          -86.5896         estimate D2E/DX2                !
 ! D30   D(16,2,4,19)           33.8991         estimate D2E/DX2                !
 ! D31   D(4,2,5,12)            26.2181         estimate D2E/DX2                !
 ! D32   D(4,2,5,20)           -93.8983         estimate D2E/DX2                !
 ! D33   D(4,2,5,21)           148.4237         estimate D2E/DX2                !
 ! D34   D(15,2,5,12)          147.9332         estimate D2E/DX2                !
 ! D35   D(15,2,5,20)           27.8168         estimate D2E/DX2                !
 ! D36   D(15,2,5,21)          -89.8612         estimate D2E/DX2                !
 ! D37   D(16,2,5,12)          -93.8124         estimate D2E/DX2                !
 ! D38   D(16,2,5,20)          146.0712         estimate D2E/DX2                !
 ! D39   D(16,2,5,21)           28.3932         estimate D2E/DX2                !
 ! D40   D(12,3,11,1)          157.5141         estimate D2E/DX2                !
 ! D41   D(13,3,11,1)          -79.4517         estimate D2E/DX2                !
 ! D42   D(17,3,11,1)           36.9917         estimate D2E/DX2                !
 ! D43   D(11,3,12,5)          156.319          estimate D2E/DX2                !
 ! D44   D(11,3,12,30)          35.4268         estimate D2E/DX2                !
 ! D45   D(11,3,12,31)         -81.292          estimate D2E/DX2                !
 ! D46   D(13,3,12,5)           33.5136         estimate D2E/DX2                !
 ! D47   D(13,3,12,30)         -87.3786         estimate D2E/DX2                !
 ! D48   D(13,3,12,31)         155.9026         estimate D2E/DX2                !
 ! D49   D(17,3,12,5)          -83.3785         estimate D2E/DX2                !
 ! D50   D(17,3,12,30)         155.7293         estimate D2E/DX2                !
 ! D51   D(17,3,12,31)          39.0106         estimate D2E/DX2                !
 ! D52   D(11,3,13,4)          -90.4155         estimate D2E/DX2                !
 ! D53   D(12,3,13,4)           30.3707         estimate D2E/DX2                !
 ! D54   D(17,3,13,4)          150.2894         estimate D2E/DX2                !
 ! D55   D(2,4,13,3)           -67.7507         estimate D2E/DX2                !
 ! D56   D(18,4,13,3)          170.911          estimate D2E/DX2                !
 ! D57   D(19,4,13,3)           54.893          estimate D2E/DX2                !
 ! D58   D(2,5,12,3)           -61.6577         estimate D2E/DX2                !
 ! D59   D(2,5,12,30)           58.7732         estimate D2E/DX2                !
 ! D60   D(2,5,12,31)          177.8227         estimate D2E/DX2                !
 ! D61   D(20,5,12,3)           58.967          estimate D2E/DX2                !
 ! D62   D(20,5,12,30)         179.3979         estimate D2E/DX2                !
 ! D63   D(20,5,12,31)         -61.5525         estimate D2E/DX2                !
 ! D64   D(21,5,12,3)          175.9202         estimate D2E/DX2                !
 ! D65   D(21,5,12,30)         -63.6489         estimate D2E/DX2                !
 ! D66   D(21,5,12,31)          55.4006         estimate D2E/DX2                !
 ! D67   D(1,6,10,8)           -50.5211         estimate D2E/DX2                !
 ! D68   D(1,6,10,28)         -171.8659         estimate D2E/DX2                !
 ! D69   D(1,6,10,29)           69.6754         estimate D2E/DX2                !
 ! D70   D(22,6,10,8)         -171.7792         estimate D2E/DX2                !
 ! D71   D(22,6,10,28)          66.876          estimate D2E/DX2                !
 ! D72   D(22,6,10,29)         -51.5826         estimate D2E/DX2                !
 ! D73   D(23,6,10,8)           69.6697         estimate D2E/DX2                !
 ! D74   D(23,6,10,28)         -51.6751         estimate D2E/DX2                !
 ! D75   D(23,6,10,29)        -170.1338         estimate D2E/DX2                !
 ! D76   D(1,7,9,8)             62.4223         estimate D2E/DX2                !
 ! D77   D(24,7,9,8)          -177.5245         estimate D2E/DX2                !
 ! D78   D(25,7,9,8)           -60.0869         estimate D2E/DX2                !
 ! D79   D(10,8,9,7)           -62.5211         estimate D2E/DX2                !
 ! D80   D(26,8,9,7)            59.5487         estimate D2E/DX2                !
 ! D81   D(27,8,9,7)           176.2109         estimate D2E/DX2                !
 ! D82   D(9,8,10,6)            54.6958         estimate D2E/DX2                !
 ! D83   D(9,8,10,28)          176.665          estimate D2E/DX2                !
 ! D84   D(9,8,10,29)          -66.0637         estimate D2E/DX2                !
 ! D85   D(26,8,10,6)          -66.3423         estimate D2E/DX2                !
 ! D86   D(26,8,10,28)          55.6269         estimate D2E/DX2                !
 ! D87   D(26,8,10,29)         172.8983         estimate D2E/DX2                !
 ! D88   D(27,8,10,6)          172.8072         estimate D2E/DX2                !
 ! D89   D(27,8,10,28)         -65.2235         estimate D2E/DX2                !
 ! D90   D(27,8,10,29)          52.0478         estimate D2E/DX2                !
 --------------------------------------------------------------------------------
 Trust Radius=3.00D-01 FncErr=1.00D-07 GrdErr=1.00D-06 EigMax=2.50D+02 EigMin=1.00D-04
 Number of steps in this run=    186 maximum allowed number of steps=    186.
 GradGradGradGradGradGradGradGradGradGradGradGradGradGradGradGradGradGrad

                          Input orientation:                          
 ---------------------------------------------------------------------
 Center     Atomic      Atomic             Coordinates (Angstroms)
 Number     Number       Type             X           Y           Z
 ---------------------------------------------------------------------
      1          6           0        1.237057    0.179862   -0.686184
      2          6           0       -3.878491   -0.503422    0.045608
      3          6           0       -1.041602    0.342068    0.230246
      4          6           0       -2.671350   -1.186081   -0.599990
      5          6           0       -3.442672    0.794177    0.750216
      6          6           0        2.097985    1.330800   -0.176314
      7          6           0        1.480313   -1.090646    0.130682
      8          6           0        3.682974   -0.408882    0.674143
      9          8           0        2.857568   -1.402169    0.092786
     10          6           0        3.563678    0.900343   -0.087318
     11          8           0       -0.120360    0.593748   -0.792188
     12          6           0       -2.180023    1.347458    0.093098
     13          8           0       -1.507500   -0.981371    0.185505
     14          1           0        1.530232   -0.043320   -1.705276
     15          1           0       -4.350628   -1.173575    0.756729
     16          1           0       -4.609942   -0.291907   -0.729103
     17          1           0       -0.563286    0.443937    1.193005
     18          1           0       -2.804939   -2.256288   -0.667242
     19          1           0       -2.498266   -0.810441   -1.602120
     20          1           0       -3.239086    0.595345    1.798699
     21          1           0       -4.237144    1.531911    0.720443
     22          1           0        1.985864    2.183793   -0.837881
     23          1           0        1.742287    1.631317    0.807415
     24          1           0        0.962792   -1.935362   -0.297085
     25          1           0        1.170431   -0.974675    1.164042
     26          1           0        3.398620   -0.276680    1.715627
     27          1           0        4.692095   -0.796230    0.642228
     28          1           0        4.156817    1.663740    0.407256
     29          1           0        3.971967    0.767115   -1.086037
     30          1           0       -2.362282    1.542367   -0.959516
     31          1           0       -1.870412    2.283232    0.544884
 ---------------------------------------------------------------------
                    Distance matrix (angstroms):
                    1          2          3          4          5
     1  C    0.000000
     2  C    5.212603   0.000000
     3  C    2.461390   2.965954   0.000000
     4  C    4.141120   1.529709   2.383403   0.000000
     5  C    4.933608   1.539537   2.497981   2.517820   0.000000
     6  C    1.525065   6.255548   3.316608   5.409320   5.643164
     7  C    1.529913   5.391554   2.902178   4.216550   5.307745
     8  C    2.860003   7.588132   4.804434   6.527242   7.226892
     9  O    2.394926   6.795915   4.273732   5.576340   6.704415
    10  C    2.508166   7.574570   4.649852   6.594814   7.057030
    11  O    1.423067   4.003652   1.399071   3.116453   3.668370
    12  C    3.694184   2.512530   1.524999   2.672189   1.527156
    13  O    3.104979   2.422727   1.403764   1.418963   2.686328
    14  H    1.083656   5.703646   3.241774   4.492310   5.608976
    15  H    5.927564   1.085224   3.677501   2.158893   2.167135
    16  H    5.866158   1.086249   3.749043   2.138774   2.174967
    17  H    2.615783   3.633812   1.079846   3.211810   2.934211
    18  H    4.719419   2.175594   3.265930   1.080607   3.423628
    19  H    3.971433   2.171241   2.609159   1.084125   3.000031
    20  H    5.136451   2.165515   2.711666   3.041301   1.086415
    21  H    5.811498   2.174078   3.444925   3.403342   1.084585
    22  H    2.144636   6.510940   3.701135   5.753459   5.824267
    23  H    2.143086   6.060578   3.121750   5.422058   5.252416
    24  H    2.168131   5.060228   3.079344   3.722924   5.287281
    25  H    2.181910   5.192744   2.738408   4.232704   4.957904
    26  H    3.263354   7.469720   4.722793   6.560002   6.991568
    27  H    3.828149   8.596315   5.860097   7.477661   8.289481
    28  H    3.452898   8.330279   5.366722   7.467254   7.656761
    29  H    2.825682   8.032719   5.200879   6.941533   7.638680
    30  H    3.858286   2.737593   2.144865   2.769334   2.156436
    31  H    3.949184   3.470893   2.134020   3.740103   2.175189
                    6          7          8          9         10
     6  C    0.000000
     7  C    2.517770   0.000000
     8  C    2.502391   2.368938   0.000000
     9  O    2.849298   1.412556   1.416294   0.000000
    10  C    1.530186   2.889978   1.519251   2.415076   0.000000
    11  O    2.417354   2.500205   4.197707   3.692549   3.763373
    12  C    4.286515   4.398161   6.147933   5.739144   5.763902
    13  O    4.298438   2.990313   5.244762   4.386284   5.415914
    14  H    2.132668   2.114267   3.229484   2.615591   2.764632
    15  H    6.980478   5.865039   8.070337   7.242318   8.224949
    16  H    6.923513   6.202292   8.411613   7.594201   8.285011
    17  H    3.121526   2.767629   4.362023   4.039905   4.345039
    18  H    6.094824   4.512071   6.877880   5.776777   7.131614
    19  H    5.267197   4.348587   6.599269   5.648700   6.478316
    20  H    5.738109   5.281815   7.084350   6.638478   7.065952
    21  H    6.401443   6.317827   8.154575   7.703098   7.867921
    22  H    1.085283   3.451905   3.447950   3.805934   2.167968
    23  H    1.088372   2.817034   2.818943   3.310073   2.156927
    24  H    3.459922   1.079054   3.266927   2.006607   3.853548
    25  H    2.823495   1.085039   2.621640   2.043715   3.287739
    26  H    2.802692   2.618109   1.087669   2.047700   2.159453
    27  H    3.453067   3.265563   1.081380   2.008616   2.164237
    28  H    2.165685   3.850560   2.142783   3.344658   1.085906
    29  H    2.158042   3.337667   2.136520   2.708745   1.087147
    30  H    4.533448   4.784018   6.559065   6.084773   6.024112
    31  H    4.144325   4.773047   6.172867   6.011686   5.642818
                   11         12         13         14         15
    11  O    0.000000
    12  C    2.365168   0.000000
    13  O    2.315392   2.425752   0.000000
    14  H    1.990990   4.351368   3.699028   0.000000
    15  H    4.839188   3.392276   2.906306   6.474833   0.000000
    16  H    4.576539   3.044345   3.307116   6.222254   1.747077
    17  H    2.039514   2.154062   1.984464   3.608361   4.141333
    18  H    3.917305   3.735722   2.008965   4.976791   2.364131
    19  H    2.877877   2.762530   2.050960   4.102184   3.021139
    20  H    4.054522   2.143913   2.843733   5.952489   2.334589
    21  H    4.485099   2.158548   3.748827   6.451984   2.708108
    22  H    2.639415   4.349804   4.823813   2.433106   7.346144
    23  H    2.665471   3.996916   4.215925   3.027044   6.707727
    24  H    2.795486   4.561407   2.691716   2.425863   5.470217
    25  H    2.820094   4.214827   2.851122   3.038069   5.539635
    26  H    4.407948   6.032552   5.187280   3.904857   7.859692
    27  H    5.210500   7.219622   6.219152   4.009367   9.051317
    28  H    4.569222   6.352501   6.255419   3.778332   8.974915
    29  H    4.106525   6.290798   5.890550   2.646192   8.742291
    30  H    2.440101   1.085912   2.900169   4.268750   3.778274
    31  H    2.775752   1.084271   3.304314   4.694725   4.259796
                   16         17         18         19         20
    16  H    0.000000
    17  H    4.539977   0.000000
    18  H    2.668456   3.971995   0.000000
    19  H    2.343120   3.623580   1.748862   0.000000
    20  H    3.009360   2.747671   3.794886   3.753747   0.000000
    21  H    2.359338   3.860600   4.281043   3.728888   1.742387
    22  H    7.045962   3.694559   6.534159   5.445817   6.064225
    23  H    6.812525   2.621873   6.161603   5.454386   5.183624
    24  H    5.826058   3.195363   3.799448   3.866198   5.334095
    25  H    6.120693   2.240329   4.560669   4.597604   4.723515
    26  H    8.373410   4.060680   6.934051   6.787165   6.695257
    27  H    9.416092   5.427743   7.749323   7.532502   8.134958
    28  H    9.053835   4.938086   8.061465   7.378976   7.601116
    29  H    8.654368   5.085961   7.432551   6.679741   7.768558
    30  H    2.910262   3.012687   3.835512   2.442772   3.045223
    31  H    3.969812   2.347689   4.790598   3.817675   2.508841
                   21         22         23         24         25
    21  H    0.000000
    22  H    6.448190   0.000000
    23  H    5.980890   1.752586   0.000000
    24  H    6.332194   4.278618   3.814280   0.000000
    25  H    5.976757   3.827342   2.691727   1.760945   0.000000
    26  H    7.909885   3.817094   2.684910   3.568682   2.399223
    27  H    9.228091   4.288933   3.823825   4.010939   3.564583
    28  H    8.400836   2.556141   2.447679   4.863273   4.056163
    29  H    8.440248   2.452175   3.050160   4.120796   3.993156
    30  H    2.517435   4.396885   4.469613   4.856905   4.829602
    31  H    2.489322   4.097901   3.680422   5.150970   4.499338
                   26         27         28         29         30
    26  H    0.000000
    27  H    1.759317   0.000000
    28  H    2.460066   2.528475   0.000000
    29  H    3.044266   2.439166   1.751579   0.000000
    30  H    6.607065   7.602556   6.661940   6.382768   0.000000
    31  H    5.973817   7.249763   6.060545   6.252352   1.747580
                   31
    31  H    0.000000
 Stoichiometry    C10H18O3
 Framework group  C1[X(C10H18O3)]
 Deg. of freedom    87
 Full point group                 C1      NOp   1
 Largest Abelian subgroup         C1      NOp   1
 Largest concise Abelian subgroup C1      NOp   1
                         Standard orientation:                         
 ---------------------------------------------------------------------
 Center     Atomic      Atomic             Coordinates (Angstroms)
 Number     Number       Type             X           Y           Z
 ---------------------------------------------------------------------
      1          6           0        1.237057    0.179862   -0.686184
      2          6           0       -3.878491   -0.503422    0.045608
      3          6           0       -1.041602    0.342068    0.230246
      4          6           0       -2.671350   -1.186081   -0.599990
      5          6           0       -3.442672    0.794177    0.750216
      6          6           0        2.097985    1.330800   -0.176314
      7          6           0        1.480313   -1.090646    0.130682
      8          6           0        3.682974   -0.408882    0.674143
      9          8           0        2.857568   -1.402169    0.092786
     10          6           0        3.563678    0.900343   -0.087318
     11          8           0       -0.120360    0.593748   -0.792188
     12          6           0       -2.180023    1.347458    0.093098
     13          8           0       -1.507500   -0.981371    0.185505
     14          1           0        1.530232   -0.043320   -1.705276
     15          1           0       -4.350628   -1.173575    0.756729
     16          1           0       -4.609942   -0.291907   -0.729103
     17          1           0       -0.563286    0.443937    1.193005
     18          1           0       -2.804939   -2.256288   -0.667242
     19          1           0       -2.498266   -0.810441   -1.602120
     20          1           0       -3.239086    0.595345    1.798699
     21          1           0       -4.237144    1.531911    0.720443
     22          1           0        1.985864    2.183793   -0.837881
     23          1           0        1.742287    1.631317    0.807415
     24          1           0        0.962792   -1.935362   -0.297085
     25          1           0        1.170431   -0.974675    1.164042
     26          1           0        3.398620   -0.276680    1.715627
     27          1           0        4.692095   -0.796230    0.642228
     28          1           0        4.156817    1.663740    0.407256
     29          1           0        3.971967    0.767115   -1.086037
     30          1           0       -2.362282    1.542367   -0.959516
     31          1           0       -1.870412    2.283232    0.544884
 ---------------------------------------------------------------------
 Rotational constants (GHZ):           2.1036542           0.3931928           0.3571937
 Standard basis: 6-311++G(2d,2p) (5D, 7F)
 There are   557 symmetry adapted cartesian basis functions of A   symmetry.
 There are   531 symmetry adapted basis functions of A   symmetry.
   531 basis functions,   762 primitive gaussians,   557 cartesian basis functions
    51 alpha electrons       51 beta electrons
       nuclear repulsion energy       888.5895706015 Hartrees.
 NAtoms=   31 NActive=   31 NUniq=   31 SFac= 1.00D+00 NAtFMM=   60 NAOKFM=F Big=F
 Integral buffers will be    131072 words long.
 Raffenetti 2 integral format.
 Two-electron integral symmetry is turned on.
 ------------------------------------------------------------------------------
 Polarizable Continuum Model (PCM)
 =================================
 Model                : PCM.
 Atomic radii         : UFF (Universal Force Field).
 Polarization charges : Total charges.
 Charge compensation  : None.
 Solution method      : On-the-fly selection.
 Cavity type          : Scaled VdW (van der Waals Surface) (Alpha=1.100).
 Cavity algorithm     : GePol (No added spheres)
                        Default sphere list used, NSphG=   31.
                        Lebedev-Laikov grids with approx.  5.0 points / Ang**2.
                        Smoothing algorithm: York/Karplus (Gamma=1.0000).
                        Polarization charges: spherical gaussians, with
                                              point-specific exponents (IZeta= 3).
                        Self-potential: point-specific (ISelfS= 7).
                        Self-field    : sphere-specific E.n sum rule (ISelfD= 2).
 1st derivatives      : Analytical E(r).r(x)/FMM algorithm (CHGder, D1EAlg=3).
                        Cavity 1st derivative terms included.
 Solvent              : Water, Eps=  78.355300 Eps(inf)=   1.777849
 ------------------------------------------------------------------------------
 One-electron integrals computed using PRISM.
 NBasis=   531 RedAO= T EigKep=  5.74D-06  NBF=   531
 NBsUse=   531 1.00D-06 EigRej= -1.00D+00 NBFU=   531
 ExpMin= 3.60D-02 ExpMax= 8.59D+03 ExpMxC= 1.30D+03 IAcc=3 IRadAn=         5 AccDes= 0.00D+00
 Harris functional with IExCor= 1009 and IRadAn=       5 diagonalized for initial guess.
 HarFok:  IExCor= 1009 AccDes= 0.00D+00 IRadAn=         5 IDoV= 1 UseB2=F ITyADJ=14
 ICtDFT=  3500011 ScaDFX=  1.000000  1.000000  1.000000  1.000000
 FoFCou: FMM=F IPFlag=           0 FMFlag=      100000 FMFlg1=           0
         NFxFlg=           0 DoJE=T BraDBF=F KetDBF=T FulRan=T
         wScrn=  0.000000 ICntrl=       500 IOpCl=  0 I1Cent=   200000004 NGrid=           0
         NMat0=    1 NMatS0=      1 NMatT0=    0 NMatD0=    1 NMtDS0=    0 NMtDT0=    0
 Petite list used in FoFCou.
 Requested convergence on RMS density matrix=1.00D-08 within 128 cycles.
 Requested convergence on MAX density matrix=1.00D-06.
 Requested convergence on             energy=1.00D-06.
 No special actions if energy rises.
 Inv3:  Mode=1 IEnd=    12570627.
 Iteration    1 A*A^-1 deviation from unit magnitude is 3.33D-15 for   2017.
 Iteration    1 A*A^-1 deviation from orthogonality  is 3.00D-15 for   2008    930.
 Iteration    1 A^-1*A deviation from unit magnitude is 3.22D-15 for   2017.
 Iteration    1 A^-1*A deviation from orthogonality  is 2.54D-15 for   2003   1043.
 Error on total polarization charges =  0.01487
 SCF Done:  E(RM062X) =  -617.491278471     A.U. after   12 cycles
            NFock= 12  Conv=0.51D-08     -V/T= 2.0035

 **********************************************************************

            Population analysis using the SCF density.

 **********************************************************************

 Orbital symmetries:
       Occupied  (A) (A) (A) (A) (A) (A) (A) (A) (A) (A) (A) (A)
                 (A) (A) (A) (A) (A) (A) (A) (A) (A) (A) (A) (A)
                 (A) (A) (A) (A) (A) (A) (A) (A) (A) (A) (A) (A)
                 (A) (A) (A) (A) (A) (A) (A) (A) (A) (A) (A) (A)
                 (A) (A) (A)
       Virtual   (A) (A) (A) (A) (A) (A) (A) (A) (A) (A) (A) (A)
                 (A) (A) (A) (A) (A) (A) (A) (A) (A) (A) (A) (A)
                 (A) (A) (A) (A) (A) (A) (A) (A) (A) (A) (A) (A)
                 (A) (A) (A) (A) (A) (A) (A) (A) (A) (A) (A) (A)
                 (A) (A) (A) (A) (A) (A) (A) (A) (A) (A) (A) (A)
                 (A) (A) (A) (A) (A) (A) (A) (A) (A) (A) (A) (A)
                 (A) (A) (A) (A) (A) (A) (A) (A) (A) (A) (A) (A)
                 (A) (A) (A) (A) (A) (A) (A) (A) (A) (A) (A) (A)
                 (A) (A) (A) (A) (A) (A) (A) (A) (A) (A) (A) (A)
                 (A) (A) (A) (A) (A) (A) (A) (A) (A) (A) (A) (A)
                 (A) (A) (A) (A) (A) (A) (A) (A) (A) (A) (A) (A)
                 (A) (A) (A) (A) (A) (A) (A) (A) (A) (A) (A) (A)
                 (A) (A) (A) (A) (A) (A) (A) (A) (A) (A) (A) (A)
                 (A) (A) (A) (A) (A) (A) (A) (A) (A) (A) (A) (A)
                 (A) (A) (A) (A) (A) (A) (A) (A) (A) (A) (A) (A)
                 (A) (A) (A) (A) (A) (A) (A) (A) (A) (A) (A) (A)
                 (A) (A) (A) (A) (A) (A) (A) (A) (A) (A) (A) (A)
                 (A) (A) (A) (A) (A) (A) (A) (A) (A) (A) (A) (A)
                 (A) (A) (A) (A) (A) (A) (A) (A) (A) (A) (A) (A)
                 (A) (A) (A) (A) (A) (A) (A) (A) (A) (A) (A) (A)
                 (A) (A) (A) (A) (A) (A) (A) (A) (A) (A) (A) (A)
                 (A) (A) (A) (A) (A) (A) (A) (A) (A) (A) (A) (A)
                 (A) (A) (A) (A) (A) (A) (A) (A) (A) (A) (A) (A)
                 (A) (A) (A) (A) (A) (A) (A) (A) (A) (A) (A) (A)
                 (A) (A) (A) (A) (A) (A) (A) (A) (A) (A) (A) (A)
                 (A) (A) (A) (A) (A) (A) (A) (A) (A) (A) (A) (A)
                 (A) (A) (A) (A) (A) (A) (A) (A) (A) (A) (A) (A)
                 (A) (A) (A) (A) (A) (A) (A) (A) (A) (A) (A) (A)
                 (A) (A) (A) (A) (A) (A) (A) (A) (A) (A) (A) (A)
                 (A) (A) (A) (A) (A) (A) (A) (A) (A) (A) (A) (A)
                 (A) (A) (A) (A) (A) (A) (A) (A) (A) (A) (A) (A)
                 (A) (A) (A) (A) (A) (A) (A) (A) (A) (A) (A) (A)
                 (A) (A) (A) (A) (A) (A) (A) (A) (A) (A) (A) (A)
                 (A) (A) (A) (A) (A) (A) (A) (A) (A) (A) (A) (A)
                 (A) (A) (A) (A) (A) (A) (A) (A) (A) (A) (A) (A)
                 (A) (A) (A) (A) (A) (A) (A) (A) (A) (A) (A) (A)
                 (A) (A) (A) (A) (A) (A) (A) (A) (A) (A) (A) (A)
                 (A) (A) (A) (A) (A) (A) (A) (A) (A) (A) (A) (A)
                 (A) (A) (A) (A) (A) (A) (A) (A) (A) (A) (A) (A)
                 (A) (A) (A) (A) (A) (A) (A) (A) (A) (A) (A) (A)
 The electronic state is 1-A.
 Alpha  occ. eigenvalues --  -19.62924 -19.62923 -19.62721 -10.63525 -10.58777
 Alpha  occ. eigenvalues --  -10.57990 -10.57845 -10.57745 -10.53138 -10.53095
 Alpha  occ. eigenvalues --  -10.53086 -10.53017 -10.52778  -1.19946  -1.16763
 Alpha  occ. eigenvalues --   -1.13678  -0.90732  -0.89758  -0.87309  -0.84732
 Alpha  occ. eigenvalues --   -0.75485  -0.74705  -0.73469  -0.70389  -0.65963
 Alpha  occ. eigenvalues --   -0.62349  -0.60896  -0.59153  -0.57757  -0.56782
 Alpha  occ. eigenvalues --   -0.55189  -0.53172  -0.52205  -0.50317  -0.49160
 Alpha  occ. eigenvalues --   -0.48769  -0.46988  -0.45829  -0.45479  -0.44346
 Alpha  occ. eigenvalues --   -0.43991  -0.42676  -0.41943  -0.40527  -0.39382
 Alpha  occ. eigenvalues --   -0.38722  -0.37648  -0.35598  -0.34226  -0.34087
 Alpha  occ. eigenvalues --   -0.31864
 Alpha virt. eigenvalues --   -0.00143   0.00711   0.00820   0.01166   0.02091
 Alpha virt. eigenvalues --    0.02405   0.02518   0.03488   0.03683   0.04235
 Alpha virt. eigenvalues --    0.04524   0.04649   0.05488   0.05878   0.07110
 Alpha virt. eigenvalues --    0.07219   0.07564   0.08261   0.08770   0.09372
 Alpha virt. eigenvalues --    0.09800   0.11041   0.11186   0.11510   0.11952
 Alpha virt. eigenvalues --    0.12075   0.12488   0.12795   0.13106   0.13520
 Alpha virt. eigenvalues --    0.13609   0.13708   0.14017   0.14510   0.14692
 Alpha virt. eigenvalues --    0.15108   0.15271   0.15318   0.15958   0.16398
 Alpha virt. eigenvalues --    0.16558   0.17014   0.17115   0.17542   0.17741
 Alpha virt. eigenvalues --    0.17900   0.18557   0.18748   0.18789   0.19389
 Alpha virt. eigenvalues --    0.19458   0.19701   0.19986   0.20550   0.20904
 Alpha virt. eigenvalues --    0.21694   0.22292   0.22935   0.23823   0.24298
 Alpha virt. eigenvalues --    0.25271   0.25785   0.25981   0.26628   0.26956
 Alpha virt. eigenvalues --    0.27228   0.28154   0.28344   0.28525   0.29190
 Alpha virt. eigenvalues --    0.30015   0.30349   0.30423   0.31517   0.32219
 Alpha virt. eigenvalues --    0.32462   0.33058   0.34101   0.34137   0.34447
 Alpha virt. eigenvalues --    0.34936   0.35151   0.35572   0.36026   0.36318
 Alpha virt. eigenvalues --    0.36608   0.37170   0.37248   0.37439   0.38246
 Alpha virt. eigenvalues --    0.39047   0.39424   0.40021   0.40878   0.41371
 Alpha virt. eigenvalues --    0.41545   0.42096   0.42388   0.43939   0.44795
 Alpha virt. eigenvalues --    0.45441   0.47554   0.48801   0.49884   0.50809
 Alpha virt. eigenvalues --    0.51404   0.52162   0.53331   0.53700   0.54045
 Alpha virt. eigenvalues --    0.55205   0.56279   0.57320   0.57870   0.58147
 Alpha virt. eigenvalues --    0.59875   0.60374   0.60617   0.61088   0.61332
 Alpha virt. eigenvalues --    0.61965   0.62506   0.62964   0.63264   0.63777
 Alpha virt. eigenvalues --    0.64399   0.65525   0.65978   0.66523   0.67369
 Alpha virt. eigenvalues --    0.67746   0.68397   0.69115   0.69643   0.70693
 Alpha virt. eigenvalues --    0.71049   0.71525   0.72197   0.72825   0.73257
 Alpha virt. eigenvalues --    0.73641   0.74435   0.74676   0.75012   0.75576
 Alpha virt. eigenvalues --    0.77096   0.77256   0.77448   0.78494   0.78902
 Alpha virt. eigenvalues --    0.79367   0.80863   0.83992   0.84952   0.85782
 Alpha virt. eigenvalues --    0.86661   0.87201   0.88038   0.88696   0.89955
 Alpha virt. eigenvalues --    0.90598   0.91847   0.92126   0.93474   0.94164
 Alpha virt. eigenvalues --    0.95031   0.97204   0.98628   1.00587   1.00905
 Alpha virt. eigenvalues --    1.02964   1.04459   1.04720   1.07338   1.08105
 Alpha virt. eigenvalues --    1.08796   1.09213   1.09903   1.10660   1.11806
 Alpha virt. eigenvalues --    1.12650   1.12868   1.14194   1.15908   1.17057
 Alpha virt. eigenvalues --    1.17761   1.18213   1.19059   1.19738   1.20742
 Alpha virt. eigenvalues --    1.21210   1.22036   1.22763   1.24003   1.24551
 Alpha virt. eigenvalues --    1.25102   1.25565   1.26473   1.26935   1.27031
 Alpha virt. eigenvalues --    1.27648   1.28958   1.29475   1.30290   1.30781
 Alpha virt. eigenvalues --    1.30972   1.32630   1.32863   1.33418   1.33543
 Alpha virt. eigenvalues --    1.34483   1.35414   1.36128   1.37121   1.38365
 Alpha virt. eigenvalues --    1.39063   1.39539   1.40370   1.40524   1.42150
 Alpha virt. eigenvalues --    1.42417   1.42891   1.44749   1.45306   1.45973
 Alpha virt. eigenvalues --    1.46508   1.46885   1.47476   1.47976   1.49022
 Alpha virt. eigenvalues --    1.49807   1.50377   1.51218   1.51783   1.52520
 Alpha virt. eigenvalues --    1.52702   1.53459   1.54048   1.54418   1.55125
 Alpha virt. eigenvalues --    1.55576   1.56680   1.57513   1.58323   1.58634
 Alpha virt. eigenvalues --    1.59016   1.59863   1.60691   1.61154   1.62800
 Alpha virt. eigenvalues --    1.63560   1.64109   1.64869   1.65220   1.66398
 Alpha virt. eigenvalues --    1.67169   1.67680   1.69630   1.70417   1.71135
 Alpha virt. eigenvalues --    1.71604   1.73546   1.75993   1.76841   1.77264
 Alpha virt. eigenvalues --    1.78919   1.79856   1.81143   1.82962   1.83712
 Alpha virt. eigenvalues --    1.84635   1.87128   1.91521   1.95484   1.98983
 Alpha virt. eigenvalues --    2.00503   2.02785   2.08922   2.11569   2.20239
 Alpha virt. eigenvalues --    2.21533   2.25370   2.34390   2.36129   2.38811
 Alpha virt. eigenvalues --    2.42820   2.44165   2.46584   2.48902   2.52365
 Alpha virt. eigenvalues --    2.59419   2.75714   2.76599   2.79959   2.80676
 Alpha virt. eigenvalues --    2.87707   2.88846   2.90488   2.92259   2.93845
 Alpha virt. eigenvalues --    2.94931   2.95947   3.00244   3.02802   3.05406
 Alpha virt. eigenvalues --    3.06866   3.06955   3.08823   3.09735   3.10876
 Alpha virt. eigenvalues --    3.12644   3.14003   3.15754   3.18472   3.22950
 Alpha virt. eigenvalues --    3.24894   3.26259   3.30106   3.32676   3.33219
 Alpha virt. eigenvalues --    3.35378   3.36763   3.37735   3.39515   3.40993
 Alpha virt. eigenvalues --    3.42058   3.42616   3.44082   3.45040   3.45666
 Alpha virt. eigenvalues --    3.47116   3.48624   3.49761   3.50312   3.51794
 Alpha virt. eigenvalues --    3.53393   3.54012   3.54264   3.55376   3.55873
 Alpha virt. eigenvalues --    3.56971   3.57301   3.59393   3.59528   3.60009
 Alpha virt. eigenvalues --    3.60704   3.62360   3.63589   3.63922   3.64327
 Alpha virt. eigenvalues --    3.66354   3.66892   3.67440   3.69341   3.70153
 Alpha virt. eigenvalues --    3.70529   3.71065   3.72182   3.73416   3.74400
 Alpha virt. eigenvalues --    3.75126   3.76063   3.77118   3.78290   3.79003
 Alpha virt. eigenvalues --    3.80705   3.82178   3.83057   3.83941   3.86619
 Alpha virt. eigenvalues --    3.87091   3.87341   3.89382   3.90356   3.90794
 Alpha virt. eigenvalues --    3.92773   3.93567   3.95165   3.97165   3.98285
 Alpha virt. eigenvalues --    4.00352   4.02580   4.03494   4.04035   4.04168
 Alpha virt. eigenvalues --    4.04975   4.05260   4.05854   4.07018   4.08615
 Alpha virt. eigenvalues --    4.09053   4.09341   4.10169   4.10866   4.11914
 Alpha virt. eigenvalues --    4.13016   4.14344   4.14568   4.15179   4.15954
 Alpha virt. eigenvalues --    4.16873   4.17760   4.19555   4.20171   4.21040
 Alpha virt. eigenvalues --    4.21271   4.23313   4.24976   4.25740   4.26803
 Alpha virt. eigenvalues --    4.27483   4.27981   4.30877   4.31136   4.32866
 Alpha virt. eigenvalues --    4.33468   4.35438   4.36736   4.36855   4.38257
 Alpha virt. eigenvalues --    4.39067   4.42965   4.43971   4.48116   4.50844
 Alpha virt. eigenvalues --    4.57196   4.58110   4.75133   4.77106   4.82289
 Alpha virt. eigenvalues --    4.84532   4.92335   4.95006   4.99176   5.00756
 Alpha virt. eigenvalues --    5.02730   5.06658   5.08595   5.12184   5.12920
 Alpha virt. eigenvalues --    5.13610   5.15246   5.18211   5.31062   5.38212
 Alpha virt. eigenvalues --    5.40783   5.57748   5.59466   5.67892   5.85471
 Alpha virt. eigenvalues --    5.92195   6.02543   7.02521   7.04810   7.05315
 Alpha virt. eigenvalues --    7.08048   7.09748   7.12352   7.13448   7.20207
 Alpha virt. eigenvalues --    7.28562   7.36844   7.39660   7.45368   7.54100
 Alpha virt. eigenvalues --    7.54668   7.61838  23.95800  23.99103  24.04762
 Alpha virt. eigenvalues --   24.07899  24.10775  24.11294  24.13417  24.15011
 Alpha virt. eigenvalues --   24.16190  24.21716  50.17954  50.19055  50.25599
          Condensed to atoms (all electrons):
               1          2          3          4          5          6
     1  C    7.967089   0.044674  -0.630840  -0.026505  -0.108386  -1.384441
     2  C    0.044674   6.028640   0.479204  -0.268283  -0.340929  -0.012274
     3  C   -0.630840   0.479204   6.891071  -0.509078  -0.229830   0.105528
     4  C   -0.026505  -0.268283  -0.509078   5.794894   0.327970   0.031585
     5  C   -0.108386  -0.340929  -0.229830   0.327970   5.901984   0.009540
     6  C   -1.384441  -0.012274   0.105528   0.031585   0.009540   6.741942
     7  C   -0.701493  -0.007165   0.175385   0.008454   0.012214   0.413757
     8  C    0.072057   0.000882   0.032249  -0.003809  -0.001849  -0.082961
     9  O    0.009295  -0.000273  -0.007935   0.002111   0.000254  -0.038708
    10  C    0.160251   0.000415  -0.066044   0.002174  -0.005745  -0.158149
    11  O   -0.062665   0.017111   0.410686   0.007556  -0.001099  -0.088125
    12  C    0.243720  -0.214143  -1.083336  -0.052181   0.047917  -0.036688
    13  O   -0.075130   0.006081   0.318443   0.010425  -0.101538   0.013993
    14  H    0.589471   0.001364  -0.053934   0.004360  -0.003017  -0.095093
    15  H   -0.002905   0.469508   0.004269  -0.077844  -0.044633  -0.000936
    16  H    0.002146   0.477762   0.019886  -0.053820  -0.063075   0.000801
    17  H    0.056692   0.027269   0.514961  -0.051143  -0.032563  -0.030536
    18  H    0.001722  -0.006532   0.013013   0.427050  -0.009192   0.003817
    19  H   -0.008678  -0.093646  -0.022536   0.472161   0.002572  -0.004166
    20  H    0.006553  -0.074865  -0.033170   0.002847   0.464820   0.000903
    21  H   -0.003150  -0.055266   0.012634   0.014928   0.454956  -0.001137
    22  H   -0.062255  -0.000023   0.013410  -0.001643  -0.000647   0.439061
    23  H    0.081822  -0.000335  -0.031361   0.002074  -0.001754   0.435987
    24  H   -0.101028  -0.003247   0.030357   0.001568  -0.001856   0.029846
    25  H    0.198590   0.003024  -0.068872  -0.004611  -0.001415  -0.162405
    26  H    0.042414  -0.000281  -0.004311   0.000416   0.000081  -0.021783
    27  H    0.001498   0.000039   0.001058  -0.000074  -0.000012   0.008736
    28  H   -0.004800  -0.000035  -0.002389   0.000215  -0.000175  -0.026504
    29  H   -0.005542   0.000020  -0.006846   0.000188   0.000127  -0.033968
    30  H    0.000220   0.009718  -0.054721  -0.020100  -0.068371   0.005141
    31  H    0.001824   0.003754  -0.026893   0.005532  -0.017467   0.005989
               7          8          9         10         11         12
     1  C   -0.701493   0.072057   0.009295   0.160251  -0.062665   0.243720
     2  C   -0.007165   0.000882  -0.000273   0.000415   0.017111  -0.214143
     3  C    0.175385   0.032249  -0.007935  -0.066044   0.410686  -1.083336
     4  C    0.008454  -0.003809   0.002111   0.002174   0.007556  -0.052181
     5  C    0.012214  -0.001849   0.000254  -0.005745  -0.001099   0.047917
     6  C    0.413757  -0.082961  -0.038708  -0.158149  -0.088125  -0.036688
     7  C    5.812173  -0.165438   0.163959  -0.003391   0.068244  -0.121427
     8  C   -0.165438   5.348338   0.105659   0.084103   0.001424   0.020876
     9  O    0.163959   0.105659   8.357528  -0.035094   0.005887   0.001104
    10  C   -0.003391   0.084103  -0.035094   5.587205  -0.008718   0.001712
    11  O    0.068244   0.001424   0.005887  -0.008718   8.400003  -0.265042
    12  C   -0.121427   0.020876   0.001104   0.001712  -0.265042   6.987189
    13  O   -0.019691   0.005445  -0.000549  -0.004394  -0.053018  -0.010025
    14  H   -0.106730   0.006357   0.002791   0.009908  -0.078991   0.018938
    15  H    0.000871   0.000076  -0.000032  -0.000224  -0.000018   0.030460
    16  H   -0.000095  -0.000100   0.000006   0.000231   0.000441  -0.020331
    17  H   -0.011962  -0.004900  -0.001414   0.000241  -0.039207  -0.048416
    18  H   -0.001591  -0.000293   0.000639   0.000137   0.000580  -0.018148
    19  H    0.006084  -0.000152  -0.000167  -0.000081   0.011496   0.037595
    20  H    0.000527  -0.000201   0.000090   0.000431   0.001333  -0.011133
    21  H    0.000012   0.000147  -0.000006  -0.000088  -0.003336  -0.053750
    22  H    0.010401   0.010152  -0.001430  -0.014059  -0.002224  -0.001929
    23  H   -0.051314  -0.014130   0.001693  -0.047640  -0.006226   0.006788
    24  H    0.495930  -0.004450  -0.077607   0.015122   0.007809  -0.033618
    25  H    0.324663  -0.003369  -0.031757   0.024935  -0.010490   0.029637
    26  H   -0.037430   0.469921  -0.037963  -0.044373  -0.000744   0.001812
    27  H    0.015043   0.431657  -0.071464  -0.048060   0.000528   0.000337
    28  H    0.003076  -0.040640   0.007669   0.430685  -0.003172  -0.001120
    29  H    0.000263  -0.077762  -0.008254   0.501884   0.000989   0.000364
    30  H   -0.001880   0.000548   0.000140  -0.001060  -0.011105   0.501011
    31  H   -0.000360  -0.000606  -0.000057   0.000272  -0.000548   0.407868
              13         14         15         16         17         18
     1  C   -0.075130   0.589471  -0.002905   0.002146   0.056692   0.001722
     2  C    0.006081   0.001364   0.469508   0.477762   0.027269  -0.006532
     3  C    0.318443  -0.053934   0.004269   0.019886   0.514961   0.013013
     4  C    0.010425   0.004360  -0.077844  -0.053820  -0.051143   0.427050
     5  C   -0.101538  -0.003017  -0.044633  -0.063075  -0.032563  -0.009192
     6  C    0.013993  -0.095093  -0.000936   0.000801  -0.030536   0.003817
     7  C   -0.019691  -0.106730   0.000871  -0.000095  -0.011962  -0.001591
     8  C    0.005445   0.006357   0.000076  -0.000100  -0.004900  -0.000293
     9  O   -0.000549   0.002791  -0.000032   0.000006  -0.001414   0.000639
    10  C   -0.004394   0.009908  -0.000224   0.000231   0.000241   0.000137
    11  O   -0.053018  -0.078991  -0.000018   0.000441  -0.039207   0.000580
    12  C   -0.010025   0.018938   0.030460  -0.020331  -0.048416  -0.018148
    13  O    8.374504  -0.004486  -0.009206   0.011125  -0.088993  -0.066667
    14  H   -0.004486   0.455679  -0.000417   0.000242  -0.006397   0.001395
    15  H   -0.009206  -0.000417   0.511451  -0.019453   0.004608  -0.011899
    16  H    0.011125   0.000242  -0.019453   0.497594  -0.000386  -0.001146
    17  H   -0.088993  -0.006397   0.004608  -0.000386   0.492794  -0.002328
    18  H   -0.066667   0.001395  -0.011899  -0.001146  -0.002328   0.477721
    19  H   -0.029918  -0.002905   0.005910  -0.001807  -0.000344  -0.008610
    20  H    0.011076   0.000666  -0.013820   0.005977  -0.008954   0.000010
    21  H   -0.004351  -0.000096  -0.001271  -0.004844   0.000026  -0.000180
    22  H    0.000076  -0.008804   0.000042   0.000008   0.002315  -0.000102
    23  H   -0.000212   0.011314  -0.000161   0.000068  -0.011028   0.000242
    24  H   -0.012888  -0.009238  -0.000109   0.000654   0.003885  -0.001829
    25  H   -0.001992   0.012181  -0.000378  -0.000175  -0.028475  -0.000440
    26  H   -0.000065   0.002246  -0.000029   0.000009  -0.002163   0.000063
    27  H    0.000334  -0.002218   0.000008  -0.000005   0.000631  -0.000022
    28  H   -0.000010  -0.001989  -0.000013   0.000013  -0.000817   0.000017
    29  H   -0.000155   0.000729   0.000007  -0.000007   0.000345   0.000010
    30  H    0.002683   0.000300  -0.003384   0.000822   0.001303  -0.000837
    31  H    0.006537   0.000955   0.000055  -0.000171  -0.019371   0.001130
              19         20         21         22         23         24
     1  C   -0.008678   0.006553  -0.003150  -0.062255   0.081822  -0.101028
     2  C   -0.093646  -0.074865  -0.055266  -0.000023  -0.000335  -0.003247
     3  C   -0.022536  -0.033170   0.012634   0.013410  -0.031361   0.030357
     4  C    0.472161   0.002847   0.014928  -0.001643   0.002074   0.001568
     5  C    0.002572   0.464820   0.454956  -0.000647  -0.001754  -0.001856
     6  C   -0.004166   0.000903  -0.001137   0.439061   0.435987   0.029846
     7  C    0.006084   0.000527   0.000012   0.010401  -0.051314   0.495930
     8  C   -0.000152  -0.000201   0.000147   0.010152  -0.014130  -0.004450
     9  O   -0.000167   0.000090  -0.000006  -0.001430   0.001693  -0.077607
    10  C   -0.000081   0.000431  -0.000088  -0.014059  -0.047640   0.015122
    11  O    0.011496   0.001333  -0.003336  -0.002224  -0.006226   0.007809
    12  C    0.037595  -0.011133  -0.053750  -0.001929   0.006788  -0.033618
    13  O   -0.029918   0.011076  -0.004351   0.000076  -0.000212  -0.012888
    14  H   -0.002905   0.000666  -0.000096  -0.008804   0.011314  -0.009238
    15  H    0.005910  -0.013820  -0.001271   0.000042  -0.000161  -0.000109
    16  H   -0.001807   0.005977  -0.004844   0.000008   0.000068   0.000654
    17  H   -0.000344  -0.008954   0.000026   0.002315  -0.011028   0.003885
    18  H   -0.008610   0.000010  -0.000180  -0.000102   0.000242  -0.001829
    19  H    0.486292   0.000561  -0.000962   0.000488  -0.000489   0.000793
    20  H    0.000561   0.494163  -0.012564  -0.000044   0.000829  -0.000082
    21  H   -0.000962  -0.012564   0.475553  -0.000026  -0.000168  -0.000290
    22  H    0.000488  -0.000044  -0.000026   0.476181  -0.021400  -0.000201
    23  H   -0.000489   0.000829  -0.000168  -0.021400   0.479443  -0.002095
    24  H    0.000793  -0.000082  -0.000290  -0.000201  -0.002095   0.474433
    25  H    0.000599   0.000975   0.000363  -0.003900   0.005961  -0.034248
    26  H    0.000060   0.000101  -0.000008  -0.000437  -0.003743  -0.002969
    27  H   -0.000009  -0.000026   0.000007   0.000972  -0.001993   0.001956
    28  H   -0.000014   0.000023  -0.000025  -0.008777  -0.004644   0.002197
    29  H   -0.000033  -0.000013   0.000004  -0.008319   0.002996  -0.001456
    30  H   -0.008599   0.005472  -0.005718   0.000227   0.000911  -0.000469
    31  H    0.000269   0.001067  -0.009595  -0.000246  -0.000503  -0.000031
              25         26         27         28         29         30
     1  C    0.198590   0.042414   0.001498  -0.004800  -0.005542   0.000220
     2  C    0.003024  -0.000281   0.000039  -0.000035   0.000020   0.009718
     3  C   -0.068872  -0.004311   0.001058  -0.002389  -0.006846  -0.054721
     4  C   -0.004611   0.000416  -0.000074   0.000215   0.000188  -0.020100
     5  C   -0.001415   0.000081  -0.000012  -0.000175   0.000127  -0.068371
     6  C   -0.162405  -0.021783   0.008736  -0.026504  -0.033968   0.005141
     7  C    0.324663  -0.037430   0.015043   0.003076   0.000263  -0.001880
     8  C   -0.003369   0.469921   0.431657  -0.040640  -0.077762   0.000548
     9  O   -0.031757  -0.037963  -0.071464   0.007669  -0.008254   0.000140
    10  C    0.024935  -0.044373  -0.048060   0.430685   0.501884  -0.001060
    11  O   -0.010490  -0.000744   0.000528  -0.003172   0.000989  -0.011105
    12  C    0.029637   0.001812   0.000337  -0.001120   0.000364   0.501011
    13  O   -0.001992  -0.000065   0.000334  -0.000010  -0.000155   0.002683
    14  H    0.012181   0.002246  -0.002218  -0.001989   0.000729   0.000300
    15  H   -0.000378  -0.000029   0.000008  -0.000013   0.000007  -0.003384
    16  H   -0.000175   0.000009  -0.000005   0.000013  -0.000007   0.000822
    17  H   -0.028475  -0.002163   0.000631  -0.000817   0.000345   0.001303
    18  H   -0.000440   0.000063  -0.000022   0.000017   0.000010  -0.000837
    19  H    0.000599   0.000060  -0.000009  -0.000014  -0.000033  -0.008599
    20  H    0.000975   0.000101  -0.000026   0.000023  -0.000013   0.005472
    21  H    0.000363  -0.000008   0.000007  -0.000025   0.000004  -0.005718
    22  H   -0.003900  -0.000437   0.000972  -0.008777  -0.008319   0.000227
    23  H    0.005961  -0.003743  -0.001993  -0.004644   0.002996   0.000911
    24  H   -0.034248  -0.002969   0.001956   0.002197  -0.001456  -0.000469
    25  H    0.525798   0.005560  -0.001916  -0.002195   0.000367  -0.000463
    26  H    0.005560   0.493493  -0.006109   0.006509   0.000176  -0.000051
    27  H   -0.001916  -0.006109   0.467692  -0.010764  -0.002233   0.000021
    28  H   -0.002195   0.006509  -0.010764   0.498039  -0.009391  -0.000039
    29  H    0.000367   0.000176  -0.002233  -0.009391   0.471725  -0.000018
    30  H   -0.000463  -0.000051   0.000021  -0.000039  -0.000018   0.449314
    31  H    0.001488   0.000266  -0.000073   0.000273  -0.000017  -0.011389
              31
     1  C    0.001824
     2  C    0.003754
     3  C   -0.026893
     4  C    0.005532
     5  C   -0.017467
     6  C    0.005989
     7  C   -0.000360
     8  C   -0.000606
     9  O   -0.000057
    10  C    0.000272
    11  O   -0.000548
    12  C    0.407868
    13  O    0.006537
    14  H    0.000955
    15  H    0.000055
    16  H   -0.000171
    17  H   -0.019371
    18  H    0.001130
    19  H    0.000269
    20  H    0.001067
    21  H   -0.009595
    22  H   -0.000246
    23  H   -0.000503
    24  H   -0.000031
    25  H    0.001488
    26  H    0.000266
    27  H   -0.000073
    28  H    0.000273
    29  H   -0.000017
    30  H   -0.011389
    31  H    0.485801
 Mulliken charges:
               1
     1  C   -0.302220
     2  C   -0.492167
     3  C   -0.190060
     4  C   -0.047417
     5  C   -0.188885
     6  C   -0.068751
     7  C   -0.281090
     8  C   -0.189232
     9  O   -0.346114
    10  C   -0.382587
    11  O   -0.299361
    12  C   -0.366043
    13  O   -0.277432
    14  H    0.255421
    15  H    0.159468
    16  H    0.147628
    17  H    0.284326
    18  H    0.202271
    19  H    0.158237
    20  H    0.156448
    21  H    0.198201
    22  H    0.183133
    23  H    0.169072
    24  H    0.223162
    25  H    0.222962
    26  H    0.139333
    27  H    0.214461
    28  H    0.168796
    29  H    0.173820
    30  H    0.210373
    31  H    0.164247
 Sum of Mulliken charges =  -0.00000
 Mulliken charges with hydrogens summed into heavy atoms:
               1
     1  C   -0.046800
     2  C   -0.185071
     3  C    0.094267
     4  C    0.313091
     5  C    0.165765
     6  C    0.283454
     7  C    0.165034
     8  C    0.164563
     9  O   -0.346114
    10  C   -0.039971
    11  O   -0.299361
    12  C    0.008577
    13  O   -0.277432
 Electronic spatial extent (au):  <R**2>=           3197.8324
 Charge=              0.0000 electrons
 Dipole moment (field-independent basis, Debye):
    X=             -1.1111    Y=              2.3460    Z=              1.1161  Tot=              2.8256
 Quadrupole moment (field-independent basis, Debye-Ang):
   XX=            -70.2999   YY=            -83.4418   ZZ=            -79.4872
   XY=              5.9854   XZ=              2.9316   YZ=              2.4363
 Traceless Quadrupole moment (field-independent basis, Debye-Ang):
   XX=              7.4431   YY=             -5.6988   ZZ=             -1.7443
   XY=              5.9854   XZ=              2.9316   YZ=              2.4363
 Octapole moment (field-independent basis, Debye-Ang**2):
  XXX=             -3.7511  YYY=             -0.0194  ZZZ=             -0.2703  XYY=            -13.2102
  XXY=             17.2476  XXZ=              1.8744  XZZ=              3.5235  YZZ=             -2.0182
  YYZ=             -1.3312  XYZ=             -3.8700
 Hexadecapole moment (field-independent basis, Debye-Ang**3):
 XXXX=          -3248.9625 YYYY=           -593.6721 ZZZZ=           -254.3299 XXXY=             47.3550
 XXXZ=             48.0300 YYYX=             25.2169 YYYZ=              5.9492 ZZZX=              1.2931
 ZZZY=             -1.7847 XXYY=           -687.5174 XXZZ=           -604.7104 YYZZ=           -143.7763
 XXYZ=             -1.9268 YYXZ=              2.7325 ZZXY=              0.4335
 N-N= 8.885895706015D+02 E-N=-3.219044233978D+03  KE= 6.153350453244D+02
 D1PCM: PCM CHGder 1st derivatives, ID1Alg=3 FixD1E=F DoIter=F DoCFld=F I1PDM=0.
 Calling FoFJK, ICntrl=      2127 FMM=F ISym2X=0 I1Cent= 0 IOpClX= 0 NMat=1 NMatS=1 NMatT=0.
 ***** Axes restored to original set *****
 -------------------------------------------------------------------
 Center     Atomic                   Forces (Hartrees/Bohr)
 Number     Number              X              Y              Z
 -------------------------------------------------------------------
      1        6          -0.002159095    0.002584265    0.005406769
      2        6           0.001426894    0.000973046    0.000069184
      3        6          -0.001877132    0.002647974   -0.004826282
      4        6          -0.000455362    0.004890152    0.002739534
      5        6           0.001677937   -0.001356135   -0.002809781
      6        6           0.002441427   -0.004920913    0.001298902
      7        6           0.004430530    0.005315861   -0.003523901
      8        6          -0.004541191    0.002818775   -0.004325203
      9        8           0.003999674   -0.007726922   -0.003305716
     10        6          -0.001885665   -0.000023465    0.002407645
     11        8          -0.004857760    0.002630470   -0.009567779
     12        6          -0.000345101   -0.001841433    0.002609330
     13        8           0.004753119   -0.008431981    0.007185741
     14        1           0.002669126   -0.001746300   -0.004930667
     15        1          -0.000965414   -0.001659546    0.001846565
     16        1          -0.001996048    0.001011053   -0.002031152
     17        1           0.003220244    0.000409422    0.008065964
     18        1          -0.000666774   -0.004208839   -0.000341959
     19        1           0.000366629    0.002514863   -0.005414512
     20        1           0.001139472   -0.000958847    0.002768811
     21        1          -0.001845223    0.001675048   -0.000134028
     22        1          -0.000935050    0.002136818   -0.001874265
     23        1          -0.001720364    0.000334439    0.003815771
     24        1          -0.004085541   -0.003281874   -0.001941992
     25        1          -0.003712434    0.002006297    0.006295631
     26        1          -0.001597720    0.001931543    0.005700191
     27        1           0.004116696   -0.001514807   -0.000225039
     28        1           0.001587270    0.002345284    0.001074581
     29        1           0.000802775   -0.001002412   -0.002956144
     30        1           0.000159896   -0.000221913   -0.004127683
     31        1           0.000854183    0.002670076    0.001051485
 -------------------------------------------------------------------
 Cartesian Forces:  Max     0.009567779 RMS     0.003360331

 GradGradGradGradGradGradGradGradGradGradGradGradGradGradGradGradGradGrad
 Berny optimization.
 FormGI is forming the generalized inverse of G from B-inverse, IUseBI=4.
 Internal  Forces:  Max     0.018727533 RMS     0.002341375
 Search for a local minimum.
 Step number   1 out of a maximum of  186
 All quantities printed in internal units (Hartrees-Bohrs-Radians)
 Mixed Optimization -- RFO/linear search
 Second derivative matrix not updated -- first step.
 ITU=  0
     Eigenvalues ---    0.00393   0.00630   0.00687   0.00710   0.01425
     Eigenvalues ---    0.01449   0.01704   0.02683   0.02702   0.03096
     Eigenvalues ---    0.03209   0.03839   0.04091   0.04620   0.04670
     Eigenvalues ---    0.04851   0.04883   0.05106   0.05125   0.05163
     Eigenvalues ---    0.05199   0.05641   0.05652   0.05937   0.06054
     Eigenvalues ---    0.06287   0.06588   0.06658   0.07671   0.07899
     Eigenvalues ---    0.07904   0.07910   0.07947   0.07967   0.08078
     Eigenvalues ---    0.09250   0.09531   0.09652   0.10694   0.11573
     Eigenvalues ---    0.11601   0.11690   0.11699   0.12538   0.12630
     Eigenvalues ---    0.14905   0.15797   0.16615   0.17868   0.19261
     Eigenvalues ---    0.20519   0.21398   0.22411   0.25000   0.27370
     Eigenvalues ---    0.27540   0.28223   0.28757   0.28786   0.29115
     Eigenvalues ---    0.29539   0.30072   0.35001   0.35083   0.35144
     Eigenvalues ---    0.35230   0.35250   0.35289   0.35290   0.35363
     Eigenvalues ---    0.35370   0.35392   0.35446   0.35483   0.35500
     Eigenvalues ---    0.35556   0.35828   0.35921   0.36013   0.36109
     Eigenvalues ---    0.40064   0.41415   0.42002   0.42064   0.43083
     Eigenvalues ---    0.457751000.000001000.000001000.000001000.00000
     Eigenvalues --- 1000.000001000.000001000.000001000.000001000.00000
     Eigenvalues --- 1000.000001000.000001000.000001000.000001000.00000
     Eigenvalues --- 1000.000001000.000001000.000001000.000001000.00000
     Eigenvalues --- 1000.000001000.000001000.000001000.000001000.00000
     Eigenvalues --- 1000.000001000.000001000.000001000.000001000.00000
     Eigenvalues --- 1000.000001000.000001000.000001000.000001000.00000
     Eigenvalues --- 1000.000001000.000001000.000001000.000001000.00000
     Eigenvalues --- 1000.000001000.000001000.000001000.000001000.00000
     Eigenvalues --- 1000.000001000.000001000.000001000.000001000.00000
     Eigenvalues --- 1000.000001000.000001000.000001000.000001000.00000
     Eigenvalues --- 1000.000001000.000001000.000001000.000001000.00000
     Eigenvalues --- 1000.000001000.000001000.000001000.000001000.00000
     Eigenvalues --- 1000.000001000.000001000.000001000.000001000.00000
     Eigenvalues --- 1000.000001000.000001000.000001000.000001000.00000
     Eigenvalues --- 1000.000001000.000001000.000001000.000001000.00000
     Eigenvalues --- 1000.000001000.000001000.000001000.000001000.00000
     Eigenvalues --- 1000.000001000.000001000.000001000.000001000.00000
     Eigenvalues --- 1000.000001000.000001000.000001000.000001000.00000
     Eigenvalues --- 1000.000001000.000001000.000001000.000001000.00000
 RFO step:  Lambda=-4.28710105D-03 EMin= 3.92899834D-03
 Linear search not attempted -- first point.
 Iteration  1 RMS(Cart)=  0.08796865 RMS(Int)=  0.00155440
 Iteration  2 RMS(Cart)=  0.00446108 RMS(Int)=  0.00005486
 Iteration  3 RMS(Cart)=  0.00000521 RMS(Int)=  0.00005477
 Iteration  4 RMS(Cart)=  0.00000000 RMS(Int)=  0.00005477
 Iteration  1 RMS(Cart)=  0.00001172 RMS(Int)=  0.00000271
 Iteration  2 RMS(Cart)=  0.00000651 RMS(Int)=  0.00000303
 Iteration  3 RMS(Cart)=  0.00000361 RMS(Int)=  0.00000343
 Iteration  4 RMS(Cart)=  0.00000201 RMS(Int)=  0.00000370
 Iteration  5 RMS(Cart)=  0.00000111 RMS(Int)=  0.00000386
 Iteration  6 RMS(Cart)=  0.00000062 RMS(Int)=  0.00000395
 Variable       Old X    -DE/DX   Delta X   Delta X   Delta X     New X
                                 (Linear)    (Quad)   (Total)
    R1        2.88195  -0.00106   0.00000  -0.00446  -0.00448   2.87747
    R2        2.89112  -0.00090   0.00000  -0.00333  -0.00333   2.88779
    R3        2.68921  -0.00013   0.00000  -0.00031  -0.00031   2.68890
    R4        2.04781   0.00572   0.00000   0.01589   0.01589   2.06370
    R5        2.89073   0.00110   0.00000   0.00312   0.00314   2.89387
    R6        2.90930  -0.00022   0.00000  -0.00198  -0.00194   2.90736
    R7        2.05078   0.00265   0.00000   0.00741   0.00741   2.05819
    R8        2.05271   0.00299   0.00000   0.00838   0.00838   2.06109
    R9        2.64386   0.00160   0.00000   0.00347   0.00347   2.64733
   R10        2.88183  -0.00125   0.00000  -0.00270  -0.00271   2.87912
   R11        2.65273   0.00369   0.00000   0.00928   0.00925   2.66198
   R12        2.04061   0.00866   0.00000   0.02375   0.02375   2.06437
   R13        2.68145   0.00339   0.00000   0.00765   0.00763   2.68908
   R14        2.04205   0.00427   0.00000   0.01175   0.01175   2.05381
   R15        2.04870   0.00594   0.00000   0.01652   0.01652   2.06522
   R16        2.88591  -0.00043   0.00000  -0.00241  -0.00242   2.88349
   R17        2.05303   0.00306   0.00000   0.00858   0.00858   2.06161
   R18        2.04957   0.00249   0.00000   0.00695   0.00695   2.05652
   R19        2.89163  -0.00075   0.00000  -0.00236  -0.00239   2.88924
   R20        2.05089   0.00292   0.00000   0.00815   0.00815   2.05904
   R21        2.05673   0.00410   0.00000   0.01158   0.01158   2.06831
   R22        2.66934   0.00390   0.00000   0.00875   0.00878   2.67812
   R23        2.03912   0.00530   0.00000   0.01450   0.01450   2.05362
   R24        2.05043   0.00727   0.00000   0.02030   0.02030   2.07073
   R25        2.67641   0.00321   0.00000   0.00808   0.00810   2.68450
   R26        2.87097   0.00050   0.00000   0.00196   0.00196   2.87293
   R27        2.05540   0.00611   0.00000   0.01721   0.01721   2.07261
   R28        2.04351   0.00439   0.00000   0.01211   0.01211   2.05562
   R29        2.05207   0.00301   0.00000   0.00842   0.00842   2.06048
   R30        2.05441   0.00314   0.00000   0.00882   0.00882   2.06323
   R31        2.05208   0.00394   0.00000   0.01102   0.01102   2.06309
   R32        2.04897   0.00299   0.00000   0.00831   0.00831   2.05729
    A1        1.93741  -0.00071   0.00000  -0.00317  -0.00321   1.93419
    A2        1.92185   0.00134   0.00000   0.00583   0.00566   1.92751
    A3        1.89348   0.00129   0.00000   0.00330   0.00324   1.89671
    A4        2.01858  -0.00261   0.00000  -0.02067  -0.02064   1.99793
    A5        1.86301  -0.00016   0.00000   0.00123   0.00129   1.86430
    A6        1.82132   0.00116   0.00000   0.01586   0.01583   1.83715
    A7        1.92400   0.00003   0.00000  -0.00684  -0.00697   1.91703
    A8        1.92228  -0.00061   0.00000  -0.00009  -0.00006   1.92222
    A9        1.89366   0.00075   0.00000   0.00458   0.00462   1.89827
   A10        1.92169   0.00086   0.00000   0.00225   0.00231   1.92400
   A11        1.93148  -0.00114   0.00000  -0.00264  -0.00262   1.92886
   A12        1.86986   0.00012   0.00000   0.00305   0.00302   1.87289
   A13        1.88308  -0.00212   0.00000  -0.00791  -0.00790   1.87517
   A14        1.94426  -0.00003   0.00000  -0.00024  -0.00013   1.94414
   A15        1.92082   0.00120   0.00000   0.00709   0.00707   1.92789
   A16        1.95080   0.00304   0.00000   0.01170   0.01158   1.96238
   A17        1.92693  -0.00004   0.00000   0.00190   0.00198   1.92891
   A18        1.83834  -0.00197   0.00000  -0.01217  -0.01218   1.82616
   A19        1.92756   0.00126   0.00000   0.00234   0.00217   1.92973
   A20        1.95054  -0.00030   0.00000  -0.00322  -0.00315   1.94739
   A21        1.94065  -0.00097   0.00000  -0.00368  -0.00368   1.93697
   A22        1.85327  -0.00110   0.00000  -0.00081  -0.00078   1.85249
   A23        1.90791   0.00075   0.00000   0.00456   0.00465   1.91256
   A24        1.88112   0.00037   0.00000   0.00109   0.00107   1.88218
   A25        1.92035  -0.00075   0.00000  -0.00588  -0.00607   1.91428
   A26        1.91823   0.00055   0.00000   0.00121   0.00126   1.91949
   A27        1.93198  -0.00017   0.00000   0.00010   0.00015   1.93213
   A28        1.90354   0.00042   0.00000  -0.00067  -0.00061   1.90292
   A29        1.92559  -0.00009   0.00000   0.00103   0.00108   1.92667
   A30        1.86319   0.00009   0.00000   0.00453   0.00450   1.86769
   A31        1.92610   0.00153   0.00000  -0.00257  -0.00261   1.92348
   A32        1.90819  -0.00089   0.00000  -0.00249  -0.00247   1.90572
   A33        1.90294  -0.00081   0.00000  -0.00617  -0.00617   1.89677
   A34        1.93426   0.00035   0.00000   0.00748   0.00750   1.94175
   A35        1.91574  -0.00063   0.00000   0.00047   0.00044   1.91619
   A36        1.87569   0.00040   0.00000   0.00321   0.00318   1.87887
   A37        1.90059   0.00176   0.00000   0.01056   0.01062   1.91121
   A38        1.94140  -0.00109   0.00000  -0.00954  -0.00971   1.93169
   A39        1.95447  -0.00222   0.00000  -0.01758  -0.01771   1.93676
   A40        1.85912  -0.00008   0.00000   0.01158   0.01158   1.87070
   A41        1.90454   0.00136   0.00000   0.01260   0.01268   1.91722
   A42        1.90101   0.00043   0.00000  -0.00565  -0.00595   1.89506
   A43        1.93144   0.00199   0.00000   0.00965   0.00968   1.94112
   A44        1.90279   0.00062   0.00000   0.00679   0.00682   1.90961
   A45        1.85513  -0.00118   0.00000  -0.00378  -0.00378   1.85135
   A46        1.93334  -0.00173   0.00000  -0.01011  -0.01015   1.92319
   A47        1.94675  -0.00025   0.00000  -0.00303  -0.00305   1.94370
   A48        1.89206   0.00057   0.00000   0.00089   0.00085   1.89291
   A49        1.98509  -0.00442   0.00000  -0.02641  -0.02631   1.95879
   A50        1.92494  -0.00122   0.00000  -0.00624  -0.00630   1.91864
   A51        1.93042  -0.00019   0.00000   0.00014   0.00016   1.93058
   A52        1.91854   0.00076   0.00000   0.00077   0.00077   1.91930
   A53        1.91203   0.00066   0.00000   0.00470   0.00472   1.91675
   A54        1.90217   0.00009   0.00000  -0.00222  -0.00221   1.89996
   A55        1.87488  -0.00006   0.00000   0.00309   0.00308   1.87796
   A56        2.11921  -0.01873   0.00000  -0.07365  -0.07365   2.04556
   A57        1.91735   0.00003   0.00000  -0.00598  -0.00607   1.91128
   A58        1.90795  -0.00051   0.00000  -0.00926  -0.00923   1.89872
   A59        1.89478  -0.00019   0.00000   0.00329   0.00333   1.89811
   A60        1.92128   0.00011   0.00000   0.00309   0.00300   1.92428
   A61        1.94924   0.00038   0.00000   0.00539   0.00547   1.95471
   A62        1.87226   0.00014   0.00000   0.00336   0.00333   1.87559
   A63        2.01073  -0.00576   0.00000  -0.03441  -0.03446   1.97627
    D1        0.90349   0.00044   0.00000   0.00579   0.00579   0.90928
    D2        3.03527   0.00128   0.00000   0.01182   0.01182   3.04709
    D3       -1.20192   0.00079   0.00000   0.01073   0.01074  -1.19118
    D4       -3.12150  -0.00253   0.00000  -0.01957  -0.01960  -3.14110
    D5       -0.98973  -0.00169   0.00000  -0.01354  -0.01357  -1.00330
    D6        1.05628  -0.00218   0.00000  -0.01463  -0.01466   1.04162
    D7       -1.13828   0.00026   0.00000   0.00413   0.00412  -1.13416
[...]
 0004987,-0.00114195,0.00070175,0.00113327,-0.00006560,0.00010950,0.000
 59547,0.00026007,-0.00026609,0.00071034,-0.00026250,0.00332268,-0.0007
 6086,0.00001074,0.00001218,-0.00000718,0.00005415,-0.00001491,-0.00001
 367,0.00064960,-0.00009437,0.00116687,0.00002965,0.00003477,0.00001334
 ,0.00005183,-0.00000869,0.00007235,-0.00001552,0.00000356,-0.00000372,
 0.00002189,-0.00000605,-0.00000747,-0.00021661,0.00010098,0.00023884,0
 .00049978,0.00071139,0.00044561,0.00260760,-0.00097364,-0.01070788,-0.
 07062030,0.03231171,0.30386399,-0.00054206,0.00011403,0.00006359,0.000
 00387,-0.00000031,0.00000497,-0.00005868,-0.00000526,-0.00002047,-0.00
 002685,-0.00001523,-0.00002471,0.00000023,-0.00000420,0.00000536,0.000
 54794,-0.00030089,-0.00088982,0.00421543,-0.00155323,-0.00398477,-0.07
 755465,0.01371259,0.07345655,-0.00016126,-0.01061242,-0.02502668,0.000
 60693,0.00109700,-0.00068191,0.00007386,0.00019517,-0.00001807,0.00000
 054,0.00000856,0.00001041,0.00007222,0.00001915,0.00003175,-0.00008891
 ,-0.00006349,0.00019321,0.00000173,0.00000134,-0.00000080,0.00000427,-
 0.00000124,-0.00000057,0.00002770,0.00000786,0.00003975,0.00000286,0.0
 0000343,0.00000200,0.00000358,-0.00000148,0.00000385,-0.00000031,0.000
 00037,-0.00000091,0.00000384,-0.00000006,-0.00000162,0.00003304,-0.000
 10215,0.00005642,0.00034210,0.00008534,0.00003642,0.00013724,0.0000164
 9,0.00016374,0.00039765,0.00014067,0.00111974,0.07722242,-0.00029884,-
 0.00038250,0.00032939,-0.00000407,0.00000096,-0.00000823,0.00012177,0.
 00001871,-0.00005643,0.00004366,0.00002435,0.00004028,-0.00000281,0.00
 001087,-0.00000515,-0.00108938,0.00154339,-0.00013148,0.00422720,-0.00
 008792,-0.00003860,0.01118238,-0.05222229,-0.02531301,-0.00435464,-0.0
 1261290,-0.03186913,-0.00864692,0.00346709,0.02919990,-0.00014108,0.00
 031992,-0.00005258,-0.00001371,-0.00002066,-0.00000362,-0.00011840,-0.
 00002406,-0.00000451,-0.00001913,-0.00008656,-0.00004331,-0.00000289,-
 0.00000230,0.00000151,-0.00000690,0.00000209,0.00000047,-0.00001190,-0
 .00001649,-0.00002374,-0.00000508,-0.00000518,-0.00000306,-0.00000361,
 0.00000140,-0.00000545,0.00000033,-0.00000106,0.00000160,-0.00000757,-
 0.00000076,0.00000268,-0.00014214,-0.00001680,-0.00039904,0.00032007,-
 0.00017421,-0.00047495,-0.00004818,-0.00003401,0.00029219,-0.00045644,
 0.00039437,0.00083539,-0.00552991,0.06417450,-0.00011510,-0.00019769,0
 .00021162,-0.00000520,0.00000013,-0.00000934,0.00018168,0.00005882,-0.
 00021827,0.00005102,0.00002748,0.00004922,-0.00000580,0.00001747,-0.00
 000787,0.00025919,-0.00120224,0.00058193,0.00287096,0.00014972,0.00079
 720,0.06992363,-0.02593754,-0.26736358,-0.00679676,-0.01416605,-0.0172
 3334,0.00713823,-0.00084406,-0.01662495,-0.00050778,0.00022254,-0.0000
 0926,-0.00002176,-0.00002445,0.00001787,-0.00015370,-0.00005983,0.0000
 1212,0.00014986,-0.00003381,-0.00002308,-0.00000377,-0.00000294,0.0000
 0182,-0.00000807,0.00000295,0.00000043,-0.00003073,-0.00000665,-0.0000
 0413,-0.00000590,-0.00000686,-0.00000274,-0.00000321,0.00000314,-0.000
 00502,0.00000051,-0.00000178,0.00000272,-0.00001097,-0.00000164,0.0000
 0415,-0.00002554,0.00015649,0.00034749,-0.00070833,0.00030680,0.000043
 90,-0.00029386,0.00006590,0.00046171,-0.00130369,0.00035420,0.00005141
 ,-0.07170875,0.03712938,0.29821265,0.00013890,-0.00063737,0.00048664,-
 0.00001248,0.00000088,-0.00002059,0.00023379,-0.00001228,-0.00017428,0
 .00010807,0.00005629,0.00009800,-0.00000493,0.00002124,-0.00001227,0.0
 0109151,-0.00011121,0.00000847,0.00157298,-0.00385574,-0.00269128,-0.2
 7320145,0.09813038,0.00630232,-0.02730686,0.00167643,-0.00236779,0.002
 01899,0.00070146,0.00062143,-0.00029322,0.00035717,0.00001399,-0.00002
 090,-0.00003138,0.00001310,-0.00030632,-0.00001620,0.00001604,0.000000
 96,0.00002968,-0.00003170,-0.00000576,-0.00000434,0.00000341,-0.000015
 61,0.00000524,0.00000082,0.00000293,-0.00001828,-0.00001338,-0.0000100
 2,-0.00001248,-0.00000655,-0.00000897,0.00000401,-0.00001359,0.0000019
 3,-0.00000205,0.00000242,-0.00001561,-0.00000143,0.00000588,-0.0000193
 4,-0.00009448,0.00007132,0.00003700,-0.00007640,0.00002782,-0.00113991
 ,0.00042960,-0.00022428,0.00016815,0.00005144,0.00009601,-0.00664308,0
 .00421667,0.00123250,0.30337460,-0.00107635,-0.00099436,-0.00007869,-0
 .00000968,0.00000026,-0.00001236,-0.00009675,-0.00019064,0.00015022,0.
 00002662,0.00003356,0.00003600,0.00000331,-0.00000877,0.00000013,-0.00
 168740,-0.00457928,0.00405028,-0.00179782,-0.00305304,-0.00257925,0.10
 815432,-0.09419642,-0.00276436,-0.03180288,0.00754632,-0.00129532,0.02
 703428,-0.00990124,-0.00180030,0.00041296,0.00050233,-0.00017085,0.000
 00929,0.00001599,-0.00001585,-0.00012756,0.00013877,-0.00000810,0.0000
 4924,0.00008484,0.00002830,-0.00000021,0.00000045,0.00000095,-0.000005
 71,0.00000185,0.00000172,-0.00001683,-0.00000860,-0.00001410,0.0000018
 9,-0.00000232,-0.00000034,-0.00000515,-0.00000193,-0.00000770,-0.00000
 014,0.00000056,-0.00000082,0.00000283,0.00000252,-0.00000081,0.0019847
 8,-0.00045373,0.00036392,-0.00032407,0.00013885,-0.00015454,-0.0011983
 1,0.00037436,-0.00016378,0.00002370,-0.00001156,0.00016492,0.00313210,
 -0.00059245,0.00054824,-0.10159306,0.10317243,0.00029561,-0.00022581,0
 .00023270,-0.00000639,-0.00000033,-0.00001222,0.00015251,0.00001468,-0
 .00016826,0.00004877,0.00002670,0.00005324,-0.00000280,0.00001241,-0.0
 0000597,0.00053542,0.00259600,-0.00112407,-0.00024529,-0.00157456,-0.0
 0123071,0.01309939,-0.00431081,-0.05294980,-0.01921511,0.00309732,-0.0
 0033935,-0.01645934,0.00816634,0.00017331,-0.00027771,0.00014279,0.000
 04961,-0.00001331,-0.00001500,0.00002183,-0.00018416,-0.00004022,0.000
 01565,-0.00004300,-0.00003051,-0.00003277,-0.00000296,-0.00000216,0.00
 000164,-0.00000788,0.00000259,0.00000057,-0.00001401,-0.00000205,0.000
 00716,-0.00000540,-0.00000630,-0.00000288,-0.00000241,0.00000322,-0.00
 000599,0.00000053,-0.00000126,0.00000151,-0.00000824,-0.00000109,0.000
 00286,-0.00081896,0.00034905,0.00012901,-0.00034716,0.00018066,0.00020
 223,-0.00057198,0.00016431,0.00029663,-0.00041438,0.00013798,0.0004199
 1,0.02726005,-0.01185670,0.00100970,-0.00274122,0.00441080,0.05209987,
 -0.00200521,0.00535004,0.00139773,0.00000080,0.00000040,-0.00001245,0.
 00067247,0.00041506,-0.00126365,0.00015060,0.00003489,0.00011582,-0.00
 002348,0.00007448,-0.00001998,-0.01959919,-0.02311682,-0.01364339,0.00
 001646,0.00074639,-0.00034721,-0.00014859,0.00112389,0.00167342,0.0015
 6957,0.00059117,-0.00014835,-0.13407422,-0.10619551,-0.06837811,-0.003
 63069,-0.00112126,0.00001080,-0.00006736,-0.00007492,0.00013489,-0.000
 36197,-0.00042314,0.00013255,0.00016817,-0.00006274,-0.00021868,-0.000
 01115,-0.00000986,0.00000408,-0.00001754,0.00000662,-0.00000201,0.0000
 2207,-0.00003222,0.00010875,-0.00002218,-0.00001991,-0.00000915,0.0000
 0199,0.00001853,-0.00000397,0.00000050,-0.00000649,0.00000763,-0.00003
 984,-0.00001022,0.00001577,0.00124251,0.00024425,-0.00013318,0.0013593
 4,-0.00024914,0.00048718,0.00008131,-0.00016569,0.00002269,0.00007975,
 -0.00004292,0.00010618,0.00019433,-0.00011825,0.00013233,-0.00003878,-
 0.00049506,0.00034259,0.14771183,0.00200772,-0.00082665,0.00001432,-0.
 00000598,0.00000018,-0.00000609,-0.00000343,-0.00010195,0.00023964,0.0
 0000982,0.00001820,0.00001618,0.00000411,-0.00000962,-0.00000173,0.007
 85098,0.01007409,0.00607806,0.00215972,-0.00039193,-0.00001553,-0.0160
 4686,-0.01448178,-0.01635680,-0.00250286,-0.00806266,0.00332218,-0.106
 55511,-0.17471030,-0.08002484,0.00116675,0.00047371,0.00004923,0.00001
 524,-0.00000131,-0.00004067,-0.00004052,0.00008430,-0.00003986,-0.0000
 3778,-0.00005127,0.00003489,0.00000020,0.00000017,0.00000041,-0.000003
 00,0.00000094,0.00000090,0.00000126,0.00000178,-0.00003697,0.00000124,
 -0.00000070,-0.00000077,-0.00000443,-0.00000392,-0.00000537,0.00000053
 ,0.00000059,-0.00000052,0.00000300,0.00000250,-0.00000126,-0.00086469,
 0.00039558,0.00007658,-0.00071357,0.00040616,-0.00002649,-0.00023239,0
 .00012459,-0.00004301,-0.00028752,0.00010507,0.00002274,-0.00005737,0.
 00108446,0.00037280,0.00073581,0.00061063,-0.00029198,0.11499556,0.188
 39777,0.00009114,0.00046647,0.00081850,0.00000201,0.00000007,-0.000001
 16,0.00004484,0.00011514,-0.00021081,0.00002210,0.00000181,0.00001502,
 -0.00000699,0.00001899,-0.00000363,0.00077372,-0.00022868,-0.00119726,
 -0.00081560,0.00027959,-0.00023155,0.01112548,0.00965833,0.00808187,0.
 00103856,0.00498751,-0.00012168,-0.06975208,-0.08186779,-0.10240807,-0
 .00040924,-0.00030262,0.00039249,-0.00002117,-0.00002456,0.00003745,-0
 .00004018,-0.00009056,0.00001548,0.00022578,0.00042138,0.00021198,-0.0
 0000168,-0.00000182,0.00000063,-0.00000222,0.00000075,-0.00000069,0.00
 000874,-0.00000018,0.00000744,-0.00000427,-0.00000312,-0.00000164,0.00
 000069,0.00000286,-0.00000107,0.00000057,-0.00000132,0.00000142,-0.000
 00846,-0.00000332,0.00000353,-0.00006147,-0.00012629,-0.00019197,-0.00
 008262,0.00044704,0.00054065,0.00012820,-0.00012287,0.00000016,0.00003
 676,-0.00005861,-0.00000063,0.00013728,-0.00105288,0.00033628,-0.00036
 021,-0.00058765,0.00042564,0.07519118,0.08833869,0.10581407,0.00102947
 ,0.00072653,0.00175469,-0.00000036,0.00000087,-0.00000042,0.00028485,0
 .00008631,-0.00001987,0.00003528,-0.00000544,0.00002027,0.00000385,0.0
 0000131,-0.00000600,-0.01255958,0.00563324,0.02977141,-0.00047102,0.00
 008146,0.00001783,0.00019752,-0.00096586,-0.00319486,0.00012723,0.0001
 4055,0.00040964,-0.08059926,0.01310223,0.08366041,-0.00009618,-0.00008
 932,-0.00069221,0.00001720,-0.00001624,-0.00004326,-0.00007186,-0.0000
 6662,-0.00003374,-0.00023714,-0.00046296,-0.00056792,-0.00000232,-0.00
 000183,0.00000091,-0.00000344,0.00000068,-0.00000092,0.00009145,0.0000
 4896,-0.00006952,-0.00000839,-0.00000522,-0.00000333,-0.00000184,0.000
 00276,-0.00000052,0.00000167,-0.00000088,0.00000103,-0.00000484,0.0000
 0023,0.00000107,0.00147960,-0.00011784,-0.00040128,-0.00573629,0.00143
 992,-0.00055024,0.00004375,-0.00009729,0.00004427,-0.00000465,0.000045
 36,-0.00012817,0.00117676,0.00091630,-0.00022670,0.00030572,-0.0005912
 5,-0.00035152,0.00677367,-0.00159131,-0.01726133,0.08823518,-0.0008363
 6,-0.00007928,0.00012850,-0.00000031,-0.00000060,0.00000111,-0.0001794
 8,-0.00009530,0.00003209,-0.00003201,0.00000082,-0.00001698,-0.0000007
 9,-0.00000752,0.00000471,0.00506306,-0.00317379,-0.01085510,-0.0000544
 0,-0.00014126,0.00008756,-0.01049413,0.00225451,0.03050257,0.00132029,
 0.00278164,-0.00119746,0.01262241,-0.05440398,-0.04007222,0.00015248,0
 .00000464,0.00011165,0.00000217,0.00001454,0.00000365,0.00007005,0.000
 06938,0.00001371,-0.00006642,0.00032193,0.00019480,0.00000213,0.000001
 92,-0.00000065,0.00000347,-0.00000058,0.00000051,-0.00000634,-0.000005
 09,0.00003591,0.00000713,0.00000397,0.00000405,0.00000083,-0.00000217,
 0.00000133,-0.00000099,0.00000099,-0.00000106,0.00000641,0.00000077,-0
 .00000194,-0.00046844,0.00021335,-0.00016962,0.00273086,0.00024977,0.0
 0043395,-0.00001305,0.00004857,-0.00005664,0.00009786,-0.00002580,-0.0
 0005851,-0.00028141,-0.00476778,0.00306424,0.00003994,0.00136718,-0.00
 095017,0.00853639,-0.00314280,-0.02026737,-0.01822394,0.05851631,-0.00
 037061,-0.00002038,0.00022114,0.00000101,-0.00000083,0.00000282,-0.000
 13064,-0.00003092,0.00007223,-0.00003037,-0.00000948,-0.00002291,0.000
 00060,-0.00000726,0.00000267,-0.00064444,0.00009741,0.00264750,-0.0003
 5950,0.00015212,0.00011100,0.00495321,-0.00294090,-0.01926554,0.000341
 08,-0.00056637,0.00269248,0.08425191,-0.03765262,-0.27090873,0.0003220
 5,0.00002105,0.00006476,0.00000722,0.00000719,-0.00000745,0.00007077,0
 .00004867,-0.00001275,0.00031868,0.00034414,0.00004357,0.00000165,0.00
 000168,-0.00000060,0.00000368,-0.00000114,0.00000036,0.00002749,0.0000
 1784,0.00000527,0.00000354,0.00000346,0.00000191,0.00000094,-0.0000024
 2,0.00000328,-0.00000024,0.00000098,-0.00000063,0.00000523,0.00000045,
 -0.00000170,0.00049088,-0.00016900,0.00060459,-0.00076314,0.00004511,0
 .00115041,0.00004743,0.00001641,0.00000125,-0.00011861,-0.00012586,-0.
 00019073,-0.00022469,0.00350828,-0.00064482,-0.00034344,-0.00009801,0.
 00072515,0.00427012,-0.00166689,-0.01233391,-0.09213369,0.03902932,0.2
 9504184,0.00012727,-0.00008070,-0.00010502,0.00157648,0.00099896,0.000
 19275,-0.00899807,0.00195972,-0.02796529,0.00022814,-0.00042682,-0.000
 85371,0.00439156,-0.00514003,0.02934866,0.00007832,-0.00008431,-0.0000
 5909,0.00011136,0.00010231,-0.00029069,0.00003259,0.00003672,0.0000021
 8,-0.00009299,-0.00001785,0.00016081,0.00002260,0.00003501,0.00004535,
 0.00222972,-0.00058383,-0.00079768,-0.05307674,0.00629742,-0.04142754,
 0.00042877,0.00102925,0.00119805,0.00003764,-0.00002662,0.00000967,0.0
 0005171,0.00032050,-0.00009533,-0.00006303,0.00020392,-0.00038805,-0.0
 0348480,0.00326738,0.00048371,0.00001504,0.00004227,0.00010377,0.00034
 145,-0.00028555,0.00029587,-0.00454054,-0.00282613,0.00248227,0.001086
 49,0.00083753,-0.00067820,-0.00001874,-0.00000973,0.00001439,0.0000365
 1,0.00004939,0.00004136,-0.00000885,-0.00001116,0.00002969,-0.00000788
 ,-0.00007099,0.00021174,0.00000672,-0.00000499,-0.00000014,-0.00000651
 ,-0.00000444,-0.00000015,0.00001591,-0.00000839,0.00000386,-0.00001465
 ,0.00000627,0.00000013,0.06122545,-0.00002369,0.00004569,0.00000323,0.
 00044370,0.00037493,0.00058525,0.00443870,-0.00236376,0.02210280,0.000
 31102,-0.00075258,0.00079585,0.00138331,-0.00283952,0.01304387,-0.0000
 4832,0.00006653,0.00003567,-0.00012451,-0.00005885,0.00019418,-0.00000
 655,-0.00001010,0.00001037,0.00002286,0.00003566,-0.00009647,-0.000016
 59,-0.00003702,-0.00003225,-0.00281664,0.00073355,0.00008355,0.0074045
 1,-0.05505262,0.03462626,0.00021560,-0.00096574,-0.00143649,-0.0000382
 6,0.00002472,-0.00000115,0.00007042,0.00018437,-0.00017558,-0.00015886
 ,0.00004751,-0.00020018,0.00226892,-0.00125289,-0.00001358,-0.00004995
 ,0.00012333,-0.00009792,0.00006094,-0.00112525,-0.00042727,-0.00220724
 ,-0.00030569,0.00133499,0.00011507,0.00028825,-0.00053964,0.00001073,-
 0.00000066,-0.00000263,-0.00000706,-0.00003229,-0.00003785,0.00001090,
 0.00001340,-0.00002113,0.00000760,0.00002419,-0.00010676,-0.00000326,0
 .00000179,-0.00000095,0.00000107,0.00000083,-0.00000136,-0.00001419,0.
 00000591,-0.00000297,0.00000811,-0.00000255,0.00000003,-0.00685341,0.0
 5764381,0.00005844,-0.00008656,0.00055436,0.00030040,-0.00067316,0.000
 62077,-0.00110148,-0.00017718,-0.00587563,-0.00035578,-0.00078158,-0.0
 0081521,-0.00077246,0.00253518,-0.01328076,0.00011264,-0.00005243,-0.0
 0002717,0.00024469,0.00002491,-0.00015958,0.00000178,0.00001096,-0.000
 00473,-0.00003632,-0.00007565,0.00003255,0.00000157,0.00002870,0.00000
 572,0.00159172,-0.00064795,0.00128258,-0.04476729,0.03730856,-0.296902
 32,-0.00017361,0.00092732,0.00039636,-0.00009380,0.00002175,-0.0000192
 9,-0.00004775,-0.00003527,0.00010918,0.00019009,0.00068704,-0.00011172
 ,-0.00024085,0.00096053,0.00066000,0.00002909,-0.00007359,0.00042645,-
 0.00022307,-0.00055852,0.00064210,0.00247003,0.00077983,0.00028235,0.0
 0017565,-0.00022819,0.00036548,-0.00001006,0.00000395,0.00001081,0.000
 01282,0.00000990,0.00000542,-0.00001474,-0.00001635,0.00001125,0.00000
 393,0.00001818,0.00005567,0.00000022,-0.00000120,0.00000123,-0.0000029
 8,-0.00000080,0.00000152,0.00000719,-0.00000435,-0.00000111,-0.0000004
 5,0.00000085,-0.00000027,0.04481079,-0.04162248,0.32399522,-0.00020739
 ,-0.00054040,-0.00006983,-0.00392095,-0.00205332,0.00426024,0.00683271
 ,0.02214631,0.01200589,-0.00181596,0.00003981,-0.00023359,-0.00582636,
 -0.02372351,-0.01392919,-0.00007215,0.00009882,0.00009669,0.00009848,-
 0.00000614,-0.00000116,0.00001462,0.00001745,0.00002306,-0.00005938,-0
 .00002214,-0.00000288,-0.00003477,-0.00005283,-0.00004866,-0.00045757,
 -0.00018088,-0.00055825,-0.06119561,-0.05545208,-0.02598912,-0.0020358
 9,0.00602009,-0.00056870,-0.00000694,-0.00000454,0.00000602,-0.0005069
 0,-0.00159372,-0.00077925,-0.00006885,-0.00001653,-0.00022394,0.001144
 61,-0.00013292,0.00001723,0.00019904,-0.00003346,0.00005143,0.00014159
 ,0.00016118,0.00003172,0.00114097,0.00057654,0.00015504,0.00089486,0.0
 0076922,-0.00069112,0.00000274,-0.00000866,0.00000696,0.00003569,-0.00
 002428,-0.00005082,0.00001155,-0.00002432,-0.00003616,0.00000220,0.000
 02503,0.00000271,0.00000054,-0.00000155,-0.00000415,-0.00000576,-0.000
 00265,-0.00000149,-0.00002108,0.00000327,-0.00000337,0.00000862,-0.000
 00366,0.00000174,-0.00173092,-0.00440494,-0.00217041,0.06743825,0.0000
 1518,0.00018242,-0.00006656,-0.00139258,0.00037518,0.00167390,-0.00785
 768,-0.01702075,-0.00835065,0.00071010,0.00102212,0.00118737,-0.001801
 92,-0.00890523,-0.00450082,0.00012486,-0.00006381,-0.00001228,-0.00006
 952,0.00000495,-0.00004510,-0.00001851,-0.00003259,-0.00003462,0.00010
 808,0.00000477,0.00003511,-0.00000259,0.00004794,0.00001636,0.00109950
 ,0.00038354,0.00030812,-0.05314873,-0.25813480,-0.09990264,0.00295302,
 -0.00399983,0.00023514,0.00006971,-0.00001089,-0.00001846,-0.00018029,
 -0.00051906,-0.00045760,-0.00017279,-0.00009836,-0.00005131,-0.0002653
 0,0.00093296,0.00040257,-0.00003581,-0.00007457,-0.00007812,-0.0000380
 3,0.00011710,-0.00009767,0.00028159,0.00011747,0.00012466,-0.00008828,
 0.00064245,0.00008187,0.00000268,0.00000340,-0.00000331,0.00003233,-0.
 00001518,-0.00001900,-0.00001031,0.00003709,0.00003723,-0.00001690,-0.
 00000990,-0.00000567,-0.00000217,0.00000405,0.00000621,0.00000940,0.00
 000262,0.00000544,0.00002068,-0.00000176,0.00000398,0.00000117,-0.0000
 0179,-0.00000207,0.00124828,0.00518502,0.00171756,0.05842483,0.2798254
 3,-0.00006234,0.00021856,0.00012092,0.00252761,0.00081379,-0.00082798,
 -0.00054057,0.00561475,-0.00007873,-0.00009882,-0.00023024,-0.00086121
 ,0.00301826,0.01421221,0.00680893,0.00011038,-0.00008126,0.00001112,-0
 .00000530,0.00004801,-0.00000860,-0.00001529,-0.00000694,-0.00001576,0
 .00004374,-0.00003562,0.00001106,0.00000900,0.00004654,0.00000820,0.00
 087632,-0.00006750,-0.00008750,-0.02579784,-0.10289355,-0.09593047,-0.
 00127092,0.00224935,0.00070412,0.00002540,-0.00001421,-0.00001142,0.00
 023665,0.00053216,0.00036988,0.00016633,0.00029923,0.00008410,0.000516
 88,0.00050883,0.00059646,0.00000865,-0.00010056,0.00024994,-0.00014240
 ,-0.00010687,0.00043834,-0.00087507,-0.00025614,0.00054617,-0.00070391
 ,-0.00054052,0.00043838,0.00000052,0.00000609,-0.00001166,0.00000537,-
 0.00001655,-0.00001091,0.00000659,-0.00000711,-0.00000792,0.00000594,0
 .00000273,-0.00000635,-0.00000153,0.00000199,0.00000295,0.00000339,-0.
 00000185,0.00000229,0.00001927,-0.00000351,0.00000256,0.00000441,-0.00
 000279,-0.00000217,-0.00677413,-0.02799939,-0.01226125,0.02870338,0.10
 781037,0.09972649\\-0.00124810,-0.00283573,0.00345790,0.00000735,-0.00
 001233,-0.00001859,-0.00099141,-0.00327397,-0.00163546,-0.00003034,-0.
 00001104,-0.00001367,0.00001210,0.00000986,0.00000735,0.00057605,0.000
 95860,-0.00308994,-0.00001430,0.00000219,0.00001151,0.00000679,-0.0000
 0779,0.00002150,0.00000296,0.00001086,-0.00000174,0.00000201,0.0000038
 3,-0.00000929,0.00170830,0.00515031,0.00127640,-0.00001141,-0.00000814
 ,-0.00000253,-0.00000212,0.00001057,0.00002052,-0.00000422,0.00000354,
 0.00000887,0.00000250,0.00000138,0.00000669,-0.00000376,-0.00000809,0.
 00000348,-0.00000592,0.00000051,-0.00001379,0.00000256,-0.00000205,-0.
 00000296,0.00000163,0.00000241,0.00000714,-0.00000264,0.00000255,-0.00
 000283,0.00000097,0.00000304,-0.00001051,-0.00000137,-0.00000102,-0.00
 000486,-0.00000273,-0.00000134,-0.00000354,-0.00000441,-0.00000323,-0.
 00000271,0.00001150,-0.00000165,-0.00000609,-0.00000076,-0.00000037,-0
 .00000441,0.00000007,0.00000185,0.00000327,-0.00000894,0.00000408,-0.0
 0000607,0.00000261,-0.00000083,-0.00000094,0.00000423,0.00000255,-0.00
 000208,-0.00000921,-0.00000055,0.00000739\\\@


 ALL THINGS ARE POSSIBLE EXCEPT SKIING THROUGH A REVOLVING DOOR.
 Job cpu time:       0 days 16 hours 43 minutes 42.0 seconds.
 Elapsed time:       0 days  1 hours  2 minutes 45.7 seconds.
 File lengths (MBytes):  RWF=    689 Int=      0 D2E=      0 Chk=     33 Scr=      1
 Normal termination of Gaussian 16 at Mon Nov  5 02:35:50 2018.
