 Entering Gaussian System, Link 0=g16
 Initial command:
 /apps/gaussian/g16a03/g16/l1.exe "/jobfs/local/2011854.r-man2/Gau-25770.inp" -scrdir="/jobfs/local/2011854.r-man2/"
 Entering Link 1 = /apps/gaussian/g16a03/g16/l1.exe PID=     25771.
  
 Copyright (c) 1988,1990,1992,1993,1995,1998,2003,2009,2016,
            Gaussian, Inc.  All Rights Reserved.
  
 This is part of the Gaussian(R) 16 program.  It is based on
 the Gaussian(R) 09 system (copyright 2009, Gaussian, Inc.),
 the Gaussian(R) 03 system (copyright 2003, Gaussian, Inc.),
 the Gaussian(R) 98 system (copyright 1998, Gaussian, Inc.),
 the Gaussian(R) 94 system (copyright 1995, Gaussian, Inc.),
 the Gaussian 92(TM) system (copyright 1992, Gaussian, Inc.),
 the Gaussian 90(TM) system (copyright 1990, Gaussian, Inc.),
 the Gaussian 88(TM) system (copyright 1988, Gaussian, Inc.),
 the Gaussian 86(TM) system (copyright 1986, Carnegie Mellon
 University), and the Gaussian 82(TM) system (copyright 1983,
 Carnegie Mellon University). Gaussian is a federally registered
 trademark of Gaussian, Inc.
  
 This software contains proprietary and confidential information,
 including trade secrets, belonging to Gaussian, Inc.
  
 This software is provided under written license and may be
 used, copied, transmitted, or stored only in accord with that
 written license.
  
 The following legend is applicable only to US Government
 contracts under FAR:
  
                    RESTRICTED RIGHTS LEGEND
  
 Use, reproduction and disclosure by the US Government is
 subject to restrictions as set forth in subparagraphs (a)
 and (c) of the Commercial Computer Software - Restricted
 Rights clause in FAR 52.227-19.
  
 Gaussian, Inc.
 340 Quinnipiac St., Bldg. 40, Wallingford CT 06492
  
  
 ---------------------------------------------------------------
 Warning -- This program may not be used in any manner that
 competes with the business of Gaussian, Inc. or will provide
 assistance to any competitor of Gaussian, Inc.  The licensee
 of this program is prohibited from giving any competitor of
 Gaussian, Inc. access to this program.  By using this program,
 the user acknowledges that Gaussian, Inc. is engaged in the
 business of creating and licensing software in the field of
 computational chemistry and represents and warrants to the
 licensee that it is not a competitor of Gaussian, Inc. and that
 it will not use this program in any manner prohibited above.
 ---------------------------------------------------------------
  

 Cite this work as:
 Gaussian 16, Revision A.03,
 M. J. Frisch, G. W. Trucks, H. B. Schlegel, G. E. Scuseria, 
 M. A. Robb, J. R. Cheeseman, G. Scalmani, V. Barone, 
 G. A. Petersson, H. Nakatsuji, X. Li, M. Caricato, A. V. Marenich, 
 J. Bloino, B. G. Janesko, R. Gomperts, B. Mennucci, H. P. Hratchian, 
 J. V. Ortiz, A. F. Izmaylov, J. L. Sonnenberg, D. Williams-Young, 
 F. Ding, F. Lipparini, F. Egidi, J. Goings, B. Peng, A. Petrone, 
 T. Henderson, D. Ranasinghe, V. G. Zakrzewski, J. Gao, N. Rega, 
 G. Zheng, W. Liang, M. Hada, M. Ehara, K. Toyota, R. Fukuda, 
 J. Hasegawa, M. Ishida, T. Nakajima, Y. Honda, O. Kitao, H. Nakai, 
 T. Vreven, K. Throssell, J. A. Montgomery, Jr., J. E. Peralta, 
 F. Ogliaro, M. J. Bearpark, J. J. Heyd, E. N. Brothers, K. N. Kudin, 
 V. N. Staroverov, T. A. Keith, R. Kobayashi, J. Normand, 
 K. Raghavachari, A. P. Rendell, J. C. Burant, S. S. Iyengar, 
 J. Tomasi, M. Cossi, J. M. Millam, M. Klene, C. Adamo, R. Cammi, 
 J. W. Ochterski, R. L. Martin, K. Morokuma, O. Farkas, 
 J. B. Foresman, and D. J. Fox, Gaussian, Inc., Wallingford CT, 2016.
 
 ******************************************
 Gaussian 16:  ES64L-G16RevA.03 25-Dec-2016
                 5-Nov-2018 
 ******************************************
 %mem=6000mb
 %nproc=24
 Will use up to   24 processors via shared memory.
 %chk=2SO_1_e4_D_PSI.inp_extract_17.chk
 ----------------------------------------------------------------------
 #M062X/6-311++G(2d,2p) opt=ModRedundant freq=noraman SCRF=(Solvent=Wat
 er)
 ----------------------------------------------------------------------
 1/18=120,19=15,26=3,38=1/1,3;
 2/9=110,12=2,17=6,18=5,40=1/2;
 3/5=4,6=6,7=1212,11=2,25=1,30=1,70=2201,71=1,72=1,74=-55/1,2,3;
 4//1;
 5/5=2,38=5,53=1/2;
 6/7=2,8=2,9=2,10=2,28=1/1;
 7//1,2,3,16;
 1/18=20,19=15,26=3/3(2);
 2/9=110/2;
 99//99;
 2/9=110/2;
 3/5=4,6=6,7=1212,11=2,25=1,30=1,70=2205,71=1,72=1,74=-55/1,2,3;
 4/5=5,16=3,69=1/1;
 5/5=2,38=5,53=1/2;
 7//1,2,3,16;
 1/18=20,19=15,26=3/3(-5);
 2/9=110/2;
 6/7=2,8=2,9=2,10=2,19=2,28=1/1;
 99/9=1/99;
 -----------------------------
 2SO_1_e4_D_PSI.inp_extract_17
 -----------------------------
 Symbolic Z-matrix:
 Charge =  0 Multiplicity = 1
 C                     1.22689   0.55479   0.32383 
 C                    -3.80232  -0.57332  -0.57006 
 C                    -1.18453   0.23839   0.56645 
 C                    -2.4151   -0.92996  -1.10709 
 C                    -3.67874   0.38828   0.62584 
 C                     1.5137   -0.91804   0.60609 
 C                     2.10594   1.05411  -0.8145 
 C                     3.81325  -0.49623  -0.31035 
 O                     3.46998   0.86272  -0.5148 
 C                     3.01827  -1.08837   0.84154 
 O                    -0.10393   0.87782  -0.04996 
 C                    -2.38004   1.1849    0.5233 
 O                    -1.47336  -0.99023  -0.04754 
 H                     1.46524   1.12554   1.21817 
 H                    -4.33057  -1.47337  -0.27236 
 H                    -4.37543  -0.11628  -1.37168 
 H                    -0.92996  -0.00284   1.5881 
 H                    -2.40496  -1.90433  -1.57426 
 H                    -2.0816   -0.2068   -1.84276 
 H                    -3.67748  -0.17484   1.55494 
 H                    -4.53006   1.059     0.66797 
 H                     0.95994  -1.26738   1.46915 
 H                     1.21173  -1.51873  -0.24669 
 H                     1.96277   2.11462  -0.96877 
 H                     1.85165   0.53025  -1.73302 
 H                     3.62801  -1.0498   -1.22812 
 H                     4.87549  -0.51416  -0.10896 
 H                     3.26356  -2.14115   0.94325 
 H                     3.30971  -0.59596   1.76583 
 H                    -2.36025   1.74685  -0.40575 
 H                    -2.28318   1.89955   1.33303 
 
 The following ModRedundant input section has been read:
 D       6       1      11       3 F                                           
 

 GradGradGradGradGradGradGradGradGradGradGradGradGradGradGradGradGradGrad
 Berny optimization.
 Initialization pass.
                           ----------------------------
                           !    Initial Parameters    !
                           ! (Angstroms and Degrees)  !
 --------------------------                            --------------------------
 ! Name  Definition              Value          Derivative Info.                !
 --------------------------------------------------------------------------------
 ! R1    R(1,6)                  1.5268         estimate D2E/DX2                !
 ! R2    R(1,7)                  1.5224         estimate D2E/DX2                !
 ! R3    R(1,11)                 1.4196         estimate D2E/DX2                !
 ! R4    R(1,14)                 1.0874         estimate D2E/DX2                !
 ! R5    R(2,4)                  1.5297         estimate D2E/DX2                !
 ! R6    R(2,5)                  1.5395         estimate D2E/DX2                !
 ! R7    R(2,15)                 1.0852         estimate D2E/DX2                !
 ! R8    R(2,16)                 1.0863         estimate D2E/DX2                !
 ! R9    R(3,11)                 1.3988         estimate D2E/DX2                !
 ! R10   R(3,12)                 1.5255         estimate D2E/DX2                !
 ! R11   R(3,13)                 1.4035         estimate D2E/DX2                !
 ! R12   R(3,17)                 1.0802         estimate D2E/DX2                !
 ! R13   R(4,13)                 1.4189         estimate D2E/DX2                !
 ! R14   R(4,18)                 1.0806         estimate D2E/DX2                !
 ! R15   R(4,19)                 1.0842         estimate D2E/DX2                !
 ! R16   R(5,12)                 1.527          estimate D2E/DX2                !
 ! R17   R(5,20)                 1.0864         estimate D2E/DX2                !
 ! R18   R(5,21)                 1.0846         estimate D2E/DX2                !
 ! R19   R(6,10)                 1.5324         estimate D2E/DX2                !
 ! R20   R(6,22)                 1.0833         estimate D2E/DX2                !
 ! R21   R(6,23)                 1.0859         estimate D2E/DX2                !
 ! R22   R(7,9)                  1.4096         estimate D2E/DX2                !
 ! R23   R(7,24)                 1.0812         estimate D2E/DX2                !
 ! R24   R(7,25)                 1.0876         estimate D2E/DX2                !
 ! R25   R(8,9)                  1.4165         estimate D2E/DX2                !
 ! R26   R(8,10)                 1.5197         estimate D2E/DX2                !
 ! R27   R(8,26)                 1.0877         estimate D2E/DX2                !
 ! R28   R(8,27)                 1.0813         estimate D2E/DX2                !
 ! R29   R(10,28)                1.0858         estimate D2E/DX2                !
 ! R30   R(10,29)                1.0871         estimate D2E/DX2                !
 ! R31   R(12,30)                1.086          estimate D2E/DX2                !
 ! R32   R(12,31)                1.0843         estimate D2E/DX2                !
 ! A1    A(6,1,7)              110.2508         estimate D2E/DX2                !
 ! A2    A(6,1,11)             116.3784         estimate D2E/DX2                !
 ! A3    A(6,1,14)             108.2461         estimate D2E/DX2                !
 ! A4    A(7,1,11)             105.6515         estimate D2E/DX2                !
 ! A5    A(7,1,14)             108.4361         estimate D2E/DX2                !
 ! A6    A(11,1,14)            107.6156         estimate D2E/DX2                !
 ! A7    A(4,2,5)              110.2143         estimate D2E/DX2                !
 ! A8    A(4,2,15)             110.1434         estimate D2E/DX2                !
 ! A9    A(4,2,16)             108.5104         estimate D2E/DX2                !
 ! A10   A(5,2,15)             110.1213         estimate D2E/DX2                !
 ! A11   A(5,2,16)             110.6587         estimate D2E/DX2                !
 ! A12   A(15,2,16)            107.132          estimate D2E/DX2                !
 ! A13   A(11,3,12)            108.0191         estimate D2E/DX2                !
 ! A14   A(11,3,13)            111.4919         estimate D2E/DX2                !
 ! A15   A(11,3,17)            109.6838         estimate D2E/DX2                !
 ! A16   A(12,3,13)            111.6845         estimate D2E/DX2                !
 ! A17   A(12,3,17)            110.4889         estimate D2E/DX2                !
 ! A18   A(13,3,17)            105.4724         estimate D2E/DX2                !
 ! A19   A(2,4,13)             110.4658         estimate D2E/DX2                !
 ! A20   A(2,4,18)             111.746          estimate D2E/DX2                !
 ! A21   A(2,4,19)             111.2031         estimate D2E/DX2                !
 ! A22   A(13,4,18)            106.1593         estimate D2E/DX2                !
 ! A23   A(13,4,19)            109.3233         estimate D2E/DX2                !
 ! A24   A(18,4,19)            107.77           estimate D2E/DX2                !
 ! A25   A(2,5,12)             109.9965         estimate D2E/DX2                !
 ! A26   A(2,5,20)             109.9164         estimate D2E/DX2                !
 ! A27   A(2,5,21)             110.6967         estimate D2E/DX2                !
 ! A28   A(12,5,20)            109.0777         estimate D2E/DX2                !
 ! A29   A(12,5,21)            110.3375         estimate D2E/DX2                !
 ! A30   A(20,5,21)            106.7513         estimate D2E/DX2                !
 ! A31   A(1,6,10)             108.6674         estimate D2E/DX2                !
 ! A32   A(1,6,22)             111.2435         estimate D2E/DX2                !
 ! A33   A(1,6,23)             109.6446         estimate D2E/DX2                !
 ! A34   A(10,6,22)            110.099          estimate D2E/DX2                !
 ! A35   A(10,6,23)            109.4029         estimate D2E/DX2                !
 ! A36   A(22,6,23)            107.7644         estimate D2E/DX2                !
 ! A37   A(1,7,9)              110.807          estimate D2E/DX2                !
 ! A38   A(1,7,24)             110.6051         estimate D2E/DX2                !
 ! A39   A(1,7,25)             109.7864         estimate D2E/DX2                !
 ! A40   A(9,7,24)             106.9561         estimate D2E/DX2                !
 ! A41   A(9,7,25)             109.9024         estimate D2E/DX2                !
 ! A42   A(24,7,25)            108.7235         estimate D2E/DX2                !
 ! A43   A(9,8,10)             110.8821         estimate D2E/DX2                !
 ! A44   A(9,8,26)             108.9786         estimate D2E/DX2                !
 ! A45   A(9,8,27)             106.3117         estimate D2E/DX2                !
 ! A46   A(10,8,26)            110.6197         estimate D2E/DX2                !
 ! A47   A(10,8,27)            111.4852         estimate D2E/DX2                !
 ! A48   A(26,8,27)            108.4228         estimate D2E/DX2                !
 ! A49   A(7,9,8)              113.2941         estimate D2E/DX2                !
 ! A50   A(6,10,8)             110.7233         estimate D2E/DX2                !
 ! A51   A(6,10,28)            110.1203         estimate D2E/DX2                !
 ! A52   A(6,10,29)            110.0921         estimate D2E/DX2                !
 ! A53   A(8,10,28)            109.307          estimate D2E/DX2                !
 ! A54   A(8,10,29)            109.1309         estimate D2E/DX2                !
 ! A55   A(28,10,29)           107.3973         estimate D2E/DX2                !
 ! A56   A(1,11,3)             120.2773         estimate D2E/DX2                !
 ! A57   A(3,12,5)             109.934          estimate D2E/DX2                !
 ! A58   A(3,12,30)            109.3291         estimate D2E/DX2                !
 ! A59   A(3,12,31)            108.5302         estimate D2E/DX2                !
 ! A60   A(5,12,30)            110.0544         estimate D2E/DX2                !
 ! A61   A(5,12,31)            111.6944         estimate D2E/DX2                !
 ! A62   A(30,12,31)           107.2287         estimate D2E/DX2                !
 ! A63   A(3,13,4)             115.2191         estimate D2E/DX2                !
 ! D1    D(7,1,6,10)            53.687          estimate D2E/DX2                !
 ! D2    D(7,1,6,22)           175.0533         estimate D2E/DX2                !
 ! D3    D(7,1,6,23)           -65.846          estimate D2E/DX2                !
 ! D4    D(11,1,6,10)          173.9487         estimate D2E/DX2                !
 ! D5    D(11,1,6,22)          -64.6849         estimate D2E/DX2                !
 ! D6    D(11,1,6,23)           54.4157         estimate D2E/DX2                !
 ! D7    D(14,1,6,10)          -64.7738         estimate D2E/DX2                !
 ! D8    D(14,1,6,22)           56.5925         estimate D2E/DX2                !
 ! D9    D(14,1,6,23)          175.6932         estimate D2E/DX2                !
 ! D10   D(6,1,7,9)            -57.2058         estimate D2E/DX2                !
 ! D11   D(6,1,7,24)          -175.642          estimate D2E/DX2                !
 ! D12   D(6,1,7,25)            64.3768         estimate D2E/DX2                !
 ! D13   D(11,1,7,9)           176.2692         estimate D2E/DX2                !
 ! D14   D(11,1,7,24)           57.8329         estimate D2E/DX2                !
 ! D15   D(11,1,7,25)          -62.1483         estimate D2E/DX2                !
 ! D16   D(14,1,7,9)            61.1386         estimate D2E/DX2                !
 ! D17   D(14,1,7,24)          -57.2977         estimate D2E/DX2                !
 ! D18   D(14,1,7,25)         -177.2789         estimate D2E/DX2                !
 ! D19   D(6,1,11,3)            38.9918         Frozen                          !
 ! D20   D(7,1,11,3)           161.6881         estimate D2E/DX2                !
 ! D21   D(14,1,11,3)          -82.6193         estimate D2E/DX2                !
 ! D22   D(5,2,4,13)            34.1424         estimate D2E/DX2                !
 ! D23   D(5,2,4,18)           152.0911         estimate D2E/DX2                !
 ! D24   D(5,2,4,19)           -87.4328         estimate D2E/DX2                !
 ! D25   D(15,2,4,13)          -87.5619         estimate D2E/DX2                !
 ! D26   D(15,2,4,18)           30.3868         estimate D2E/DX2                !
 ! D27   D(15,2,4,19)          150.8629         estimate D2E/DX2                !
 ! D28   D(16,2,4,13)          155.4574         estimate D2E/DX2                !
 ! D29   D(16,2,4,18)          -86.5938         estimate D2E/DX2                !
 ! D30   D(16,2,4,19)           33.8823         estimate D2E/DX2                !
 ! D31   D(4,2,5,12)            26.1779         estimate D2E/DX2                !
 ! D32   D(4,2,5,20)           -93.9409         estimate D2E/DX2                !
 ! D33   D(4,2,5,21)           148.3757         estimate D2E/DX2                !
 ! D34   D(15,2,5,12)          147.8952         estimate D2E/DX2                !
 ! D35   D(15,2,5,20)           27.7764         estimate D2E/DX2                !
 ! D36   D(15,2,5,21)          -89.907          estimate D2E/DX2                !
 ! D37   D(16,2,5,12)          -93.8484         estimate D2E/DX2                !
 ! D38   D(16,2,5,20)          146.0329         estimate D2E/DX2                !
 ! D39   D(16,2,5,21)           28.3495         estimate D2E/DX2                !
 ! D40   D(12,3,11,1)          152.3423         estimate D2E/DX2                !
 ! D41   D(13,3,11,1)          -84.5874         estimate D2E/DX2                !
 ! D42   D(17,3,11,1)           31.8589         estimate D2E/DX2                !
 ! D43   D(11,3,12,5)          156.4714         estimate D2E/DX2                !
 ! D44   D(11,3,12,30)          35.5564         estimate D2E/DX2                !
 ! D45   D(11,3,12,31)         -81.0981         estimate D2E/DX2                !
 ! D46   D(13,3,12,5)           33.5184         estimate D2E/DX2                !
 ! D47   D(13,3,12,30)         -87.3966         estimate D2E/DX2                !
 ! D48   D(13,3,12,31)         155.9488         estimate D2E/DX2                !
 ! D49   D(17,3,12,5)          -83.5504         estimate D2E/DX2                !
 ! D50   D(17,3,12,30)         155.5345         estimate D2E/DX2                !
 ! D51   D(17,3,12,31)          38.88           estimate D2E/DX2                !
 ! D52   D(11,3,13,4)          -90.5547         estimate D2E/DX2                !
 ! D53   D(12,3,13,4)           30.3984         estimate D2E/DX2                !
 ! D54   D(17,3,13,4)          150.4589         estimate D2E/DX2                !
 ! D55   D(2,4,13,3)           -67.817          estimate D2E/DX2                !
 ! D56   D(18,4,13,3)          170.8603         estimate D2E/DX2                !
 ! D57   D(19,4,13,3)           54.8634         estimate D2E/DX2                !
 ! D58   D(2,5,12,3)           -61.6673         estimate D2E/DX2                !
 ! D59   D(2,5,12,30)           58.8105         estimate D2E/DX2                !
 ! D60   D(2,5,12,31)          177.7946         estimate D2E/DX2                !
 ! D61   D(20,5,12,3)           58.9582         estimate D2E/DX2                !
 ! D62   D(20,5,12,30)         179.436          estimate D2E/DX2                !
 ! D63   D(20,5,12,31)         -61.5799         estimate D2E/DX2                !
 ! D64   D(21,5,12,3)          175.9223         estimate D2E/DX2                !
 ! D65   D(21,5,12,30)         -63.6            estimate D2E/DX2                !
 ! D66   D(21,5,12,31)          55.3842         estimate D2E/DX2                !
 ! D67   D(1,6,10,8)           -53.1849         estimate D2E/DX2                !
 ! D68   D(1,6,10,28)         -174.1876         estimate D2E/DX2                !
 ! D69   D(1,6,10,29)           67.5786         estimate D2E/DX2                !
 ! D70   D(22,6,10,8)         -175.25           estimate D2E/DX2                !
 ! D71   D(22,6,10,28)          63.7473         estimate D2E/DX2                !
 ! D72   D(22,6,10,29)         -54.4865         estimate D2E/DX2                !
 ! D73   D(23,6,10,8)           66.4989         estimate D2E/DX2                !
 ! D74   D(23,6,10,28)         -54.5038         estimate D2E/DX2                !
 ! D75   D(23,6,10,29)        -172.7376         estimate D2E/DX2                !
 ! D76   D(1,7,9,8)             60.4751         estimate D2E/DX2                !
 ! D77   D(24,7,9,8)          -178.8978         estimate D2E/DX2                !
 ! D78   D(25,7,9,8)           -61.0392         estimate D2E/DX2                !
 ! D79   D(10,8,9,7)           -59.6891         estimate D2E/DX2                !
 ! D80   D(26,8,9,7)            62.3023         estimate D2E/DX2                !
 ! D81   D(27,8,9,7)           178.9723         estimate D2E/DX2                !
 ! D82   D(9,8,10,6)            55.6642         estimate D2E/DX2                !
 ! D83   D(9,8,10,28)          177.1473         estimate D2E/DX2                !
 ! D84   D(9,8,10,29)          -65.6682         estimate D2E/DX2                !
 ! D85   D(26,8,10,6)          -65.3634         estimate D2E/DX2                !
 ! D86   D(26,8,10,28)          56.1196         estimate D2E/DX2                !
 ! D87   D(26,8,10,29)         173.3041         estimate D2E/DX2                !
 ! D88   D(27,8,10,6)          173.9077         estimate D2E/DX2                !
 ! D89   D(27,8,10,28)         -64.6092         estimate D2E/DX2                !
 ! D90   D(27,8,10,29)          52.5753         estimate D2E/DX2                !
 --------------------------------------------------------------------------------
 Trust Radius=3.00D-01 FncErr=1.00D-07 GrdErr=1.00D-06 EigMax=2.50D+02 EigMin=1.00D-04
 Number of steps in this run=    186 maximum allowed number of steps=    186.
 GradGradGradGradGradGradGradGradGradGradGradGradGradGradGradGradGradGrad

                          Input orientation:                          
 ---------------------------------------------------------------------
 Center     Atomic      Atomic             Coordinates (Angstroms)
 Number     Number       Type             X           Y           Z
 ---------------------------------------------------------------------
      1          6           0        1.226886    0.554792    0.323834
      2          6           0       -3.802323   -0.573323   -0.570056
      3          6           0       -1.184528    0.238386    0.566454
      4          6           0       -2.415097   -0.929955   -1.107090
      5          6           0       -3.678736    0.388281    0.625842
      6          6           0        1.513703   -0.918036    0.606089
      7          6           0        2.105935    1.054106   -0.814502
      8          6           0        3.813254   -0.496226   -0.310354
      9          8           0        3.469978    0.862722   -0.514798
     10          6           0        3.018267   -1.088367    0.841538
     11          8           0       -0.103927    0.877819   -0.049955
     12          6           0       -2.380045    1.184901    0.523298
     13          8           0       -1.473363   -0.990234   -0.047543
     14          1           0        1.465244    1.125537    1.218165
     15          1           0       -4.330569   -1.473365   -0.272359
     16          1           0       -4.375434   -0.116278   -1.371679
     17          1           0       -0.929961   -0.002836    1.588096
     18          1           0       -2.404963   -1.904325   -1.574264
     19          1           0       -2.081602   -0.206797   -1.842761
     20          1           0       -3.677481   -0.174837    1.554938
     21          1           0       -4.530060    1.059005    0.667971
     22          1           0        0.959940   -1.267384    1.469147
     23          1           0        1.211727   -1.518725   -0.246691
     24          1           0        1.962771    2.114618   -0.968772
     25          1           0        1.851653    0.530251   -1.733024
     26          1           0        3.628007   -1.049796   -1.228124
     27          1           0        4.875492   -0.514155   -0.108959
     28          1           0        3.263561   -2.141151    0.943245
     29          1           0        3.309714   -0.595959    1.765830
     30          1           0       -2.360249    1.746845   -0.405747
     31          1           0       -2.283182    1.899550    1.333032
 ---------------------------------------------------------------------
                    Distance matrix (angstroms):
                    1          2          3          4          5
     1  C    0.000000
     2  C    5.231121   0.000000
     3  C    2.444155   2.967049   0.000000
     4  C    4.185219   1.529702   2.383290   0.000000
     5  C    4.917729   1.539522   2.499414   2.517456   0.000000
     6  C    1.526812   5.455481   2.935870   4.286093   5.354277
     7  C    1.522449   6.133171   3.660544   4.945891   5.998361
     8  C    2.862889   7.620394   5.127014   6.294066   7.601890
     9  O    2.414454   7.412937   4.819059   6.180502   7.254672
    10  C    2.485364   6.984147   4.415816   5.774400   6.861258
    11  O    1.419552   4.006801   1.398761   3.118828   3.670914
    12  C    3.666984   2.511902   1.525455   2.670582   1.526996
    13  O    3.133109   2.422992   1.403540   1.418850   2.686526
    14  H    1.087379   5.816453   2.869330   4.968793   5.230193
    15  H    5.945938   1.085239   3.678488   2.158959   2.167343
    16  H    5.891612   1.086253   3.750204   2.138925   2.174870
    17  H    2.561503   3.637793   1.080160   3.213908   2.938481
    18  H    4.779159   2.175457   3.265478   1.080625   3.423303
    19  H    4.027436   2.171405   2.609070   1.084153   2.999826
    20  H    5.108893   2.165635   2.713424   3.041416   1.086427
    21  H    5.789222   2.174122   3.446202   3.402921   1.084619
    22  H    2.168716   5.226779   2.771451   4.259311   4.996970
    23  H    2.150628   5.112636   3.080695   3.773697   5.321148
    24  H    2.155322   6.373406   3.972739   5.334256   6.111435
    25  H    2.149791   5.876888   3.819840   4.552928   6.014117
    26  H    3.278515   7.474616   5.295320   6.045504   7.674226
    27  H    3.826524   8.690258   6.143805   7.370335   8.633026
    28  H    3.435087   7.394246   5.058623   6.157761   7.395557
    29  H    2.782401   7.485850   4.725764   6.413944   7.148897
    30  H    3.849781   2.736742   2.145447   2.767697   2.155987
    31  H    3.891970   3.470538   2.134045   3.738676   2.175229
                    6          7          8          9         10
     6  C    0.000000
     7  C    2.501632   0.000000
     8  C    2.511121   2.360642   0.000000
     9  O    2.873064   1.409632   1.416466   0.000000
    10  C    1.532371   2.857448   1.519701   2.418768   0.000000
    11  O    2.504439   2.345016   4.159341   3.604040   3.795885
    12  C    4.426113   4.683037   6.471330   5.950144   5.866072
    13  O    3.058596   4.192723   5.316148   5.299848   4.579829
    14  H    2.133817   2.132445   3.237227   2.662929   2.730403
    15  H    5.935956   6.936181   8.202323   8.146448   7.442740
    16  H    6.263890   6.609719   8.265917   7.952558   7.778824
    17  H    2.788086   4.013262   5.132800   4.952859   4.162239
    18  H    4.591585   5.447729   6.499726   6.579814   5.992772
    19  H    4.407828   4.492511   6.097653   5.807529   5.830205
    20  H    5.329264   6.369650   7.726171   7.513089   6.795331
    21  H    6.359213   6.799572   8.543228   8.089381   7.849750
    22  H    1.083313   3.452198   3.450030   3.843655   2.159317
    23  H    1.085933   2.782351   2.795979   3.292851   2.152449
    24  H    3.446569   1.081194   3.267156   2.011221   3.827585
    25  H    2.771858   1.087550   2.631639   2.052702   3.257189
    26  H    2.802138   2.629485   1.087685   2.047323   2.157955
    27  H    3.460641   3.260012   1.081310   2.008971   2.163897
    28  H    2.161409   3.826152   2.139965   3.345407   1.085757
    29  H    2.162033   3.290883   2.138700   2.711955   1.087071
    30  H    4.809668   4.538036   6.569064   5.897891   6.206656
    31  H    4.783678   4.958934   6.753295   6.130933   6.105291
                   11         12         13         14         15
    11  O    0.000000
    12  C    2.367199   0.000000
    13  O    2.316243   2.424695   0.000000
    14  H    2.032681   3.908019   3.835872   0.000000
    15  H    4.841697   3.391754   2.906473   6.524370   0.000000
    16  H    4.580497   3.043942   3.307439   6.508680   1.747055
    17  H    2.034968   2.155750   1.986342   2.673403   4.145827
    18  H    3.919006   3.734127   2.008561   5.652984   2.364031
    19  H    2.881275   2.761182   2.050984   4.870780   3.021293
    20  H    4.056360   2.143947   2.844460   5.315262   2.334890
    21  H    4.487639   2.158552   3.748965   6.020865   2.708674
    22  H    2.835733   4.250157   2.880646   2.458535   5.573577
    23  H    2.740999   4.561064   2.743842   3.033512   5.542541
    24  H    2.577816   4.685157   4.721841   2.451226   7.277688
    25  H    2.603424   4.840126   4.025972   3.035324   6.660922
    26  H    4.362466   6.645152   5.236535   3.923512   8.026944
    27  H    5.170656   7.478593   6.366976   4.009943   9.257340
    28  H    4.630400   6.564241   4.974406   3.739088   7.719744
    29  H    4.137879   6.090050   5.130458   2.581774   7.956003
    30  H    2.443928   1.085955   2.899393   4.202084   3.777526
    31  H    2.775921   1.084331   3.303429   3.829228   4.259769
                   16         17         18         19         20
    16  H    0.000000
    17  H    4.543613   0.000000
    18  H    2.668503   3.973891   0.000000
    19  H    2.343454   3.624729   1.748787   0.000000
    20  H    3.009261   2.753098   3.795041   3.753959   0.000000
    21  H    2.359104   3.864563   4.280769   3.728401   1.742403
    22  H    6.153174   2.277050   4.581552   4.620017   4.765154
    23  H    5.869312   3.201748   3.871897   3.887751   5.381102
    24  H    6.731424   4.403304   5.966207   4.744447   6.589625
    25  H    6.270979   4.364791   4.906235   4.003221   6.471411
    26  H    8.058978   5.459148   6.103012   5.804142   7.866457
    27  H    9.345181   6.069986   7.555443   7.176468   8.719922
    28  H    8.234879   4.751195   6.206940   6.330428   7.240071
    29  H    8.314779   4.284650   6.747265   6.499205   7.003050
    30  H    2.909506   3.013721   3.833859   2.441182   3.045037
    31  H    3.969451   2.348476   4.789224   3.816149   2.509262
                   21         22         23         24         25
    21  H    0.000000
    22  H    6.016151   0.000000
    23  H    6.359986   1.752332   0.000000
    24  H    6.778650   4.288013   3.779768   0.000000
    25  H    6.838905   3.778961   2.610937   1.762568   0.000000
    26  H    8.636914   3.800157   2.649814   3.585218   2.430413
    27  H    9.567803   4.288277   3.801487   4.016674   3.587753
    28  H    8.429549   2.519268   2.452220   4.843494   4.036371
    29  H    8.087413   2.461762   3.050129   4.079158   3.954272
    30  H    2.516759   4.860500   4.842340   4.375015   4.580599
    31  H    2.489434   4.534957   5.137560   4.834529   5.326588
                   26         27         28         29         30
    26  H    0.000000
    27  H    1.759449   0.000000
    28  H    2.457381   2.520431   0.000000
    29  H    3.044838   2.444010   1.751112   0.000000
    30  H    6.660084   7.586577   6.968754   6.507915   0.000000
    31  H    7.085218   7.691029   6.873540   6.139655   1.747172
                   31
    31  H    0.000000
 Stoichiometry    C10H18O3
 Framework group  C1[X(C10H18O3)]
 Deg. of freedom    87
 Full point group                 C1      NOp   1
 Largest Abelian subgroup         C1      NOp   1
 Largest concise Abelian subgroup C1      NOp   1
                         Standard orientation:                         
 ---------------------------------------------------------------------
 Center     Atomic      Atomic             Coordinates (Angstroms)
 Number     Number       Type             X           Y           Z
 ---------------------------------------------------------------------
      1          6           0        1.226886   -0.554792   -0.323834
      2          6           0       -3.802323    0.573323    0.570056
      3          6           0       -1.184528   -0.238386   -0.566454
      4          6           0       -2.415097    0.929955    1.107090
      5          6           0       -3.678736   -0.388281   -0.625842
      6          6           0        1.513703    0.918036   -0.606089
      7          6           0        2.105935   -1.054106    0.814502
      8          6           0        3.813254    0.496226    0.310354
      9          8           0        3.469978   -0.862722    0.514798
     10          6           0        3.018267    1.088367   -0.841538
     11          8           0       -0.103927   -0.877819    0.049955
     12          6           0       -2.380045   -1.184901   -0.523298
     13          8           0       -1.473363    0.990234    0.047543
     14          1           0        1.465244   -1.125537   -1.218165
     15          1           0       -4.330569    1.473365    0.272359
     16          1           0       -4.375434    0.116278    1.371679
     17          1           0       -0.929961    0.002836   -1.588096
     18          1           0       -2.404963    1.904325    1.574264
     19          1           0       -2.081602    0.206797    1.842761
     20          1           0       -3.677481    0.174837   -1.554938
     21          1           0       -4.530060   -1.059005   -0.667971
     22          1           0        0.959940    1.267384   -1.469147
     23          1           0        1.211727    1.518725    0.246691
     24          1           0        1.962771   -2.114618    0.968772
     25          1           0        1.851653   -0.530251    1.733024
     26          1           0        3.628007    1.049796    1.228124
     27          1           0        4.875492    0.514155    0.108959
     28          1           0        3.263561    2.141151   -0.943245
     29          1           0        3.309714    0.595959   -1.765830
     30          1           0       -2.360249   -1.746845    0.405747
     31          1           0       -2.283182   -1.899550   -1.333032
 ---------------------------------------------------------------------
 Rotational constants (GHZ):           2.1557358           0.3736065           0.3573994
 Standard basis: 6-311++G(2d,2p) (5D, 7F)
 There are   557 symmetry adapted cartesian basis functions of A   symmetry.
 There are   531 symmetry adapted basis functions of A   symmetry.
   531 basis functions,   762 primitive gaussians,   557 cartesian basis functions
    51 alpha electrons       51 beta electrons
       nuclear repulsion energy       885.6985116866 Hartrees.
 NAtoms=   31 NActive=   31 NUniq=   31 SFac= 1.00D+00 NAtFMM=   60 NAOKFM=F Big=F
 Integral buffers will be    131072 words long.
 Raffenetti 2 integral format.
 Two-electron integral symmetry is turned on.
 ------------------------------------------------------------------------------
 Polarizable Continuum Model (PCM)
 =================================
 Model                : PCM.
 Atomic radii         : UFF (Universal Force Field).
 Polarization charges : Total charges.
 Charge compensation  : None.
 Solution method      : On-the-fly selection.
 Cavity type          : Scaled VdW (van der Waals Surface) (Alpha=1.100).
 Cavity algorithm     : GePol (No added spheres)
                        Default sphere list used, NSphG=   31.
                        Lebedev-Laikov grids with approx.  5.0 points / Ang**2.
                        Smoothing algorithm: York/Karplus (Gamma=1.0000).
                        Polarization charges: spherical gaussians, with
                                              point-specific exponents (IZeta= 3).
                        Self-potential: point-specific (ISelfS= 7).
                        Self-field    : sphere-specific E.n sum rule (ISelfD= 2).
 1st derivatives      : Analytical E(r).r(x)/FMM algorithm (CHGder, D1EAlg=3).
                        Cavity 1st derivative terms included.
 Solvent              : Water, Eps=  78.355300 Eps(inf)=   1.777849
 ------------------------------------------------------------------------------
 One-electron integrals computed using PRISM.
 NBasis=   531 RedAO= T EigKep=  4.97D-06  NBF=   531
 NBsUse=   531 1.00D-06 EigRej= -1.00D+00 NBFU=   531
 ExpMin= 3.60D-02 ExpMax= 8.59D+03 ExpMxC= 1.30D+03 IAcc=3 IRadAn=         5 AccDes= 0.00D+00
 Harris functional with IExCor= 1009 and IRadAn=       5 diagonalized for initial guess.
 HarFok:  IExCor= 1009 AccDes= 0.00D+00 IRadAn=         5 IDoV= 1 UseB2=F ITyADJ=14
 ICtDFT=  3500011 ScaDFX=  1.000000  1.000000  1.000000  1.000000
 FoFCou: FMM=F IPFlag=           0 FMFlag=      100000 FMFlg1=           0
         NFxFlg=           0 DoJE=T BraDBF=F KetDBF=T FulRan=T
         wScrn=  0.000000 ICntrl=       500 IOpCl=  0 I1Cent=   200000004 NGrid=           0
         NMat0=    1 NMatS0=      1 NMatT0=    0 NMatD0=    1 NMtDS0=    0 NMtDT0=    0
 Petite list used in FoFCou.
 Requested convergence on RMS density matrix=1.00D-08 within 128 cycles.
 Requested convergence on MAX density matrix=1.00D-06.
 Requested convergence on             energy=1.00D-06.
 No special actions if energy rises.
 Inv3:  Mode=1 IEnd=    12966723.
 Iteration    1 A*A^-1 deviation from unit magnitude is 4.55D-15 for   2070.
 Iteration    1 A*A^-1 deviation from orthogonality  is 2.52D-15 for   1884    755.
 Iteration    1 A^-1*A deviation from unit magnitude is 4.33D-15 for   2070.
 Iteration    1 A^-1*A deviation from orthogonality  is 1.89D-15 for   2061    368.
 Error on total polarization charges =  0.01489
 SCF Done:  E(RM062X) =  -617.493268860     A.U. after   12 cycles
            NFock= 12  Conv=0.51D-08     -V/T= 2.0035

 **********************************************************************

            Population analysis using the SCF density.

 **********************************************************************

 Orbital symmetries:
       Occupied  (A) (A) (A) (A) (A) (A) (A) (A) (A) (A) (A) (A)
                 (A) (A) (A) (A) (A) (A) (A) (A) (A) (A) (A) (A)
                 (A) (A) (A) (A) (A) (A) (A) (A) (A) (A) (A) (A)
                 (A) (A) (A) (A) (A) (A) (A) (A) (A) (A) (A) (A)
                 (A) (A) (A)
       Virtual   (A) (A) (A) (A) (A) (A) (A) (A) (A) (A) (A) (A)
                 (A) (A) (A) (A) (A) (A) (A) (A) (A) (A) (A) (A)
                 (A) (A) (A) (A) (A) (A) (A) (A) (A) (A) (A) (A)
                 (A) (A) (A) (A) (A) (A) (A) (A) (A) (A) (A) (A)
                 (A) (A) (A) (A) (A) (A) (A) (A) (A) (A) (A) (A)
                 (A) (A) (A) (A) (A) (A) (A) (A) (A) (A) (A) (A)
                 (A) (A) (A) (A) (A) (A) (A) (A) (A) (A) (A) (A)
                 (A) (A) (A) (A) (A) (A) (A) (A) (A) (A) (A) (A)
                 (A) (A) (A) (A) (A) (A) (A) (A) (A) (A) (A) (A)
                 (A) (A) (A) (A) (A) (A) (A) (A) (A) (A) (A) (A)
                 (A) (A) (A) (A) (A) (A) (A) (A) (A) (A) (A) (A)
                 (A) (A) (A) (A) (A) (A) (A) (A) (A) (A) (A) (A)
                 (A) (A) (A) (A) (A) (A) (A) (A) (A) (A) (A) (A)
                 (A) (A) (A) (A) (A) (A) (A) (A) (A) (A) (A) (A)
                 (A) (A) (A) (A) (A) (A) (A) (A) (A) (A) (A) (A)
                 (A) (A) (A) (A) (A) (A) (A) (A) (A) (A) (A) (A)
                 (A) (A) (A) (A) (A) (A) (A) (A) (A) (A) (A) (A)
                 (A) (A) (A) (A) (A) (A) (A) (A) (A) (A) (A) (A)
                 (A) (A) (A) (A) (A) (A) (A) (A) (A) (A) (A) (A)
                 (A) (A) (A) (A) (A) (A) (A) (A) (A) (A) (A) (A)
                 (A) (A) (A) (A) (A) (A) (A) (A) (A) (A) (A) (A)
                 (A) (A) (A) (A) (A) (A) (A) (A) (A) (A) (A) (A)
                 (A) (A) (A) (A) (A) (A) (A) (A) (A) (A) (A) (A)
                 (A) (A) (A) (A) (A) (A) (A) (A) (A) (A) (A) (A)
                 (A) (A) (A) (A) (A) (A) (A) (A) (A) (A) (A) (A)
                 (A) (A) (A) (A) (A) (A) (A) (A) (A) (A) (A) (A)
                 (A) (A) (A) (A) (A) (A) (A) (A) (A) (A) (A) (A)
                 (A) (A) (A) (A) (A) (A) (A) (A) (A) (A) (A) (A)
                 (A) (A) (A) (A) (A) (A) (A) (A) (A) (A) (A) (A)
                 (A) (A) (A) (A) (A) (A) (A) (A) (A) (A) (A) (A)
                 (A) (A) (A) (A) (A) (A) (A) (A) (A) (A) (A) (A)
                 (A) (A) (A) (A) (A) (A) (A) (A) (A) (A) (A) (A)
                 (A) (A) (A) (A) (A) (A) (A) (A) (A) (A) (A) (A)
                 (A) (A) (A) (A) (A) (A) (A) (A) (A) (A) (A) (A)
                 (A) (A) (A) (A) (A) (A) (A) (A) (A) (A) (A) (A)
                 (A) (A) (A) (A) (A) (A) (A) (A) (A) (A) (A) (A)
                 (A) (A) (A) (A) (A) (A) (A) (A) (A) (A) (A) (A)
                 (A) (A) (A) (A) (A) (A) (A) (A) (A) (A) (A) (A)
                 (A) (A) (A) (A) (A) (A) (A) (A) (A) (A) (A) (A)
                 (A) (A) (A) (A) (A) (A) (A) (A) (A) (A) (A) (A)
 The electronic state is 1-A.
 Alpha  occ. eigenvalues --  -19.63004 -19.62934 -19.62624 -10.63455 -10.58765
 Alpha  occ. eigenvalues --  -10.57931 -10.57860 -10.57705 -10.53167 -10.53112
 Alpha  occ. eigenvalues --  -10.53110 -10.53059 -10.52754  -1.19950  -1.16827
 Alpha  occ. eigenvalues --   -1.13757  -0.90822  -0.89676  -0.87732  -0.84410
 Alpha  occ. eigenvalues --   -0.75427  -0.74755  -0.73087  -0.70323  -0.65984
 Alpha  occ. eigenvalues --   -0.62617  -0.60616  -0.59155  -0.57475  -0.57136
 Alpha  occ. eigenvalues --   -0.55539  -0.53237  -0.51826  -0.50739  -0.49522
 Alpha  occ. eigenvalues --   -0.48057  -0.46812  -0.46050  -0.45512  -0.44393
 Alpha  occ. eigenvalues --   -0.44069  -0.43548  -0.41031  -0.40620  -0.39305
 Alpha  occ. eigenvalues --   -0.38309  -0.37208  -0.35935  -0.34430  -0.33696
 Alpha  occ. eigenvalues --   -0.32367
 Alpha virt. eigenvalues --   -0.00098   0.00778   0.00820   0.01021   0.02154
 Alpha virt. eigenvalues --    0.02392   0.02575   0.03415   0.03605   0.04235
 Alpha virt. eigenvalues --    0.04513   0.04915   0.05600   0.05691   0.06921
 Alpha virt. eigenvalues --    0.07212   0.07495   0.08327   0.08773   0.09397
 Alpha virt. eigenvalues --    0.09479   0.10543   0.10754   0.11479   0.11929
 Alpha virt. eigenvalues --    0.12097   0.12297   0.12703   0.13414   0.13462
 Alpha virt. eigenvalues --    0.13841   0.14210   0.14376   0.14836   0.14967
 Alpha virt. eigenvalues --    0.15258   0.15338   0.15600   0.15802   0.16021
 Alpha virt. eigenvalues --    0.16467   0.16881   0.16982   0.17207   0.17697
 Alpha virt. eigenvalues --    0.17888   0.18588   0.18653   0.18874   0.19162
 Alpha virt. eigenvalues --    0.19632   0.19954   0.20331   0.21009   0.21271
 Alpha virt. eigenvalues --    0.22258   0.22602   0.22880   0.23921   0.24980
 Alpha virt. eigenvalues --    0.25250   0.25386   0.26141   0.26420   0.26712
 Alpha virt. eigenvalues --    0.27072   0.27838   0.28085   0.29645   0.29818
 Alpha virt. eigenvalues --    0.29939   0.30231   0.30711   0.30799   0.32027
 Alpha virt. eigenvalues --    0.32367   0.32737   0.33368   0.33950   0.34256
 Alpha virt. eigenvalues --    0.34885   0.35295   0.35754   0.35900   0.36415
 Alpha virt. eigenvalues --    0.36615   0.36853   0.37435   0.37669   0.38248
 Alpha virt. eigenvalues --    0.38594   0.38957   0.39642   0.40024   0.40427
 Alpha virt. eigenvalues --    0.41176   0.42085   0.42899   0.43488   0.43961
 Alpha virt. eigenvalues --    0.45562   0.47804   0.49022   0.49916   0.50509
 Alpha virt. eigenvalues --    0.51270   0.51949   0.53416   0.54336   0.55606
 Alpha virt. eigenvalues --    0.55757   0.56603   0.57513   0.57924   0.58633
 Alpha virt. eigenvalues --    0.59561   0.59989   0.60409   0.60801   0.61494
 Alpha virt. eigenvalues --    0.61879   0.62477   0.62841   0.63237   0.63760
 Alpha virt. eigenvalues --    0.64549   0.65300   0.66160   0.66825   0.66948
 Alpha virt. eigenvalues --    0.67798   0.68830   0.69192   0.69651   0.70317
 Alpha virt. eigenvalues --    0.71144   0.71381   0.71886   0.72366   0.72759
 Alpha virt. eigenvalues --    0.73167   0.74309   0.74829   0.75289   0.75615
 Alpha virt. eigenvalues --    0.76407   0.76945   0.77807   0.78085   0.79717
 Alpha virt. eigenvalues --    0.80567   0.80679   0.83354   0.84568   0.84953
 Alpha virt. eigenvalues --    0.85275   0.87408   0.88445   0.89458   0.90584
 Alpha virt. eigenvalues --    0.90789   0.91040   0.92458   0.93836   0.95493
 Alpha virt. eigenvalues --    0.96453   0.97978   0.98708   1.00721   1.01200
 Alpha virt. eigenvalues --    1.03061   1.04216   1.05172   1.06034   1.07672
 Alpha virt. eigenvalues --    1.08337   1.09306   1.09846   1.09939   1.11938
 Alpha virt. eigenvalues --    1.12428   1.12716   1.13711   1.15521   1.16112
 Alpha virt. eigenvalues --    1.16780   1.17497   1.17829   1.19311   1.20219
 Alpha virt. eigenvalues --    1.21014   1.22099   1.22620   1.23089   1.24271
 Alpha virt. eigenvalues --    1.25220   1.25545   1.26287   1.26946   1.28109
 Alpha virt. eigenvalues --    1.28444   1.29055   1.29858   1.30639   1.30894
 Alpha virt. eigenvalues --    1.31588   1.32273   1.32750   1.33585   1.34123
 Alpha virt. eigenvalues --    1.34733   1.35327   1.36218   1.36926   1.37915
 Alpha virt. eigenvalues --    1.38846   1.39652   1.40172   1.40951   1.41941
 Alpha virt. eigenvalues --    1.42466   1.42929   1.44191   1.44695   1.45808
 Alpha virt. eigenvalues --    1.46037   1.46369   1.46959   1.47620   1.48374
 Alpha virt. eigenvalues --    1.48905   1.49749   1.50325   1.51201   1.52057
 Alpha virt. eigenvalues --    1.52487   1.52808   1.54024   1.54666   1.55125
 Alpha virt. eigenvalues --    1.55755   1.56345   1.57278   1.57785   1.58163
 Alpha virt. eigenvalues --    1.59338   1.59685   1.60823   1.61925   1.62603
 Alpha virt. eigenvalues --    1.62888   1.64124   1.64665   1.64815   1.66192
 Alpha virt. eigenvalues --    1.66818   1.69072   1.69286   1.70679   1.70743
 Alpha virt. eigenvalues --    1.71986   1.73505   1.75839   1.75959   1.77045
 Alpha virt. eigenvalues --    1.77641   1.80473   1.80891   1.82717   1.83586
 Alpha virt. eigenvalues --    1.87456   1.88929   1.91502   1.93709   1.97205
 Alpha virt. eigenvalues --    2.01227   2.02982   2.09144   2.11102   2.20819
 Alpha virt. eigenvalues --    2.22423   2.27091   2.33434   2.36073   2.39727
 Alpha virt. eigenvalues --    2.43021   2.43471   2.46569   2.48093   2.51141
 Alpha virt. eigenvalues --    2.56559   2.76332   2.77135   2.79201   2.81056
 Alpha virt. eigenvalues --    2.87081   2.89406   2.90178   2.91550   2.93509
 Alpha virt. eigenvalues --    2.95090   2.97452   2.99678   3.02156   3.03756
 Alpha virt. eigenvalues --    3.06878   3.08167   3.08651   3.08988   3.10480
 Alpha virt. eigenvalues --    3.13286   3.14751   3.17515   3.19493   3.21543
 Alpha virt. eigenvalues --    3.26249   3.29177   3.30530   3.31404   3.33368
 Alpha virt. eigenvalues --    3.35241   3.36325   3.36877   3.39473   3.40893
 Alpha virt. eigenvalues --    3.42382   3.42930   3.43956   3.44229   3.45571
 Alpha virt. eigenvalues --    3.47502   3.48235   3.49263   3.51145   3.51869
 Alpha virt. eigenvalues --    3.52889   3.53713   3.54510   3.55074   3.56357
 Alpha virt. eigenvalues --    3.57495   3.58202   3.58404   3.59230   3.59803
 Alpha virt. eigenvalues --    3.60413   3.61056   3.62071   3.63450   3.65223
 Alpha virt. eigenvalues --    3.66018   3.66966   3.68981   3.69905   3.70152
 Alpha virt. eigenvalues --    3.71131   3.71177   3.72565   3.73439   3.74365
 Alpha virt. eigenvalues --    3.75436   3.76370   3.76712   3.77648   3.77912
 Alpha virt. eigenvalues --    3.80139   3.81001   3.81789   3.83885   3.84773
 Alpha virt. eigenvalues --    3.87136   3.87882   3.89443   3.89964   3.90418
 Alpha virt. eigenvalues --    3.92484   3.95277   3.96405   3.97373   3.98528
 Alpha virt. eigenvalues --    3.98917   4.03178   4.03378   4.04228   4.04406
 Alpha virt. eigenvalues --    4.05273   4.05938   4.06309   4.07102   4.07918
 Alpha virt. eigenvalues --    4.08654   4.09320   4.09934   4.10634   4.11724
 Alpha virt. eigenvalues --    4.12021   4.13986   4.14456   4.16264   4.16546
 Alpha virt. eigenvalues --    4.17144   4.18203   4.19332   4.20025   4.20760
 Alpha virt. eigenvalues --    4.21621   4.22562   4.23480   4.25072   4.26052
 Alpha virt. eigenvalues --    4.27017   4.27763   4.29744   4.30682   4.32223
 Alpha virt. eigenvalues --    4.33788   4.34935   4.36280   4.37360   4.38008
 Alpha virt. eigenvalues --    4.41340   4.42958   4.46090   4.50614   4.52702
 Alpha virt. eigenvalues --    4.57297   4.59747   4.75128   4.76233   4.83243
 Alpha virt. eigenvalues --    4.84596   4.91858   4.94909   4.99937   5.00788
 Alpha virt. eigenvalues --    5.02867   5.06780   5.08436   5.11622   5.13155
 Alpha virt. eigenvalues --    5.13606   5.15679   5.18203   5.30249   5.37436
 Alpha virt. eigenvalues --    5.39010   5.56952   5.59267   5.67727   5.87307
 Alpha virt. eigenvalues --    5.89518   6.05254   7.03283   7.04990   7.06344
 Alpha virt. eigenvalues --    7.06848   7.09777   7.12555   7.13384   7.18960
 Alpha virt. eigenvalues --    7.27833   7.36469   7.39590   7.45328   7.53839
 Alpha virt. eigenvalues --    7.55089   7.60931  23.96022  23.98612  24.04602
 Alpha virt. eigenvalues --   24.07000  24.09967  24.11608  24.13758  24.15122
 Alpha virt. eigenvalues --   24.18010  24.21921  50.17438  50.18615  50.25055
          Condensed to atoms (all electrons):
               1          2          3          4          5          6
     1  C    7.149440   0.012440  -0.676203   0.060256  -0.043944  -0.781591
     2  C    0.012440   5.990053   0.433873  -0.272814  -0.323536  -0.004797
     3  C   -0.676203   0.433873   6.755033  -0.592778  -0.247532   0.348265
     4  C    0.060256  -0.272814  -0.592778   5.782531   0.328263  -0.036296
     5  C   -0.043944  -0.323536  -0.247532   0.328263   5.836687  -0.028546
     6  C   -0.781591  -0.004797   0.348265  -0.036296  -0.028546   6.678199
     7  C   -0.533133  -0.005957   0.024091   0.009772  -0.000634   0.245296
     8  C    0.186474  -0.000231  -0.012153   0.000128   0.001963  -0.106437
     9  O    0.009485  -0.000115  -0.008092   0.000811  -0.000009  -0.062494
    10  C   -0.149021  -0.000785  -0.191605  -0.000043  -0.004913  -0.576571
    11  O    0.195345   0.012420   0.302554   0.007814  -0.013518  -0.071309
    12  C    0.175322  -0.151988  -0.704257   0.049167   0.155287  -0.113020
    13  O   -0.065969   0.016612   0.311275   0.003127  -0.127212   0.047605
    14  H    0.590566  -0.001901  -0.049923   0.006432  -0.001464  -0.059952
    15  H   -0.004314   0.473687   0.014892  -0.080035  -0.049680   0.002910
    16  H    0.002445   0.487014   0.018479  -0.055935  -0.066691  -0.000572
    17  H    0.003783   0.026918   0.493941  -0.063768  -0.021956   0.008179
    18  H    0.005257  -0.018143   0.008065   0.435705  -0.004958  -0.003464
    19  H   -0.002109  -0.069589  -0.000690   0.452071  -0.009952   0.011349
    20  H    0.002582  -0.072321  -0.032570   0.007510   0.461103   0.001097
    21  H   -0.000223  -0.045228   0.032455   0.011009   0.450321  -0.001031
    22  H   -0.037874   0.001161   0.010488  -0.000515  -0.002630   0.385469
    23  H    0.029669   0.004070   0.013481  -0.011170  -0.002772   0.470585
    24  H   -0.096283   0.001130   0.011946  -0.000340  -0.001709   0.038573
    25  H    0.051573  -0.004020  -0.027541   0.009763   0.002763  -0.051209
    26  H    0.011768  -0.000378  -0.002344   0.001311   0.000348  -0.024603
    27  H    0.007518   0.000100  -0.002337  -0.000291  -0.000048   0.007545
    28  H   -0.008909   0.000039   0.000875  -0.000066  -0.000240  -0.046879
    29  H   -0.035132   0.000003  -0.002489   0.000048  -0.000125   0.009604
    30  H    0.001259  -0.000274  -0.044524  -0.010534  -0.054753   0.004876
    31  H   -0.000318   0.000713  -0.033398   0.008704  -0.011294  -0.001139
               7          8          9         10         11         12
     1  C   -0.533133   0.186474   0.009485  -0.149021   0.195345   0.175322
     2  C   -0.005957  -0.000231  -0.000115  -0.000785   0.012420  -0.151988
     3  C    0.024091  -0.012153  -0.008092  -0.191605   0.302554  -0.704257
     4  C    0.009772   0.000128   0.000811  -0.000043   0.007814   0.049167
     5  C   -0.000634   0.001963  -0.000009  -0.004913  -0.013518   0.155287
     6  C    0.245296  -0.106437  -0.062494  -0.576571  -0.071309  -0.113020
     7  C    6.006707  -0.238092   0.150407   0.102522  -0.171031  -0.019468
     8  C   -0.238092   5.401291   0.111767   0.084443   0.010430  -0.001677
     9  O    0.150407   0.111767   8.364874   0.005199  -0.002928   0.000665
    10  C    0.102522   0.084443   0.005199   6.420236  -0.011486  -0.023251
    11  O   -0.171031   0.010430  -0.002928  -0.011486   8.372432  -0.203209
    12  C   -0.019468  -0.001677   0.000665  -0.023251  -0.203209   6.488558
    13  O   -0.008545   0.002290   0.000028   0.013420  -0.048866  -0.059937
    14  H   -0.109254   0.012302  -0.006391  -0.021706  -0.057047   0.006681
    15  H   -0.000926   0.000043  -0.000011   0.000089  -0.000445   0.024952
    16  H    0.000853   0.000006   0.000005   0.000144   0.000902  -0.024818
    17  H   -0.013626   0.002838  -0.001549  -0.007562  -0.033450  -0.004906
    18  H    0.003135  -0.000512   0.000041   0.000643  -0.000962  -0.017174
    19  H   -0.004255   0.000684   0.000031   0.001130   0.015204   0.007603
    20  H    0.002208  -0.000305   0.000016   0.000711   0.001170  -0.018877
    21  H   -0.000673   0.000054  -0.000008   0.000010  -0.003131  -0.073190
    22  H    0.008416  -0.005917  -0.000146   0.021838  -0.012297   0.008626
    23  H   -0.051852   0.004636  -0.001508  -0.094750   0.010333  -0.005414
    24  H    0.466734  -0.000104  -0.070915  -0.003806   0.003173   0.000260
    25  H    0.352920  -0.000560  -0.036646   0.027770   0.007518  -0.004674
    26  H   -0.024688   0.446004  -0.043577  -0.010192  -0.001074  -0.000276
    27  H    0.011133   0.433801  -0.070099  -0.049597   0.000620   0.000035
    28  H    0.000466  -0.034019   0.007503   0.452840  -0.001116  -0.000747
    29  H    0.009225  -0.084199  -0.002967   0.472503   0.001161   0.000569
    30  H    0.006300  -0.000856   0.000038  -0.001249  -0.012256   0.478383
    31  H   -0.001200  -0.000079   0.000232   0.000671  -0.001600   0.417052
              13         14         15         16         17         18
     1  C   -0.065969   0.590566  -0.004314   0.002445   0.003783   0.005257
     2  C    0.016612  -0.001901   0.473687   0.487014   0.026918  -0.018143
     3  C    0.311275  -0.049923   0.014892   0.018479   0.493941   0.008065
     4  C    0.003127   0.006432  -0.080035  -0.055935  -0.063768   0.435705
     5  C   -0.127212  -0.001464  -0.049680  -0.066691  -0.021956  -0.004958
     6  C    0.047605  -0.059952   0.002910  -0.000572   0.008179  -0.003464
     7  C   -0.008545  -0.109254  -0.000926   0.000853  -0.013626   0.003135
     8  C    0.002290   0.012302   0.000043   0.000006   0.002838  -0.000512
     9  O    0.000028  -0.006391  -0.000011   0.000005  -0.001549   0.000041
    10  C    0.013420  -0.021706   0.000089   0.000144  -0.007562   0.000643
    11  O   -0.048866  -0.057047  -0.000445   0.000902  -0.033450  -0.000962
    12  C   -0.059937   0.006681   0.024952  -0.024818  -0.004906  -0.017174
    13  O    8.362770  -0.000437  -0.009493   0.012744  -0.080553  -0.066843
    14  H   -0.000437   0.446610  -0.000212   0.000241  -0.007849   0.000283
    15  H   -0.009493  -0.000212   0.513708  -0.021139   0.005203  -0.013948
    16  H    0.012744   0.000241  -0.021139   0.498570  -0.001361   0.000884
    17  H   -0.080553  -0.007849   0.005203  -0.001361   0.489951  -0.004959
    18  H   -0.066843   0.000283  -0.013948   0.000884  -0.004959   0.482515
    19  H   -0.027731   0.000105   0.007242  -0.002689   0.003288  -0.009956
    20  H    0.013291  -0.000010  -0.015064   0.006845  -0.008513   0.000953
    21  H   -0.006999  -0.000212  -0.001176  -0.005393   0.001939  -0.000460
    22  H   -0.005599  -0.004436  -0.000752   0.000179  -0.021629   0.001565
    23  H   -0.013698   0.004894   0.000537  -0.000079   0.008481  -0.003295
    24  H    0.000568  -0.011705  -0.000026   0.000014   0.000809   0.000171
    25  H   -0.001773   0.005463  -0.000124   0.000189  -0.003565   0.001018
    26  H   -0.000219   0.000313   0.000006  -0.000011  -0.001119   0.000234
    27  H    0.000208  -0.001215   0.000002   0.000001   0.000182  -0.000060
    28  H    0.001066  -0.003127   0.000018  -0.000009  -0.000151  -0.000065
    29  H   -0.000477  -0.004202   0.000013  -0.000014  -0.000191   0.000022
    30  H    0.003578  -0.000430  -0.003697   0.001358   0.000499  -0.000949
    31  H    0.006333   0.000295   0.000017  -0.000354  -0.019868   0.001392
              19         20         21         22         23         24
     1  C   -0.002109   0.002582  -0.000223  -0.037874   0.029669  -0.096283
     2  C   -0.069589  -0.072321  -0.045228   0.001161   0.004070   0.001130
     3  C   -0.000690  -0.032570   0.032455   0.010488   0.013481   0.011946
     4  C    0.452071   0.007510   0.011009  -0.000515  -0.011170  -0.000340
     5  C   -0.009952   0.461103   0.450321  -0.002630  -0.002772  -0.001709
     6  C    0.011349   0.001097  -0.001031   0.385469   0.470585   0.038573
     7  C   -0.004255   0.002208  -0.000673   0.008416  -0.051852   0.466734
     8  C    0.000684  -0.000305   0.000054  -0.005917   0.004636  -0.000104
     9  O    0.000031   0.000016  -0.000008  -0.000146  -0.001508  -0.070915
    10  C    0.001130   0.000711   0.000010   0.021838  -0.094750  -0.003806
    11  O    0.015204   0.001170  -0.003131  -0.012297   0.010333   0.003173
    12  C    0.007603  -0.018877  -0.073190   0.008626  -0.005414   0.000260
    13  O   -0.027731   0.013291  -0.006999  -0.005599  -0.013698   0.000568
    14  H    0.000105  -0.000010  -0.000212  -0.004436   0.004894  -0.011705
    15  H    0.007242  -0.015064  -0.001176  -0.000752   0.000537  -0.000026
    16  H   -0.002689   0.006845  -0.005393   0.000179  -0.000079   0.000014
    17  H    0.003288  -0.008513   0.001939  -0.021629   0.008481   0.000809
    18  H   -0.009956   0.000953  -0.000460   0.001565  -0.003295   0.000171
    19  H    0.489448   0.000009  -0.002097  -0.001104   0.001779  -0.000205
    20  H    0.000009   0.495598  -0.012194   0.001821  -0.000558   0.000151
    21  H   -0.002097  -0.012194   0.470631  -0.000133   0.000105  -0.000009
    22  H   -0.001104   0.001821  -0.000133   0.483598  -0.015705  -0.000109
    23  H    0.001779  -0.000558   0.000105  -0.015705   0.441664  -0.003203
    24  H   -0.000205   0.000151  -0.000009  -0.000109  -0.003203   0.490832
    25  H   -0.001509  -0.000040  -0.000061   0.000932  -0.004409  -0.026273
    26  H   -0.000120   0.000013  -0.000002   0.002663  -0.013110  -0.002639
    27  H    0.000077  -0.000015   0.000004   0.000216   0.000553   0.001860
    28  H    0.000047  -0.000019  -0.000005  -0.008902  -0.007137   0.001875
    29  H    0.000057   0.000022  -0.000003  -0.002488  -0.000857  -0.001120
    30  H   -0.009086   0.004806  -0.005686   0.000224  -0.000485   0.000144
    31  H   -0.000007   0.001199  -0.008585   0.001608  -0.000676  -0.000280
              25         26         27         28         29         30
     1  C    0.051573   0.011768   0.007518  -0.008909  -0.035132   0.001259
     2  C   -0.004020  -0.000378   0.000100   0.000039   0.000003  -0.000274
     3  C   -0.027541  -0.002344  -0.002337   0.000875  -0.002489  -0.044524
     4  C    0.009763   0.001311  -0.000291  -0.000066   0.000048  -0.010534
     5  C    0.002763   0.000348  -0.000048  -0.000240  -0.000125  -0.054753
     6  C   -0.051209  -0.024603   0.007545  -0.046879   0.009604   0.004876
     7  C    0.352920  -0.024688   0.011133   0.000466   0.009225   0.006300
     8  C   -0.000560   0.446004   0.433801  -0.034019  -0.084199  -0.000856
     9  O   -0.036646  -0.043577  -0.070099   0.007503  -0.002967   0.000038
    10  C    0.027770  -0.010192  -0.049597   0.452840   0.472503  -0.001249
    11  O    0.007518  -0.001074   0.000620  -0.001116   0.001161  -0.012256
    12  C   -0.004674  -0.000276   0.000035  -0.000747   0.000569   0.478383
    13  O   -0.001773  -0.000219   0.000208   0.001066  -0.000477   0.003578
    14  H    0.005463   0.000313  -0.001215  -0.003127  -0.004202  -0.000430
    15  H   -0.000124   0.000006   0.000002   0.000018   0.000013  -0.003697
    16  H    0.000189  -0.000011   0.000001  -0.000009  -0.000014   0.001358
    17  H   -0.003565  -0.001119   0.000182  -0.000151  -0.000191   0.000499
    18  H    0.001018   0.000234  -0.000060  -0.000065   0.000022  -0.000949
    19  H   -0.001509  -0.000120   0.000077   0.000047   0.000057  -0.009086
    20  H   -0.000040   0.000013  -0.000015  -0.000019   0.000022   0.004806
    21  H   -0.000061  -0.000002   0.000004  -0.000005  -0.000003  -0.005686
    22  H    0.000932   0.002663   0.000216  -0.008902  -0.002488   0.000224
    23  H   -0.004409  -0.013110   0.000553  -0.007137  -0.000857  -0.000485
    24  H   -0.026273  -0.002639   0.001860   0.001875  -0.001120   0.000144
    25  H    0.501342   0.010093  -0.002717  -0.002150   0.001061  -0.000807
    26  H    0.010093   0.505427  -0.009010   0.005320   0.002124  -0.000009
    27  H   -0.002717  -0.009010   0.475572  -0.009350  -0.002421  -0.000052
    28  H   -0.002150   0.005320  -0.009350   0.490653  -0.008573  -0.000031
    29  H    0.001061   0.002124  -0.002421  -0.008573   0.475508   0.000080
    30  H   -0.000807  -0.000009  -0.000052  -0.000031   0.000080   0.446032
    31  H    0.000706   0.000082   0.000002  -0.000001   0.000069  -0.008820
              31
     1  C   -0.000318
     2  C    0.000713
     3  C   -0.033398
     4  C    0.008704
     5  C   -0.011294
     6  C   -0.001139
     7  C   -0.001200
     8  C   -0.000079
     9  O    0.000232
    10  C    0.000671
    11  O   -0.001600
    12  C    0.417052
    13  O    0.006333
    14  H    0.000295
    15  H    0.000017
    16  H   -0.000354
    17  H   -0.019868
    18  H    0.001392
    19  H   -0.000007
    20  H    0.001199
    21  H   -0.008585
    22  H    0.001608
    23  H   -0.000676
    24  H   -0.000280
    25  H    0.000706
    26  H    0.000082
    27  H    0.000002
    28  H   -0.000001
    29  H    0.000069
    30  H   -0.008820
    31  H    0.477591
 Mulliken charges:
               1
     1  C   -0.060160
     2  C   -0.488156
     3  C   -0.151277
     4  C   -0.049837
     5  C   -0.218620
     6  C   -0.289644
     7  C   -0.216852
     8  C   -0.214015
     9  O   -0.343647
    10  C   -0.457632
    11  O   -0.295351
    12  C   -0.386277
    13  O   -0.270563
    14  H    0.267284
    15  H    0.157725
    16  H    0.148190
    17  H    0.250565
    18  H    0.203867
    19  H    0.150972
    20  H    0.159379
    21  H    0.199969
    22  H    0.191430
    23  H    0.239892
    24  H    0.200488
    25  H    0.194967
    26  H    0.147665
    27  H    0.207785
    28  H    0.170794
    29  H    0.173186
    30  H    0.206919
    31  H    0.170955
 Sum of Mulliken charges =  -0.00000
 Mulliken charges with hydrogens summed into heavy atoms:
               1
     1  C    0.207124
     2  C   -0.182241
     3  C    0.099287
     4  C    0.305002
     5  C    0.140729
     6  C    0.141678
     7  C    0.178603
     8  C    0.141435
     9  O   -0.343647
    10  C   -0.113653
    11  O   -0.295351
    12  C   -0.008403
    13  O   -0.270563
 Electronic spatial extent (au):  <R**2>=           3249.1146
 Charge=             -0.0000 electrons
 Dipole moment (field-independent basis, Debye):
    X=             -1.9646    Y=              1.2479    Z=             -0.7434  Tot=              2.4432
 Quadrupole moment (field-independent basis, Debye-Ang):
   XX=            -77.0896   YY=            -82.1280   ZZ=            -76.8878
   XY=              8.3847   XZ=             -3.0081   YZ=              2.0448
 Traceless Quadrupole moment (field-independent basis, Debye-Ang):
   XX=              1.6122   YY=             -3.4262   ZZ=              1.8140
   XY=              8.3847   XZ=             -3.0081   YZ=              2.0448
 Octapole moment (field-independent basis, Debye-Ang**2):
  XXX=            -32.4152  YYY=             -0.7654  ZZZ=              0.7457  XYY=             -1.2723
  XXY=             27.0920  XXZ=             -2.1830  XZZ=             -1.9236  YZZ=              0.3096
  YYZ=              2.2391  XYZ=             -1.2210
 Hexadecapole moment (field-independent basis, Debye-Ang**3):
 XXXX=          -3468.4257 YYYY=           -489.0162 ZZZZ=           -348.2264 XXXY=            114.4642
 XXXZ=            -44.0303 YYYX=             -9.0259 YYYZ=              2.8769 ZZZX=              1.4997
 ZZZY=              2.0720 XXYY=           -669.4322 XXZZ=           -636.8647 YYZZ=           -136.9696
 XXYZ=             15.3887 YYXZ=             -3.1709 ZZXY=             -3.6546
 N-N= 8.856985116866D+02 E-N=-3.213275472467D+03  KE= 6.153374879957D+02
 D1PCM: PCM CHGder 1st derivatives, ID1Alg=3 FixD1E=F DoIter=F DoCFld=F I1PDM=0.
 Calling FoFJK, ICntrl=      2127 FMM=F ISym2X=0 I1Cent= 0 IOpClX= 0 NMat=1 NMatS=1 NMatT=0.
 ***** Axes restored to original set *****
 -------------------------------------------------------------------
 Center     Atomic                   Forces (Hartrees/Bohr)
 Number     Number              X              Y              Z
 -------------------------------------------------------------------
      1        6          -0.003902522   -0.004240806    0.002537854
      2        6           0.001243593    0.001006420    0.000683849
      3        6          -0.002406756    0.004140694   -0.003938457
      4        6          -0.001481225    0.003583564    0.004379760
      5        6           0.002298528   -0.000235974   -0.002623977
      6        6           0.004266690    0.003286340   -0.003406005
      7        6           0.002543593   -0.004280931    0.005459495
      8        6          -0.005912945    0.001463296    0.003361231
      9        8           0.005740526    0.006951084    0.000868136
     10        6          -0.001328107   -0.000398198   -0.002171185
     11        8          -0.001698556    0.004415805   -0.011638653
     12        6          -0.000732144   -0.002595306    0.001703809
     13        8           0.004016538   -0.009907384    0.004519403
     14        1           0.003219778    0.002810487    0.004997300
     15        1          -0.001112214   -0.002261581    0.000878690
     16        1          -0.001664081    0.001604311   -0.001967235
     17        1           0.001429159   -0.002424042    0.007916065
     18        1          -0.000096818   -0.003816937   -0.001967081
     19        1           0.001157455    0.004350680   -0.003977535
     20        1           0.000660459   -0.001881197    0.002443580
     21        1          -0.001963845    0.001533203    0.000024069
     22        1          -0.002836818   -0.001134815    0.002710730
     23        1          -0.002198727   -0.001348002   -0.003687403
     24        1          -0.001358139    0.004607126   -0.000359250
     25        1          -0.003302314   -0.003717635   -0.004458395
     26        1          -0.001631548   -0.003972054   -0.004455923
     27        1           0.004283258   -0.000066035    0.000958681
     28        1           0.000523742   -0.002956551    0.000598246
     29        1           0.000951864    0.002061744    0.002408207
     30        1           0.001054590    0.001308342   -0.003832477
     31        1           0.000236988    0.002114353    0.002034473
 -------------------------------------------------------------------
 Cartesian Forces:  Max     0.011638653 RMS     0.003395492

 GradGradGradGradGradGradGradGradGradGradGradGradGradGradGradGradGradGrad
 Berny optimization.
 FormGI is forming the generalized inverse of G from B-inverse, IUseBI=4.
 Internal  Forces:  Max     0.015656856 RMS     0.002192698
 Search for a local minimum.
 Step number   1 out of a maximum of  186
 All quantities printed in internal units (Hartrees-Bohrs-Radians)
 Mixed Optimization -- RFO/linear search
 Second derivative matrix not updated -- first step.
 ITU=  0
     Eigenvalues ---    0.00393   0.00637   0.00684   0.00747   0.01425
     Eigenvalues ---    0.01451   0.01708   0.02676   0.02700   0.03177
     Eigenvalues ---    0.03209   0.04007   0.04091   0.04526   0.04666
     Eigenvalues ---    0.04865   0.04883   0.05102   0.05144   0.05159
     Eigenvalues ---    0.05193   0.05638   0.05770   0.05936   0.06164
     Eigenvalues ---    0.06420   0.06600   0.06653   0.07662   0.07669
     Eigenvalues ---    0.07895   0.07905   0.07918   0.08030   0.08075
     Eigenvalues ---    0.09254   0.09331   0.09659   0.10871   0.11603
     Eigenvalues ---    0.11611   0.11702   0.11703   0.12478   0.12633
     Eigenvalues ---    0.14606   0.15799   0.16309   0.17713   0.19267
     Eigenvalues ---    0.20521   0.21392   0.22410   0.25000   0.27373
     Eigenvalues ---    0.27531   0.28463   0.28638   0.28776   0.28993
     Eigenvalues ---    0.29532   0.30273   0.35082   0.35097   0.35117
     Eigenvalues ---    0.35153   0.35229   0.35249   0.35284   0.35287
     Eigenvalues ---    0.35308   0.35369   0.35442   0.35476   0.35497
     Eigenvalues ---    0.35597   0.35837   0.35850   0.35919   0.35975
     Eigenvalues ---    0.40077   0.41438   0.42528   0.42530   0.43116
     Eigenvalues ---    0.458261000.000001000.000001000.000001000.00000
     Eigenvalues --- 1000.000001000.000001000.000001000.000001000.00000
     Eigenvalues --- 1000.000001000.000001000.000001000.000001000.00000
     Eigenvalues --- 1000.000001000.000001000.000001000.000001000.00000
     Eigenvalues --- 1000.000001000.000001000.000001000.000001000.00000
     Eigenvalues --- 1000.000001000.000001000.000001000.000001000.00000
     Eigenvalues --- 1000.000001000.000001000.000001000.000001000.00000
     Eigenvalues --- 1000.000001000.000001000.000001000.000001000.00000
     Eigenvalues --- 1000.000001000.000001000.000001000.000001000.00000
     Eigenvalues --- 1000.000001000.000001000.000001000.000001000.00000
     Eigenvalues --- 1000.000001000.000001000.000001000.000001000.00000
     Eigenvalues --- 1000.000001000.000001000.000001000.000001000.00000
     Eigenvalues --- 1000.000001000.000001000.000001000.000001000.00000
     Eigenvalues --- 1000.000001000.000001000.000001000.000001000.00000
     Eigenvalues --- 1000.000001000.000001000.000001000.000001000.00000
     Eigenvalues --- 1000.000001000.000001000.000001000.000001000.00000
     Eigenvalues --- 1000.000001000.000001000.000001000.000001000.00000
     Eigenvalues --- 1000.000001000.000001000.000001000.000001000.00000
     Eigenvalues --- 1000.000001000.000001000.000001000.000001000.00000
     Eigenvalues --- 1000.000001000.000001000.000001000.000001000.00000
 RFO step:  Lambda=-3.77829878D-03 EMin= 3.93059283D-03
 Linear search not attempted -- first point.
 Iteration  1 RMS(Cart)=  0.07811385 RMS(Int)=  0.00123784
 Iteration  2 RMS(Cart)=  0.00355774 RMS(Int)=  0.00004890
 Iteration  3 RMS(Cart)=  0.00000255 RMS(Int)=  0.00004888
 Iteration  4 RMS(Cart)=  0.00000000 RMS(Int)=  0.00004888
 Iteration  1 RMS(Cart)=  0.00001284 RMS(Int)=  0.00000311
 Iteration  2 RMS(Cart)=  0.00000706 RMS(Int)=  0.00000347
 Iteration  3 RMS(Cart)=  0.00000388 RMS(Int)=  0.00000393
 Iteration  4 RMS(Cart)=  0.00000213 RMS(Int)=  0.00000423
 Iteration  5 RMS(Cart)=  0.00000117 RMS(Int)=  0.00000441
 Iteration  6 RMS(Cart)=  0.00000064 RMS(Int)=  0.00000451
 Variable       Old X    -DE/DX   Delta X   Delta X   Delta X     New X
                                 (Linear)    (Quad)   (Total)
    R1        2.88526  -0.00210   0.00000  -0.00743  -0.00745   2.87781
    R2        2.87701  -0.00052   0.00000  -0.00228  -0.00227   2.87474
    R3        2.68256   0.00074   0.00000   0.00173   0.00173   2.68430
    R4        2.05485   0.00629   0.00000   0.01772   0.01772   2.07257
    R5        2.89072   0.00108   0.00000   0.00298   0.00301   2.89372
    R6        2.90927  -0.00033   0.00000  -0.00240  -0.00237   2.90691
    R7        2.05080   0.00266   0.00000   0.00743   0.00743   2.05824
    R8        2.05272   0.00301   0.00000   0.00844   0.00844   2.06116
    R9        2.64328   0.00231   0.00000   0.00501   0.00501   2.64828
   R10        2.88269  -0.00104   0.00000  -0.00201  -0.00203   2.88067
   R11        2.65231   0.00335   0.00000   0.00852   0.00850   2.66080
   R12        2.04121   0.00837   0.00000   0.02301   0.02301   2.06422
   R13        2.68124   0.00326   0.00000   0.00740   0.00738   2.68862
   R14        2.04209   0.00429   0.00000   0.01182   0.01182   2.05391
   R15        2.04875   0.00596   0.00000   0.01661   0.01661   2.06536
   R16        2.88560  -0.00039   0.00000  -0.00221  -0.00222   2.88338
   R17        2.05305   0.00307   0.00000   0.00861   0.00861   2.06166
   R18        2.04963   0.00249   0.00000   0.00695   0.00695   2.05659
   R19        2.89576  -0.00053   0.00000  -0.00216  -0.00217   2.89359
   R20        2.04716   0.00398   0.00000   0.01105   0.01105   2.05822
   R21        2.05212   0.00425   0.00000   0.01193   0.01193   2.06404
   R22        2.66382   0.00294   0.00000   0.00688   0.00689   2.67071
   R23        2.04316   0.00475   0.00000   0.01311   0.01311   2.05627
   R24        2.05517   0.00633   0.00000   0.01784   0.01784   2.07301
   R25        2.67673   0.00350   0.00000   0.00838   0.00839   2.68512
   R26        2.87182   0.00017   0.00000   0.00117   0.00116   2.87298
   R27        2.05543   0.00606   0.00000   0.01709   0.01709   2.07251
   R28        2.04338   0.00439   0.00000   0.01211   0.01211   2.05549
   R29        2.05178   0.00304   0.00000   0.00852   0.00852   2.06031
   R30        2.05427   0.00324   0.00000   0.00911   0.00911   2.06337
   R31        2.05216   0.00397   0.00000   0.01115   0.01115   2.06330
   R32        2.04909   0.00293   0.00000   0.00818   0.00818   2.05727
    A1        1.92424  -0.00044   0.00000  -0.00418  -0.00429   1.91995
    A2        2.03119  -0.00320   0.00000  -0.02356  -0.02352   2.00767
    A3        1.88925   0.00170   0.00000   0.00343   0.00353   1.89278
    A4        1.84397   0.00146   0.00000   0.00603   0.00584   1.84981
    A5        1.89257  -0.00097   0.00000  -0.00133  -0.00138   1.89118
    A6        1.87825   0.00151   0.00000   0.02111   0.02112   1.89937
    A7        1.92360  -0.00003   0.00000  -0.00759  -0.00773   1.91587
    A8        1.92236  -0.00060   0.00000  -0.00007  -0.00004   1.92232
    A9        1.89386   0.00077   0.00000   0.00495   0.00498   1.89884
   A10        1.92198   0.00086   0.00000   0.00225   0.00230   1.92428
   A11        1.93136  -0.00111   0.00000  -0.00235  -0.00232   1.92904
   A12        1.86981   0.00011   0.00000   0.00317   0.00314   1.87295
   A13        1.88529  -0.00199   0.00000  -0.00737  -0.00736   1.87793
   A14        1.94590  -0.00010   0.00000  -0.00082  -0.00071   1.94519
   A15        1.91434   0.00113   0.00000   0.00673   0.00671   1.92105
   A16        1.94926   0.00293   0.00000   0.01072   0.01060   1.95986
   A17        1.92839  -0.00005   0.00000   0.00211   0.00219   1.93059
   A18        1.84084  -0.00186   0.00000  -0.01106  -0.01108   1.82976
   A19        1.92799   0.00135   0.00000   0.00267   0.00249   1.93048
   A20        1.95034  -0.00036   0.00000  -0.00349  -0.00342   1.94691
   A21        1.94086  -0.00100   0.00000  -0.00398  -0.00398   1.93688
   A22        1.85283  -0.00112   0.00000  -0.00078  -0.00073   1.85210
   A23        1.90805   0.00075   0.00000   0.00496   0.00504   1.91310
   A24        1.88094   0.00038   0.00000   0.00091   0.00088   1.88182
   A25        1.91980  -0.00081   0.00000  -0.00643  -0.00663   1.91317
   A26        1.91840   0.00059   0.00000   0.00127   0.00132   1.91972
   A27        1.93202  -0.00018   0.00000   0.00019   0.00025   1.93227
   A28        1.90377   0.00041   0.00000  -0.00087  -0.00081   1.90296
   A29        1.92575  -0.00005   0.00000   0.00143   0.00148   1.92723
   A30        1.86316   0.00008   0.00000   0.00475   0.00471   1.86787
   A31        1.89660   0.00115   0.00000  -0.00183  -0.00185   1.89476
   A32        1.94157  -0.00050   0.00000  -0.00314  -0.00313   1.93844
   A33        1.91366  -0.00135   0.00000  -0.01040  -0.01039   1.90327
   A34        1.92159   0.00003   0.00000   0.00757   0.00756   1.92915
   A35        1.90944   0.00058   0.00000   0.00973   0.00972   1.91916
   A36        1.88084   0.00008   0.00000  -0.00175  -0.00185   1.87900
   A37        1.93395   0.00188   0.00000   0.00661   0.00666   1.94061
   A38        1.93042  -0.00096   0.00000  -0.00665  -0.00672   1.92370
   A39        1.91613  -0.00235   0.00000  -0.01683  -0.01688   1.89926
   A40        1.86674  -0.00045   0.00000   0.00375   0.00375   1.87049
   A41        1.91816   0.00111   0.00000   0.01189   0.01192   1.93008
   A42        1.89758   0.00083   0.00000   0.00190   0.00175   1.89933
   A43        1.93526   0.00216   0.00000   0.00958   0.00959   1.94485
   A44        1.90204   0.00056   0.00000   0.00676   0.00680   1.90883
   A45        1.85549  -0.00118   0.00000  -0.00339  -0.00339   1.85210
   A46        1.93068  -0.00175   0.00000  -0.01038  -0.01042   1.92026
   A47        1.94578  -0.00037   0.00000  -0.00333  -0.00334   1.94244
   A48        1.89233   0.00062   0.00000   0.00118   0.00114   1.89347
   A49        1.97736  -0.00491   0.00000  -0.02595  -0.02591   1.95144
   A50        1.93249  -0.00098   0.00000  -0.00789  -0.00793   1.92456
   A51        1.92196  -0.00023   0.00000   0.00104   0.00106   1.92302
   A52        1.92147   0.00077   0.00000   0.00190   0.00189   1.92336
   A53        1.90777   0.00071   0.00000   0.00507   0.00509   1.91286
   A54        1.90469  -0.00019   0.00000  -0.00280  -0.00281   1.90189
   A55        1.87444  -0.00005   0.00000   0.00301   0.00301   1.87744
   A56        2.09923  -0.01566   0.00000  -0.06170  -0.06170   2.03754
   A57        1.91871   0.00007   0.00000  -0.00611  -0.00620   1.91251
   A58        1.90815  -0.00052   0.00000  -0.00944  -0.00942   1.89873
   A59        1.89421  -0.00017   0.00000   0.00375   0.00379   1.89800
   A60        1.92081   0.00011   0.00000   0.00323   0.00313   1.92394
   A61        1.94944   0.00034   0.00000   0.00504   0.00511   1.95454
   A62        1.87149   0.00015   0.00000   0.00345   0.00343   1.87492
   A63        2.01095  -0.00568   0.00000  -0.03450  -0.03455   1.97640
    D1        0.93702   0.00022   0.00000   0.00949   0.00945   0.94646
    D2        3.05526   0.00070   0.00000   0.01573   0.01566   3.07092
    D3       -1.14923  -0.00038   0.00000   0.00491   0.00487  -1.14436
    D4        3.03598  -0.00048   0.00000  -0.00269  -0.00264   3.03333
    D5       -1.12897   0.00000   0.00000   0.00355   0.00357  -1.12539
    D6        0.94973  -0.00108   0.00000  -0.00727  -0.00722   0.94251
    D7       -1.13052   0.00063   0.00000   0.01146   0.01149  -1.11903
[...]
 -0.00027487,-0.00258209,-0.00009652,0.00027588,-0.00003736,-0.00043741
 ,0.00059708,0.00200444,0.00006361,0.00003937,0.00000579,0.00006181,0.0
 0012895,0.00006036,0.00297443,0.00201647,-0.00325650,0.00000088,0.0000
 0340,0.00000210,0.00000341,-0.00000120,0.00000168,-0.00018300,-0.00007
 794,0.00003738,0.00000530,0.00000314,0.00000457,0.00004097,0.00000533,
 -0.00001696,0.00000137,0.00000421,-0.00000234,0.00001428,0.00000762,-0
 .00000082,0.00028787,0.00008619,0.00047938,0.00002058,0.00100072,0.000
 24194,0.00197259,0.00203550,0.00483524,0.05703408,0.11013585,0.2443630
 0,-0.00036980,-0.00003661,0.00013314,0.00000213,-0.00000231,0.00000389
 ,-0.00008856,-0.00005175,0.00001696,-0.00002163,-0.00000249,-0.0000315
 5,0.00000165,-0.00000785,0.00000035,0.00139408,0.00079731,0.00053535,0
 .00191746,0.00185729,0.00283036,-0.06913759,-0.02690419,-0.04972012,0.
 00268054,0.00602108,0.00499864,0.00351547,0.00722987,0.01613777,0.0000
 7566,-0.00001735,-0.00007550,0.00000693,0.00001181,0.00000364,0.000065
 77,0.00002018,0.00001334,-0.00001427,-0.00006211,-0.00019760,0.0000013
 9,0.00000173,0.00000015,0.00000378,-0.00000089,0.00000052,0.00000700,0
 .00000651,0.00000134,0.00000236,0.00000264,0.00000309,0.00000100,-0.00
 000189,0.00000168,-0.00000029,0.00000157,0.00000012,0.00000526,0.00000
 152,-0.00000004,0.00015476,-0.00013953,-0.00023389,-0.00007657,-0.0003
 2248,-0.00015647,0.00007519,-0.00012134,-0.00001907,0.00053073,-0.0005
 1429,-0.00036585,0.06498756,0.00020991,-0.00026518,0.00064667,-0.00000
 150,-0.00000026,0.00000127,-0.00010240,-0.00020982,0.00009453,-0.00002
 366,-0.00000288,-0.00002834,0.00000982,-0.00002161,0.00000069,0.000664
 33,0.00004659,-0.00004002,-0.00579676,0.00130874,-0.00270612,-0.023670
 25,-0.09668713,-0.09504386,-0.00060550,-0.04106834,-0.02566308,0.00212
 138,0.00778423,0.01129321,0.00056591,0.00023791,-0.00029171,0.00002946
 ,0.00004374,-0.00001686,0.00004574,0.00008219,0.00003114,-0.00006451,-
 0.00005839,0.00001505,0.00000211,0.00000250,0.00000067,0.00000353,-0.0
 0000110,0.00000094,0.00000738,0.00001067,-0.00001534,0.00000380,0.0000
 0346,0.00000419,0.00000132,-0.00000311,0.00000082,-0.00000061,0.000001
 83,-0.00000126,0.00001053,0.00000477,0.,0.00012013,-0.00006959,-0.0000
 6395,0.00004423,-0.00012945,-0.00031067,0.00014207,0.00017778,0.000506
 37,0.00093694,0.00075389,0.00096538,0.02775953,0.12519614,-0.00019247,
 0.00009218,-0.00002311,0.00000242,-0.00000277,0.00000632,-0.00016934,-
 0.00011224,0.00008231,-0.00002279,-0.00000507,-0.00004367,0.00000358,-
 0.00001248,-0.00000041,-0.00129548,-0.00056393,0.00106482,0.00081242,0
 .00121750,0.00153916,-0.04846133,-0.09740386,-0.23120044,0.00101889,-0
 .00055696,0.00885860,-0.00659538,-0.01144031,-0.02422593,0.00034160,-0
 .00012748,-0.00003024,0.00001668,0.00002250,-0.00000504,0.00008936,0.0
 0005703,0.00004276,-0.00010606,0.00006623,-0.00011081,0.00000199,0.000
 00243,0.00000049,0.00000510,-0.00000144,0.00000076,-0.00000134,0.00001
 516,-0.00000970,0.00000431,0.00000446,0.00000479,0.00000116,-0.0000042
 7,0.00000231,-0.00000015,0.00000159,-0.00000065,0.00000768,0.00000256,
 0.00000002,0.00000649,0.00036721,0.00032009,0.00086861,0.00000364,0.00
 040893,0.00025261,0.00001579,0.00021163,0.00099865,-0.00071347,-0.0003
 5892,0.05047807,0.10806227,0.24950178,0.00061652,-0.00054583,-0.000199
 22,-0.00000577,0.00000607,-0.00001659,0.00028794,0.00014029,-0.0000849
 0,0.00006236,0.00001549,0.00011024,-0.00000658,0.00002681,-0.00000362,
 0.00008753,-0.00153249,0.00343774,0.00291418,0.00114555,0.00071398,-0.
 31312610,0.01231825,-0.04553649,-0.00689619,0.00589106,-0.00245528,-0.
 01470834,-0.00022161,-0.00336596,-0.00049295,0.00003633,0.00007177,-0.
 00002024,-0.00003851,-0.00001260,-0.00019851,-0.00008061,-0.00009722,-
 0.00002321,0.00006424,0.00003292,-0.00000530,-0.00000546,-0.00000024,-
 0.00001350,0.00000348,-0.00000117,-0.00000892,-0.00001629,-0.00002705,
 -0.00000772,-0.00000844,-0.00001127,-0.00000484,0.00000821,-0.00000955
 ,0.00000148,-0.00000323,0.00000250,-0.00001699,-0.00000471,0.00000072,
 -0.00104426,0.00038546,-0.00019108,0.00024493,-0.00001682,-0.00006322,
 -0.00049323,0.00009369,0.00000400,0.00005287,-0.00011290,0.00000826,-0
 .00525385,-0.00072328,-0.00120883,0.33716540,-0.00013078,-0.00095570,0
 .00079161,-0.00000640,0.00000346,-0.00000696,-0.00006384,-0.00023912,0
 .00007078,0.00000489,0.00001250,0.00002794,0.00000943,-0.00001295,-0.0
 0000202,-0.00086904,-0.00061324,0.00316552,-0.00136350,-0.00587330,-0.
 00038927,0.00048567,-0.04786745,-0.00224772,0.04277280,-0.01270419,0.0
 0957672,-0.01249546,0.00212500,-0.00398875,0.00043116,0.00048121,-0.00
 036667,0.00003113,0.00003542,-0.00003938,-0.00004221,0.00010192,-0.000
 00937,0.00002993,0.00005897,-0.00004492,-0.00000004,0.00000031,0.00000
 070,-0.00000400,0.00000039,0.00000100,0.00002829,0.00001039,-0.0000616
 6,0.00000119,-0.00000075,-0.00000053,-0.00000355,0.00000044,-0.0000066
 5,0.00000044,0.00000032,-0.00000048,0.00000444,0.00000334,0.00000037,-
 0.00104878,0.00045524,0.00007161,0.00044703,-0.00002336,0.00009823,0.0
 0179374,-0.00036360,0.00023966,0.00017850,0.00018890,0.00032740,-0.014
 43099,0.00246447,-0.00149303,-0.01695000,0.06220762,-0.00033901,0.0007
 1895,-0.00030369,0.00000839,-0.00000592,0.00001811,-0.00010410,0.00006
 167,-0.00002365,-0.00003076,-0.00001853,-0.00008653,-0.00000358,-0.000
 00737,0.00000331,0.00164782,0.00204630,-0.00417425,0.00055738,0.001267
 02,0.00028581,-0.04616371,0.00079846,-0.05983177,-0.00535758,0.0019456
 2,-0.00049128,0.02713949,-0.00164533,0.00500532,0.00010481,-0.00019541
 ,0.00014388,-0.00000724,0.00000063,0.00002343,0.00016496,-0.00000055,0
 .00009526,0.00000316,-0.00009021,0.00002135,0.00000299,0.00000280,-0.0
 0000022,0.00001110,-0.00000229,-0.00000037,0.00000442,0.00000219,0.000
 05171,0.00000368,0.00000618,0.00000654,0.00000560,-0.00000641,0.000010
 22,-0.00000086,0.00000131,-0.00000102,0.00000700,0.00000058,-0.0000005
 1,0.00150551,-0.00023466,0.00025518,0.00014912,0.00012547,0.00020482,-
 0.00043084,0.00023273,0.00028845,0.00041816,0.00002359,0.00026322,-0.0
 2651414,0.00104897,-0.00348651,0.04870826,-0.00532396,0.05974318,-0.00
 573002,-0.00311982,-0.00040778,0.00000424,0.00000525,-0.00000659,0.001
 07334,0.00068654,-0.00048694,0.00010285,-0.00000053,0.00011971,-0.0000
 2405,0.00006703,0.00001009,-0.00757042,0.03437390,-0.00362006,-0.00148
 564,-0.00012929,0.00022342,0.00418652,-0.01616436,-0.00200205,-0.00060
 623,-0.00398581,0.00456467,-0.05562935,0.05086867,-0.00332870,-0.00204
 888,0.00272525,-0.00070289,-0.00009773,-0.00013666,0.00001205,-0.00016
 148,-0.00034558,-0.00010239,0.00015555,0.00000874,0.00024609,-0.000009
 37,-0.00001038,-0.00000291,-0.00001422,0.00000454,-0.00000392,-0.00001
 205,-0.00006044,0.00004836,-0.00001616,-0.00001379,-0.00001994,-0.0000
 0295,0.00001270,-0.00000033,-0.00000285,-0.00001102,0.00000567,-0.0000
 3779,-0.00001468,0.00000076,0.00147868,-0.00045770,0.00062962,0.001449
 50,-0.00058517,-0.00012830,0.00025526,0.00005283,-0.00003405,0.0002512
 4,-0.00005209,-0.00005246,0.00055857,0.00052749,-0.00021413,0.00009926
 ,0.00050856,-0.00087715,0.06276626,0.00030962,0.00185095,-0.00006322,0
 .00000396,-0.00000459,0.00001241,-0.00037786,-0.00022315,0.00015136,-0
 .00005634,-0.00001183,-0.00009307,0.00000744,-0.00003089,0.00000169,0.
 00040409,-0.00193636,-0.00016051,-0.00115342,0.00052296,-0.00069315,0.
 00356524,-0.01110211,-0.00194949,-0.00115941,-0.00157170,0.00365406,0.
 05116722,-0.30409331,0.02378222,0.00030261,-0.00020726,0.00010169,0.00
 003019,0.00005187,-0.00000469,0.00017605,0.00010892,0.00008004,-0.0000
 1466,0.00022052,-0.00004240,0.00000508,0.00000564,0.00000066,0.0000112
 3,-0.00000317,0.00000123,-0.00000118,0.00002043,-0.00000531,0.00000748
 ,0.00000873,0.00001052,0.00000378,-0.00000753,0.00000553,0.00000003,0.
 00000396,-0.00000252,0.00001733,0.00000609,-0.00000087,0.00033484,0.00
 022737,-0.00017571,0.00025241,0.00042803,0.00020452,0.00006103,-0.0000
 8923,0.00001269,0.00016088,-0.00000377,0.00007732,-0.00000692,0.000495
 90,0.00029176,-0.00034810,0.00018940,-0.00000585,-0.05594928,0.3283380
 0,-0.00058623,-0.00089724,0.00049380,0.00000028,0.00000022,-0.00000115
 ,0.00009389,0.00008850,-0.00005098,0.00000870,-0.00000020,0.00001310,-
 0.00000414,0.00001019,0.,-0.00191982,0.00491159,-0.00172482,0.00155384
 ,-0.00057785,0.00030282,-0.00802105,0.02339401,-0.00001286,0.00253502,
 0.00537108,-0.00462072,-0.00317033,0.02163767,-0.05102018,-0.00020183,
 0.00027808,0.00037765,-0.00001576,-0.00002352,0.00000246,-0.00000405,-
 0.00006037,-0.00002022,0.00012974,0.00050131,0.00007101,-0.00000087,-0
 .00000135,-0.00000045,-0.00000148,0.00000073,-0.00000049,-0.00000524,-
 0.00001128,0.00000313,-0.00000279,-0.00000185,-0.00000283,-0.00000090,
 0.00000097,-0.00000056,-0.00000014,-0.00000105,0.00000049,-0.00000509,
 -0.00000228,-0.00000003,0.00002403,-0.00045121,0.00009480,0.00031821,0
 .00026143,0.00016147,-0.00020373,0.00002192,-0.00000044,-0.00014261,-0
 .00003528,-0.00004238,-0.00074883,-0.00090464,0.00058571,0.00015983,-0
 .00047863,0.00074981,0.00450976,-0.02639247,0.05121559,0.00093808,-0.0
 0189204,-0.00071404,-0.00002110,0.00001315,-0.00003920,0.00011587,-0.0
 0032291,-0.00016360,0.00012138,0.00003862,0.00022116,0.00000321,0.0000
 0642,-0.00001368,-0.01085231,-0.01554290,-0.02887871,-0.00047775,0.000
 07300,-0.00005428,0.00423386,0.00982307,0.01806161,0.00043041,0.000550
 02,-0.00188747,-0.06866202,-0.03346873,-0.06299141,0.00006092,0.000403
 65,0.00059112,0.00000868,-0.00000242,0.00000425,-0.00063722,0.00014789
 ,0.00004680,0.00012133,0.00075357,0.00029056,-0.00000669,-0.00000481,0
 .00000248,-0.00002503,0.00000590,-0.00000025,0.00000202,0.00000177,0.0
 0000113,-0.00000218,-0.00001300,-0.00001615,-0.00000700,0.00000900,-0.
 00002702,0.00000243,-0.00000036,0.00000160,-0.00001007,0.00000123,0.00
 000173,0.00129310,-0.00030645,0.00062068,-0.00581057,0.00197988,-0.000
 72298,0.00009628,0.00003600,-0.00009118,-0.00007491,0.00004986,0.00010
 352,-0.00102616,-0.00221772,0.00335517,0.00081002,0.00069445,-0.000631
 40,0.00107274,0.00223855,0.00569954,0.07831410,0.00051827,0.00027567,0
 .00085575,-0.00000037,0.00000243,-0.00000567,0.00008717,0.00006815,-0.
 00002370,0.00001526,0.00000187,0.00003321,-0.00000321,0.00001078,0.000
 00049,0.00043018,0.00157496,0.00421349,0.00038800,-0.00008544,0.000221
 88,0.00333317,0.00411740,0.01238384,-0.00018713,0.00217499,-0.00070395
 ,-0.03247165,-0.10382539,-0.10117913,-0.00014800,0.00000403,-0.0000810
 0,-0.00001224,-0.00001665,0.00000379,-0.00004983,-0.00004880,-0.000033
 61,0.00029016,0.00017206,-0.00005619,-0.00000153,-0.00000199,-0.000000
 46,-0.00000416,0.00000141,0.,-0.00001384,-0.00000031,-0.00001152,-0.00
 000238,-0.00000182,-0.00000329,0.00000006,0.00000304,-0.00000320,0.000
 00040,-0.00000139,0.00000107,-0.00000624,-0.00000209,0.00000040,-0.000
 35874,0.00017047,-0.00017023,0.00076862,0.00069556,0.00042056,-0.00002
 313,0.00001040,-0.00004088,-0.00005477,-0.00013987,-0.00013394,-0.0010
 8583,-0.00009703,0.00221545,0.00046537,0.00030882,-0.00073695,-0.00879
 570,-0.01319102,-0.02663809,0.03692647,0.10781704,0.00021383,-0.000652
 73,-0.00028005,-0.00000654,0.00000526,-0.00001456,0.00003012,-0.000099
 77,-0.00001485,0.00003045,0.00001401,0.00007492,0.00000097,0.00000633,
 -0.00000316,-0.00152392,-0.00142781,-0.00332071,0.00019182,0.00012119,
 -0.00000968,-0.00589310,-0.01323704,-0.02488050,-0.00093279,-0.0000072
 8,0.00294084,-0.06273916,-0.09884202,-0.23324967,-0.00000239,0.0002048
 7,0.00025162,0.00000353,-0.00000383,-0.00000747,-0.00015757,0.00002421
 ,-0.00003332,-0.00008695,0.00050340,-0.00002120,-0.00000220,-0.0000023
 0,0.00000058,-0.00000885,0.00000224,0.00000021,-0.00001030,-0.00000148
 ,-0.00002478,-0.00000239,-0.00000395,-0.00000492,-0.00000373,0.0000040
 0,-0.00000931,0.00000078,-0.00000112,0.00000076,-0.00000539,-0.0000002
 0,0.00000056,-0.00029744,0.00025592,0.00053146,-0.00058487,0.00009954,
 0.00099390,-0.00002524,0.00004823,-0.00002112,0.00005724,-0.00020227,0
 .00000754,0.00290418,0.00241547,-0.00313256,0.00003137,0.00009041,0.00
 123079,0.00159233,0.00120851,0.00342660,0.06723630,0.10947017,0.255569
 43,0.00013954,0.00008797,-0.00023531,0.00122737,0.00102565,0.00069978,
 -0.00292446,0.01218175,-0.02727517,0.00042817,0.00015834,-0.00064379,-
 0.00157639,-0.01560078,0.02622871,-0.00003698,0.00010423,-0.00007893,0
 .00000656,-0.00005040,0.00011762,-0.00005236,0.00005425,-0.00002756,0.
 00009618,-0.00001593,-0.00003288,0.00001035,-0.00005523,0.00012574,0.0
 0228978,-0.00007938,-0.00046540,-0.04619718,-0.00361032,0.00828934,0.0
 0005285,0.00031259,0.00151266,0.00009403,0.00002913,0.00006086,0.00003
 311,0.00030317,0.00002246,-0.00001782,0.00016351,-0.00029492,-0.003919
 81,0.00270095,0.00055545,0.00000014,0.00003001,0.00003601,0.00031941,-
 0.00006281,0.00024961,-0.00463647,-0.00359952,-0.00011784,0.00102955,0
 .00104906,-0.00008626,-0.00000767,-0.00014085,0.00012964,-0.00001572,-
 0.00000487,0.00001265,-0.00001487,-0.00000789,0.00001142,-0.00000708,-
 0.00000485,0.00000507,0.00000032,-0.00000262,-0.00000033,-0.00000882,-
 0.00001410,0.00001417,0.00000408,0.00000098,0.00000175,-0.00000418,-0.
 00000130,-0.00000625,0.05426894,0.00000039,0.00010874,-0.00010571,0.00
 019338,0.00047571,0.00056269,-0.00029868,-0.00979090,0.02011059,0.0002
 5262,-0.00078962,0.00087961,-0.00171969,-0.00996430,0.01529928,-0.0001
 8013,-0.00006133,0.00004405,0.00002626,0.00002865,-0.00004135,0.000027
 70,-0.00002657,0.00000965,-0.00004052,0.00000430,0.00001644,0.00000203
 ,0.00007476,-0.00004879,-0.00301786,0.00083260,-0.00091130,-0.00085261
 ,-0.11018425,0.10907386,0.00067521,-0.00048147,-0.00167797,-0.00010770
 ,0.00000288,-0.00004057,0.00010622,0.00025916,-0.00010885,-0.00016504,
 -0.00014396,-0.00025428,0.00225582,-0.00117613,-0.00022897,-0.00001973
 ,0.00023296,-0.00018945,0.00040384,-0.00069502,-0.00084211,-0.00316308
 ,-0.00113820,0.00013509,0.00017505,0.00058886,-0.00044558,0.00000453,0
 .00005718,-0.00006668,0.00002194,0.00001552,-0.00000725,0.00000244,-0.
 00000265,-0.00000230,0.00000230,0.00000022,0.00000272,-0.00000025,0.00
 000121,0.00000145,0.00000256,0.00000570,-0.00000509,-0.00001804,0.0000
 0265,-0.00000082,0.00000600,-0.00000078,0.00000301,0.00459261,0.119943
 29,0.00000872,-0.00023019,0.00039929,0.00063850,-0.00051594,0.00083122
 ,-0.00060044,0.00105787,-0.00445645,0.00012508,-0.00078116,-0.00107999
 ,0.00088871,0.00032818,-0.00029259,0.00016965,0.00005112,-0.00002621,-
 0.00005207,0.00003646,-0.00005117,-0.00000774,-0.00000128,-0.00000594,
 -0.00003979,-0.00000686,0.00001264,-0.00000445,-0.00006216,0.00001166,
 0.00089268,-0.00073224,0.00101283,0.00561498,0.11095876,-0.24864473,-0
 .00011215,0.00066689,0.00041235,0.00009173,-0.00002078,-0.00002774,-0.
 00002256,0.00009432,0.00005419,0.00008202,0.00074374,0.00003017,-0.000
 51255,0.00083220,0.00100209,-0.00006940,-0.00016519,0.00035334,-0.0001
 3862,-0.00119608,0.00001589,0.00012897,-0.00053059,0.00125471,0.000438
 32,0.00010356,0.00012409,0.00000241,-0.00002536,0.00004237,-0.00001499
 ,-0.00001348,0.00000278,-0.00000018,-0.00000304,-0.00000355,0.00000176
 ,0.00000200,-0.00000466,0.00000146,0.00000115,0.00000003,-0.00000302,-
 0.00000104,0.00000214,0.00001495,-0.00000066,-0.00000125,-0.00000800,-
 0.00000081,-0.00000230,-0.00805655,-0.12210093,0.26904921,-0.00004338,
 -0.00051691,-0.00019707,-0.00460524,-0.00366627,0.00193913,0.00213178,
 0.01638376,0.02106575,-0.00174491,-0.00000433,-0.00062322,-0.00003557,
 -0.01817719,-0.02327533,0.00002265,0.00000798,-0.00001106,0.00001490,0
 .00001613,-0.00008563,0.00000531,-0.00001109,-0.00001477,-0.00007615,0
 .00000784,0.00003777,0.00000478,-0.00000820,0.00000776,-0.00055469,-0.
 00010895,-0.00092175,-0.04759806,-0.00612065,-0.00649315,-0.00248252,0
 .00569984,0.00091640,-0.00014262,0.00000006,-0.00003614,-0.00015819,-0
 .00120736,-0.00137950,-0.00002220,0.00001331,-0.00025689,0.00107575,-0
 .00023650,-0.00005091,0.00018835,0.00000070,0.00005048,0.00016232,0.00
 018009,0.00005474,0.00111491,0.00057769,0.00052243,0.00102961,0.001009
 56,-0.00016885,-0.00000162,0.00001603,0.00003047,0.00002430,-0.0000077
 1,-0.00003208,-0.00000039,-0.00000378,0.00000096,-0.00000067,0.0000013
 3,0.00000691,0.00000111,0.00000317,0.00000282,-0.00000714,0.00000104,0
 .00000434,-0.00000893,0.00000712,0.00000031,-0.00000725,-0.00000305,-0
 .00000387,-0.00058057,0.00083244,0.00054256,0.05229431,0.00007632,0.00
 011140,-0.00013115,-0.00264055,-0.00078415,0.00121649,-0.00317831,-0.0
 1363058,-0.01441370,0.00021542,0.00045253,0.00181884,0.00028358,-0.010
 71134,-0.01204557,0.00003626,-0.00000845,-0.00001218,0.00001651,-0.000
 01784,0.00006776,-0.00000115,0.00000830,0.00001253,0.00006110,-0.00000
 026,-0.00002907,-0.00001136,0.00000989,0.00000453,0.00055661,0.0002768
 7,0.00065509,-0.00476451,-0.17003115,-0.13431858,0.00354919,-0.0039565
 5,-0.00084453,0.00003036,-0.00000406,-0.00000711,-0.00005420,-0.000460
 38,-0.00083503,-0.00017402,-0.00016695,-0.00019867,-0.00050276,0.00055
 908,0.00030924,0.00000935,0.00003114,-0.00016762,0.00005968,0.00024145
 ,-0.00016633,0.00056570,0.00023523,0.00014624,0.00010846,0.00079150,0.
 00024539,-0.00002066,-0.00000612,-0.00002433,-0.00001935,0.00001383,0.
 00004213,0.00000136,0.00000451,-0.00000214,0.00000131,-0.00000160,-0.0
 0000351,-0.00000196,-0.00000214,-0.00000191,0.00000539,-0.00000016,-0.
 00000392,0.00000884,-0.00000552,0.00000043,0.00001284,0.00000350,0.000
 00506,0.00045665,0.01182077,0.01151155,0.00531392,0.18522726,-0.000072
 76,0.00011297,0.00006403,0.00062244,0.00005018,0.00109790,-0.00199957,
 0.00412233,0.00102651,-0.00019439,0.00028753,-0.00040697,-0.00007516,0
 .00341036,0.00277633,0.00004229,0.00000905,-0.00000454,-0.00001837,-0.
 00003225,0.00006021,-0.00000569,0.00001912,0.00001048,0.00006534,-0.00
 000299,-0.00002457,-0.00001485,-0.00002416,-0.00000933,0.00101826,0.00
 012998,0.00015710,-0.00545339,-0.13766073,-0.19762538,-0.00096776,0.00
 170582,0.00114598,0.00009939,-0.00003836,0.00000241,0.00003838,-0.0000
 6804,-0.00002921,0.00004419,0.00022053,0.00010385,0.00040779,0.0004443
 7,0.00100755,0.00001118,-0.00019620,0.00016367,-0.00018770,-0.00015655
 ,0.00030400,-0.00051301,-0.00026911,0.00039494,-0.00048342,-0.00018067
 ,0.00009799,-0.00000652,0.00000923,-0.00000593,0.00000529,0.00000102,0
 .00000177,0.00000135,0.00000616,-0.00000413,0.00000148,-0.00000162,-0.
 00000524,-0.00000097,-0.00000290,-0.00000252,0.00000573,-0.00000092,-0
 .00000271,0.00001309,-0.00000629,0.00000093,0.00000173,0.00000250,0.00
 000093,-0.00075175,-0.01906042,-0.02001440,0.00836739,0.14717009,0.209
 71834\\0.00097775,-0.00162790,-0.00545526,0.00000966,-0.00000403,-0.00
 001193,-0.00001580,-0.00233292,-0.00240144,-0.00001855,-0.00000347,-0.
 00001425,0.00000981,0.00000261,0.00000975,-0.00067631,0.00038889,0.002
 95068,0.00000053,-0.00000676,0.00000176,-0.00000563,-0.00000551,-0.000
 00136,0.00000353,0.00000819,-0.00000398,0.00000323,-0.00000076,-0.0000
 0273,-0.00027530,0.00357843,0.00489017,-0.00001032,-0.00000170,0.00000
 329,-0.00000684,-0.00000773,0.00002047,0.00000014,-0.00000189,-0.00000
 081,0.00000173,-0.00000282,0.00000335,-0.00000325,-0.00000418,-0.00000
 072,0.00000138,-0.00000019,-0.00000360,0.00000191,-0.00000023,-0.00000
 492,0.00000038,0.00000371,0.00000302,-0.00000190,0.00000026,0.00000088
 ,0.00000150,0.00000476,-0.00000205,0.00000345,0.00000035,0.00000381,0.
 00000127,0.00000129,-0.00000233,-0.00000192,0.00000482,0.00000489,-0.0
 0000201,0.00000174,0.00000115,0.00000002,0.00000223,-0.00000191,0.0000
 0195,0.00000193,0.00000208,0.00000072,-0.00000086,0.00000003,0.0000032
 9,0.00000052,0.00000171,0.00000300,0.00000272,0.00000275,-0.00000742,-
 0.00000152,0.00000752\\\@


 PERICLES, SOPHOCLES,
 PELOPONESIAN WAR,
 FRENCH VERBS, LATIN VERBS
 H2SO4.
 Job cpu time:       0 days 14 hours 49 minutes 24.0 seconds.
 Elapsed time:       0 days  0 hours 55 minutes 36.5 seconds.
 File lengths (MBytes):  RWF=    689 Int=      0 D2E=      0 Chk=     33 Scr=      1
 Normal termination of Gaussian 16 at Mon Nov  5 01:51:50 2018.
