 Entering Gaussian System, Link 0=g16
 Initial command:
 /apps/gaussian/g16a03/g16/l1.exe "/jobfs/local/2011849.r-man2/Gau-29598.inp" -scrdir="/jobfs/local/2011849.r-man2/"
 Entering Link 1 = /apps/gaussian/g16a03/g16/l1.exe PID=     29599.
  
 Copyright (c) 1988,1990,1992,1993,1995,1998,2003,2009,2016,
            Gaussian, Inc.  All Rights Reserved.
  
 This is part of the Gaussian(R) 16 program.  It is based on
 the Gaussian(R) 09 system (copyright 2009, Gaussian, Inc.),
 the Gaussian(R) 03 system (copyright 2003, Gaussian, Inc.),
 the Gaussian(R) 98 system (copyright 1998, Gaussian, Inc.),
 the Gaussian(R) 94 system (copyright 1995, Gaussian, Inc.),
 the Gaussian 92(TM) system (copyright 1992, Gaussian, Inc.),
 the Gaussian 90(TM) system (copyright 1990, Gaussian, Inc.),
 the Gaussian 88(TM) system (copyright 1988, Gaussian, Inc.),
 the Gaussian 86(TM) system (copyright 1986, Carnegie Mellon
 University), and the Gaussian 82(TM) system (copyright 1983,
 Carnegie Mellon University). Gaussian is a federally registered
 trademark of Gaussian, Inc.
  
 This software contains proprietary and confidential information,
 including trade secrets, belonging to Gaussian, Inc.
  
 This software is provided under written license and may be
 used, copied, transmitted, or stored only in accord with that
 written license.
  
 The following legend is applicable only to US Government
 contracts under FAR:
  
                    RESTRICTED RIGHTS LEGEND
  
 Use, reproduction and disclosure by the US Government is
 subject to restrictions as set forth in subparagraphs (a)
 and (c) of the Commercial Computer Software - Restricted
 Rights clause in FAR 52.227-19.
  
 Gaussian, Inc.
 340 Quinnipiac St., Bldg. 40, Wallingford CT 06492
  
  
 ---------------------------------------------------------------
 Warning -- This program may not be used in any manner that
 competes with the business of Gaussian, Inc. or will provide
 assistance to any competitor of Gaussian, Inc.  The licensee
 of this program is prohibited from giving any competitor of
 Gaussian, Inc. access to this program.  By using this program,
 the user acknowledges that Gaussian, Inc. is engaged in the
 business of creating and licensing software in the field of
 computational chemistry and represents and warrants to the
 licensee that it is not a competitor of Gaussian, Inc. and that
 it will not use this program in any manner prohibited above.
 ---------------------------------------------------------------
  

 Cite this work as:
 Gaussian 16, Revision A.03,
 M. J. Frisch, G. W. Trucks, H. B. Schlegel, G. E. Scuseria, 
 M. A. Robb, J. R. Cheeseman, G. Scalmani, V. Barone, 
 G. A. Petersson, H. Nakatsuji, X. Li, M. Caricato, A. V. Marenich, 
 J. Bloino, B. G. Janesko, R. Gomperts, B. Mennucci, H. P. Hratchian, 
 J. V. Ortiz, A. F. Izmaylov, J. L. Sonnenberg, D. Williams-Young, 
 F. Ding, F. Lipparini, F. Egidi, J. Goings, B. Peng, A. Petrone, 
 T. Henderson, D. Ranasinghe, V. G. Zakrzewski, J. Gao, N. Rega, 
 G. Zheng, W. Liang, M. Hada, M. Ehara, K. Toyota, R. Fukuda, 
 J. Hasegawa, M. Ishida, T. Nakajima, Y. Honda, O. Kitao, H. Nakai, 
 T. Vreven, K. Throssell, J. A. Montgomery, Jr., J. E. Peralta, 
 F. Ogliaro, M. J. Bearpark, J. J. Heyd, E. N. Brothers, K. N. Kudin, 
 V. N. Staroverov, T. A. Keith, R. Kobayashi, J. Normand, 
 K. Raghavachari, A. P. Rendell, J. C. Burant, S. S. Iyengar, 
 J. Tomasi, M. Cossi, J. M. Millam, M. Klene, C. Adamo, R. Cammi, 
 J. W. Ochterski, R. L. Martin, K. Morokuma, O. Farkas, 
 J. B. Foresman, and D. J. Fox, Gaussian, Inc., Wallingford CT, 2016.
 
 ******************************************
 Gaussian 16:  ES64L-G16RevA.03 25-Dec-2016
                 4-Nov-2018 
 ******************************************
 %mem=6000mb
 %nproc=24
 Will use up to   24 processors via shared memory.
 %chk=2SO_1_e4_D_PSI.inp_extract_12.chk
 ----------------------------------------------------------------------
 #M062X/6-311++G(2d,2p) opt=ModRedundant freq=noraman SCRF=(Solvent=Wat
 er)
 ----------------------------------------------------------------------
 1/18=120,19=15,26=3,38=1/1,3;
 2/9=110,12=2,17=6,18=5,40=1/2;
 3/5=4,6=6,7=1212,11=2,25=1,30=1,70=2201,71=1,72=1,74=-55/1,2,3;
 4//1;
 5/5=2,38=5,53=1/2;
 6/7=2,8=2,9=2,10=2,28=1/1;
 7//1,2,3,16;
 1/18=20,19=15,26=3/3(2);
 2/9=110/2;
 99//99;
 2/9=110/2;
 3/5=4,6=6,7=1212,11=2,25=1,30=1,70=2205,71=1,72=1,74=-55/1,2,3;
 4/5=5,16=3,69=1/1;
 5/5=2,38=5,53=1/2;
 7//1,2,3,16;
 1/18=20,19=15,26=3/3(-5);
 2/9=110/2;
 6/7=2,8=2,9=2,10=2,19=2,28=1/1;
 99/9=1/99;
 -----------------------------
 2SO_1_e4_D_PSI.inp_extract_12
 -----------------------------
 Symbolic Z-matrix:
 Charge =  0 Multiplicity = 1
 C                     1.22406   0.47505  -0.70503 
 C                    -3.58117  -0.91168   0.35628 
 C                    -1.11191   0.69919   0.04149 
 C                    -2.15424  -1.43573   0.17818 
 C                    -3.59747   0.62542   0.27519 
 C                     1.73968   1.17294   0.54943 
 C                     1.60227  -1.00408  -0.68348 
 C                     3.54572  -0.57099   0.58583 
 O                     3.00618  -1.13579  -0.59568 
 C                     3.24658   0.9179    0.6646 
 O                    -0.15946   0.64091  -0.98224 
 C                    -2.43766   1.11642  -0.58882 
 O                    -1.22151  -0.51908   0.72776 
 H                     1.71509   0.91794  -1.56342 
 H                    -3.98359  -1.23854   1.30971 
 H                    -4.20721  -1.34237  -0.41991 
 H                    -0.80579   1.4155    0.78722 
 H                    -2.00227  -2.37076   0.6982 
 H                    -1.92354  -1.59706  -0.86878 
 H                    -3.50346   1.04917   1.27109 
 H                    -4.54148   0.97734  -0.1265 
 H                     1.5342    2.23784   0.50282 
 H                     1.24719   0.77912   1.43334 
 H                     1.2981   -1.48511  -1.60314 
 H                     1.13702  -1.51704   0.15094 
 H                     3.13195  -1.09022   1.44739 
 H                     4.6104   -0.75776   0.5541 
 H                     3.62336   1.30967   1.60455 
 H                     3.77301   1.4302   -0.13645 
 H                    -2.51223   0.69195  -1.58542 
 H                    -2.44754   2.19525  -0.69648 
 
 The following ModRedundant input section has been read:
 D       6       1      11       3 F                                           
 

 GradGradGradGradGradGradGradGradGradGradGradGradGradGradGradGradGradGrad
 Berny optimization.
 Initialization pass.
                           ----------------------------
                           !    Initial Parameters    !
                           ! (Angstroms and Degrees)  !
 --------------------------                            --------------------------
 ! Name  Definition              Value          Derivative Info.                !
 --------------------------------------------------------------------------------
 ! R1    R(1,6)                  1.5253         estimate D2E/DX2                !
 ! R2    R(1,7)                  1.5269         estimate D2E/DX2                !
 ! R3    R(1,11)                 1.4207         estimate D2E/DX2                !
 ! R4    R(1,14)                 1.0836         estimate D2E/DX2                !
 ! R5    R(2,4)                  1.5305         estimate D2E/DX2                !
 ! R6    R(2,5)                  1.5393         estimate D2E/DX2                !
 ! R7    R(2,15)                 1.0853         estimate D2E/DX2                !
 ! R8    R(2,16)                 1.0862         estimate D2E/DX2                !
 ! R9    R(3,11)                 1.3995         estimate D2E/DX2                !
 ! R10   R(3,12)                 1.5261         estimate D2E/DX2                !
 ! R11   R(3,13)                 1.4026         estimate D2E/DX2                !
 ! R12   R(3,17)                 1.0784         estimate D2E/DX2                !
 ! R13   R(4,13)                 1.4185         estimate D2E/DX2                !
 ! R14   R(4,18)                 1.0807         estimate D2E/DX2                !
 ! R15   R(4,19)                 1.0841         estimate D2E/DX2                !
 ! R16   R(5,12)                 1.5273         estimate D2E/DX2                !
 ! R17   R(5,20)                 1.0864         estimate D2E/DX2                !
 ! R18   R(5,21)                 1.0846         estimate D2E/DX2                !
 ! R19   R(6,10)                 1.5327         estimate D2E/DX2                !
 ! R20   R(6,22)                 1.0855         estimate D2E/DX2                !
 ! R21   R(6,23)                 1.0858         estimate D2E/DX2                !
 ! R22   R(7,9)                  1.4128         estimate D2E/DX2                !
 ! R23   R(7,24)                 1.0815         estimate D2E/DX2                !
 ! R24   R(7,25)                 1.0844         estimate D2E/DX2                !
 ! R25   R(8,9)                  1.4164         estimate D2E/DX2                !
 ! R26   R(8,10)                 1.5207         estimate D2E/DX2                !
 ! R27   R(8,26)                 1.0877         estimate D2E/DX2                !
 ! R28   R(8,27)                 1.0814         estimate D2E/DX2                !
 ! R29   R(10,28)                1.0858         estimate D2E/DX2                !
 ! R30   R(10,29)                1.0869         estimate D2E/DX2                !
 ! R31   R(12,30)                1.0858         estimate D2E/DX2                !
 ! R32   R(12,31)                1.0842         estimate D2E/DX2                !
 ! A1    A(6,1,7)              110.3583         estimate D2E/DX2                !
 ! A2    A(6,1,11)             115.8649         estimate D2E/DX2                !
 ! A3    A(6,1,14)             108.139          estimate D2E/DX2                !
 ! A4    A(7,1,11)             110.9197         estimate D2E/DX2                !
 ! A5    A(7,1,14)             107.1502         estimate D2E/DX2                !
 ! A6    A(11,1,14)            103.8281         estimate D2E/DX2                !
 ! A7    A(4,2,5)              110.2215         estimate D2E/DX2                !
 ! A8    A(4,2,15)             110.1707         estimate D2E/DX2                !
 ! A9    A(4,2,16)             108.5671         estimate D2E/DX2                !
 ! A10   A(5,2,15)             110.066          estimate D2E/DX2                !
 ! A11   A(5,2,16)             110.6209         estimate D2E/DX2                !
 ! A12   A(15,2,16)            107.1356         estimate D2E/DX2                !
 ! A13   A(11,3,12)            107.4867         estimate D2E/DX2                !
 ! A14   A(11,3,13)            112.0203         estimate D2E/DX2                !
 ! A15   A(11,3,17)            109.8963         estimate D2E/DX2                !
 ! A16   A(12,3,13)            111.8193         estimate D2E/DX2                !
 ! A17   A(12,3,17)            110.5248         estimate D2E/DX2                !
 ! A18   A(13,3,17)            105.1164         estimate D2E/DX2                !
 ! A19   A(2,4,13)             110.2847         estimate D2E/DX2                !
 ! A20   A(2,4,18)             111.8005         estimate D2E/DX2                !
 ! A21   A(2,4,19)             111.2063         estimate D2E/DX2                !
 ! A22   A(13,4,18)            106.2728         estimate D2E/DX2                !
 ! A23   A(13,4,19)            109.2921         estimate D2E/DX2                !
 ! A24   A(18,4,19)            107.8192         estimate D2E/DX2                !
 ! A25   A(2,5,12)             110.0459         estimate D2E/DX2                !
 ! A26   A(2,5,20)             109.8941         estimate D2E/DX2                !
 ! A27   A(2,5,21)             110.6546         estimate D2E/DX2                !
 ! A28   A(12,5,20)            109.1155         estimate D2E/DX2                !
 ! A29   A(12,5,21)            110.3111         estimate D2E/DX2                !
 ! A30   A(20,5,21)            106.7542         estimate D2E/DX2                !
 ! A31   A(1,6,10)             108.5439         estimate D2E/DX2                !
 ! A32   A(1,6,22)             110.4589         estimate D2E/DX2                !
 ! A33   A(1,6,23)             110.5012         estimate D2E/DX2                !
 ! A34   A(10,6,22)            110.6447         estimate D2E/DX2                !
 ! A35   A(10,6,23)            108.9307         estimate D2E/DX2                !
 ! A36   A(22,6,23)            107.7526         estimate D2E/DX2                !
 ! A37   A(1,7,9)              109.7149         estimate D2E/DX2                !
 ! A38   A(1,7,24)             110.4385         estimate D2E/DX2                !
 ! A39   A(1,7,25)             111.2747         estimate D2E/DX2                !
 ! A40   A(9,7,24)             106.9095         estimate D2E/DX2                !
 ! A41   A(9,7,25)             109.5373         estimate D2E/DX2                !
 ! A42   A(24,7,25)            108.8606         estimate D2E/DX2                !
 ! A43   A(9,8,10)             111.0207         estimate D2E/DX2                !
 ! A44   A(9,8,26)             108.9947         estimate D2E/DX2                !
 ! A45   A(9,8,27)             106.3621         estimate D2E/DX2                !
 ! A46   A(10,8,26)            110.5802         estimate D2E/DX2                !
 ! A47   A(10,8,27)            111.3638         estimate D2E/DX2                !
 ! A48   A(26,8,27)            108.3804         estimate D2E/DX2                !
 ! A49   A(7,9,8)              113.1544         estimate D2E/DX2                !
 ! A50   A(6,10,8)             110.6368         estimate D2E/DX2                !
 ! A51   A(6,10,28)            110.2543         estimate D2E/DX2                !
 ! A52   A(6,10,29)            110.023          estimate D2E/DX2                !
 ! A53   A(8,10,28)            109.2597         estimate D2E/DX2                !
 ! A54   A(8,10,29)            109.15           estimate D2E/DX2                !
 ! A55   A(28,10,29)           107.4504         estimate D2E/DX2                !
 ! A56   A(1,11,3)             121.6599         estimate D2E/DX2                !
 ! A57   A(3,12,5)             109.7636         estimate D2E/DX2                !
 ! A58   A(3,12,30)            109.3821         estimate D2E/DX2                !
 ! A59   A(3,12,31)            108.7204         estimate D2E/DX2                !
 ! A60   A(5,12,30)            109.9625         estimate D2E/DX2                !
 ! A61   A(5,12,31)            111.662          estimate D2E/DX2                !
 ! A62   A(30,12,31)           107.2911         estimate D2E/DX2                !
 ! A63   A(3,13,4)             115.03           estimate D2E/DX2                !
 ! D1    D(7,1,6,10)            54.4777         estimate D2E/DX2                !
 ! D2    D(7,1,6,22)           175.9483         estimate D2E/DX2                !
 ! D3    D(7,1,6,23)           -64.9125         estimate D2E/DX2                !
 ! D4    D(11,1,6,10)         -178.4265         estimate D2E/DX2                !
 ! D5    D(11,1,6,22)          -56.9559         estimate D2E/DX2                !
 ! D6    D(11,1,6,23)           62.1832         estimate D2E/DX2                !
 ! D7    D(14,1,6,10)          -62.4288         estimate D2E/DX2                !
 ! D8    D(14,1,6,22)           59.0418         estimate D2E/DX2                !
 ! D9    D(14,1,6,23)          178.181          estimate D2E/DX2                !
 ! D10   D(6,1,7,9)            -58.4553         estimate D2E/DX2                !
 ! D11   D(6,1,7,24)          -176.0536         estimate D2E/DX2                !
 ! D12   D(6,1,7,25)            62.9276         estimate D2E/DX2                !
 ! D13   D(11,1,7,9)           171.753          estimate D2E/DX2                !
 ! D14   D(11,1,7,24)           54.1547         estimate D2E/DX2                !
 ! D15   D(11,1,7,25)          -66.8641         estimate D2E/DX2                !
 ! D16   D(14,1,7,9)            59.0629         estimate D2E/DX2                !
 ! D17   D(14,1,7,24)          -58.5355         estimate D2E/DX2                !
 ! D18   D(14,1,7,25)         -179.5543         estimate D2E/DX2                !
 ! D19   D(6,1,11,3)           -36.0082         Frozen                          !
 ! D20   D(7,1,11,3)            90.8065         estimate D2E/DX2                !
 ! D21   D(14,1,11,3)         -154.4095         estimate D2E/DX2                !
 ! D22   D(5,2,4,13)            33.0551         estimate D2E/DX2                !
 ! D23   D(5,2,4,18)           151.0624         estimate D2E/DX2                !
 ! D24   D(5,2,4,19)           -88.3591         estimate D2E/DX2                !
 ! D25   D(15,2,4,13)          -88.6026         estimate D2E/DX2                !
 ! D26   D(15,2,4,18)           29.4048         estimate D2E/DX2                !
 ! D27   D(15,2,4,19)          149.9832         estimate D2E/DX2                !
 ! D28   D(16,2,4,13)          154.364          estimate D2E/DX2                !
 ! D29   D(16,2,4,18)          -87.6287         estimate D2E/DX2                !
 ! D30   D(16,2,4,19)           32.9498         estimate D2E/DX2                !
 ! D31   D(4,2,5,12)            27.4586         estimate D2E/DX2                !
 ! D32   D(4,2,5,20)           -92.724          estimate D2E/DX2                !
 ! D33   D(4,2,5,21)           149.6283         estimate D2E/DX2                !
 ! D34   D(15,2,5,12)          149.1784         estimate D2E/DX2                !
 ! D35   D(15,2,5,20)           28.9958         estimate D2E/DX2                !
 ! D36   D(15,2,5,21)          -88.6518         estimate D2E/DX2                !
 ! D37   D(16,2,5,12)          -92.6187         estimate D2E/DX2                !
 ! D38   D(16,2,5,20)          147.1988         estimate D2E/DX2                !
 ! D39   D(16,2,5,21)           29.5511         estimate D2E/DX2                !
 ! D40   D(12,3,11,1)          170.5174         estimate D2E/DX2                !
 ! D41   D(13,3,11,1)          -66.2685         estimate D2E/DX2                !
 ! D42   D(17,3,11,1)           50.1889         estimate D2E/DX2                !
 ! D43   D(11,3,12,5)          155.3206         estimate D2E/DX2                !
 ! D44   D(11,3,12,30)          34.5918         estimate D2E/DX2                !
 ! D45   D(11,3,12,31)         -82.2741         estimate D2E/DX2                !
 ! D46   D(13,3,12,5)           31.9833         estimate D2E/DX2                !
 ! D47   D(13,3,12,30)         -88.7455         estimate D2E/DX2                !
 ! D48   D(13,3,12,31)         154.3886         estimate D2E/DX2                !
 ! D49   D(17,3,12,5)          -84.7496         estimate D2E/DX2                !
 ! D50   D(17,3,12,30)         154.5216         estimate D2E/DX2                !
 ! D51   D(17,3,12,31)          37.6557         estimate D2E/DX2                !
 ! D52   D(11,3,13,4)          -88.5364         estimate D2E/DX2                !
 ! D53   D(12,3,13,4)           32.1982         estimate D2E/DX2                !
 ! D54   D(17,3,13,4)          152.1554         estimate D2E/DX2                !
 ! D55   D(2,4,13,3)           -68.2963         estimate D2E/DX2                !
 ! D56   D(18,4,13,3)          170.3483         estimate D2E/DX2                !
 ! D57   D(19,4,13,3)           54.2489         estimate D2E/DX2                !
 ! D58   D(2,5,12,3)           -61.646          estimate D2E/DX2                !
 ! D59   D(2,5,12,30)           58.7312         estimate D2E/DX2                !
 ! D60   D(2,5,12,31)          177.7126         estimate D2E/DX2                !
 ! D61   D(20,5,12,3)           59.0063         estimate D2E/DX2                !
 ! D62   D(20,5,12,30)         179.3835         estimate D2E/DX2                !
 ! D63   D(20,5,12,31)         -61.6351         estimate D2E/DX2                !
 ! D64   D(21,5,12,3)          175.981          estimate D2E/DX2                !
 ! D65   D(21,5,12,30)         -63.6417         estimate D2E/DX2                !
 ! D66   D(21,5,12,31)          55.3396         estimate D2E/DX2                !
 ! D67   D(1,6,10,8)           -52.8216         estimate D2E/DX2                !
 ! D68   D(1,6,10,28)         -173.7969         estimate D2E/DX2                !
 ! D69   D(1,6,10,29)           67.8643         estimate D2E/DX2                !
 ! D70   D(22,6,10,8)         -174.1781         estimate D2E/DX2                !
 ! D71   D(22,6,10,28)          64.8467         estimate D2E/DX2                !
 ! D72   D(22,6,10,29)         -53.4921         estimate D2E/DX2                !
 ! D73   D(23,6,10,8)           67.5482         estimate D2E/DX2                !
 ! D74   D(23,6,10,28)         -53.427          estimate D2E/DX2                !
 ! D75   D(23,6,10,29)        -171.7658         estimate D2E/DX2                !
 ! D76   D(1,7,9,8)             61.5145         estimate D2E/DX2                !
 ! D77   D(24,7,9,8)          -178.7072         estimate D2E/DX2                !
 ! D78   D(25,7,9,8)           -60.9068         estimate D2E/DX2                !
 ! D79   D(10,8,9,7)           -60.3496         estimate D2E/DX2                !
 ! D80   D(26,8,9,7)            61.6926         estimate D2E/DX2                !
 ! D81   D(27,8,9,7)           178.348          estimate D2E/DX2                !
 ! D82   D(9,8,10,6)            55.3006         estimate D2E/DX2                !
 ! D83   D(9,8,10,28)          176.8641         estimate D2E/DX2                !
 ! D84   D(9,8,10,29)          -65.9034         estimate D2E/DX2                !
 ! D85   D(26,8,10,6)          -65.8135         estimate D2E/DX2                !
 ! D86   D(26,8,10,28)          55.75           estimate D2E/DX2                !
 ! D87   D(26,8,10,29)         172.9824         estimate D2E/DX2                !
 ! D88   D(27,8,10,6)          173.6193         estimate D2E/DX2                !
 ! D89   D(27,8,10,28)         -64.8172         estimate D2E/DX2                !
 ! D90   D(27,8,10,29)          52.4152         estimate D2E/DX2                !
 --------------------------------------------------------------------------------
 Trust Radius=3.00D-01 FncErr=1.00D-07 GrdErr=1.00D-06 EigMax=2.50D+02 EigMin=1.00D-04
 Number of steps in this run=    186 maximum allowed number of steps=    186.
 GradGradGradGradGradGradGradGradGradGradGradGradGradGradGradGradGradGrad

                          Input orientation:                          
 ---------------------------------------------------------------------
 Center     Atomic      Atomic             Coordinates (Angstroms)
 Number     Number       Type             X           Y           Z
 ---------------------------------------------------------------------
      1          6           0        1.224057    0.475053   -0.705028
      2          6           0       -3.581169   -0.911678    0.356283
      3          6           0       -1.111909    0.699187    0.041489
      4          6           0       -2.154242   -1.435726    0.178176
      5          6           0       -3.597473    0.625415    0.275188
      6          6           0        1.739684    1.172940    0.549427
      7          6           0        1.602273   -1.004076   -0.683484
      8          6           0        3.545722   -0.570994    0.585828
      9          8           0        3.006176   -1.135793   -0.595676
     10          6           0        3.246577    0.917899    0.664601
     11          8           0       -0.159459    0.640906   -0.982238
     12          6           0       -2.437665    1.116419   -0.588823
     13          8           0       -1.221509   -0.519079    0.727763
     14          1           0        1.715087    0.917937   -1.563419
     15          1           0       -3.983591   -1.238540    1.309705
     16          1           0       -4.207208   -1.342374   -0.419908
     17          1           0       -0.805789    1.415497    0.787221
     18          1           0       -2.002269   -2.370760    0.698196
     19          1           0       -1.923543   -1.597064   -0.868775
     20          1           0       -3.503458    1.049169    1.271094
     21          1           0       -4.541485    0.977338   -0.126496
     22          1           0        1.534203    2.237842    0.502816
     23          1           0        1.247191    0.779115    1.433336
     24          1           0        1.298098   -1.485105   -1.603137
     25          1           0        1.137024   -1.517039    0.150941
     26          1           0        3.131946   -1.090225    1.447391
     27          1           0        4.610398   -0.757756    0.554102
     28          1           0        3.623355    1.309667    1.604545
     29          1           0        3.773014    1.430204   -0.136454
     30          1           0       -2.512227    0.691948   -1.585418
     31          1           0       -2.447535    2.195252   -0.696476
 ---------------------------------------------------------------------
                    Distance matrix (angstroms):
                    1          2          3          4          5
     1  C    0.000000
     2  C    5.112690   0.000000
     3  C    2.462572   2.965000   0.000000
     4  C    3.980456   1.530513   2.379705   0.000000
     5  C    4.922457   1.539317   2.497616   2.518061   0.000000
     6  C    1.525311   5.717903   2.934966   4.701662   5.372172
     7  C    1.526871   5.287506   3.285342   3.878168   5.532780
     8  C    2.854935   7.138721   4.858312   5.779579   7.249354
     9  O    2.404731   6.659547   4.553214   5.226731   6.889734
    10  C    2.482455   7.075346   4.408231   5.911430   6.861356
    11  O    1.420728   3.988766   1.399491   3.104532   3.660779
    12  C    3.719282   2.512768   1.526108   2.679937   1.527336
    13  O    3.003661   2.420770   1.402553   1.418548   2.675798
    14  H    1.083555   5.923097   3.258142   4.852277   5.629328
    15  H    5.840817   1.085263   3.689135   2.160037   2.166481
    16  H    5.734368   1.086230   3.736540   2.140348   2.174196
    17  H    2.689148   3.647490   1.078390   3.212279   2.946168
    18  H    4.525137   2.176867   3.263216   1.080650   3.420625
    19  H    3.771985   2.172152   2.600019   1.084139   3.008339
    20  H    5.155974   2.165142   2.711812   3.031428   1.086386
    21  H    5.816224   2.173399   3.444935   3.408025   1.084601
    22  H    2.159283   6.008992   3.095511   5.215853   5.383849
    23  H    2.159998   5.227990   2.740252   4.248611   4.983543
    24  H    2.157383   5.289177   3.644730   3.885121   5.652346
    25  H    2.169951   4.761299   3.159325   3.292383   5.198174
    26  H    3.274606   6.803551   4.815481   5.447390   7.042909
    27  H    3.817399   8.195401   5.927078   6.808915   8.328271
    28  H    3.433269   7.641839   5.023799   6.553803   7.373991
    29  H    2.780786   7.733771   4.942522   6.591275   7.425713
    30  H    3.844730   2.735773   2.146572   2.786649   2.155004
    31  H    4.054596   3.470798   2.136984   3.746337   2.175058
                    6          7          8          9         10
     6  C    0.000000
     7  C    2.505664   0.000000
     8  C    2.510857   2.361293   0.000000
     9  O    2.871500   1.412800   1.416354   0.000000
    10  C    1.532657   2.866192   1.520689   2.421516   0.000000
    11  O    2.497159   2.428769   4.201892   3.650662   3.793400
    12  C    4.330018   4.563612   6.326775   5.891342   5.824181
    13  O    3.415171   3.193835   4.769626   4.472711   4.693899
    14  H    2.128321   2.116872   3.191771   2.611751   2.703615
    15  H    6.256927   5.935457   7.593429   7.245542   7.572431
    16  H    6.529314   5.825289   7.855855   7.218482   7.864090
    17  H    2.568037   3.716997   4.787729   4.790883   4.084643
    18  H    5.155788   4.095069   5.833694   5.318249   6.194093
    19  H    4.806605   3.580132   5.751656   4.958778   5.950330
    20  H    5.294021   5.839921   7.265360   7.115773   6.778498
    21  H    6.320460   6.479352   8.264844   7.851919   7.828364
    22  H    1.085547   3.452821   3.455815   3.841198   2.168098
    23  H    1.085791   2.790480   2.797197   3.298150   2.146569
    24  H    3.448729   1.081514   3.267871   2.013586   3.835836
    25  H    2.785315   1.084367   2.624110   2.048540   3.262359
    26  H    2.804755   2.624490   1.087705   2.047442   2.158347
    27  H    3.459568   3.262071   1.081398   2.009584   2.163339
    28  H    2.163373   3.830569   2.140256   3.346962   1.085789
    29  H    2.161261   3.307125   2.139660   2.717217   1.086868
    30  H    4.782015   4.540825   6.558054   5.896863   6.186878
    31  H    4.486669   5.161086   6.724251   6.391321   5.992251
                   11         12         13         14         15
    11  O    0.000000
    12  C    2.360320   0.000000
    13  O    2.323278   2.426373   0.000000
    14  H    1.982029   4.270197   3.992258   0.000000
    15  H    4.838316   3.397076   2.912967   6.736480   0.000000
    16  H    4.542454   3.034053   3.302932   6.441289   1.747097
    17  H    2.036840   2.155450   1.979632   3.482512   4.173168
    18  H    3.910235   3.742513   2.009772   5.454280   2.362520
    19  H    2.851907   2.775911   2.050326   4.477431   3.019621
    20  H    4.052963   2.144698   2.821684   5.940109   2.337869
    21  H    4.477458   2.158506   3.740490   6.419733   2.698895
    22  H    2.761174   4.269075   3.904505   2.458495   6.571328
    23  H    2.798708   4.216760   2.877085   3.036238   5.607789
    24  H    2.651398   4.663977   3.565771   2.439276   6.036695
    25  H    2.760741   4.501195   2.625133   3.033529   5.257470
    26  H    4.442213   6.327402   4.449342   3.886538   7.118414
    27  H    5.202704   7.382005   5.839372   3.959125   8.640529
    28  H    4.631238   6.448579   5.252215   3.718997   8.027821
    29  H    4.099108   6.235033   5.430639   2.556112   8.329375
    30  H    2.429393   1.085789   2.912618   4.233407   3.778020
    31  H    2.780817   1.084236   3.301392   4.439656   4.263233
                   16         17         18         19         20
    16  H    0.000000
    17  H    4.542319   0.000000
    18  H    2.677590   3.971805   0.000000
    19  H    2.341255   3.614861   1.749343   0.000000
    20  H    3.012346   2.765094   3.778584   3.752029   0.000000
    21  H    2.361969   3.870696   4.282230   3.745950   1.742388
    22  H    6.828848   2.496538   5.812402   5.342637   5.232707
    23  H    6.138868   2.244365   4.584881   4.582521   4.761084
    24  H    5.632832   4.307394   4.119823   3.306175   6.143182
    25  H    5.377471   3.574793   3.299013   3.226964   5.419801
    26  H    7.577174   4.713833   5.344270   5.583859   6.974000
    27  H    8.890481   5.840587   6.808077   6.739540   8.343483
    28  H    8.511724   4.505168   6.783410   6.733088   7.139364
    29  H    8.452898   4.671063   6.964041   6.492412   7.421147
    30  H    2.893068   3.010792   3.854235   2.469757   3.044636
    31  H    3.960775   2.346211   4.794980   3.832221   2.509942
                   21         22         23         24         25
    21  H    0.000000
    22  H    6.236897   0.000000
    23  H    5.998428   1.753889   0.000000
    24  H    6.507290   4.283820   3.788067   0.000000
    25  H    6.208410   3.792189   2.632299   1.761747   0.000000
    26  H    8.101449   3.810648   2.654606   3.581152   2.417161
    27  H    9.339739   4.294091   3.800814   4.019210   3.578181
    28  H    8.352937   2.537690   2.440687   4.848381   4.035477
    29  H    8.326829   2.464390   3.044329   4.095778   3.964503
    30  H    2.515510   4.808753   4.822209   4.388445   4.605605
    31  H    2.488537   4.158648   4.493611   5.328867   5.229559
                   26         27         28         29         30
    26  H    0.000000
    27  H    1.759068   0.000000
    28  H    2.454722   2.520302   0.000000
    29  H    3.045012   2.442386   1.751572   0.000000
    30  H    6.650621   7.577003   6.942824   6.492209   0.000000
    31  H    6.820640   7.752330   6.552455   6.292388   1.747663
                   31
    31  H    0.000000
 Stoichiometry    C10H18O3
 Framework group  C1[X(C10H18O3)]
 Deg. of freedom    87
 Full point group                 C1      NOp   1
 Largest Abelian subgroup         C1      NOp   1
 Largest concise Abelian subgroup C1      NOp   1
                         Standard orientation:                         
 ---------------------------------------------------------------------
 Center     Atomic      Atomic             Coordinates (Angstroms)
 Number     Number       Type             X           Y           Z
 ---------------------------------------------------------------------
      1          6           0        1.224057   -0.475053    0.705028
      2          6           0       -3.581169    0.911678   -0.356283
      3          6           0       -1.111909   -0.699187   -0.041489
      4          6           0       -2.154242    1.435726   -0.178176
      5          6           0       -3.597473   -0.625415   -0.275188
      6          6           0        1.739684   -1.172940   -0.549427
      7          6           0        1.602273    1.004076    0.683484
      8          6           0        3.545722    0.570994   -0.585828
      9          8           0        3.006176    1.135793    0.595676
     10          6           0        3.246577   -0.917899   -0.664601
     11          8           0       -0.159459   -0.640906    0.982238
     12          6           0       -2.437665   -1.116419    0.588823
     13          8           0       -1.221509    0.519079   -0.727763
     14          1           0        1.715087   -0.917937    1.563419
     15          1           0       -3.983591    1.238540   -1.309705
     16          1           0       -4.207208    1.342374    0.419908
     17          1           0       -0.805789   -1.415497   -0.787221
     18          1           0       -2.002269    2.370760   -0.698196
     19          1           0       -1.923543    1.597064    0.868775
     20          1           0       -3.503458   -1.049169   -1.271094
     21          1           0       -4.541485   -0.977338    0.126496
     22          1           0        1.534203   -2.237842   -0.502816
     23          1           0        1.247191   -0.779115   -1.433336
     24          1           0        1.298098    1.485105    1.603137
     25          1           0        1.137024    1.517039   -0.150941
     26          1           0        3.131946    1.090225   -1.447391
     27          1           0        4.610398    0.757756   -0.554102
     28          1           0        3.623355   -1.309667   -1.604545
     29          1           0        3.773014   -1.430204    0.136454
     30          1           0       -2.512227   -0.691948    1.585418
     31          1           0       -2.447535   -2.195252    0.696476
 ---------------------------------------------------------------------
 Rotational constants (GHZ):           1.9693826           0.4139401           0.3847220
 Standard basis: 6-311++G(2d,2p) (5D, 7F)
 There are   557 symmetry adapted cartesian basis functions of A   symmetry.
 There are   531 symmetry adapted basis functions of A   symmetry.
   531 basis functions,   762 primitive gaussians,   557 cartesian basis functions
    51 alpha electrons       51 beta electrons
       nuclear repulsion energy       895.6623456622 Hartrees.
 NAtoms=   31 NActive=   31 NUniq=   31 SFac= 1.00D+00 NAtFMM=   60 NAOKFM=F Big=F
 Integral buffers will be    131072 words long.
 Raffenetti 2 integral format.
 Two-electron integral symmetry is turned on.
 ------------------------------------------------------------------------------
 Polarizable Continuum Model (PCM)
 =================================
 Model                : PCM.
 Atomic radii         : UFF (Universal Force Field).
 Polarization charges : Total charges.
 Charge compensation  : None.
 Solution method      : On-the-fly selection.
 Cavity type          : Scaled VdW (van der Waals Surface) (Alpha=1.100).
 Cavity algorithm     : GePol (No added spheres)
                        Default sphere list used, NSphG=   31.
                        Lebedev-Laikov grids with approx.  5.0 points / Ang**2.
                        Smoothing algorithm: York/Karplus (Gamma=1.0000).
                        Polarization charges: spherical gaussians, with
                                              point-specific exponents (IZeta= 3).
                        Self-potential: point-specific (ISelfS= 7).
                        Self-field    : sphere-specific E.n sum rule (ISelfD= 2).
 1st derivatives      : Analytical E(r).r(x)/FMM algorithm (CHGder, D1EAlg=3).
                        Cavity 1st derivative terms included.
 Solvent              : Water, Eps=  78.355300 Eps(inf)=   1.777849
 ------------------------------------------------------------------------------
 One-electron integrals computed using PRISM.
 NBasis=   531 RedAO= T EigKep=  4.72D-06  NBF=   531
 NBsUse=   531 1.00D-06 EigRej= -1.00D+00 NBFU=   531
 ExpMin= 3.60D-02 ExpMax= 8.59D+03 ExpMxC= 1.30D+03 IAcc=3 IRadAn=         5 AccDes= 0.00D+00
 Harris functional with IExCor= 1009 and IRadAn=       5 diagonalized for initial guess.
 HarFok:  IExCor= 1009 AccDes= 0.00D+00 IRadAn=         5 IDoV= 1 UseB2=F ITyADJ=14
 ICtDFT=  3500011 ScaDFX=  1.000000  1.000000  1.000000  1.000000
 FoFCou: FMM=F IPFlag=           0 FMFlag=      100000 FMFlg1=           0
         NFxFlg=           0 DoJE=T BraDBF=F KetDBF=T FulRan=T
         wScrn=  0.000000 ICntrl=       500 IOpCl=  0 I1Cent=   200000004 NGrid=           0
         NMat0=    1 NMatS0=      1 NMatT0=    0 NMatD0=    1 NMtDS0=    0 NMtDT0=    0
 Petite list used in FoFCou.
 Requested convergence on RMS density matrix=1.00D-08 within 128 cycles.
 Requested convergence on MAX density matrix=1.00D-06.
 Requested convergence on             energy=1.00D-06.
 No special actions if energy rises.
 Inv3:  Mode=1 IEnd=    12644427.
 Iteration    1 A*A^-1 deviation from unit magnitude is 7.55D-15 for   2038.
 Iteration    1 A*A^-1 deviation from orthogonality  is 3.62D-15 for   2052    376.
 Iteration    1 A^-1*A deviation from unit magnitude is 7.55D-15 for   2038.
 Iteration    1 A^-1*A deviation from orthogonality  is 1.92D-15 for   2040    861.
 Error on total polarization charges =  0.01476
 SCF Done:  E(RM062X) =  -617.493487577     A.U. after   12 cycles
            NFock= 12  Conv=0.62D-08     -V/T= 2.0035

 **********************************************************************

            Population analysis using the SCF density.

 **********************************************************************

 Orbital symmetries:
       Occupied  (A) (A) (A) (A) (A) (A) (A) (A) (A) (A) (A) (A)
                 (A) (A) (A) (A) (A) (A) (A) (A) (A) (A) (A) (A)
                 (A) (A) (A) (A) (A) (A) (A) (A) (A) (A) (A) (A)
                 (A) (A) (A) (A) (A) (A) (A) (A) (A) (A) (A) (A)
                 (A) (A) (A)
       Virtual   (A) (A) (A) (A) (A) (A) (A) (A) (A) (A) (A) (A)
                 (A) (A) (A) (A) (A) (A) (A) (A) (A) (A) (A) (A)
                 (A) (A) (A) (A) (A) (A) (A) (A) (A) (A) (A) (A)
                 (A) (A) (A) (A) (A) (A) (A) (A) (A) (A) (A) (A)
                 (A) (A) (A) (A) (A) (A) (A) (A) (A) (A) (A) (A)
                 (A) (A) (A) (A) (A) (A) (A) (A) (A) (A) (A) (A)
                 (A) (A) (A) (A) (A) (A) (A) (A) (A) (A) (A) (A)
                 (A) (A) (A) (A) (A) (A) (A) (A) (A) (A) (A) (A)
                 (A) (A) (A) (A) (A) (A) (A) (A) (A) (A) (A) (A)
                 (A) (A) (A) (A) (A) (A) (A) (A) (A) (A) (A) (A)
                 (A) (A) (A) (A) (A) (A) (A) (A) (A) (A) (A) (A)
                 (A) (A) (A) (A) (A) (A) (A) (A) (A) (A) (A) (A)
                 (A) (A) (A) (A) (A) (A) (A) (A) (A) (A) (A) (A)
                 (A) (A) (A) (A) (A) (A) (A) (A) (A) (A) (A) (A)
                 (A) (A) (A) (A) (A) (A) (A) (A) (A) (A) (A) (A)
                 (A) (A) (A) (A) (A) (A) (A) (A) (A) (A) (A) (A)
                 (A) (A) (A) (A) (A) (A) (A) (A) (A) (A) (A) (A)
                 (A) (A) (A) (A) (A) (A) (A) (A) (A) (A) (A) (A)
                 (A) (A) (A) (A) (A) (A) (A) (A) (A) (A) (A) (A)
                 (A) (A) (A) (A) (A) (A) (A) (A) (A) (A) (A) (A)
                 (A) (A) (A) (A) (A) (A) (A) (A) (A) (A) (A) (A)
                 (A) (A) (A) (A) (A) (A) (A) (A) (A) (A) (A) (A)
                 (A) (A) (A) (A) (A) (A) (A) (A) (A) (A) (A) (A)
                 (A) (A) (A) (A) (A) (A) (A) (A) (A) (A) (A) (A)
                 (A) (A) (A) (A) (A) (A) (A) (A) (A) (A) (A) (A)
                 (A) (A) (A) (A) (A) (A) (A) (A) (A) (A) (A) (A)
                 (A) (A) (A) (A) (A) (A) (A) (A) (A) (A) (A) (A)
                 (A) (A) (A) (A) (A) (A) (A) (A) (A) (A) (A) (A)
                 (A) (A) (A) (A) (A) (A) (A) (A) (A) (A) (A) (A)
                 (A) (A) (A) (A) (A) (A) (A) (A) (A) (A) (A) (A)
                 (A) (A) (A) (A) (A) (A) (A) (A) (A) (A) (A) (A)
                 (A) (A) (A) (A) (A) (A) (A) (A) (A) (A) (A) (A)
                 (A) (A) (A) (A) (A) (A) (A) (A) (A) (A) (A) (A)
                 (A) (A) (A) (A) (A) (A) (A) (A) (A) (A) (A) (A)
                 (A) (A) (A) (A) (A) (A) (A) (A) (A) (A) (A) (A)
                 (A) (A) (A) (A) (A) (A) (A) (A) (A) (A) (A) (A)
                 (A) (A) (A) (A) (A) (A) (A) (A) (A) (A) (A) (A)
                 (A) (A) (A) (A) (A) (A) (A) (A) (A) (A) (A) (A)
                 (A) (A) (A) (A) (A) (A) (A) (A) (A) (A) (A) (A)
                 (A) (A) (A) (A) (A) (A) (A) (A) (A) (A) (A) (A)
 The electronic state is 1-A.
 Alpha  occ. eigenvalues --  -19.62989 -19.62750 -19.62731 -10.63376 -10.58702
 Alpha  occ. eigenvalues --  -10.57838 -10.57740 -10.57456 -10.53359 -10.53244
 Alpha  occ. eigenvalues --  -10.53128 -10.53059 -10.52779  -1.19985  -1.16592
 Alpha  occ. eigenvalues --   -1.13680  -0.90824  -0.89710  -0.87510  -0.84476
 Alpha  occ. eigenvalues --   -0.75628  -0.74445  -0.73530  -0.70216  -0.66197
 Alpha  occ. eigenvalues --   -0.62101  -0.60636  -0.59229  -0.57741  -0.56513
 Alpha  occ. eigenvalues --   -0.55290  -0.53110  -0.52351  -0.50360  -0.49478
 Alpha  occ. eigenvalues --   -0.48440  -0.46428  -0.46085  -0.45712  -0.44622
 Alpha  occ. eigenvalues --   -0.44273  -0.43058  -0.40839  -0.40547  -0.38992
 Alpha  occ. eigenvalues --   -0.38084  -0.37921  -0.35983  -0.35256  -0.33623
 Alpha  occ. eigenvalues --   -0.31604
 Alpha virt. eigenvalues --   -0.00126   0.00761   0.00875   0.01011   0.02182
 Alpha virt. eigenvalues --    0.02487   0.02592   0.03487   0.03585   0.04280
 Alpha virt. eigenvalues --    0.04576   0.04948   0.05641   0.05822   0.07011
 Alpha virt. eigenvalues --    0.07240   0.07916   0.08336   0.09063   0.09363
 Alpha virt. eigenvalues --    0.09690   0.10760   0.11147   0.11312   0.12032
 Alpha virt. eigenvalues --    0.12331   0.12687   0.13307   0.13335   0.13749
 Alpha virt. eigenvalues --    0.13826   0.13964   0.14392   0.14674   0.14742
 Alpha virt. eigenvalues --    0.15069   0.15250   0.15575   0.15845   0.16449
 Alpha virt. eigenvalues --    0.16482   0.16803   0.17136   0.17405   0.17797
 Alpha virt. eigenvalues --    0.18131   0.18341   0.18503   0.18842   0.19087
 Alpha virt. eigenvalues --    0.19664   0.20184   0.20798   0.21315   0.21392
 Alpha virt. eigenvalues --    0.21666   0.22362   0.22960   0.24100   0.24753
 Alpha virt. eigenvalues --    0.25066   0.25517   0.26094   0.26896   0.27290
 Alpha virt. eigenvalues --    0.27395   0.27798   0.28309   0.28720   0.28835
 Alpha virt. eigenvalues --    0.30320   0.30981   0.31286   0.31776   0.32205
 Alpha virt. eigenvalues --    0.33031   0.33296   0.33378   0.33840   0.34555
 Alpha virt. eigenvalues --    0.34918   0.35530   0.35701   0.36096   0.36217
 Alpha virt. eigenvalues --    0.36733   0.37318   0.37542   0.37835   0.37966
 Alpha virt. eigenvalues --    0.38791   0.39405   0.39807   0.40293   0.40685
 Alpha virt. eigenvalues --    0.41676   0.42389   0.42602   0.44369   0.45513
 Alpha virt. eigenvalues --    0.46557   0.47366   0.49080   0.49722   0.50220
 Alpha virt. eigenvalues --    0.51867   0.52848   0.53136   0.54507   0.55208
 Alpha virt. eigenvalues --    0.55498   0.56928   0.57183   0.58110   0.59114
 Alpha virt. eigenvalues --    0.59515   0.60474   0.60618   0.61065   0.61557
 Alpha virt. eigenvalues --    0.62221   0.62698   0.63184   0.64115   0.64341
 Alpha virt. eigenvalues --    0.64947   0.65072   0.65877   0.66654   0.67485
 Alpha virt. eigenvalues --    0.67857   0.68838   0.69183   0.70391   0.70783
 Alpha virt. eigenvalues --    0.71270   0.71736   0.72247   0.72813   0.73704
 Alpha virt. eigenvalues --    0.74156   0.74492   0.75076   0.75358   0.76077
 Alpha virt. eigenvalues --    0.76554   0.77061   0.77406   0.77878   0.79238
 Alpha virt. eigenvalues --    0.79961   0.80734   0.82575   0.83756   0.85362
 Alpha virt. eigenvalues --    0.86625   0.86913   0.87642   0.89792   0.90493
 Alpha virt. eigenvalues --    0.91245   0.91819   0.93050   0.93932   0.95108
 Alpha virt. eigenvalues --    0.95978   0.96843   0.99094   0.99894   1.02805
 Alpha virt. eigenvalues --    1.03279   1.04913   1.05926   1.06776   1.07487
 Alpha virt. eigenvalues --    1.08636   1.08775   1.09830   1.11351   1.11794
 Alpha virt. eigenvalues --    1.12649   1.13705   1.15209   1.16388   1.17086
 Alpha virt. eigenvalues --    1.17876   1.18464   1.19389   1.19774   1.20597
 Alpha virt. eigenvalues --    1.21238   1.22077   1.22901   1.23817   1.24999
 Alpha virt. eigenvalues --    1.25916   1.26508   1.26699   1.27308   1.27926
 Alpha virt. eigenvalues --    1.28533   1.29802   1.30534   1.31104   1.32063
 Alpha virt. eigenvalues --    1.32095   1.33110   1.34135   1.34295   1.35382
 Alpha virt. eigenvalues --    1.35693   1.36418   1.36772   1.37586   1.38498
 Alpha virt. eigenvalues --    1.39087   1.39547   1.40117   1.40734   1.41795
 Alpha virt. eigenvalues --    1.42201   1.42529   1.43466   1.44433   1.45482
 Alpha virt. eigenvalues --    1.46255   1.47404   1.47782   1.47906   1.48611
 Alpha virt. eigenvalues --    1.49615   1.50206   1.51140   1.51892   1.52031
 Alpha virt. eigenvalues --    1.52833   1.53501   1.54275   1.54923   1.55555
 Alpha virt. eigenvalues --    1.55847   1.57063   1.57704   1.58272   1.58478
 Alpha virt. eigenvalues --    1.59588   1.60178   1.61196   1.61579   1.63063
 Alpha virt. eigenvalues --    1.63304   1.63883   1.65612   1.66379   1.66889
 Alpha virt. eigenvalues --    1.67750   1.68952   1.69665   1.69848   1.70544
 Alpha virt. eigenvalues --    1.71959   1.73146   1.75578   1.76624   1.77143
 Alpha virt. eigenvalues --    1.78352   1.79621   1.81548   1.82637   1.84244
 Alpha virt. eigenvalues --    1.85294   1.86823   1.88922   1.93668   1.98787
 Alpha virt. eigenvalues --    2.03539   2.05685   2.09874   2.13733   2.17523
 Alpha virt. eigenvalues --    2.24603   2.26532   2.32833   2.34779   2.39721
 Alpha virt. eigenvalues --    2.42616   2.44001   2.46236   2.46527   2.54213
 Alpha virt. eigenvalues --    2.57903   2.75943   2.77286   2.80911   2.81850
 Alpha virt. eigenvalues --    2.86860   2.89051   2.91760   2.92794   2.94413
 Alpha virt. eigenvalues --    2.95738   2.97513   3.01218   3.03857   3.04579
 Alpha virt. eigenvalues --    3.05574   3.08419   3.08879   3.09471   3.12223
 Alpha virt. eigenvalues --    3.13646   3.14241   3.15290   3.18858   3.20914
 Alpha virt. eigenvalues --    3.25074   3.26874   3.31078   3.32364   3.33904
 Alpha virt. eigenvalues --    3.35374   3.36108   3.37806   3.38412   3.39497
 Alpha virt. eigenvalues --    3.41800   3.42879   3.44144   3.44432   3.45542
 Alpha virt. eigenvalues --    3.47804   3.49347   3.49635   3.50913   3.51099
 Alpha virt. eigenvalues --    3.51891   3.53601   3.54404   3.55174   3.56118
 Alpha virt. eigenvalues --    3.57049   3.57621   3.58981   3.59130   3.60489
 Alpha virt. eigenvalues --    3.61716   3.62533   3.63192   3.64026   3.64539
 Alpha virt. eigenvalues --    3.64918   3.66646   3.68003   3.69716   3.70792
 Alpha virt. eigenvalues --    3.71327   3.71614   3.72337   3.72747   3.74007
 Alpha virt. eigenvalues --    3.75960   3.76588   3.77118   3.77791   3.79443
 Alpha virt. eigenvalues --    3.79957   3.81140   3.82690   3.84089   3.85827
 Alpha virt. eigenvalues --    3.86905   3.87585   3.89175   3.89465   3.90776
 Alpha virt. eigenvalues --    3.92656   3.95276   3.96278   3.97740   3.98384
 Alpha virt. eigenvalues --    4.00340   4.01595   4.03129   4.04408   4.04686
 Alpha virt. eigenvalues --    4.05449   4.05767   4.06516   4.06886   4.08796
 Alpha virt. eigenvalues --    4.08920   4.10210   4.10761   4.11714   4.12232
 Alpha virt. eigenvalues --    4.12598   4.14579   4.15214   4.15784   4.16551
 Alpha virt. eigenvalues --    4.18079   4.18544   4.19239   4.19879   4.20776
 Alpha virt. eigenvalues --    4.21504   4.23828   4.24597   4.26544   4.27429
 Alpha virt. eigenvalues --    4.27806   4.28851   4.30313   4.30933   4.31468
 Alpha virt. eigenvalues --    4.33888   4.36011   4.36210   4.37597   4.38839
 Alpha virt. eigenvalues --    4.40701   4.43393   4.45073   4.47816   4.50183
 Alpha virt. eigenvalues --    4.57115   4.58068   4.75001   4.76398   4.83842
 Alpha virt. eigenvalues --    4.84271   4.92790   4.96091   4.99447   5.00680
 Alpha virt. eigenvalues --    5.03033   5.06859   5.08365   5.12346   5.13336
 Alpha virt. eigenvalues --    5.13894   5.16235   5.18308   5.31162   5.38085
 Alpha virt. eigenvalues --    5.40245   5.58882   5.59274   5.67357   5.85894
 Alpha virt. eigenvalues --    5.88948   6.02838   7.01579   7.05039   7.06096
 Alpha virt. eigenvalues --    7.08436   7.10066   7.13395   7.14717   7.20105
 Alpha virt. eigenvalues --    7.27068   7.36617   7.38969   7.45901   7.54248
 Alpha virt. eigenvalues --    7.55501   7.63784  23.96233  23.98888  24.04971
 Alpha virt. eigenvalues --   24.07017  24.10827  24.12299  24.12453  24.15781
 Alpha virt. eigenvalues --   24.18110  24.22300  50.17165  50.19390  50.23050
          Condensed to atoms (all electrons):
               1          2          3          4          5          6
     1  C    7.205121  -0.000387  -0.779593   0.087227  -0.051879  -0.799962
     2  C   -0.000387   6.142220   0.343543  -0.339663  -0.283221   0.018275
     3  C   -0.779593   0.343543   6.646309  -0.404296  -0.194897   0.273829
     4  C    0.087227  -0.339663  -0.404296   5.793662   0.332078  -0.012055
     5  C   -0.051879  -0.283221  -0.194897   0.332078   5.704590  -0.020861
     6  C   -0.799962   0.018275   0.273829  -0.012055  -0.020861   6.465991
     7  C   -0.716025   0.005776   0.233783  -0.035112   0.003927   0.367714
     8  C    0.094053   0.000719  -0.020635  -0.000162   0.000377  -0.065576
     9  O    0.000259  -0.000969  -0.009822   0.001164   0.000566  -0.035183
    10  C    0.017849  -0.005689  -0.160643   0.011447  -0.005382  -0.361617
    11  O    0.024306   0.018997   0.403115  -0.015389  -0.016074  -0.009346
    12  C    0.277482  -0.119577  -0.732166  -0.159721   0.132877  -0.230050
    13  O    0.052832   0.013162   0.298709  -0.001288  -0.101708  -0.064809
    14  H    0.578941  -0.004155  -0.049819   0.011699   0.001942  -0.053078
    15  H   -0.000840   0.479651  -0.016135  -0.081854  -0.057390  -0.002458
    16  H    0.001682   0.466797   0.031139  -0.051084  -0.055784   0.001981
    17  H   -0.105118   0.034759   0.515379  -0.063703  -0.020815   0.031361
    18  H   -0.013045  -0.009275   0.030772   0.428517  -0.004373   0.008234
    19  H    0.010167  -0.079948  -0.039949   0.467916  -0.002516   0.002033
    20  H    0.000798  -0.080064   0.006382   0.003657   0.465174   0.005992
    21  H    0.000497  -0.045697   0.025092   0.005200   0.445740  -0.002774
    22  H   -0.023380   0.001816   0.010880  -0.002788  -0.002590   0.385343
    23  H    0.051683  -0.006056  -0.047091   0.009612   0.000112   0.453677
    24  H   -0.071342  -0.003239   0.011846   0.000640   0.000155  -0.001292
    25  H    0.153848  -0.012022  -0.061575   0.024262   0.003703  -0.111820
    26  H    0.036144   0.000872  -0.002115   0.000258  -0.000176  -0.016658
    27  H   -0.003161  -0.000073  -0.001271  -0.000115  -0.000003   0.004219
    28  H    0.006282   0.000227  -0.001027  -0.000097  -0.000326  -0.054096
    29  H   -0.011990   0.000043  -0.002146   0.000387   0.000060  -0.007066
    30  H   -0.011075  -0.002938  -0.029671  -0.016704  -0.047228   0.001108
    31  H   -0.002331  -0.002170  -0.026091   0.013365  -0.008521   0.005597
               7          8          9         10         11         12
     1  C   -0.716025   0.094053   0.000259   0.017849   0.024306   0.277482
     2  C    0.005776   0.000719  -0.000969  -0.005689   0.018997  -0.119577
     3  C    0.233783  -0.020635  -0.009822  -0.160643   0.403115  -0.732166
     4  C   -0.035112  -0.000162   0.001164   0.011447  -0.015389  -0.159721
     5  C    0.003927   0.000377   0.000566  -0.005382  -0.016074   0.132877
     6  C    0.367714  -0.065576  -0.035183  -0.361617  -0.009346  -0.230050
     7  C    5.911255  -0.186430   0.162099   0.007554  -0.031833  -0.056102
     8  C   -0.186430   5.385836   0.093922   0.118427   0.004663   0.005308
     9  O    0.162099   0.093922   8.352523  -0.013646   0.000465   0.002646
    10  C    0.007554   0.118427  -0.013646   6.016148  -0.000592   0.018922
    11  O   -0.031833   0.004663   0.000465  -0.000592   8.326798  -0.227013
    12  C   -0.056102   0.005308   0.002646   0.018922  -0.227013   6.603810
    13  O    0.011942  -0.005306   0.000389  -0.011744  -0.055996  -0.004072
    14  H   -0.123694   0.006926   0.002448  -0.003248  -0.079897   0.008291
    15  H    0.000717  -0.000110  -0.000002  -0.000631  -0.000664   0.055928
    16  H   -0.001030  -0.000003  -0.000022   0.000525   0.001211  -0.036662
    17  H    0.035360  -0.000622   0.000046  -0.023592  -0.037100   0.016176
    18  H    0.005993   0.000176   0.000198  -0.000260  -0.000524  -0.030005
    19  H   -0.003450  -0.000064   0.001191  -0.002752   0.013961   0.040262
    20  H    0.000779   0.000125  -0.000028   0.002689   0.002158  -0.048206
    21  H   -0.000312   0.000135   0.000008  -0.000500  -0.003370  -0.052472
    22  H    0.010079   0.001902  -0.001507   0.013279   0.001160   0.004822
    23  H   -0.056366  -0.012361   0.000359  -0.039240  -0.004317  -0.005314
    24  H    0.470188  -0.002487  -0.060080  -0.001197   0.004984   0.009380
    25  H    0.336593  -0.010169  -0.044449   0.029655  -0.005097  -0.002367
    26  H   -0.022016   0.452429  -0.039709  -0.040534  -0.001951  -0.000121
    27  H    0.014068   0.428007  -0.071129  -0.031441   0.000353   0.000542
    28  H    0.005158  -0.038539   0.009388   0.445826  -0.001328   0.000081
    29  H   -0.000096  -0.078166  -0.009055   0.471136   0.000175  -0.000413
    30  H    0.008834   0.000123   0.000061   0.001631  -0.008213   0.477750
    31  H   -0.003448  -0.000203   0.000073   0.000584  -0.001149   0.394486
              13         14         15         16         17         18
     1  C    0.052832   0.578941  -0.000840   0.001682  -0.105118  -0.013045
     2  C    0.013162  -0.004155   0.479651   0.466797   0.034759  -0.009275
     3  C    0.298709  -0.049819  -0.016135   0.031139   0.515379   0.030772
     4  C   -0.001288   0.011699  -0.081854  -0.051084  -0.063703   0.428517
     5  C   -0.101708   0.001942  -0.057390  -0.055784  -0.020815  -0.004373
     6  C   -0.064809  -0.053078  -0.002458   0.001981   0.031361   0.008234
     7  C    0.011942  -0.123694   0.000717  -0.001030   0.035360   0.005993
     8  C   -0.005306   0.006926  -0.000110  -0.000003  -0.000622   0.000176
     9  O    0.000389   0.002448  -0.000002  -0.000022   0.000046   0.000198
    10  C   -0.011744  -0.003248  -0.000631   0.000525  -0.023592  -0.000260
    11  O   -0.055996  -0.079897  -0.000664   0.001211  -0.037100  -0.000524
    12  C   -0.004072   0.008291   0.055928  -0.036662   0.016176  -0.030005
    13  O    8.333443   0.000624  -0.008096   0.012225  -0.093738  -0.069433
    14  H    0.000624   0.438875  -0.000191   0.000348  -0.007340   0.000193
    15  H   -0.008096  -0.000191   0.510048  -0.021190   0.005184  -0.010806
    16  H    0.012225   0.000348  -0.021190   0.502875  -0.001945  -0.001074
    17  H   -0.093738  -0.007340   0.005184  -0.001945   0.519287  -0.003035
    18  H   -0.069433   0.000193  -0.010806  -0.001074  -0.003035   0.473105
    19  H   -0.028428   0.000273   0.005506  -0.002727   0.000355  -0.007508
    20  H    0.011196   0.000234  -0.014062   0.008032  -0.012473  -0.000292
    21  H   -0.007248  -0.000018   0.000803  -0.007677   0.001818  -0.000303
    22  H    0.003387  -0.005584   0.000089  -0.000075  -0.005889  -0.000049
    23  H   -0.003140   0.010661  -0.000686   0.000418  -0.013186   0.000406
    24  H   -0.001001  -0.004677   0.000182  -0.000167  -0.001250   0.000635
    25  H    0.000805   0.007104  -0.000393   0.000797  -0.006164  -0.004505
    26  H    0.001511   0.001179   0.000045  -0.000018   0.001209  -0.000106
    27  H   -0.000280  -0.001629  -0.000013   0.000006  -0.000705   0.000033
    28  H   -0.000691  -0.001601  -0.000007   0.000010   0.000905   0.000016
    29  H    0.000455  -0.000614   0.000011  -0.000015  -0.000101   0.000007
    30  H    0.001083  -0.001575  -0.003192   0.001574  -0.001532  -0.001557
    31  H    0.008369   0.000777  -0.000296  -0.000036  -0.020090   0.001224
              19         20         21         22         23         24
     1  C    0.010167   0.000798   0.000497  -0.023380   0.051683  -0.071342
     2  C   -0.079948  -0.080064  -0.045697   0.001816  -0.006056  -0.003239
     3  C   -0.039949   0.006382   0.025092   0.010880  -0.047091   0.011846
     4  C    0.467916   0.003657   0.005200  -0.002788   0.009612   0.000640
     5  C   -0.002516   0.465174   0.445740  -0.002590   0.000112   0.000155
     6  C    0.002033   0.005992  -0.002774   0.385343   0.453677  -0.001292
     7  C   -0.003450   0.000779  -0.000312   0.010079  -0.056366   0.470188
     8  C   -0.000064   0.000125   0.000135   0.001902  -0.012361  -0.002487
     9  O    0.001191  -0.000028   0.000008  -0.001507   0.000359  -0.060080
    10  C   -0.002752   0.002689  -0.000500   0.013279  -0.039240  -0.001197
    11  O    0.013961   0.002158  -0.003370   0.001160  -0.004317   0.004984
    12  C    0.040262  -0.048206  -0.052472   0.004822  -0.005314   0.009380
    13  O   -0.028428   0.011196  -0.007248   0.003387  -0.003140  -0.001001
    14  H    0.000273   0.000234  -0.000018  -0.005584   0.010661  -0.004677
    15  H    0.005506  -0.014062   0.000803   0.000089  -0.000686   0.000182
    16  H   -0.002727   0.008032  -0.007677  -0.000075   0.000418  -0.000167
    17  H    0.000355  -0.012473   0.001818  -0.005889  -0.013186  -0.001250
    18  H   -0.007508  -0.000292  -0.000303  -0.000049   0.000406   0.000635
    19  H    0.496745   0.000795  -0.001417  -0.000163   0.000412  -0.001189
    20  H    0.000795   0.498923  -0.014310   0.000034   0.000872  -0.000009
    21  H   -0.001417  -0.014310   0.472860  -0.000070  -0.000030   0.000023
    22  H   -0.000163   0.000034  -0.000070   0.470169  -0.028061   0.000477
    23  H    0.000412   0.000872  -0.000030  -0.028061   0.473502  -0.001708
    24  H   -0.001189  -0.000009   0.000023   0.000477  -0.001708   0.468366
    25  H   -0.004793   0.000125  -0.000085  -0.001698   0.000297  -0.018157
    26  H    0.000017  -0.000098  -0.000013   0.000131  -0.009015  -0.002254
    27  H   -0.000032   0.000025   0.000002   0.000948  -0.000008   0.002397
    28  H   -0.000060   0.000036  -0.000021  -0.010773  -0.007209   0.001332
    29  H    0.000115  -0.000079   0.000008  -0.007141   0.004173  -0.000222
    30  H   -0.008511   0.005872  -0.005250   0.000629  -0.000484   0.000357
    31  H    0.000132   0.000680  -0.009866  -0.000899   0.001496  -0.000038
              25         26         27         28         29         30
     1  C    0.153848   0.036144  -0.003161   0.006282  -0.011990  -0.011075
     2  C   -0.012022   0.000872  -0.000073   0.000227   0.000043  -0.002938
     3  C   -0.061575  -0.002115  -0.001271  -0.001027  -0.002146  -0.029671
     4  C    0.024262   0.000258  -0.000115  -0.000097   0.000387  -0.016704
     5  C    0.003703  -0.000176  -0.000003  -0.000326   0.000060  -0.047228
     6  C   -0.111820  -0.016658   0.004219  -0.054096  -0.007066   0.001108
     7  C    0.336593  -0.022016   0.014068   0.005158  -0.000096   0.008834
     8  C   -0.010169   0.452429   0.428007  -0.038539  -0.078166   0.000123
     9  O   -0.044449  -0.039709  -0.071129   0.009388  -0.009055   0.000061
    10  C    0.029655  -0.040534  -0.031441   0.445826   0.471136   0.001631
    11  O   -0.005097  -0.001951   0.000353  -0.001328   0.000175  -0.008213
    12  C   -0.002367  -0.000121   0.000542   0.000081  -0.000413   0.477750
    13  O    0.000805   0.001511  -0.000280  -0.000691   0.000455   0.001083
    14  H    0.007104   0.001179  -0.001629  -0.001601  -0.000614  -0.001575
    15  H   -0.000393   0.000045  -0.000013  -0.000007   0.000011  -0.003192
    16  H    0.000797  -0.000018   0.000006   0.000010  -0.000015   0.001574
    17  H   -0.006164   0.001209  -0.000705   0.000905  -0.000101  -0.001532
    18  H   -0.004505  -0.000106   0.000033   0.000016   0.000007  -0.001557
    19  H   -0.004793   0.000017  -0.000032  -0.000060   0.000115  -0.008511
    20  H    0.000125  -0.000098   0.000025   0.000036  -0.000079   0.005872
    21  H   -0.000085  -0.000013   0.000002  -0.000021   0.000008  -0.005250
    22  H   -0.001698   0.000131   0.000948  -0.010773  -0.007141   0.000629
    23  H    0.000297  -0.009015  -0.000008  -0.007209   0.004173  -0.000484
    24  H   -0.018157  -0.002254   0.002397   0.001332  -0.000222   0.000357
    25  H    0.506469   0.000431  -0.002219  -0.000204  -0.001922  -0.000080
    26  H    0.000431   0.499833  -0.006961   0.006679   0.001618  -0.000037
    27  H   -0.002219  -0.006961   0.467221  -0.009807  -0.002697   0.000021
    28  H   -0.000204   0.006679  -0.009807   0.491015  -0.009484   0.000021
    29  H   -0.001922   0.001618  -0.002697  -0.009484   0.474928  -0.000162
    30  H   -0.000080  -0.000037   0.000021   0.000021  -0.000162   0.446546
    31  H    0.000139  -0.000028   0.000007  -0.000020   0.000088  -0.009875
              31
     1  C   -0.002331
     2  C   -0.002170
     3  C   -0.026091
     4  C    0.013365
     5  C   -0.008521
     6  C    0.005597
     7  C   -0.003448
     8  C   -0.000203
     9  O    0.000073
    10  C    0.000584
    11  O   -0.001149
    12  C    0.394486
    13  O    0.008369
    14  H    0.000777
    15  H   -0.000296
    16  H   -0.000036
    17  H   -0.020090
    18  H    0.001224
    19  H    0.000132
    20  H    0.000680
    21  H   -0.009866
    22  H   -0.000899
    23  H    0.001496
    24  H   -0.000038
    25  H    0.000139
    26  H   -0.000028
    27  H    0.000007
    28  H   -0.000020
    29  H    0.000088
    30  H   -0.009875
    31  H    0.476178
 Mulliken charges:
               1
     1  C   -0.009041
     2  C   -0.531712
     3  C   -0.251835
     4  C   -0.007059
     5  C   -0.217554
     6  C   -0.176654
     7  C   -0.355907
     8  C   -0.172300
     9  O   -0.342206
    10  C   -0.452963
    11  O   -0.302492
    12  C   -0.344504
    13  O   -0.293155
    14  H    0.266606
    15  H    0.160854
    16  H    0.149893
    17  H    0.256559
    18  H    0.206640
    19  H    0.143626
    20  H    0.155041
    21  H    0.199248
    22  H    0.185522
    23  H    0.226594
    24  H    0.199347
    25  H    0.223488
    26  H    0.139454
    27  H    0.213694
    28  H    0.168313
    29  H    0.178163
    30  H    0.202473
    31  H    0.181867
 Sum of Mulliken charges =  -0.00000
 Mulliken charges with hydrogens summed into heavy atoms:
               1
     1  C    0.257564
     2  C   -0.220965
     3  C    0.004723
     4  C    0.343208
     5  C    0.136735
     6  C    0.235463
     7  C    0.066928
     8  C    0.180848
     9  O   -0.342206
    10  C   -0.106488
    11  O   -0.302492
    12  C    0.039836
    13  O   -0.293155
 Electronic spatial extent (au):  <R**2>=           3045.2516
 Charge=             -0.0000 electrons
 Dipole moment (field-independent basis, Debye):
    X=             -1.6770    Y=             -1.3167    Z=             -1.5624  Tot=              2.6434
 Quadrupole moment (field-independent basis, Debye-Ang):
   XX=            -74.1504   YY=            -78.4917   ZZ=            -82.5897
   XY=             -5.8840   XZ=             -6.1371   YZ=              0.5652
 Traceless Quadrupole moment (field-independent basis, Debye-Ang):
   XX=              4.2602   YY=             -0.0811   ZZ=             -4.1791
   XY=             -5.8840   XZ=             -6.1371   YZ=              0.5652
 Octapole moment (field-independent basis, Debye-Ang**2):
  XXX=            -13.7599  YYY=              0.5833  ZZZ=              0.9281  XYY=             -9.6631
  XXY=            -13.6998  XXZ=            -16.2025  XZZ=              2.8691  YZZ=              2.1099
  YYZ=             -3.2308  XYZ=             -5.6885
 Hexadecapole moment (field-independent basis, Debye-Ang**3):
 XXXX=          -3078.9570 YYYY=           -572.6567 ZZZZ=           -318.8491 XXXY=            -41.8786
 XXXZ=            -76.8343 YYYX=            -11.2970 YYYZ=             -6.1511 ZZZX=              3.9818
 ZZZY=              4.4862 XXYY=           -636.8307 XXZZ=           -582.3632 YYZZ=           -147.7253
 XXYZ=            -23.3581 YYXZ=             -2.1972 ZZXY=             -5.4062
 N-N= 8.956623456622D+02 E-N=-3.233173965982D+03  KE= 6.153378530944D+02
 D1PCM: PCM CHGder 1st derivatives, ID1Alg=3 FixD1E=F DoIter=F DoCFld=F I1PDM=0.
 Calling FoFJK, ICntrl=      2127 FMM=F ISym2X=0 I1Cent= 0 IOpClX= 0 NMat=1 NMatS=1 NMatT=0.
 ***** Axes restored to original set *****
 -------------------------------------------------------------------
 Center     Atomic                   Forces (Hartrees/Bohr)
 Number     Number              X              Y              Z
 -------------------------------------------------------------------
      1        6          -0.003848685   -0.001953527    0.008221723
      2        6           0.001124000    0.001256944   -0.000408512
      3        6          -0.001773881   -0.003997861   -0.005289173
      4        6          -0.002213279    0.005131236   -0.000227673
      5        6           0.002429421   -0.002008391   -0.001601007
      6        6           0.002660407   -0.002632614   -0.003605655
      7        6           0.004376132    0.005218816    0.002206165
      8        6          -0.004767287    0.004198688   -0.003119167
      9        8           0.005929605   -0.003808391   -0.006512859
     10        6          -0.001969174   -0.001609146    0.001538580
     11        8          -0.004566733    0.001384171   -0.010145483
     12        6          -0.000193774   -0.000181560    0.002896228
     13        8           0.005743422   -0.002349485    0.010238259
     14        1           0.003933396    0.001979700   -0.004193349
     15        1          -0.000814117   -0.000709204    0.002420265
     16        1          -0.001827093   -0.000774422   -0.002309274
     17        1           0.002083290    0.005273262    0.006607781
     18        1           0.000514383   -0.003781730    0.001950342
     19        1           0.000776545   -0.000693964   -0.006088607
     20        1           0.000965960    0.000906986    0.002867719
     21        1          -0.002169146    0.000744904   -0.000981618
     22        1          -0.000977156    0.003265954   -0.000327558
     23        1          -0.002797383   -0.002860042    0.003224821
     24        1          -0.001984713   -0.001468144   -0.004229100
     25        1          -0.005375349   -0.001222439    0.005817061
     26        1          -0.002594233   -0.001817087    0.005378143
     27        1           0.004339205   -0.000589830   -0.000174537
     28        1           0.001012388    0.001431515    0.002535512
     29        1           0.001299448    0.001014366   -0.002804792
     30        1           0.000794255   -0.002239815   -0.003412235
     31        1          -0.000109854    0.002891111   -0.000471999
 -------------------------------------------------------------------
 Cartesian Forces:  Max     0.010238259 RMS     0.003468996

 GradGradGradGradGradGradGradGradGradGradGradGradGradGradGradGradGradGrad
 Berny optimization.
 FormGI is forming the generalized inverse of G from B-inverse, IUseBI=4.
 Internal  Forces:  Max     0.018715492 RMS     0.002326954
 Search for a local minimum.
 Step number   1 out of a maximum of  186
 All quantities printed in internal units (Hartrees-Bohrs-Radians)
 Mixed Optimization -- RFO/linear search
 Second derivative matrix not updated -- first step.
 ITU=  0
     Eigenvalues ---    0.00391   0.00638   0.00674   0.00728   0.01433
     Eigenvalues ---    0.01434   0.01699   0.02606   0.02710   0.03145
     Eigenvalues ---    0.03215   0.03835   0.04095   0.04574   0.04653
     Eigenvalues ---    0.04859   0.04884   0.05106   0.05157   0.05167
     Eigenvalues ---    0.05235   0.05640   0.05763   0.05934   0.06140
     Eigenvalues ---    0.06406   0.06508   0.06689   0.07647   0.07671
     Eigenvalues ---    0.07883   0.07899   0.07906   0.07999   0.08019
     Eigenvalues ---    0.09227   0.09443   0.09613   0.10760   0.11566
     Eigenvalues ---    0.11592   0.11689   0.11707   0.12493   0.12624
     Eigenvalues ---    0.14861   0.15767   0.16469   0.17957   0.19266
     Eigenvalues ---    0.20499   0.21532   0.22429   0.25000   0.27386
     Eigenvalues ---    0.27470   0.28347   0.28522   0.28734   0.29081
     Eigenvalues ---    0.29478   0.30058   0.35079   0.35177   0.35234
     Eigenvalues ---    0.35252   0.35304   0.35304   0.35304   0.35332
     Eigenvalues ---    0.35366   0.35444   0.35472   0.35487   0.35499
     Eigenvalues ---    0.35568   0.35812   0.35826   0.35916   0.36190
     Eigenvalues ---    0.40115   0.41453   0.42054   0.42351   0.43236
     Eigenvalues ---    0.457051000.000001000.000001000.000001000.00000
     Eigenvalues --- 1000.000001000.000001000.000001000.000001000.00000
     Eigenvalues --- 1000.000001000.000001000.000001000.000001000.00000
     Eigenvalues --- 1000.000001000.000001000.000001000.000001000.00000
     Eigenvalues --- 1000.000001000.000001000.000001000.000001000.00000
     Eigenvalues --- 1000.000001000.000001000.000001000.000001000.00000
     Eigenvalues --- 1000.000001000.000001000.000001000.000001000.00000
     Eigenvalues --- 1000.000001000.000001000.000001000.000001000.00000
     Eigenvalues --- 1000.000001000.000001000.000001000.000001000.00000
     Eigenvalues --- 1000.000001000.000001000.000001000.000001000.00000
     Eigenvalues --- 1000.000001000.000001000.000001000.000001000.00000
     Eigenvalues --- 1000.000001000.000001000.000001000.000001000.00000
     Eigenvalues --- 1000.000001000.000001000.000001000.000001000.00000
     Eigenvalues --- 1000.000001000.000001000.000001000.000001000.00000
     Eigenvalues --- 1000.000001000.000001000.000001000.000001000.00000
     Eigenvalues --- 1000.000001000.000001000.000001000.000001000.00000
     Eigenvalues --- 1000.000001000.000001000.000001000.000001000.00000
     Eigenvalues --- 1000.000001000.000001000.000001000.000001000.00000
     Eigenvalues --- 1000.000001000.000001000.000001000.000001000.00000
     Eigenvalues --- 1000.000001000.000001000.000001000.000001000.00000
 RFO step:  Lambda=-4.41841565D-03 EMin= 3.90902023D-03
 Linear search not attempted -- first point.
 Iteration  1 RMS(Cart)=  0.09554907 RMS(Int)=  0.00159025
 Iteration  2 RMS(Cart)=  0.00507171 RMS(Int)=  0.00006937
 Iteration  3 RMS(Cart)=  0.00000647 RMS(Int)=  0.00006929
 Iteration  4 RMS(Cart)=  0.00000000 RMS(Int)=  0.00006929
 Iteration  1 RMS(Cart)=  0.00002911 RMS(Int)=  0.00000680
 Iteration  2 RMS(Cart)=  0.00001607 RMS(Int)=  0.00000759
 Iteration  3 RMS(Cart)=  0.00000887 RMS(Int)=  0.00000859
 Iteration  4 RMS(Cart)=  0.00000490 RMS(Int)=  0.00000926
 Iteration  5 RMS(Cart)=  0.00000270 RMS(Int)=  0.00000965
 Iteration  6 RMS(Cart)=  0.00000149 RMS(Int)=  0.00000988
 Iteration  7 RMS(Cart)=  0.00000082 RMS(Int)=  0.00001000
 Variable       Old X    -DE/DX   Delta X   Delta X   Delta X     New X
                                 (Linear)    (Quad)   (Total)
    R1        2.88242  -0.00223   0.00000  -0.00707  -0.00705   2.87537
    R2        2.88537  -0.00072   0.00000  -0.00209  -0.00206   2.88330
    R3        2.68479   0.00013   0.00000   0.00030   0.00030   2.68509
    R4        2.04762   0.00591   0.00000   0.01642   0.01642   2.06404
    R5        2.89225   0.00117   0.00000   0.00314   0.00316   2.89541
    R6        2.90889  -0.00006   0.00000  -0.00188  -0.00185   2.90704
    R7        2.05085   0.00264   0.00000   0.00738   0.00738   2.05823
    R8        2.05268   0.00301   0.00000   0.00843   0.00843   2.06111
    R9        2.64465   0.00088   0.00000   0.00191   0.00191   2.64657
   R10        2.88393  -0.00124   0.00000  -0.00254  -0.00255   2.88137
   R11        2.65044   0.00401   0.00000   0.01022   0.01019   2.66064
   R12        2.03786   0.00866   0.00000   0.02365   0.02365   2.06151
   R13        2.68067   0.00328   0.00000   0.00759   0.00756   2.68823
   R14        2.04213   0.00428   0.00000   0.01178   0.01178   2.05391
   R15        2.04873   0.00615   0.00000   0.01710   0.01710   2.06583
   R16        2.88625  -0.00041   0.00000  -0.00251  -0.00251   2.88374
   R17        2.05297   0.00307   0.00000   0.00860   0.00860   2.06157
   R18        2.04960   0.00249   0.00000   0.00695   0.00695   2.05655
   R19        2.89630  -0.00067   0.00000  -0.00232  -0.00235   2.89395
   R20        2.05139   0.00340   0.00000   0.00951   0.00951   2.06090
   R21        2.05185   0.00493   0.00000   0.01380   0.01380   2.06564
   R22        2.66980   0.00379   0.00000   0.00864   0.00867   2.67847
   R23        2.04377   0.00481   0.00000   0.01326   0.01326   2.05703
   R24        2.04916   0.00736   0.00000   0.02050   0.02050   2.06965
   R25        2.67652   0.00312   0.00000   0.00700   0.00697   2.68349
   R26        2.87369   0.00036   0.00000   0.00085   0.00082   2.87451
   R27        2.05546   0.00611   0.00000   0.01721   0.01721   2.07268
   R28        2.04355   0.00438   0.00000   0.01207   0.01207   2.05562
   R29        2.05184   0.00306   0.00000   0.00857   0.00857   2.06041
   R30        2.05388   0.00317   0.00000   0.00891   0.00891   2.06280
   R31        2.05184   0.00395   0.00000   0.01106   0.01106   2.06290
   R32        2.04891   0.00293   0.00000   0.00814   0.00814   2.05705
    A1        1.92612  -0.00036   0.00000  -0.01015  -0.01037   1.91575
    A2        2.02222  -0.00137   0.00000  -0.01469  -0.01499   2.00723
    A3        1.88738   0.00072   0.00000   0.00809   0.00822   1.89560
    A4        1.93591  -0.00004   0.00000  -0.00993  -0.01030   1.92561
    A5        1.87012   0.00002   0.00000   0.00779   0.00781   1.87794
    A6        1.81214   0.00125   0.00000   0.02355   0.02367   1.83582
    A7        1.92373   0.00017   0.00000  -0.00692  -0.00707   1.91666
    A8        1.92284  -0.00069   0.00000  -0.00023  -0.00020   1.92265
    A9        1.89485   0.00073   0.00000   0.00476   0.00479   1.89965
   A10        1.92101   0.00088   0.00000   0.00222   0.00228   1.92329
   A11        1.93070  -0.00125   0.00000  -0.00265  -0.00263   1.92807
   A12        1.86987   0.00014   0.00000   0.00315   0.00312   1.87299
   A13        1.87600  -0.00181   0.00000  -0.00795  -0.00792   1.86808
   A14        1.95512  -0.00085   0.00000  -0.00838  -0.00826   1.94687
   A15        1.91805   0.00140   0.00000   0.01034   0.01032   1.92837
   A16        1.95162   0.00316   0.00000   0.01145   0.01130   1.96291
   A17        1.92902   0.00002   0.00000   0.00496   0.00503   1.93405
   A18        1.83463  -0.00184   0.00000  -0.00981  -0.00984   1.82479
   A19        1.92483   0.00107   0.00000   0.00174   0.00156   1.92639
   A20        1.95129  -0.00020   0.00000  -0.00280  -0.00273   1.94856
   A21        1.94092  -0.00082   0.00000  -0.00250  -0.00251   1.93841
   A22        1.85481  -0.00110   0.00000  -0.00067  -0.00063   1.85418
   A23        1.90751   0.00076   0.00000   0.00366   0.00375   1.91126
   A24        1.88180   0.00029   0.00000   0.00078   0.00076   1.88256
   A25        1.92066  -0.00088   0.00000  -0.00628  -0.00649   1.91417
   A26        1.91801   0.00064   0.00000   0.00139   0.00144   1.91946
   A27        1.93129  -0.00020   0.00000  -0.00014  -0.00009   1.93120
   A28        1.90442   0.00049   0.00000  -0.00026  -0.00020   1.90422
   A29        1.92529  -0.00009   0.00000   0.00080   0.00085   1.92614
   A30        1.86321   0.00008   0.00000   0.00486   0.00482   1.86803
   A31        1.89445   0.00137   0.00000  -0.00011  -0.00008   1.89437
   A32        1.92787  -0.00043   0.00000  -0.00070  -0.00075   1.92712
   A33        1.92861  -0.00131   0.00000  -0.01137  -0.01136   1.91725
   A34        1.93112   0.00001   0.00000   0.00570   0.00570   1.93682
   A35        1.90120  -0.00015   0.00000   0.00227   0.00221   1.90341
   A36        1.88064   0.00048   0.00000   0.00420   0.00418   1.88481
   A37        1.91489   0.00183   0.00000   0.01046   0.01056   1.92545
   A38        1.92751  -0.00086   0.00000  -0.00875  -0.00890   1.91861
   A39        1.94211  -0.00329   0.00000  -0.02410  -0.02421   1.91791
   A40        1.86592  -0.00052   0.00000   0.00380   0.00380   1.86972
   A41        1.91179   0.00194   0.00000   0.01855   0.01865   1.93043
   A42        1.89998   0.00103   0.00000   0.00135   0.00105   1.90103
   A43        1.93768   0.00225   0.00000   0.00896   0.00900   1.94668
   A44        1.90232   0.00055   0.00000   0.00652   0.00653   1.90885
   A45        1.85637  -0.00122   0.00000  -0.00284  -0.00283   1.85354
   A46        1.92999  -0.00182   0.00000  -0.01055  -0.01060   1.91939
   A47        1.94366  -0.00038   0.00000  -0.00309  -0.00310   1.94057
   A48        1.89160   0.00064   0.00000   0.00142   0.00138   1.89298
   A49        1.97492  -0.00486   0.00000  -0.02730  -0.02724   1.94767
   A50        1.93098  -0.00110   0.00000  -0.00705  -0.00712   1.92386
   A51        1.92430  -0.00019   0.00000   0.00072   0.00075   1.92505
   A52        1.92026   0.00072   0.00000   0.00074   0.00073   1.92100
   A53        1.90694   0.00067   0.00000   0.00424   0.00424   1.91118
   A54        1.90503  -0.00000   0.00000  -0.00152  -0.00149   1.90354
   A55        1.87536  -0.00005   0.00000   0.00319   0.00317   1.87854
   A56        2.12337  -0.01872   0.00000  -0.07356  -0.07356   2.04980
   A57        1.91574  -0.00017   0.00000  -0.00709  -0.00719   1.90855
   A58        1.90908  -0.00038   0.00000  -0.00906  -0.00904   1.90004
   A59        1.89753  -0.00014   0.00000   0.00413   0.00417   1.90170
   A60        1.91921   0.00003   0.00000   0.00264   0.00254   1.92175
   A61        1.94887   0.00052   0.00000   0.00559   0.00567   1.95454
   A62        1.87258   0.00012   0.00000   0.00373   0.00371   1.87629
   A63        2.00765  -0.00585   0.00000  -0.03494  -0.03499   1.97267
    D1        0.95082   0.00022   0.00000   0.01043   0.01035   0.96117
    D2        3.07088   0.00085   0.00000   0.01696   0.01688   3.08776
    D3       -1.13294   0.00034   0.00000   0.01450   0.01442  -1.11852
    D4       -3.11413  -0.00129   0.00000  -0.02459  -0.02455  -3.13868
    D5       -0.99407  -0.00066   0.00000  -0.01806  -0.01802  -1.01209
    D6        1.08530  -0.00117   0.00000  -0.02052  -0.02048   1.06482
[...]
 694,-0.00001515,-0.00007593,0.00010950,0.00286840,-0.00159168,-0.00073
 997,-0.00030128,0.00000450,0.00112137,0.00004378,-0.00001957,-0.000019
 48,0.00001776,0.00000390,0.00001185,-0.00002452,-0.00003745,0.00005465
 ,-0.00012209,0.00006806,0.00003114,-0.00020369,0.00005932,-0.00016698,
 -0.00001052,-0.00000112,0.00000261,0.00001275,-0.00002672,0.00001568,-
 0.00011123,0.00006768,0.00006361,0.00025472,0.00026933,0.00044656,0.01
 136582,0.01208033,-0.01883865,-0.09993199,-0.09381488,0.21987958,-0.00
 044336,0.00021573,-0.00001071,-0.00000083,0.00000306,0.00000219,-0.000
 09428,0.00004739,0.00004742,-0.00005411,-0.00006449,-0.00001376,0.0000
 0515,-0.00000274,0.00001136,0.00094941,0.00024322,-0.00081306,0.003667
 13,0.00112023,-0.00322115,-0.10969608,-0.05163060,0.08871258,0.0053471
 6,0.00438445,-0.01430870,0.00183217,0.00290910,-0.00281543,0.00011047,
 0.00001743,0.00005729,0.00000272,0.00001114,-0.00000777,0.00016519,0.0
 0000367,-0.00002381,-0.00014936,-0.00016870,0.00011045,0.00000517,0.00
 000080,-0.00000361,0.00000779,0.00000047,0.00000143,-0.00000441,0.0000
 0865,0.00000672,0.00000091,0.00000451,0.00000309,-0.00000507,0.0000010
 7,-0.00000554,-0.00000107,-0.00000041,-0.00000170,0.00000733,-0.000000
 03,-0.00000251,0.00007587,-0.00014182,0.00003023,0.00026914,0.00003555
 ,0.00021165,0.00016114,-0.00000526,0.00011044,0.00052920,-0.00057370,0
 .00099119,0.10857067,-0.00021006,-0.00028427,-0.00005197,0.00000026,-0
 .00000083,-0.00000017,-0.00001543,-0.00004363,0.00004147,0.00002297,0.
 00001813,0.00000546,-0.00000127,-0.00000270,-0.00000023,-0.00126817,0.
 00165040,0.00042982,0.00224684,0.00023599,-0.00022683,-0.05182446,-0.1
 0317839,0.08762470,0.00385791,0.00804868,-0.01671154,-0.01664026,-0.01
 752114,0.02593651,0.00008641,0.00016603,0.00009452,0.00000094,0.000002
 92,-0.00000077,-0.00003712,0.00004144,-0.00001852,-0.00009643,-0.00004
 828,-0.00009396,-0.00000077,0.00000062,0.00000030,-0.00000217,-0.00000
 029,-0.00000072,0.00000259,0.00000605,0.00000370,0.00000414,-0.0000005
 0,-0.00000075,0.00000036,-0.00000276,-0.00000016,0.00000069,0.00000063
 ,-0.00000082,-0.00000053,0.00000107,-0.00000037,0.00000479,0.00021943,
 -0.00052324,0.00085526,0.00008946,-0.00034392,0.00014014,-0.00003696,-
 0.00002096,0.00017681,-0.00028399,0.00074381,0.05773888,0.11187047,-0.
 00032284,-0.00056861,0.00002974,0.00000329,-0.00000021,0.00000268,0.00
 016258,0.00004955,-0.00028671,0.00005158,0.00004526,0.00000712,-0.0000
 1445,0.00000960,-0.00001898,-0.00024314,-0.00033127,-0.00003343,0.0055
 5635,0.00025222,0.00090712,0.08460206,0.08679172,-0.18377280,0.0025916
 2,0.00322702,-0.04324813,0.00066808,0.00007247,0.00270561,-0.00057743,
 0.00040947,0.00011995,-0.00002048,-0.00001798,0.00004762,-0.00012984,-
 0.00004142,0.00008480,0.00012910,-0.00006524,-0.00003185,-0.00000555,-
 0.00000173,0.00000373,-0.00000581,-0.00000095,-0.00000175,-0.00000897,
 0.00000551,0.00002617,-0.00000423,-0.00000941,-0.00000180,0.00000898,0
 .00000148,0.00000592,0.00000095,0.00000032,0.00000253,-0.00001169,-0.0
 0000256,0.00000519,-0.00011812,0.00002168,0.00010270,-0.00038294,0.000
 24472,-0.00015746,-0.00036855,-0.00030564,0.00037469,-0.00128148,-0.00
 001882,0.00067948,-0.09179104,-0.08998727,0.21912644,0.00032604,-0.000
 53259,0.00024339,0.00000274,-0.00000233,-0.00000062,0.00021642,-0.0000
 0055,-0.00020781,0.00007779,0.00007626,0.00001591,-0.00001342,0.000008
 82,-0.00002073,0.00127264,0.00079252,0.00007673,0.00273494,-0.00134010
 ,-0.00242660,-0.30508673,0.06083536,0.00164745,-0.01550946,-0.00046811
 ,-0.00607133,-0.00160417,0.00051672,0.00126446,-0.00041727,0.00024034,
 0.00009762,-0.00001435,-0.00001732,0.00003670,-0.00017104,-0.00005116,
 0.00005394,0.00000282,0.00003190,-0.00001665,-0.00000798,-0.00000150,0
 .00000524,-0.00001064,-0.00000059,-0.00000263,-0.00000375,-0.00000601,
 0.00002359,-0.00000127,-0.00000918,-0.00000165,0.00001047,0.00000019,0
 .00000733,0.00000182,0.00000058,0.00000280,-0.00001395,-0.00000170,0.0
 0000530,-0.00028288,-0.00003741,-0.00013958,0.00019740,-0.00009548,-0.
 00003080,-0.00080519,0.00032920,-0.00026324,0.00025231,0.00002351,0.00
 002403,-0.01248713,0.00346169,0.00116048,0.33085918,-0.00078007,-0.000
 65735,-0.00088971,0.00000258,0.00000464,0.00000834,-0.00011947,-0.0001
 7855,0.00001954,-0.00001713,-0.00003654,-0.00002963,0.00000207,-0.0000
 0934,0.00001346,-0.00092246,-0.00661693,-0.00006805,-0.00051628,-0.000
 78558,-0.00255114,0.06478538,-0.06515019,0.00192327,-0.01748665,0.0029
 6768,-0.00280969,0.03339339,-0.00683623,-0.00009075,0.00025824,0.00036
 675,0.00016948,-0.00000386,0.00004268,0.00000913,0.00003823,0.00015557
 ,0.00000511,0.00003252,0.00005603,0.00009867,0.00000047,0.00000372,-0.
 00000198,0.00000586,0.00000042,0.00000086,-0.00002838,0.00006101,0.000
 05582,0.00000776,0.00001072,-0.00000115,0.00000910,0.00000131,0.000011
 18,-0.00000152,0.00000040,-0.00000253,0.00000887,0.00000327,-0.0000039
 7,0.00210597,-0.00046744,0.00038529,-0.00010492,0.00010395,-0.00016728
 ,-0.00074424,0.00034333,-0.00034524,0.00030988,-0.00002871,-0.00007158
 ,-0.01448731,0.00428359,0.00017929,-0.06465101,0.06971963,-0.00002254,
 -0.00085804,-0.00029010,0.00000267,0.00000143,0.00000603,0.00011243,0.
 00001418,-0.00019584,0.00004666,0.00002588,-0.00000936,-0.00000918,0.0
 0000422,-0.00001055,-0.00028282,-0.00098675,0.00068626,0.00051893,-0.0
 0192409,-0.00458736,0.01289042,0.00023724,-0.04969210,-0.03911120,0.00
 347474,-0.00753495,0.00146455,0.00164341,0.00057888,-0.00031433,0.0004
 9741,0.00023558,-0.00001115,0.00000147,0.00003521,-0.00008666,-0.00001
 152,0.00007867,-0.00000241,0.00003577,0.00000247,-0.00000568,0.0000004
 8,0.00000281,-0.00000337,-0.00000042,-0.00000152,-0.00004987,0.0000040
 4,0.00003449,0.00000053,-0.00000482,0.00000035,0.00001635,0.00000599,0
 .00001314,0.00000034,0.00000069,0.00000118,-0.00000734,-0.00000085,0.0
 0000287,0.00032285,-0.00015671,0.00036795,-0.00050678,0.00005372,0.000
 08569,-0.00153475,0.00020855,-0.00010884,-0.00038686,-0.00015800,0.000
 31602,0.02288279,-0.00612423,0.00189345,0.00466909,0.00407853,0.057786
 38,-0.00464392,0.00335308,0.00300202,0.00000331,-0.00000523,-0.0000092
 8,0.00098628,0.00008485,-0.00105187,0.00010401,0.00012288,0.00004983,-
 0.00003374,0.00004274,-0.00004519,-0.01305886,-0.01254411,-0.02931635,
 -0.00032155,0.00073498,0.00013226,0.00030247,0.00009297,0.00465979,0.0
 0151562,0.00180243,0.00052154,-0.07680216,-0.03193831,-0.07931496,-0.0
 0259460,-0.00108345,-0.00199674,-0.00007071,-0.00003682,0.00013282,-0.
 00020929,-0.00030286,0.00022104,0.00017146,0.00014913,-0.00014997,-0.0
 0001035,-0.00000853,0.00000919,-0.00001726,-0.00000105,-0.00000464,0.0
 0006103,0.00004428,0.00012717,-0.00001188,-0.00002384,0.00000584,-0.00
 000002,0.00001186,-0.00000377,-0.00000190,-0.00000183,0.00001205,-0.00
 003427,-0.00001062,0.00001705,0.00151210,0.00023157,0.00036782,0.00139
 182,-0.00043301,0.00041821,0.00011402,-0.00012232,-0.00004437,0.000112
 78,-0.00007476,0.00007581,0.00018905,-0.00012575,-0.00005492,-0.000062
 60,-0.00060755,-0.00003204,0.08564375,0.00176346,-0.00012206,-0.000005
 61,0.00000090,0.00000047,0.00000433,-0.00012356,0.00000698,0.00022276,
 0.00001084,-0.00000098,-0.00001271,0.00000682,-0.00000913,0.00000362,0
 .00245832,0.00290378,0.00820851,0.00230698,-0.00025420,0.00049947,-0.0
 1244186,-0.00566142,-0.02862427,-0.00092929,-0.00946896,-0.00339992,-0
 .03211768,-0.08130890,-0.07940994,0.00080230,0.00051059,0.00045684,0.0
 0002360,0.00000124,-0.00003354,-0.00003012,0.00006804,-0.00002737,0.00
 005936,-0.00016119,-0.00031588,-0.00000141,0.00000166,0.00000029,0.000
 00014,-0.00000004,0.,-0.00001736,-0.00001916,-0.00002782,0.00000312,0.
 00000210,-0.00000215,0.00000457,-0.00000371,0.00000862,0.00000105,0.00
 000082,-0.00000204,0.00000369,0.00000277,-0.00000325,-0.00067301,0.000
 27125,0.00026534,-0.00039351,0.00014598,-0.00029420,-0.00027716,0.0001
 1116,-0.00003458,-0.00024830,0.00006742,-0.00001272,-0.00044966,0.0011
 2313,0.00086659,0.00068818,0.00101231,0.00025814,0.03371733,0.08562958
 ,0.00013592,0.00045317,0.00137540,0.00000068,-0.00000351,-0.00000518,0
 .00022691,0.00003608,-0.00033209,0.00005772,0.00007248,0.00002764,-0.0
 0001340,0.00001668,-0.00002427,0.00024997,0.00026430,-0.00095083,0.000
 53989,0.00038553,0.00006065,0.00042602,0.00126639,-0.00147190,-0.00032
 221,-0.00106352,0.00117628,-0.08061911,-0.08116647,-0.25259869,-0.0005
 2549,-0.00027214,0.00010141,-0.00002023,-0.00002710,0.00004579,-0.0001
 3997,-0.00012924,0.00007632,0.00001418,0.00014367,0.00038451,-0.000005
 42,-0.00000334,0.00000475,-0.00000986,-0.00000058,-0.00000233,0.000015
 31,-0.00001986,0.00000287,-0.00000420,-0.00001253,-0.00000046,0.000002
 42,0.00000215,-0.00000264,0.00000041,-0.00000026,0.00000430,-0.0000159
 0,-0.00000430,0.00000772,-0.00019263,0.00025980,-0.00003177,-0.0002952
 6,0.00012338,0.00061418,0.00000459,-0.00005301,-0.00006669,-0.00009791
 ,-0.00002970,-0.00001733,0.00011165,-0.00049611,0.00031256,0.00012595,
 -0.00036716,0.00010230,0.08810651,0.08893907,0.27085418,0.00075912,-0.
 00020647,0.00241499,-0.00001658,-0.00002462,-0.00002686,0.00006313,0.0
 0025773,0.00042195,0.00005967,0.00018842,0.00005534,0.00000652,-0.0000
 0148,-0.00002437,-0.01885881,-0.01381966,0.02406627,-0.00042363,0.0000
 7798,-0.00010354,0.00271321,0.00288467,-0.00524661,-0.00015885,-0.0004
 7640,0.00000843,-0.11798504,-0.05922564,0.09877364,0.00025370,0.000285
 51,-0.00050860,0.00004793,-0.00011217,-0.00008269,-0.00027165,-0.00020
 296,-0.00018201,-0.00000101,-0.00008834,-0.00091898,-0.00000719,-0.000
 00426,0.00000663,-0.00002504,0.00000027,-0.00000077,-0.00003037,-0.000
 19459,-0.00015397,-0.00000770,-0.00002255,0.00000155,-0.00001378,-0.00
 001554,-0.00001917,0.00000553,0.00000151,0.00000281,-0.00001591,-0.000
 00135,0.00000419,0.00143294,0.00024476,-0.00011403,-0.00567357,0.00142
 157,-0.00147620,0.00003311,-0.00012979,-0.00001513,-0.00001054,0.00013
 328,-0.00002273,0.00103092,0.00162121,0.00040791,0.00054557,-0.0005112
 2,-0.00056281,0.00577432,0.00585425,-0.00774259,0.13083366,-0.00045990
 ,-0.00009961,-0.00010708,0.00000502,0.00000678,0.00000628,0.00001911,-
 0.00003998,-0.00007193,-0.00000445,-0.00004789,-0.00001242,-0.00000175
 ,0.00000006,0.00000614,0.00509463,0.00328634,-0.00674120,0.00015715,-0
 .00019589,-0.00007446,-0.01725427,-0.01841478,0.02771330,0.00068249,0.
 00359218,-0.00042633,-0.05952272,-0.09640307,0.08167210,-0.00003017,-0
 .00004251,-0.00004080,-0.00000941,0.00002268,0.00001030,0.00005285,0.0
 0006182,0.00003563,-0.00029323,-0.00002224,-0.00001403,0.00000170,0.00
 000102,-0.00000127,0.00000548,-0.00000022,-0.00000033,0.00002015,0.000
 04296,0.00002784,0.00000248,0.00000537,-0.00000013,0.00000429,0.000003
 61,0.00000473,-0.00000108,-0.00000023,-0.00000066,0.00000354,0.0000009
 1,-0.00000138,-0.00052416,0.00041660,-0.00037049,0.00198746,0.00050307
 ,0.00050965,-0.00003394,0.00004277,-0.00003144,0.00013009,0.00002477,0
 .00009603,0.00078269,-0.00635386,-0.00082936,0.00020449,0.00163387,-0.
 00032172,0.00690788,0.00515535,-0.00832156,0.06206213,0.10681993,-0.00
 076161,-0.00038851,0.00044592,-0.00000089,0.00000504,0.00000409,-0.000
 21631,-0.00009224,0.00006294,-0.00003089,-0.00003775,-0.00001870,0.000
 00084,-0.00000578,0.00000681,-0.00140008,-0.00227012,0.00224472,-0.000
 50250,0.00001151,0.00001553,-0.00144976,-0.00150850,-0.00073625,0.0005
 9894,0.00021686,0.00210963,0.09915792,0.08406439,-0.19208546,0.0002512
 4,0.00010322,0.00013716,0.00000555,-0.00000015,-0.00000612,0.00007461,
 0.00006681,-0.00001488,-0.00015134,0.00022725,0.00024647,0.00000262,0.
 00000124,-0.00000230,0.00000590,0.00000014,0.00000097,-0.00000188,0.00
 000944,-0.00000977,0.00000140,0.00000629,0.00000036,0.00000060,0.00000
 017,0.00000056,-0.00000041,0.00000026,-0.00000135,0.00000628,0.0000007
 6,-0.00000166,0.00046039,-0.00016564,0.00027445,-0.00076397,-0.0002138
 9,0.00093573,0.00005074,0.00002964,0.00001390,0.00001036,0.00002031,-0
 .00022314,-0.00027290,-0.00027550,0.00111412,-0.00027661,0.00043823,0.
 00019862,0.01413221,0.01248193,-0.01964914,-0.10893871,-0.09272280,0.2
 0493743,0.00007546,-0.00005682,-0.00007351,0.00098535,0.00117214,-0.00
 057672,-0.00485513,-0.01707765,-0.02791479,0.00035391,-0.00050643,-0.0
 0074334,0.00080922,0.01093212,0.02448526,-0.00020498,0.00005077,-0.000
 19352,0.00006546,0.00010745,-0.00000039,-0.00004641,-0.00003142,-0.000
 04553,0.00005770,-0.00006162,0.00004300,0.00002976,0.00000789,0.000147
 82,0.00243511,-0.00010596,-0.00053317,-0.04697690,-0.00372176,-0.01062
 697,-0.00028166,0.00181495,0.00049459,0.00006289,-0.00000415,0.0000157
 0,-0.00002523,0.00018675,-0.00018641,-0.00001281,-0.00010916,-0.000286
 83,-0.00443607,0.00165040,-0.00124600,0.00000822,0.00005615,0.00005208
 ,0.00018984,0.00034721,0.00019036,-0.00333803,-0.00247500,0.00311686,0
 .00078004,0.00062079,-0.00085953,0.00003519,0.00008342,-0.00000203,0.0
 0000589,-0.00005293,0.00018163,-0.00000770,0.00000665,0.00001625,0.000
 00661,-0.00004615,0.00001481,0.00000462,0.00000108,0.00000313,-0.00000
 084,0.00001913,0.00000553,0.00001216,-0.00000481,-0.00000338,-0.000057
 30,0.00001066,0.00000270,0.05475926,0.00010308,0.00012812,0.00021019,0
 .00074968,0.00103241,0.00058999,-0.00039540,0.00179490,0.00553131,0.00
 039883,-0.00074565,0.00052945,0.00073658,0.00520752,0.01256688,0.00010
 670,-0.00001168,-0.00001840,-0.00001331,-0.00002389,-0.00000925,0.0000
 0441,0.00000258,0.00001646,-0.00003977,0.00002021,-0.00000864,0.000004
 32,0.00000430,0.00002006,-0.00053550,0.00009961,0.00044003,-0.00472565
 ,-0.09868050,-0.10267628,0.00035767,-0.00020957,-0.00041750,-0.0000322
 8,0.00000948,0.00000790,-0.00000445,0.00014098,-0.00021383,-0.00011652
 ,0.00017266,-0.00053235,0.00027306,0.00085024,0.00009862,-0.00006501,0
 .00012822,0.00008167,0.00036495,-0.00094741,0.00065160,-0.00195479,-0.
 00021804,0.00214337,0.00046827,0.00024249,-0.00060100,0.00000188,-0.00
 000840,-0.00001130,-0.00000530,-0.00001698,0.00000541,-0.00000374,-0.0
 0000285,-0.00000562,0.00000547,0.00000207,0.00000248,0.00000125,-0.000
 00092,-0.00000160,-0.00000225,0.00000029,-0.00000264,0.00000309,-0.000
 00212,-0.00000150,-0.00000447,0.00000185,0.00000052,0.00599930,0.10389
 972,-0.00000491,0.00029326,0.00040043,0.00016009,-0.00054920,0.0007080
 2,-0.00051908,-0.00838932,-0.01404745,-0.00024928,-0.00086196,-0.00075
 660,0.00040436,-0.00697109,-0.01796773,0.00025786,-0.00003446,-0.00010
 114,-0.00000895,0.00003514,-0.00001255,-0.00001640,-0.00000516,-0.0000
 1685,0.00000272,-0.00001304,0.00001682,0.00002663,0.00005515,0.0001312
 7,0.00306878,0.00041045,0.00131761,-0.01492082,-0.10108280,-0.26047574
 ,-0.00080915,0.00152686,0.00018566,0.00000132,0.00001771,-0.00000281,-
 0.00005955,-0.00003834,0.00024639,0.00008582,0.00054438,-0.00028172,-0
 .00170209,0.00102207,-0.00025807,0.00001833,0.00012251,0.00038650,-0.0
 0035317,0.00043303,0.00037075,0.00298727,0.00150239,-0.00095945,0.0000
 6303,0.00003509,0.00070769,0.00001015,0.00003180,-0.00002454,0.0000004
 8,-0.00004406,0.00005420,-0.00001013,-0.00000073,0.00000934,-0.0000059
 3,-0.00002393,0.00000653,0.00000035,-0.00000147,0.00000129,-0.00000082
 ,0.00000515,0.00000247,0.00002826,-0.00000831,0.00000190,-0.00002271,0
 .00000682,-0.00000026,0.01139618,0.11053631,0.28569145,-0.00001964,-0.
 00058572,0.00033514,-0.00348852,-0.00107015,0.00433439,-0.00058289,0.0
 2964290,-0.00170561,-0.00165422,-0.00100519,-0.00020672,0.00304708,-0.
 02615159,0.00081080,-0.00006474,0.00003807,-0.00002954,0.00017665,-0.0
 0000261,-0.00006167,0.00001691,0.00000204,0.00003361,-0.00009189,-0.00
 001127,0.00000003,0.00001332,-0.00002878,-0.00003518,-0.00104627,-0.00
 068325,-0.00020047,-0.05001382,0.02607859,-0.00315589,-0.00408480,0.00
 387160,-0.00392756,-0.00021039,0.00001241,-0.00002049,0.00007369,-0.00
 163924,0.00021253,0.00000814,-0.00011638,-0.00016177,0.00122408,-0.000
 17940,0.00010607,0.00017480,0.00008414,0.00002026,0.00010985,0.0001458
 2,-0.00007192,0.00089993,0.00080946,-0.00027412,0.00087927,0.00044372,
 -0.00098495,-0.00000920,-0.00002137,0.00000343,0.00001378,0.00000601,0
 .00001995,-0.00000333,-0.00000408,0.00000847,0.00002880,-0.00003551,0.
 00002553,0.00000447,-0.00000055,-0.00000463,-0.00000747,0.00000262,-0.
 00000333,-0.00002106,0.00000282,-0.00001057,-0.00000234,0.00000077,0.0
 0000555,-0.00043364,-0.00168011,0.00017133,0.05506343,-0.00007253,0.00
 015358,-0.00007987,-0.00144033,0.00082111,0.00196878,-0.00265825,-0.00
 558233,-0.00046406,-0.00033142,0.00078053,-0.00002223,0.00115051,-0.00
 906320,0.00008906,0.00010029,-0.00003847,-0.00001148,-0.00006704,0.000
 04284,0.00004248,-0.00001085,-0.00000076,-0.00003685,0.00010327,-0.000
 03125,0.00000901,-0.00002005,0.00002227,0.00003030,0.00115464,0.000297
 22,-0.00004876,0.02800613,-0.31508076,0.03100737,0.00097053,0.00042754
 ,0.00031487,0.00008966,-0.00001533,0.00000297,0.00008137,-0.00080951,-
 0.00001032,-0.00007334,0.00001755,-0.00009965,0.00002712,0.00120081,0.
 00001555,0.00005796,-0.00004057,0.00012446,-0.00008958,0.00013734,0.00
 006090,0.00003577,0.00038813,0.00028332,-0.00027241,0.00038762,-0.0002
 0818,0.00000401,0.00000074,0.00000306,-0.00002339,0.00000060,-0.000018
 27,0.00000105,-0.00000234,-0.00000290,-0.00001647,0.00002307,-0.000021
 77,-0.00000455,0.00000049,0.00000518,0.00000754,-0.00000431,0.00000390
 ,0.00002095,-0.00000274,0.00000920,0.00000822,-0.00000167,-0.00000316,
 0.00118698,-0.01286964,0.00144573,-0.02792578,0.33884145,-0.00009989,0
 .00005227,0.00009818,0.00287745,0.00055644,-0.00173803,-0.00082468,0.0
 1372812,-0.00362294,-0.00000939,-0.00137893,-0.00071060,-0.00273767,0.
 01932490,-0.00200613,0.00006274,-0.00002247,-0.00002219,0.00004534,0.0
 0004216,-0.00004520,0.00000724,0.00000717,0.00000327,-0.00002455,-0.00
 002141,0.00001449,0.00000482,-0.00000026,0.00001758,0.00025507,0.00000
 841,0.00005164,-0.00313724,0.02770444,-0.05068961,-0.00359468,0.002540
 00,-0.00167283,-0.00001632,0.00000164,-0.00000077,-0.00000763,0.000994
 36,0.00008858,0.00012632,0.00036249,-0.00007274,0.00047486,0.00024326,
 0.00025125,-0.00000559,0.00010085,0.00021893,-0.00012149,0.00008240,0.
 00038871,-0.00082554,-0.00030745,0.00050096,-0.00036145,-0.00065816,0.
 00072768,-0.00001299,-0.00000859,0.00000076,0.00001513,0.00001046,0.00
 000596,-0.00000442,-0.00000387,0.00000848,0.00001766,-0.00003436,0.000
 01611,0.00000088,-0.00000079,0.,-0.00000096,-0.00000148,-0.00000019,0.
 00000467,-0.00000119,0.00000058,-0.00000121,0.00000059,-0.00000036,0.0
 0312621,-0.02893235,0.00466659,0.00476730,-0.03438865,0.05352183\\-0.0
 0019838,-0.00077088,0.00034033,0.00001166,-0.00000880,-0.00000277,-0.0
 0006676,-0.00050194,-0.00002663,-0.00002822,-0.00001006,-0.00001481,0.
 00000509,0.00000608,-0.00000008,0.00011559,0.00036444,-0.00022907,-0.0
 0001499,0.00000737,0.00000879,-0.00000250,0.00000301,0.00001543,0.0000
 1946,-0.00000800,-0.00001450,-0.00000445,-0.00000438,-0.00000276,0.000
 16190,0.00089316,-0.00007946,-0.00000355,-0.00000236,-0.00000054,0.000
 00394,0.00002881,0.00002461,-0.00000523,0.00000015,0.00000320,-0.00000
 126,0.00000602,0.00000429,-0.00000313,-0.00000309,0.00000301,0.0000029
 5,-0.00000727,-0.00000256,0.00000520,0.00000027,-0.00000169,-0.0000010
 2,0.00000494,-0.00000033,-0.00000096,0.00000007,0.00000190,0.00000086,
 -0.00000109,-0.00000404,-0.00000103,0.00000470,-0.00000343,0.00000276,
 -0.00000138,-0.00000545,0.00000095,-0.00000278,-0.00000307,0.00000342,
 -0.00000119,-0.00000228,-0.00000061,-0.00000153,-0.00000182,-0.0000003
 3,-0.00000262,-0.00000320,-0.00000021,0.00000165,-0.00000178,0.0000017
 9,0.00000096,-0.00000287,0.00000360,0.00000432,-0.00000376,-0.00000654
 ,0.00000142,0.00000535\\\@


 I do not feel obliged to believe that the same God who
 has endowed us with sense, reason, and intellect has
 intended us to forgo their use.
                   --Galileo Galilei
 Job cpu time:       0 days 13 hours 46 minutes 10.1 seconds.
 Elapsed time:       0 days  0 hours 51 minutes 39.6 seconds.
 File lengths (MBytes):  RWF=    686 Int=      0 D2E=      0 Chk=     33 Scr=      1
 Normal termination of Gaussian 16 at Mon Nov  5 01:13:22 2018.
