 Entering Gaussian System, Link 0=g16
 Initial command:
 /apps/gaussian/g16a03/g16/l1.exe "/jobfs/local/2011855.r-man2/Gau-6365.inp" -scrdir="/jobfs/local/2011855.r-man2/"
 Entering Link 1 = /apps/gaussian/g16a03/g16/l1.exe PID=      6366.
  
 Copyright (c) 1988,1990,1992,1993,1995,1998,2003,2009,2016,
            Gaussian, Inc.  All Rights Reserved.
  
 This is part of the Gaussian(R) 16 program.  It is based on
 the Gaussian(R) 09 system (copyright 2009, Gaussian, Inc.),
 the Gaussian(R) 03 system (copyright 2003, Gaussian, Inc.),
 the Gaussian(R) 98 system (copyright 1998, Gaussian, Inc.),
 the Gaussian(R) 94 system (copyright 1995, Gaussian, Inc.),
 the Gaussian 92(TM) system (copyright 1992, Gaussian, Inc.),
 the Gaussian 90(TM) system (copyright 1990, Gaussian, Inc.),
 the Gaussian 88(TM) system (copyright 1988, Gaussian, Inc.),
 the Gaussian 86(TM) system (copyright 1986, Carnegie Mellon
 University), and the Gaussian 82(TM) system (copyright 1983,
 Carnegie Mellon University). Gaussian is a federally registered
 trademark of Gaussian, Inc.
  
 This software contains proprietary and confidential information,
 including trade secrets, belonging to Gaussian, Inc.
  
 This software is provided under written license and may be
 used, copied, transmitted, or stored only in accord with that
 written license.
  
 The following legend is applicable only to US Government
 contracts under FAR:
  
                    RESTRICTED RIGHTS LEGEND
  
 Use, reproduction and disclosure by the US Government is
 subject to restrictions as set forth in subparagraphs (a)
 and (c) of the Commercial Computer Software - Restricted
 Rights clause in FAR 52.227-19.
  
 Gaussian, Inc.
 340 Quinnipiac St., Bldg. 40, Wallingford CT 06492
  
  
 ---------------------------------------------------------------
 Warning -- This program may not be used in any manner that
 competes with the business of Gaussian, Inc. or will provide
 assistance to any competitor of Gaussian, Inc.  The licensee
 of this program is prohibited from giving any competitor of
 Gaussian, Inc. access to this program.  By using this program,
 the user acknowledges that Gaussian, Inc. is engaged in the
 business of creating and licensing software in the field of
 computational chemistry and represents and warrants to the
 licensee that it is not a competitor of Gaussian, Inc. and that
 it will not use this program in any manner prohibited above.
 ---------------------------------------------------------------
  

 Cite this work as:
 Gaussian 16, Revision A.03,
 M. J. Frisch, G. W. Trucks, H. B. Schlegel, G. E. Scuseria, 
 M. A. Robb, J. R. Cheeseman, G. Scalmani, V. Barone, 
 G. A. Petersson, H. Nakatsuji, X. Li, M. Caricato, A. V. Marenich, 
 J. Bloino, B. G. Janesko, R. Gomperts, B. Mennucci, H. P. Hratchian, 
 J. V. Ortiz, A. F. Izmaylov, J. L. Sonnenberg, D. Williams-Young, 
 F. Ding, F. Lipparini, F. Egidi, J. Goings, B. Peng, A. Petrone, 
 T. Henderson, D. Ranasinghe, V. G. Zakrzewski, J. Gao, N. Rega, 
 G. Zheng, W. Liang, M. Hada, M. Ehara, K. Toyota, R. Fukuda, 
 J. Hasegawa, M. Ishida, T. Nakajima, Y. Honda, O. Kitao, H. Nakai, 
 T. Vreven, K. Throssell, J. A. Montgomery, Jr., J. E. Peralta, 
 F. Ogliaro, M. J. Bearpark, J. J. Heyd, E. N. Brothers, K. N. Kudin, 
 V. N. Staroverov, T. A. Keith, R. Kobayashi, J. Normand, 
 K. Raghavachari, A. P. Rendell, J. C. Burant, S. S. Iyengar, 
 J. Tomasi, M. Cossi, J. M. Millam, M. Klene, C. Adamo, R. Cammi, 
 J. W. Ochterski, R. L. Martin, K. Morokuma, O. Farkas, 
 J. B. Foresman, and D. J. Fox, Gaussian, Inc., Wallingford CT, 2016.
 
 ******************************************
 Gaussian 16:  ES64L-G16RevA.03 25-Dec-2016
                 5-Nov-2018 
 ******************************************
 %mem=6000mb
 %nproc=24
 Will use up to   24 processors via shared memory.
 %chk=2SO_1_e4_D_PSI.inp_extract_18.chk
 ----------------------------------------------------------------------
 #M062X/6-311++G(2d,2p) opt=ModRedundant freq=noraman SCRF=(Solvent=Wat
 er)
 ----------------------------------------------------------------------
 1/18=120,19=15,26=3,38=1/1,3;
 2/9=110,12=2,17=6,18=5,40=1/2;
 3/5=4,6=6,7=1212,11=2,25=1,30=1,70=2201,71=1,72=1,74=-55/1,2,3;
 4//1;
 5/5=2,38=5,53=1/2;
 6/7=2,8=2,9=2,10=2,28=1/1;
 7//1,2,3,16;
 1/18=20,19=15,26=3/3(2);
 2/9=110/2;
 99//99;
 2/9=110/2;
 3/5=4,6=6,7=1212,11=2,25=1,30=1,70=2205,71=1,72=1,74=-55/1,2,3;
 4/5=5,16=3,69=1/1;
 5/5=2,38=5,53=1/2;
 7//1,2,3,16;
 1/18=20,19=15,26=3/3(-5);
 2/9=110/2;
 6/7=2,8=2,9=2,10=2,19=2,28=1/1;
 99/9=1/99;
 -----------------------------
 2SO_1_e4_D_PSI.inp_extract_18
 -----------------------------
 Symbolic Z-matrix:
 Charge =  0 Multiplicity = 1
 C                     1.21514   0.48977   0.29072 
 C                    -3.85359  -0.55684  -0.48253 
 C                    -1.185     0.25915   0.52615 
 C                    -2.49148  -1.01293  -1.00854 
 C                    -3.67099   0.50599   0.61618 
 C                     1.52242  -0.99792   0.43845 
 C                     2.15904   1.12848  -0.71861 
 C                     3.86493  -0.44196  -0.27419 
 O                     3.50351   0.9259   -0.34626 
 C                     3.01231  -1.17361   0.74891 
 O                    -0.09193   0.79322  -0.16516 
 C                    -2.34723   1.24066   0.41689 
 O                    -1.52983  -1.00964   0.03454 
 H                     1.35761   0.97412   1.25388 
 H                    -4.40693  -1.40524  -0.09295 
 H                    -4.42692  -0.15499  -1.31304 
 H                    -0.91313   0.10246   1.56077 
 H                    -2.52571  -2.02606  -1.38287 
 H                    -2.14858  -0.3737   -1.81428 
 H                    -3.67009   0.03152   1.59352 
 H                    -4.49695   1.20893   0.61071 
 H                     0.92208  -1.44258   1.22323 
 H                     1.28047  -1.50766  -0.49056 
 H                     2.00139   2.19716  -0.76312 
 H                     1.98196   0.70808  -1.70578 
 H                     3.75148  -0.89003  -1.25877 
 H                     4.91237  -0.46553  -0.00669 
 H                     3.27392  -2.2274    0.74747 
 H                     3.23458  -0.78538   1.73977 
 H                    -2.32692   1.71233  -0.56106 
 H                    -2.2079    2.02345   1.15422 
 
 The following ModRedundant input section has been read:
 D       6       1      11       3 F                                           
 

 GradGradGradGradGradGradGradGradGradGradGradGradGradGradGradGradGradGrad
 Berny optimization.
 Initialization pass.
                           ----------------------------
                           !    Initial Parameters    !
                           ! (Angstroms and Degrees)  !
 --------------------------                            --------------------------
 ! Name  Definition              Value          Derivative Info.                !
 --------------------------------------------------------------------------------
 ! R1    R(1,6)                  1.5263         estimate D2E/DX2                !
 ! R2    R(1,7)                  1.5224         estimate D2E/DX2                !
 ! R3    R(1,11)                 1.4172         estimate D2E/DX2                !
 ! R4    R(1,14)                 1.0875         estimate D2E/DX2                !
 ! R5    R(2,4)                  1.5297         estimate D2E/DX2                !
 ! R6    R(2,5)                  1.5395         estimate D2E/DX2                !
 ! R7    R(2,15)                 1.0852         estimate D2E/DX2                !
 ! R8    R(2,16)                 1.0862         estimate D2E/DX2                !
 ! R9    R(3,11)                 1.3993         estimate D2E/DX2                !
 ! R10   R(3,12)                 1.5252         estimate D2E/DX2                !
 ! R11   R(3,13)                 1.4037         estimate D2E/DX2                !
 ! R12   R(3,17)                 1.0812         estimate D2E/DX2                !
 ! R13   R(4,13)                 1.4187         estimate D2E/DX2                !
 ! R14   R(4,18)                 1.0806         estimate D2E/DX2                !
 ! R15   R(4,19)                 1.0842         estimate D2E/DX2                !
 ! R16   R(5,12)                 1.527          estimate D2E/DX2                !
 ! R17   R(5,20)                 1.0864         estimate D2E/DX2                !
 ! R18   R(5,21)                 1.0846         estimate D2E/DX2                !
 ! R19   R(6,10)                 1.532          estimate D2E/DX2                !
 ! R20   R(6,22)                 1.0835         estimate D2E/DX2                !
 ! R21   R(6,23)                 1.0869         estimate D2E/DX2                !
 ! R22   R(7,9)                  1.4097         estimate D2E/DX2                !
 ! R23   R(7,24)                 1.0812         estimate D2E/DX2                !
 ! R24   R(7,25)                 1.0875         estimate D2E/DX2                !
 ! R25   R(8,9)                  1.4166         estimate D2E/DX2                !
 ! R26   R(8,10)                 1.5195         estimate D2E/DX2                !
 ! R27   R(8,26)                 1.0877         estimate D2E/DX2                !
 ! R28   R(8,27)                 1.0813         estimate D2E/DX2                !
 ! R29   R(10,28)                1.0858         estimate D2E/DX2                !
 ! R30   R(10,29)                1.0872         estimate D2E/DX2                !
 ! R31   R(12,30)                1.0859         estimate D2E/DX2                !
 ! R32   R(12,31)                1.0844         estimate D2E/DX2                !
 ! A1    A(6,1,7)              110.3828         estimate D2E/DX2                !
 ! A2    A(6,1,11)             115.185          estimate D2E/DX2                !
 ! A3    A(6,1,14)             108.7865         estimate D2E/DX2                !
 ! A4    A(7,1,11)             105.589          estimate D2E/DX2                !
 ! A5    A(7,1,14)             108.6093         estimate D2E/DX2                !
 ! A6    A(11,1,14)            108.0821         estimate D2E/DX2                !
 ! A7    A(4,2,5)              110.2199         estimate D2E/DX2                !
 ! A8    A(4,2,15)             110.1429         estimate D2E/DX2                !
 ! A9    A(4,2,16)             108.5043         estimate D2E/DX2                !
 ! A10   A(5,2,15)             110.1202         estimate D2E/DX2                !
 ! A11   A(5,2,16)             110.6621         estimate D2E/DX2                !
 ! A12   A(15,2,16)            107.1306         estimate D2E/DX2                !
 ! A13   A(11,3,12)            108.3166         estimate D2E/DX2                !
 ! A14   A(11,3,13)            111.3377         estimate D2E/DX2                !
 ! A15   A(11,3,17)            109.3699         estimate D2E/DX2                !
 ! A16   A(12,3,13)            111.6787         estimate D2E/DX2                !
 ! A17   A(12,3,17)            110.6982         estimate D2E/DX2                !
 ! A18   A(13,3,17)            105.4219         estimate D2E/DX2                !
 ! A19   A(2,4,13)             110.4907         estimate D2E/DX2                !
 ! A20   A(2,4,18)             111.7431         estimate D2E/DX2                !
 ! A21   A(2,4,19)             111.1856         estimate D2E/DX2                !
 ! A22   A(13,4,18)            106.16           estimate D2E/DX2                !
 ! A23   A(13,4,19)            109.3087         estimate D2E/DX2                !
 ! A24   A(18,4,19)            107.7795         estimate D2E/DX2                !
 ! A25   A(2,5,12)             109.9883         estimate D2E/DX2                !
 ! A26   A(2,5,20)             109.9141         estimate D2E/DX2                !
 ! A27   A(2,5,21)             110.7019         estimate D2E/DX2                !
 ! A28   A(12,5,20)            109.0745         estimate D2E/DX2                !
 ! A29   A(12,5,21)            110.3461         estimate D2E/DX2                !
 ! A30   A(20,5,21)            106.7513         estimate D2E/DX2                !
 ! A31   A(1,6,10)             109.0984         estimate D2E/DX2                !
 ! A32   A(1,6,22)             111.012          estimate D2E/DX2                !
 ! A33   A(1,6,23)             109.2426         estimate D2E/DX2                !
 ! A34   A(10,6,22)            110.1819         estimate D2E/DX2                !
 ! A35   A(10,6,23)            109.6278         estimate D2E/DX2                !
 ! A36   A(22,6,23)            107.6537         estimate D2E/DX2                !
 ! A37   A(1,7,9)              110.8489         estimate D2E/DX2                !
 ! A38   A(1,7,24)             110.5841         estimate D2E/DX2                !
 ! A39   A(1,7,25)             109.797          estimate D2E/DX2                !
 ! A40   A(9,7,24)             106.9773         estimate D2E/DX2                !
 ! A41   A(9,7,25)             109.8478         estimate D2E/DX2                !
 ! A42   A(24,7,25)            108.7242         estimate D2E/DX2                !
 ! A43   A(9,8,10)             110.8556         estimate D2E/DX2                !
 ! A44   A(9,8,26)             108.9718         estimate D2E/DX2                !
 ! A45   A(9,8,27)             106.3057         estimate D2E/DX2                !
 ! A46   A(10,8,26)            110.6465         estimate D2E/DX2                !
 ! A47   A(10,8,27)            111.4981         estimate D2E/DX2                !
 ! A48   A(26,8,27)            108.4211         estimate D2E/DX2                !
 ! A49   A(7,9,8)              113.2981         estimate D2E/DX2                !
 ! A50   A(6,10,8)             110.7335         estimate D2E/DX2                !
 ! A51   A(6,10,28)            110.2031         estimate D2E/DX2                !
 ! A52   A(6,10,29)            110.0338         estimate D2E/DX2                !
 ! A53   A(8,10,28)            109.343          estimate D2E/DX2                !
 ! A54   A(8,10,29)            109.0864         estimate D2E/DX2                !
 ! A55   A(28,10,29)           107.3693         estimate D2E/DX2                !
 ! A56   A(1,11,3)             118.6745         estimate D2E/DX2                !
 ! A57   A(3,12,5)             109.9765         estimate D2E/DX2                !
 ! A58   A(3,12,30)            109.2552         estimate D2E/DX2                !
 ! A59   A(3,12,31)            108.5387         estimate D2E/DX2                !
 ! A60   A(5,12,30)            110.0421         estimate D2E/DX2                !
 ! A61   A(5,12,31)            111.7133         estimate D2E/DX2                !
 ! A62   A(30,12,31)           107.2419         estimate D2E/DX2                !
 ! A63   A(3,13,4)             115.2199         estimate D2E/DX2                !
 ! D1    D(7,1,6,10)            52.8883         estimate D2E/DX2                !
 ! D2    D(7,1,6,22)           174.496          estimate D2E/DX2                !
 ! D3    D(7,1,6,23)           -66.9381         estimate D2E/DX2                !
 ! D4    D(11,1,6,10)          172.3291         estimate D2E/DX2                !
 ! D5    D(11,1,6,22)          -66.0633         estimate D2E/DX2                !
 ! D6    D(11,1,6,23)           52.5026         estimate D2E/DX2                !
 ! D7    D(14,1,6,10)          -66.188          estimate D2E/DX2                !
 ! D8    D(14,1,6,22)           55.4197         estimate D2E/DX2                !
 ! D9    D(14,1,6,23)          173.9855         estimate D2E/DX2                !
 ! D10   D(6,1,7,9)            -56.648          estimate D2E/DX2                !
 ! D11   D(6,1,7,24)          -175.1238         estimate D2E/DX2                !
 ! D12   D(6,1,7,25)            64.9006         estimate D2E/DX2                !
 ! D13   D(11,1,7,9)           178.2546         estimate D2E/DX2                !
 ! D14   D(11,1,7,24)           59.7788         estimate D2E/DX2                !
 ! D15   D(11,1,7,25)          -60.1968         estimate D2E/DX2                !
 ! D16   D(14,1,7,9)            62.5359         estimate D2E/DX2                !
 ! D17   D(14,1,7,24)          -55.9399         estimate D2E/DX2                !
 ! D18   D(14,1,7,25)         -175.9155         estimate D2E/DX2                !
 ! D19   D(6,1,11,3)            53.9918         Frozen                          !
 ! D20   D(7,1,11,3)           176.0496         estimate D2E/DX2                !
 ! D21   D(14,1,11,3)          -67.8717         estimate D2E/DX2                !
 ! D22   D(5,2,4,13)            34.1211         estimate D2E/DX2                !
 ! D23   D(5,2,4,18)           152.0851         estimate D2E/DX2                !
 ! D24   D(5,2,4,19)           -87.4408         estimate D2E/DX2                !
 ! D25   D(15,2,4,13)          -87.5851         estimate D2E/DX2                !
 ! D26   D(15,2,4,18)           30.3789         estimate D2E/DX2                !
 ! D27   D(15,2,4,19)          150.8531         estimate D2E/DX2                !
 ! D28   D(16,2,4,13)          155.4398         estimate D2E/DX2                !
 ! D29   D(16,2,4,18)          -86.5962         estimate D2E/DX2                !
 ! D30   D(16,2,4,19)           33.878          estimate D2E/DX2                !
 ! D31   D(4,2,5,12)            26.1658         estimate D2E/DX2                !
 ! D32   D(4,2,5,20)           -93.9424         estimate D2E/DX2                !
 ! D33   D(4,2,5,21)           148.3724         estimate D2E/DX2                !
 ! D34   D(15,2,5,12)          147.8854         estimate D2E/DX2                !
 ! D35   D(15,2,5,20)           27.7772         estimate D2E/DX2                !
 ! D36   D(15,2,5,21)          -89.908          estimate D2E/DX2                !
 ! D37   D(16,2,5,12)          -93.8586         estimate D2E/DX2                !
 ! D38   D(16,2,5,20)          146.0332         estimate D2E/DX2                !
 ! D39   D(16,2,5,21)           28.348          estimate D2E/DX2                !
 ! D40   D(12,3,11,1)          148.8605         estimate D2E/DX2                !
 ! D41   D(13,3,11,1)          -87.9732         estimate D2E/DX2                !
 ! D42   D(17,3,11,1)           28.1281         estimate D2E/DX2                !
 ! D43   D(11,3,12,5)          156.455          estimate D2E/DX2                !
 ! D44   D(11,3,12,30)          35.5753         estimate D2E/DX2                !
 ! D45   D(11,3,12,31)         -81.0592         estimate D2E/DX2                !
 ! D46   D(13,3,12,5)           33.4951         estimate D2E/DX2                !
 ! D47   D(13,3,12,30)         -87.3846         estimate D2E/DX2                !
 ! D48   D(13,3,12,31)         155.981          estimate D2E/DX2                !
 ! D49   D(17,3,12,5)          -83.6409         estimate D2E/DX2                !
 ! D50   D(17,3,12,30)         155.4794         estimate D2E/DX2                !
 ! D51   D(17,3,12,31)          38.8449         estimate D2E/DX2                !
 ! D52   D(11,3,13,4)          -90.8234         estimate D2E/DX2                !
 ! D53   D(12,3,13,4)           30.3992         estimate D2E/DX2                !
 ! D54   D(17,3,13,4)          150.6782         estimate D2E/DX2                !
 ! D55   D(2,4,13,3)           -67.7898         estimate D2E/DX2                !
 ! D56   D(18,4,13,3)          170.8764         estimate D2E/DX2                !
 ! D57   D(19,4,13,3)           54.8752         estimate D2E/DX2                !
 ! D58   D(2,5,12,3)           -61.6387         estimate D2E/DX2                !
 ! D59   D(2,5,12,30)           58.7667         estimate D2E/DX2                !
 ! D60   D(2,5,12,31)          177.7714         estimate D2E/DX2                !
 ! D61   D(20,5,12,3)           58.9769         estimate D2E/DX2                !
 ! D62   D(20,5,12,30)         179.3823         estimate D2E/DX2                !
 ! D63   D(20,5,12,31)         -61.6131         estimate D2E/DX2                !
 ! D64   D(21,5,12,3)          175.9441         estimate D2E/DX2                !
 ! D65   D(21,5,12,30)         -63.6505         estimate D2E/DX2                !
 ! D66   D(21,5,12,31)          55.3542         estimate D2E/DX2                !
 ! D67   D(1,6,10,8)           -52.5522         estimate D2E/DX2                !
 ! D68   D(1,6,10,28)         -173.6617         estimate D2E/DX2                !
 ! D69   D(1,6,10,29)           68.1239         estimate D2E/DX2                !
 ! D70   D(22,6,10,8)         -174.6619         estimate D2E/DX2                !
 ! D71   D(22,6,10,28)          64.2286         estimate D2E/DX2                !
 ! D72   D(22,6,10,29)         -53.9858         estimate D2E/DX2                !
 ! D73   D(23,6,10,8)           67.036          estimate D2E/DX2                !
 ! D74   D(23,6,10,28)         -54.0735         estimate D2E/DX2                !
 ! D75   D(23,6,10,29)        -172.2879         estimate D2E/DX2                !
 ! D76   D(1,7,9,8)             60.5952         estimate D2E/DX2                !
 ! D77   D(24,7,9,8)          -178.7657         estimate D2E/DX2                !
 ! D78   D(25,7,9,8)           -60.9235         estimate D2E/DX2                !
 ! D79   D(10,8,9,7)           -60.0179         estimate D2E/DX2                !
 ! D80   D(26,8,9,7)            61.9854         estimate D2E/DX2                !
 ! D81   D(27,8,9,7)           178.6468         estimate D2E/DX2                !
 ! D82   D(9,8,10,6)            55.4863         estimate D2E/DX2                !
 ! D83   D(9,8,10,28)          177.103          estimate D2E/DX2                !
 ! D84   D(9,8,10,29)          -65.7511         estimate D2E/DX2                !
 ! D85   D(26,8,10,6)          -65.533          estimate D2E/DX2                !
 ! D86   D(26,8,10,28)          56.0838         estimate D2E/DX2                !
 ! D87   D(26,8,10,29)         173.2296         estimate D2E/DX2                !
 ! D88   D(27,8,10,6)          173.7134         estimate D2E/DX2                !
 ! D89   D(27,8,10,28)         -64.6699         estimate D2E/DX2                !
 ! D90   D(27,8,10,29)          52.476          estimate D2E/DX2                !
 --------------------------------------------------------------------------------
 Trust Radius=3.00D-01 FncErr=1.00D-07 GrdErr=1.00D-06 EigMax=2.50D+02 EigMin=1.00D-04
 Number of steps in this run=    186 maximum allowed number of steps=    186.
 GradGradGradGradGradGradGradGradGradGradGradGradGradGradGradGradGradGrad

                          Input orientation:                          
 ---------------------------------------------------------------------
 Center     Atomic      Atomic             Coordinates (Angstroms)
 Number     Number       Type             X           Y           Z
 ---------------------------------------------------------------------
      1          6           0        1.215139    0.489766    0.290722
      2          6           0       -3.853589   -0.556837   -0.482528
      3          6           0       -1.184998    0.259149    0.526149
      4          6           0       -2.491482   -1.012925   -1.008537
      5          6           0       -3.670989    0.505989    0.616177
      6          6           0        1.522421   -0.997923    0.438451
      7          6           0        2.159042    1.128482   -0.718614
      8          6           0        3.864929   -0.441963   -0.274188
      9          8           0        3.503507    0.925897   -0.346257
     10          6           0        3.012308   -1.173610    0.748911
     11          8           0       -0.091926    0.793217   -0.165159
     12          6           0       -2.347231    1.240664    0.416891
     13          8           0       -1.529832   -1.009643    0.034535
     14          1           0        1.357610    0.974123    1.253878
     15          1           0       -4.406928   -1.405242   -0.092952
     16          1           0       -4.426924   -0.154988   -1.313035
     17          1           0       -0.913130    0.102460    1.560769
     18          1           0       -2.525707   -2.026061   -1.382871
     19          1           0       -2.148578   -0.373697   -1.814278
     20          1           0       -3.670085    0.031516    1.593522
     21          1           0       -4.496952    1.208930    0.610705
     22          1           0        0.922075   -1.442578    1.223231
     23          1           0        1.280469   -1.507656   -0.490559
     24          1           0        2.001386    2.197159   -0.763115
     25          1           0        1.981959    0.708081   -1.705782
     26          1           0        3.751478   -0.890031   -1.258772
     27          1           0        4.912368   -0.465528   -0.006687
     28          1           0        3.273916   -2.227399    0.747473
     29          1           0        3.234576   -0.785381    1.739768
     30          1           0       -2.326918    1.712328   -0.561060
     31          1           0       -2.207899    2.023448    1.154221
 ---------------------------------------------------------------------
                    Distance matrix (angstroms):
                    1          2          3          4          5
     1  C    0.000000
     2  C    5.233096   0.000000
     3  C    2.422657   2.967261   0.000000
     4  C    4.205377   1.529718   2.383345   0.000000
     5  C    4.896982   1.539511   2.499837   2.517545   0.000000
     6  C    1.526258   5.472133   2.986309   4.266781   5.409699
     7  C    1.522390   6.248821   3.672571   5.128065   6.013188
     8  C    2.865071   7.722184   5.160800   6.424113   7.647315
     9  O    2.415074   7.506259   4.815363   6.335419   7.250931
    10  C    2.491300   7.002670   4.440698   5.779805   6.892397
    11  O    1.417155   4.009174   1.399265   3.119504   3.674599
    12  C    3.642835   2.511788   1.525154   2.670453   1.527022
    13  O    3.138268   2.423269   1.403719   1.418725   2.687006
    14  H    1.087460   5.702240   2.739641   4.886961   5.090444
    15  H    5.945242   1.085239   3.678902   2.158968   2.167320
    16  H    5.900900   1.086249   3.750226   2.138857   2.174899
    17  H    2.508496   3.640884   1.081158   3.215060   2.942937
    18  H    4.808766   2.175433   3.265585   1.080621   3.423323
    19  H    4.060934   2.171212   2.608942   1.084165   2.999782
    20  H    5.076681   2.165598   2.714177   3.041492   1.086429
    21  H    5.766071   2.174168   3.446487   3.403013   1.084606
    22  H    2.165505   5.147924   2.796704   4.100946   5.026098
    23  H    2.145778   5.221367   3.199035   3.839359   5.458623
    24  H    2.154982   6.476415   3.946027   5.527272   6.077692
    25  H    2.149815   6.095079   3.900343   4.843520   6.114586
    26  H    3.276856   7.651837   5.373579   6.249182   7.781859
    27  H    3.830214   8.779337   6.163355   7.491351   8.660590
    28  H    3.439501   7.423275   5.110168   6.148035   7.464607
    29  H    2.793539   7.431885   4.700697   6.355525   7.114557
    30  H    3.842702   2.736056   2.144233   2.766644   2.155845
    31  H    3.849026   3.470607   2.133905   3.738650   2.175501
                    6          7          8          9         10
     6  C    0.000000
     7  C    2.503135   0.000000
     8  C    2.510834   2.360903   0.000000
     9  O    2.870810   1.409708   1.416637   0.000000
    10  C    1.531997   2.860301   1.519540   2.418388   0.000000
    11  O    2.485688   2.342130   4.146596   3.602435   3.786846
    12  C    4.470564   4.648489   6.473002   5.908689   5.887581
    13  O    3.078885   4.329735   5.433325   5.406091   4.600897
    14  H    2.140339   2.134677   3.259898   2.677243   2.757857
    15  H    5.967033   7.065633   8.329728   8.250658   7.470438
    16  H    6.258830   6.736140   8.361602   8.061930   7.786616
    17  H    2.898681   3.960625   5.147165   4.880725   4.206725
    18  H    4.556492   5.686761   6.676734   6.792646   5.995063
    19  H    4.352089   4.691760   6.207963   5.982482   5.817606
    20  H    5.418123   6.366163   7.777465   7.484857   6.842519
    21  H    6.413480   6.787917   8.569104   8.062458   7.879377
    22  H    1.083519   3.451260   3.450201   3.838848   2.160185
    23  H    1.086935   2.788032   2.803917   3.299227   2.155722
    24  H    3.446987   1.081160   3.267538   2.011528   3.830179
    25  H    2.778374   1.087472   2.630140   2.052038   3.260046
    26  H    2.803730   2.627169   1.087677   2.047381   2.158143
    27  H    3.460250   3.260140   1.081314   2.009045   2.163917
    28  H    2.162138   3.828093   2.140297   3.345479   1.085777
    29  H    2.161036   3.295950   2.138060   2.711512   1.087163
    30  H    4.812680   4.526537   6.562182   5.887144   6.209025
    31  H    4.853483   4.835147   6.708043   6.006348   6.134820
                   11         12         13         14         15
    11  O    0.000000
    12  C    2.371791   0.000000
    13  O    2.314683   2.424504   0.000000
    14  H    2.036553   3.807550   3.709373   0.000000
    15  H    4.843313   3.391624   2.906963   6.380065   0.000000
    16  H    4.583549   3.043947   3.307495   6.428434   1.747037
    17  H    2.032326   2.158845   1.986576   2.451579   4.149046
    18  H    3.918474   3.733964   2.008460   5.570790   2.363958
    19  H    2.882898   2.761112   2.050703   4.850109   3.021124
    20  H    4.059109   2.143931   2.845195   5.126557   2.334825
    21  H    4.492108   2.158674   3.749378   5.894464   2.708714
    22  H    2.820391   4.305617   2.759036   2.455824   5.489263
    23  H    2.698772   4.640790   2.901988   3.034508   5.702198
    24  H    2.590475   4.606275   4.836251   2.445102   7.381931
    25  H    2.584911   4.850904   4.279247   3.036474   6.919916
    26  H    4.336020   6.673976   5.438675   3.939427   8.257370
    27  H    5.162607   7.469423   6.465269   4.037069   9.366952
    28  H    4.613666   6.613172   5.006716   3.765424   7.770304
    29  H    4.145640   6.083702   5.065343   2.618195   7.882618
    30  H    2.448814   1.085941   2.898138   4.173092   3.776878
    31  H    2.780571   1.084352   3.303500   3.718046   4.259939
                   16         17         18         19         20
    16  H    0.000000
    17  H    4.546623   0.000000
    18  H    2.668411   3.974421   0.000000
    19  H    2.343062   3.625465   1.748898   0.000000
    20  H    3.009263   2.758062   3.795015   3.753969   0.000000
    21  H    2.359227   3.869196   4.280808   3.728285   1.742395
    22  H    6.058244   2.422613   4.361126   4.449481   4.837148
    23  H    5.922880   3.407682   3.943595   3.846616   5.587524
    24  H    6.867181   4.275816   6.222078   4.993640   6.512245
    25  H    6.478651   4.406662   5.281937   4.271224   6.579419
    26  H    8.211546   5.540164   6.380362   5.948601   8.004026
    27  H    9.435325   6.059369   7.723607   7.289223   8.744497
    28  H    8.236718   4.860149   6.181790   6.277119   7.351030
    29  H    8.271371   4.245441   6.668660   6.463673   6.954355
    30  H    2.909014   3.015399   3.832811   2.440053   3.044906
    31  H    3.969510   2.352000   4.789192   3.815994   2.509734
                   21         22         23         24         25
    21  H    0.000000
    22  H    6.063954   0.000000
    23  H    6.478520   1.752072   0.000000
    24  H    6.715086   4.284643   3.784133   0.000000
    25  H    6.898786   3.785209   2.622660   1.762485   0.000000
    26  H    8.714194   3.804099   2.660357   3.583189   2.425897
    27  H    9.577071   4.288329   3.809311   4.016952   3.584910
    28  H    8.497850   2.524568   2.454503   4.845402   4.037902
    29  H    8.064030   2.458939   3.051979   4.084204   3.958698
    30  H    2.517040   4.867554   4.835960   4.360058   4.570046
    31  H    2.489701   4.670635   5.229026   4.628653   5.240679
                   26         27         28         29         30
    26  H    0.000000
    27  H    1.759428   0.000000
    28  H    2.457974   2.521403   0.000000
    29  H    3.044566   2.442826   1.750889   0.000000
    30  H    6.648757   7.580082   6.971589   6.516331   0.000000
    31  H    7.058688   7.631573   6.948773   6.152473   1.747327
                   31
    31  H    0.000000
 Stoichiometry    C10H18O3
 Framework group  C1[X(C10H18O3)]
 Deg. of freedom    87
 Full point group                 C1      NOp   1
 Largest Abelian subgroup         C1      NOp   1
 Largest concise Abelian subgroup C1      NOp   1
                         Standard orientation:                         
 ---------------------------------------------------------------------
 Center     Atomic      Atomic             Coordinates (Angstroms)
 Number     Number       Type             X           Y           Z
 ---------------------------------------------------------------------
      1          6           0        1.215139   -0.489766   -0.290722
      2          6           0       -3.853589    0.556837    0.482528
      3          6           0       -1.184998   -0.259149   -0.526149
      4          6           0       -2.491482    1.012925    1.008537
      5          6           0       -3.670989   -0.505989   -0.616177
      6          6           0        1.522421    0.997923   -0.438451
      7          6           0        2.159042   -1.128482    0.718614
      8          6           0        3.864929    0.441963    0.274188
      9          8           0        3.503507   -0.925897    0.346257
     10          6           0        3.012308    1.173610   -0.748911
     11          8           0       -0.091926   -0.793217    0.165159
     12          6           0       -2.347231   -1.240664   -0.416891
     13          8           0       -1.529832    1.009643   -0.034535
     14          1           0        1.357610   -0.974123   -1.253878
     15          1           0       -4.406928    1.405242    0.092952
     16          1           0       -4.426924    0.154988    1.313035
     17          1           0       -0.913130   -0.102460   -1.560769
     18          1           0       -2.525707    2.026061    1.382871
     19          1           0       -2.148578    0.373697    1.814278
     20          1           0       -3.670085   -0.031516   -1.593522
     21          1           0       -4.496952   -1.208930   -0.610705
     22          1           0        0.922075    1.442578   -1.223231
     23          1           0        1.280469    1.507656    0.490559
     24          1           0        2.001386   -2.197159    0.763115
     25          1           0        1.981959   -0.708081    1.705782
     26          1           0        3.751478    0.890031    1.258772
     27          1           0        4.912368    0.465528    0.006687
     28          1           0        3.273916    2.227399   -0.747473
     29          1           0        3.234576    0.785381   -1.739768
     30          1           0       -2.326918   -1.712328    0.561060
     31          1           0       -2.207899   -2.023448   -1.154221
 ---------------------------------------------------------------------
 Rotational constants (GHZ):           2.1966281           0.3718012           0.3489649
 Standard basis: 6-311++G(2d,2p) (5D, 7F)
 There are   557 symmetry adapted cartesian basis functions of A   symmetry.
 There are   531 symmetry adapted basis functions of A   symmetry.
   531 basis functions,   762 primitive gaussians,   557 cartesian basis functions
    51 alpha electrons       51 beta electrons
       nuclear repulsion energy       884.2913065083 Hartrees.
 NAtoms=   31 NActive=   31 NUniq=   31 SFac= 1.00D+00 NAtFMM=   60 NAOKFM=F Big=F
 Integral buffers will be    131072 words long.
 Raffenetti 2 integral format.
 Two-electron integral symmetry is turned on.
 ------------------------------------------------------------------------------
 Polarizable Continuum Model (PCM)
 =================================
 Model                : PCM.
 Atomic radii         : UFF (Universal Force Field).
 Polarization charges : Total charges.
 Charge compensation  : None.
 Solution method      : On-the-fly selection.
 Cavity type          : Scaled VdW (van der Waals Surface) (Alpha=1.100).
 Cavity algorithm     : GePol (No added spheres)
                        Default sphere list used, NSphG=   31.
                        Lebedev-Laikov grids with approx.  5.0 points / Ang**2.
                        Smoothing algorithm: York/Karplus (Gamma=1.0000).
                        Polarization charges: spherical gaussians, with
                                              point-specific exponents (IZeta= 3).
                        Self-potential: point-specific (ISelfS= 7).
                        Self-field    : sphere-specific E.n sum rule (ISelfD= 2).
 1st derivatives      : Analytical E(r).r(x)/FMM algorithm (CHGder, D1EAlg=3).
                        Cavity 1st derivative terms included.
 Solvent              : Water, Eps=  78.355300 Eps(inf)=   1.777849
 ------------------------------------------------------------------------------
 One-electron integrals computed using PRISM.
 NBasis=   531 RedAO= T EigKep=  5.03D-06  NBF=   531
 NBsUse=   531 1.00D-06 EigRej= -1.00D+00 NBFU=   531
 ExpMin= 3.60D-02 ExpMax= 8.59D+03 ExpMxC= 1.30D+03 IAcc=3 IRadAn=         5 AccDes= 0.00D+00
 Harris functional with IExCor= 1009 and IRadAn=       5 diagonalized for initial guess.
 HarFok:  IExCor= 1009 AccDes= 0.00D+00 IRadAn=         5 IDoV= 1 UseB2=F ITyADJ=14
 ICtDFT=  3500011 ScaDFX=  1.000000  1.000000  1.000000  1.000000
 FoFCou: FMM=F IPFlag=           0 FMFlag=      100000 FMFlg1=           0
         NFxFlg=           0 DoJE=T BraDBF=F KetDBF=T FulRan=T
         wScrn=  0.000000 ICntrl=       500 IOpCl=  0 I1Cent=   200000004 NGrid=           0
         NMat0=    1 NMatS0=      1 NMatT0=    0 NMatD0=    1 NMtDS0=    0 NMtDT0=    0
 Petite list used in FoFCou.
 Requested convergence on RMS density matrix=1.00D-08 within 128 cycles.
 Requested convergence on MAX density matrix=1.00D-06.
 Requested convergence on             energy=1.00D-06.
 No special actions if energy rises.
 Inv3:  Mode=1 IEnd=    12792675.
 Iteration    1 A*A^-1 deviation from unit magnitude is 6.66D-15 for   2045.
 Iteration    1 A*A^-1 deviation from orthogonality  is 2.30D-15 for   2034   1043.
 Iteration    1 A^-1*A deviation from unit magnitude is 6.22D-15 for   2045.
 Iteration    1 A^-1*A deviation from orthogonality  is 1.30D-15 for   2036    981.
 Error on total polarization charges =  0.01495
 SCF Done:  E(RM062X) =  -617.495023198     A.U. after   12 cycles
            NFock= 12  Conv=0.50D-08     -V/T= 2.0035

 **********************************************************************

            Population analysis using the SCF density.

 **********************************************************************

 Orbital symmetries:
       Occupied  (A) (A) (A) (A) (A) (A) (A) (A) (A) (A) (A) (A)
                 (A) (A) (A) (A) (A) (A) (A) (A) (A) (A) (A) (A)
                 (A) (A) (A) (A) (A) (A) (A) (A) (A) (A) (A) (A)
                 (A) (A) (A) (A) (A) (A) (A) (A) (A) (A) (A) (A)
                 (A) (A) (A)
       Virtual   (A) (A) (A) (A) (A) (A) (A) (A) (A) (A) (A) (A)
                 (A) (A) (A) (A) (A) (A) (A) (A) (A) (A) (A) (A)
                 (A) (A) (A) (A) (A) (A) (A) (A) (A) (A) (A) (A)
                 (A) (A) (A) (A) (A) (A) (A) (A) (A) (A) (A) (A)
                 (A) (A) (A) (A) (A) (A) (A) (A) (A) (A) (A) (A)
                 (A) (A) (A) (A) (A) (A) (A) (A) (A) (A) (A) (A)
                 (A) (A) (A) (A) (A) (A) (A) (A) (A) (A) (A) (A)
                 (A) (A) (A) (A) (A) (A) (A) (A) (A) (A) (A) (A)
                 (A) (A) (A) (A) (A) (A) (A) (A) (A) (A) (A) (A)
                 (A) (A) (A) (A) (A) (A) (A) (A) (A) (A) (A) (A)
                 (A) (A) (A) (A) (A) (A) (A) (A) (A) (A) (A) (A)
                 (A) (A) (A) (A) (A) (A) (A) (A) (A) (A) (A) (A)
                 (A) (A) (A) (A) (A) (A) (A) (A) (A) (A) (A) (A)
                 (A) (A) (A) (A) (A) (A) (A) (A) (A) (A) (A) (A)
                 (A) (A) (A) (A) (A) (A) (A) (A) (A) (A) (A) (A)
                 (A) (A) (A) (A) (A) (A) (A) (A) (A) (A) (A) (A)
                 (A) (A) (A) (A) (A) (A) (A) (A) (A) (A) (A) (A)
                 (A) (A) (A) (A) (A) (A) (A) (A) (A) (A) (A) (A)
                 (A) (A) (A) (A) (A) (A) (A) (A) (A) (A) (A) (A)
                 (A) (A) (A) (A) (A) (A) (A) (A) (A) (A) (A) (A)
                 (A) (A) (A) (A) (A) (A) (A) (A) (A) (A) (A) (A)
                 (A) (A) (A) (A) (A) (A) (A) (A) (A) (A) (A) (A)
                 (A) (A) (A) (A) (A) (A) (A) (A) (A) (A) (A) (A)
                 (A) (A) (A) (A) (A) (A) (A) (A) (A) (A) (A) (A)
                 (A) (A) (A) (A) (A) (A) (A) (A) (A) (A) (A) (A)
                 (A) (A) (A) (A) (A) (A) (A) (A) (A) (A) (A) (A)
                 (A) (A) (A) (A) (A) (A) (A) (A) (A) (A) (A) (A)
                 (A) (A) (A) (A) (A) (A) (A) (A) (A) (A) (A) (A)
                 (A) (A) (A) (A) (A) (A) (A) (A) (A) (A) (A) (A)
                 (A) (A) (A) (A) (A) (A) (A) (A) (A) (A) (A) (A)
                 (A) (A) (A) (A) (A) (A) (A) (A) (A) (A) (A) (A)
                 (A) (A) (A) (A) (A) (A) (A) (A) (A) (A) (A) (A)
                 (A) (A) (A) (A) (A) (A) (A) (A) (A) (A) (A) (A)
                 (A) (A) (A) (A) (A) (A) (A) (A) (A) (A) (A) (A)
                 (A) (A) (A) (A) (A) (A) (A) (A) (A) (A) (A) (A)
                 (A) (A) (A) (A) (A) (A) (A) (A) (A) (A) (A) (A)
                 (A) (A) (A) (A) (A) (A) (A) (A) (A) (A) (A) (A)
                 (A) (A) (A) (A) (A) (A) (A) (A) (A) (A) (A) (A)
                 (A) (A) (A) (A) (A) (A) (A) (A) (A) (A) (A) (A)
                 (A) (A) (A) (A) (A) (A) (A) (A) (A) (A) (A) (A)
 The electronic state is 1-A.
 Alpha  occ. eigenvalues --  -19.63084 -19.62943 -19.62632 -10.63473 -10.58760
 Alpha  occ. eigenvalues --  -10.57963 -10.57849 -10.57710 -10.53119 -10.53118
 Alpha  occ. eigenvalues --  -10.53071 -10.53026 -10.52759  -1.20042  -1.16828
 Alpha  occ. eigenvalues --   -1.13856  -0.90787  -0.89668  -0.87708  -0.84401
 Alpha  occ. eigenvalues --   -0.75304  -0.74770  -0.73091  -0.70431  -0.65984
 Alpha  occ. eigenvalues --   -0.62729  -0.60543  -0.59131  -0.57722  -0.57075
 Alpha  occ. eigenvalues --   -0.55471  -0.53225  -0.51888  -0.50623  -0.49534
 Alpha  occ. eigenvalues --   -0.48056  -0.47043  -0.46035  -0.45543  -0.44283
 Alpha  occ. eigenvalues --   -0.43750  -0.43498  -0.41115  -0.40652  -0.39374
 Alpha  occ. eigenvalues --   -0.38349  -0.37364  -0.36122  -0.34316  -0.33848
 Alpha  occ. eigenvalues --   -0.32276
 Alpha virt. eigenvalues --   -0.00086   0.00778   0.00800   0.01039   0.02150
 Alpha virt. eigenvalues --    0.02392   0.02574   0.03462   0.03563   0.04229
 Alpha virt. eigenvalues --    0.04501   0.04840   0.05533   0.05767   0.06873
 Alpha virt. eigenvalues --    0.07272   0.07442   0.08005   0.08884   0.09241
 Alpha virt. eigenvalues --    0.09630   0.10469   0.10852   0.11624   0.11800
 Alpha virt. eigenvalues --    0.12118   0.12292   0.12709   0.13390   0.13525
 Alpha virt. eigenvalues --    0.13858   0.13968   0.14301   0.14799   0.14890
 Alpha virt. eigenvalues --    0.15012   0.15331   0.15600   0.15698   0.16267
 Alpha virt. eigenvalues --    0.16559   0.16844   0.17028   0.17390   0.17642
 Alpha virt. eigenvalues --    0.18026   0.18473   0.18730   0.18887   0.19221
 Alpha virt. eigenvalues --    0.19594   0.19831   0.20300   0.21130   0.21164
 Alpha virt. eigenvalues --    0.22344   0.22853   0.23240   0.23948   0.24694
 Alpha virt. eigenvalues --    0.25197   0.25509   0.25828   0.26275   0.26579
 Alpha virt. eigenvalues --    0.27363   0.27850   0.27978   0.29381   0.29740
 Alpha virt. eigenvalues --    0.29794   0.30278   0.30692   0.30882   0.32004
 Alpha virt. eigenvalues --    0.32568   0.32739   0.33459   0.33923   0.34190
 Alpha virt. eigenvalues --    0.34759   0.35293   0.35608   0.35983   0.36418
 Alpha virt. eigenvalues --    0.36693   0.36832   0.37192   0.37758   0.38388
 Alpha virt. eigenvalues --    0.38685   0.39039   0.39617   0.39999   0.40296
 Alpha virt. eigenvalues --    0.41329   0.42055   0.42653   0.43367   0.44030
 Alpha virt. eigenvalues --    0.45731   0.47894   0.48959   0.49250   0.50516
 Alpha virt. eigenvalues --    0.51138   0.52014   0.53468   0.54261   0.55553
 Alpha virt. eigenvalues --    0.55954   0.56289   0.57059   0.57864   0.58389
 Alpha virt. eigenvalues --    0.59571   0.59862   0.60812   0.61097   0.61391
 Alpha virt. eigenvalues --    0.61817   0.62184   0.63065   0.63493   0.63963
 Alpha virt. eigenvalues --    0.64634   0.65251   0.65857   0.66210   0.66668
 Alpha virt. eigenvalues --    0.68002   0.68522   0.69167   0.69478   0.69841
 Alpha virt. eigenvalues --    0.71064   0.71567   0.71907   0.72427   0.73138
 Alpha virt. eigenvalues --    0.73694   0.74577   0.75014   0.75473   0.75909
 Alpha virt. eigenvalues --    0.76468   0.77180   0.77522   0.78202   0.79082
 Alpha virt. eigenvalues --    0.79800   0.80425   0.83649   0.84448   0.85038
 Alpha virt. eigenvalues --    0.85473   0.86865   0.88418   0.89246   0.89756
 Alpha virt. eigenvalues --    0.90539   0.91691   0.92829   0.93612   0.95401
 Alpha virt. eigenvalues --    0.96239   0.98007   0.98654   1.00445   1.01768
 Alpha virt. eigenvalues --    1.03701   1.03754   1.04857   1.06309   1.07761
 Alpha virt. eigenvalues --    1.08398   1.09373   1.09706   1.10283   1.11626
 Alpha virt. eigenvalues --    1.12137   1.12824   1.13565   1.15119   1.16157
 Alpha virt. eigenvalues --    1.16645   1.17367   1.18020   1.19713   1.19932
 Alpha virt. eigenvalues --    1.20458   1.22009   1.22844   1.23022   1.24525
 Alpha virt. eigenvalues --    1.24977   1.25602   1.26336   1.26495   1.27602
 Alpha virt. eigenvalues --    1.28645   1.29254   1.29832   1.30292   1.30971
 Alpha virt. eigenvalues --    1.31512   1.32401   1.33214   1.33406   1.33868
 Alpha virt. eigenvalues --    1.34537   1.35291   1.35788   1.37291   1.37466
 Alpha virt. eigenvalues --    1.38503   1.39509   1.40516   1.40927   1.41699
 Alpha virt. eigenvalues --    1.42482   1.43040   1.44405   1.44628   1.45653
 Alpha virt. eigenvalues --    1.46064   1.46164   1.46770   1.47438   1.48780
 Alpha virt. eigenvalues --    1.48882   1.49568   1.50511   1.51220   1.51880
 Alpha virt. eigenvalues --    1.52930   1.53027   1.53332   1.53803   1.54981
 Alpha virt. eigenvalues --    1.55151   1.56296   1.57100   1.58035   1.58176
 Alpha virt. eigenvalues --    1.59416   1.59824   1.60378   1.61773   1.62156
 Alpha virt. eigenvalues --    1.62567   1.63889   1.64446   1.64997   1.65991
 Alpha virt. eigenvalues --    1.66838   1.68985   1.69150   1.70679   1.71324
 Alpha virt. eigenvalues --    1.71774   1.74363   1.75787   1.76260   1.77106
 Alpha virt. eigenvalues --    1.78121   1.80088   1.81141   1.82507   1.83462
 Alpha virt. eigenvalues --    1.86808   1.88827   1.90811   1.94276   1.97860
 Alpha virt. eigenvalues --    2.02502   2.03461   2.09216   2.10390   2.20917
 Alpha virt. eigenvalues --    2.23335   2.26663   2.31931   2.36692   2.40064
 Alpha virt. eigenvalues --    2.41632   2.43326   2.45153   2.48679   2.51283
 Alpha virt. eigenvalues --    2.56073   2.76303   2.77148   2.79375   2.81074
 Alpha virt. eigenvalues --    2.87581   2.89338   2.90470   2.91763   2.92867
 Alpha virt. eigenvalues --    2.95146   2.96231   2.99751   3.01891   3.03266
 Alpha virt. eigenvalues --    3.06721   3.07993   3.08484   3.09092   3.10255
 Alpha virt. eigenvalues --    3.13769   3.14780   3.17828   3.19822   3.20672
 Alpha virt. eigenvalues --    3.26795   3.29077   3.30142   3.31657   3.33428
 Alpha virt. eigenvalues --    3.35055   3.36156   3.36892   3.39551   3.40590
 Alpha virt. eigenvalues --    3.42253   3.42928   3.43647   3.44179   3.46010
 Alpha virt. eigenvalues --    3.46481   3.47978   3.49537   3.50762   3.51938
 Alpha virt. eigenvalues --    3.52389   3.53759   3.54505   3.55729   3.55973
 Alpha virt. eigenvalues --    3.57058   3.58399   3.58762   3.58858   3.59833
 Alpha virt. eigenvalues --    3.60639   3.61282   3.62413   3.63904   3.65564
 Alpha virt. eigenvalues --    3.65983   3.67337   3.68671   3.69551   3.69857
 Alpha virt. eigenvalues --    3.70476   3.70895   3.72279   3.73608   3.74633
 Alpha virt. eigenvalues --    3.75321   3.75757   3.76963   3.77801   3.78462
 Alpha virt. eigenvalues --    3.79634   3.80749   3.81358   3.83510   3.85911
 Alpha virt. eigenvalues --    3.87088   3.88025   3.89570   3.90449   3.90808
 Alpha virt. eigenvalues --    3.92650   3.93641   3.95699   3.97534   3.98879
 Alpha virt. eigenvalues --    3.99225   4.02950   4.03050   4.03831   4.04387
 Alpha virt. eigenvalues --    4.05184   4.06009   4.06360   4.06795   4.08030
 Alpha virt. eigenvalues --    4.08706   4.08987   4.09542   4.10122   4.11807
 Alpha virt. eigenvalues --    4.12418   4.13796   4.14656   4.15948   4.16481
 Alpha virt. eigenvalues --    4.17561   4.18591   4.19105   4.20315   4.20366
 Alpha virt. eigenvalues --    4.21401   4.22150   4.24071   4.25243   4.25878
 Alpha virt. eigenvalues --    4.27118   4.27484   4.29699   4.30594   4.32018
 Alpha virt. eigenvalues --    4.33561   4.34717   4.36290   4.37254   4.38947
 Alpha virt. eigenvalues --    4.41099   4.42726   4.45348   4.50664   4.52344
 Alpha virt. eigenvalues --    4.57473   4.58877   4.74940   4.76404   4.82814
 Alpha virt. eigenvalues --    4.84898   4.91662   4.95307   4.99815   5.00836
 Alpha virt. eigenvalues --    5.02801   5.06798   5.08584   5.11606   5.13088
 Alpha virt. eigenvalues --    5.13693   5.15652   5.18198   5.30441   5.37777
 Alpha virt. eigenvalues --    5.39726   5.57001   5.59864   5.67813   5.87304
 Alpha virt. eigenvalues --    5.89262   6.05895   7.03464   7.04327   7.05930
 Alpha virt. eigenvalues --    7.07095   7.09836   7.12607   7.13258   7.19001
 Alpha virt. eigenvalues --    7.27094   7.36363   7.39700   7.43987   7.54145
 Alpha virt. eigenvalues --    7.54927   7.61958  23.96215  23.98421  24.04566
 Alpha virt. eigenvalues --   24.06911  24.10885  24.11546  24.13541  24.15651
 Alpha virt. eigenvalues --   24.17507  24.22040  50.17310  50.19079  50.24133
          Condensed to atoms (all electrons):
               1          2          3          4          5          6
     1  C    7.193779   0.020993  -0.706184   0.054326  -0.079405  -0.813160
     2  C    0.020993   5.993164   0.422967  -0.246827  -0.335421  -0.002987
     3  C   -0.706184   0.422967   6.722958  -0.547619  -0.212299   0.292330
     4  C    0.054326  -0.246827  -0.547619   5.751512   0.325685  -0.014762
     5  C   -0.079405  -0.335421  -0.212299   0.325685   5.875539  -0.016390
     6  C   -0.813160  -0.002987   0.292330  -0.014762  -0.016390   6.513246
     7  C   -0.415943  -0.002350  -0.006701  -0.007247   0.001057   0.187094
     8  C    0.161919  -0.000799  -0.008003  -0.000001   0.001968  -0.091516
     9  O    0.004547  -0.000029  -0.007235   0.000698  -0.000148  -0.052076
    10  C   -0.156621  -0.002402  -0.138704  -0.000574  -0.003355  -0.413026
    11  O    0.201662   0.017095   0.300646   0.006598  -0.010579  -0.090433
    12  C    0.223165  -0.161990  -0.687649   0.024302   0.116232  -0.097095
    13  O   -0.080876   0.014455   0.321376  -0.002877  -0.129612   0.043087
    14  H    0.599636  -0.000984  -0.059023   0.007179  -0.003225  -0.070315
    15  H   -0.006252   0.468100   0.014727  -0.076284  -0.046270   0.002847
    16  H    0.004362   0.487736   0.012362  -0.059032  -0.068806  -0.001255
    17  H   -0.006460   0.016431   0.480427  -0.053946  -0.013483   0.006569
    18  H    0.008129  -0.014525   0.007964   0.433010  -0.007870  -0.002482
    19  H   -0.006062  -0.080520  -0.003916   0.457128  -0.008372   0.007451
    20  H    0.006728  -0.068336  -0.038961   0.004451   0.458046  -0.001109
    21  H   -0.001982  -0.048823   0.029658   0.012023   0.451434  -0.000148
    22  H   -0.033899   0.004505   0.010058  -0.005373  -0.004869   0.394245
    23  H    0.010080   0.001870   0.011282  -0.007638  -0.001591   0.477195
    24  H   -0.081062   0.000314   0.008814  -0.000020  -0.001989   0.036654
    25  H    0.027630  -0.002018  -0.019112   0.007375   0.002128  -0.031845
    26  H    0.011674  -0.000161   0.000468   0.000941   0.000178  -0.011142
    27  H    0.004426   0.000066  -0.001921  -0.000317  -0.000020   0.006571
    28  H   -0.017394   0.000117   0.001808  -0.000051  -0.000144  -0.031694
    29  H   -0.036704  -0.000036  -0.002857   0.000262  -0.000123   0.001856
    30  H    0.008215   0.003922  -0.062504  -0.014836  -0.059686   0.003060
    31  H    0.002008   0.004582  -0.021134   0.006006  -0.013037  -0.002709
               7          8          9         10         11         12
     1  C   -0.415943   0.161919   0.004547  -0.156621   0.201662   0.223165
     2  C   -0.002350  -0.000799  -0.000029  -0.002402   0.017095  -0.161990
     3  C   -0.006701  -0.008003  -0.007235  -0.138704   0.300646  -0.687649
     4  C   -0.007247  -0.000001   0.000698  -0.000574   0.006598   0.024302
     5  C    0.001057   0.001968  -0.000148  -0.003355  -0.010579   0.116232
     6  C    0.187094  -0.091516  -0.052076  -0.413026  -0.090433  -0.097095
     7  C    5.951627  -0.239981   0.152751   0.161704  -0.168575  -0.028160
     8  C   -0.239981   5.388072   0.112982   0.099413   0.010555   0.001026
     9  O    0.152751   0.112982   8.365440  -0.005654  -0.003816   0.001781
    10  C    0.161704   0.099413  -0.005654   6.146278  -0.008505   0.010450
    11  O   -0.168575   0.010555  -0.003816  -0.008505   8.368135  -0.195159
    12  C   -0.028160   0.001026   0.001781   0.010450  -0.195159   6.370676
    13  O   -0.008244   0.002808   0.000053   0.015258  -0.051345  -0.038347
    14  H   -0.090928   0.012735  -0.007918  -0.025899  -0.045159   0.004124
    15  H   -0.000132   0.000028  -0.000013  -0.000029  -0.000295   0.023494
    16  H    0.000116   0.000017   0.000006   0.000092   0.000514  -0.015058
    17  H    0.000576   0.000602  -0.001602  -0.001227  -0.031714  -0.005115
    18  H    0.000350  -0.000388   0.000051   0.000488  -0.001334  -0.014727
    19  H   -0.000334   0.000954  -0.000067   0.001559   0.013387   0.012757
    20  H    0.001234  -0.000229   0.000022   0.000495   0.000734  -0.008421
    21  H   -0.000214   0.000037  -0.000008   0.000097  -0.002762  -0.070299
    22  H    0.004543  -0.002258  -0.000127   0.013840  -0.012162   0.004906
    23  H   -0.043034   0.002102  -0.001449  -0.084842   0.012757  -0.004669
    24  H    0.450352  -0.000338  -0.073281  -0.002028   0.003587   0.002525
    25  H    0.355726   0.004858  -0.035565   0.012461   0.003800  -0.001990
    26  H   -0.028966   0.452328  -0.043331  -0.028548  -0.001181  -0.000345
    27  H    0.013119   0.434818  -0.069843  -0.049298   0.000835   0.000323
    28  H    0.000847  -0.033382   0.007535   0.441240  -0.001070  -0.000511
    29  H    0.009861  -0.081770  -0.001739   0.477256   0.001038   0.000843
    30  H    0.003629  -0.001082   0.000047  -0.001081  -0.011280   0.499807
    31  H   -0.001743   0.000322   0.000305   0.000176  -0.003363   0.406410
              13         14         15         16         17         18
     1  C   -0.080876   0.599636  -0.006252   0.004362  -0.006460   0.008129
     2  C    0.014455  -0.000984   0.468100   0.487736   0.016431  -0.014525
     3  C    0.321376  -0.059023   0.014727   0.012362   0.480427   0.007964
     4  C   -0.002877   0.007179  -0.076284  -0.059032  -0.053946   0.433010
     5  C   -0.129612  -0.003225  -0.046270  -0.068806  -0.013483  -0.007870
     6  C    0.043087  -0.070315   0.002847  -0.001255   0.006569  -0.002482
     7  C   -0.008244  -0.090928  -0.000132   0.000116   0.000576   0.000350
     8  C    0.002808   0.012735   0.000028   0.000017   0.000602  -0.000388
     9  O    0.000053  -0.007918  -0.000013   0.000006  -0.001602   0.000051
    10  C    0.015258  -0.025899  -0.000029   0.000092  -0.001227   0.000488
    11  O   -0.051345  -0.045159  -0.000295   0.000514  -0.031714  -0.001334
    12  C   -0.038347   0.004124   0.023494  -0.015058  -0.005115  -0.014727
    13  O    8.358461  -0.000243  -0.009117   0.012217  -0.080413  -0.066100
    14  H   -0.000243   0.437278  -0.000330   0.000256  -0.012126   0.000275
    15  H   -0.009117  -0.000330   0.513940  -0.021037   0.005263  -0.013916
    16  H    0.012217   0.000256  -0.021037   0.499179  -0.001346   0.000778
    17  H   -0.080413  -0.012126   0.005263  -0.001346   0.489532  -0.004527
    18  H   -0.066100   0.000275  -0.013916   0.000778  -0.004527   0.480611
    19  H   -0.025911  -0.000013   0.006829  -0.001703   0.002219  -0.008039
    20  H    0.012052   0.000119  -0.014545   0.006724  -0.007356   0.000516
    21  H   -0.006335  -0.000345  -0.001399  -0.004727   0.001451  -0.000220
    22  H   -0.008276  -0.003365  -0.000779   0.000270  -0.015993   0.001391
    23  H   -0.009019   0.005440   0.000452  -0.000090   0.006241  -0.002634
    24  H    0.000389  -0.010234  -0.000031   0.000029   0.001259   0.000144
    25  H   -0.000551   0.003342  -0.000123   0.000159  -0.003116   0.000753
    26  H   -0.000274   0.000146  -0.000002  -0.000004  -0.000822   0.000172
    27  H    0.000255  -0.001218   0.000004  -0.000000   0.000227  -0.000065
    28  H    0.001219  -0.003674   0.000020  -0.000017   0.000230  -0.000059
    29  H   -0.000656  -0.002901   0.000006  -0.000009  -0.000447   0.000066
    30  H    0.001869  -0.000187  -0.003524   0.001085   0.000995  -0.001217
    31  H    0.007551   0.000382  -0.000081  -0.000158  -0.019104   0.001421
              19         20         21         22         23         24
     1  C   -0.006062   0.006728  -0.001982  -0.033899   0.010080  -0.081062
     2  C   -0.080520  -0.068336  -0.048823   0.004505   0.001870   0.000314
     3  C   -0.003916  -0.038961   0.029658   0.010058   0.011282   0.008814
     4  C    0.457128   0.004451   0.012023  -0.005373  -0.007638  -0.000020
     5  C   -0.008372   0.458046   0.451434  -0.004869  -0.001591  -0.001989
     6  C    0.007451  -0.001109  -0.000148   0.394245   0.477195   0.036654
     7  C   -0.000334   0.001234  -0.000214   0.004543  -0.043034   0.450352
     8  C    0.000954  -0.000229   0.000037  -0.002258   0.002102  -0.000338
     9  O   -0.000067   0.000022  -0.000008  -0.000127  -0.001449  -0.073281
    10  C    0.001559   0.000495   0.000097   0.013840  -0.084842  -0.002028
    11  O    0.013387   0.000734  -0.002762  -0.012162   0.012757   0.003587
    12  C    0.012757  -0.008421  -0.070299   0.004906  -0.004669   0.002525
    13  O   -0.025911   0.012052  -0.006335  -0.008276  -0.009019   0.000389
    14  H   -0.000013   0.000119  -0.000345  -0.003365   0.005440  -0.010234
    15  H    0.006829  -0.014545  -0.001399  -0.000779   0.000452  -0.000031
    16  H   -0.001703   0.006724  -0.004727   0.000270  -0.000090   0.000029
    17  H    0.002219  -0.007356   0.001451  -0.015993   0.006241   0.001259
    18  H   -0.008039   0.000516  -0.000220   0.001391  -0.002634   0.000144
    19  H    0.492296   0.000266  -0.002076  -0.000967   0.001021  -0.000049
    20  H    0.000266   0.493439  -0.010288   0.001595  -0.000305   0.000166
    21  H   -0.002076  -0.010288   0.469656  -0.000092   0.000041  -0.000013
    22  H   -0.000967   0.001595  -0.000092   0.482023  -0.014142  -0.000886
    23  H    0.001021  -0.000305   0.000041  -0.014142   0.437122  -0.002504
    24  H   -0.000049   0.000166  -0.000013  -0.000886  -0.002504   0.492536
    25  H   -0.001256  -0.000028  -0.000047   0.000847  -0.005321  -0.026645
    26  H   -0.000106   0.000013  -0.000002   0.002361  -0.012776  -0.002633
    27  H    0.000083  -0.000015   0.000003   0.000010   0.000484   0.001665
    28  H   -0.000024  -0.000019   0.000001  -0.009671  -0.006861   0.001983
    29  H   -0.000007   0.000026  -0.000003  -0.001863  -0.001191  -0.001333
    30  H   -0.008563   0.004292  -0.004941   0.000145  -0.000023   0.000595
    31  H    0.000336   0.000564  -0.008502   0.001336  -0.000693  -0.000651
              25         26         27         28         29         30
     1  C    0.027630   0.011674   0.004426  -0.017394  -0.036704   0.008215
     2  C   -0.002018  -0.000161   0.000066   0.000117  -0.000036   0.003922
     3  C   -0.019112   0.000468  -0.001921   0.001808  -0.002857  -0.062504
     4  C    0.007375   0.000941  -0.000317  -0.000051   0.000262  -0.014836
     5  C    0.002128   0.000178  -0.000020  -0.000144  -0.000123  -0.059686
     6  C   -0.031845  -0.011142   0.006571  -0.031694   0.001856   0.003060
     7  C    0.355726  -0.028966   0.013119   0.000847   0.009861   0.003629
     8  C    0.004858   0.452328   0.434818  -0.033382  -0.081770  -0.001082
     9  O   -0.035565  -0.043331  -0.069843   0.007535  -0.001739   0.000047
    10  C    0.012461  -0.028548  -0.049298   0.441240   0.477256  -0.001081
    11  O    0.003800  -0.001181   0.000835  -0.001070   0.001038  -0.011280
    12  C   -0.001990  -0.000345   0.000323  -0.000511   0.000843   0.499807
    13  O   -0.000551  -0.000274   0.000255   0.001219  -0.000656   0.001869
    14  H    0.003342   0.000146  -0.001218  -0.003674  -0.002901  -0.000187
    15  H   -0.000123  -0.000002   0.000004   0.000020   0.000006  -0.003524
    16  H    0.000159  -0.000004  -0.000000  -0.000017  -0.000009   0.001085
    17  H   -0.003116  -0.000822   0.000227   0.000230  -0.000447   0.000995
    18  H    0.000753   0.000172  -0.000065  -0.000059   0.000066  -0.001217
    19  H   -0.001256  -0.000106   0.000083  -0.000024  -0.000007  -0.008563
    20  H   -0.000028   0.000013  -0.000015  -0.000019   0.000026   0.004292
    21  H   -0.000047  -0.000002   0.000003   0.000001  -0.000003  -0.004941
    22  H    0.000847   0.002361   0.000010  -0.009671  -0.001863   0.000145
    23  H   -0.005321  -0.012776   0.000484  -0.006861  -0.001191  -0.000023
    24  H   -0.026645  -0.002633   0.001665   0.001983  -0.001333   0.000595
    25  H    0.503739   0.011359  -0.002456  -0.002340   0.001857  -0.001088
    26  H    0.011359   0.504521  -0.009758   0.004963   0.002383  -0.000016
    27  H   -0.002456  -0.009758   0.475947  -0.009039  -0.003081  -0.000051
    28  H   -0.002340   0.004963  -0.009039   0.493695  -0.008579  -0.000008
    29  H    0.001857   0.002383  -0.003081  -0.008579   0.475136   0.000084
    30  H   -0.001088  -0.000016  -0.000051  -0.000008   0.000084   0.444020
    31  H    0.000983   0.000086   0.000004  -0.000053   0.000082  -0.009562
              31
     1  C    0.002008
     2  C    0.004582
     3  C   -0.021134
     4  C    0.006006
     5  C   -0.013037
     6  C   -0.002709
     7  C   -0.001743
     8  C    0.000322
     9  O    0.000305
    10  C    0.000176
    11  O   -0.003363
    12  C    0.406410
    13  O    0.007551
    14  H    0.000382
    15  H   -0.000081
    16  H   -0.000158
    17  H   -0.019104
    18  H    0.001421
    19  H    0.000336
    20  H    0.000564
    21  H   -0.008502
    22  H    0.001336
    23  H   -0.000693
    24  H   -0.000651
    25  H    0.000983
    26  H    0.000086
    27  H    0.000004
    28  H   -0.000053
    29  H    0.000082
    30  H   -0.009562
    31  H    0.480169
 Mulliken charges:
               1
     1  C   -0.101278
     2  C   -0.488110
     3  C   -0.114021
     4  C   -0.054091
     5  C   -0.215571
     6  C   -0.228059
     7  C   -0.252032
     8  C   -0.227798
     9  O   -0.342318
    10  C   -0.459015
    11  O   -0.302610
    12  C   -0.373284
    13  O   -0.272855
    14  H    0.267178
    15  H    0.158449
    16  H    0.147340
    17  H    0.246776
    18  H    0.201982
    19  H    0.151699
    20  H    0.158131
    21  H    0.198825
    22  H    0.192648
    23  H    0.232695
    24  H    0.202685
    25  H    0.196486
    26  H    0.148474
    27  H    0.208241
    28  H    0.170937
    29  H    0.172544
    30  H    0.207884
    31  H    0.168069
 Sum of Mulliken charges =  -0.00000
 Mulliken charges with hydrogens summed into heavy atoms:
               1
     1  C    0.165900
     2  C   -0.182321
     3  C    0.132755
     4  C    0.299590
     5  C    0.141385
     6  C    0.197283
     7  C    0.147139
     8  C    0.128917
     9  O   -0.342318
    10  C   -0.115533
    11  O   -0.302610
    12  C    0.002668
    13  O   -0.272855
 Electronic spatial extent (au):  <R**2>=           3285.1318
 Charge=              0.0000 electrons
 Dipole moment (field-independent basis, Debye):
    X=             -1.9545    Y=              1.0933    Z=             -0.5303  Tot=              2.3015
 Quadrupole moment (field-independent basis, Debye-Ang):
   XX=            -76.9175   YY=            -81.7707   ZZ=            -77.3104
   XY=              8.6173   XZ=             -2.0439   YZ=              2.1352
 Traceless Quadrupole moment (field-independent basis, Debye-Ang):
   XX=              1.7487   YY=             -3.1045   ZZ=              1.3558
   XY=              8.6173   XZ=             -2.0439   YZ=              2.1352
 Octapole moment (field-independent basis, Debye-Ang**2):
  XXX=            -32.8515  YYY=             -1.0345  ZZZ=              0.7655  XYY=             -2.7105
  XXY=             28.6147  XXZ=              2.3622  XZZ=             -0.5610  YZZ=             -0.0909
  YYZ=              2.0853  XYZ=             -2.5508
 Hexadecapole moment (field-independent basis, Debye-Ang**3):
 XXXX=          -3523.8270 YYYY=           -518.5175 ZZZZ=           -304.4445 XXXY=            116.3009
 XXXZ=            -32.8549 YYYX=             -9.7156 YYYZ=              4.4279 ZZZX=              2.0330
 ZZZY=              1.0219 XXYY=           -686.8222 XXZZ=           -636.1606 YYZZ=           -137.3570
 XXYZ=             10.6981 YYXZ=             -2.7450 ZZXY=             -4.4073
 N-N= 8.842913065083D+02 E-N=-3.210459668668D+03  KE= 6.153404563327D+02
 D1PCM: PCM CHGder 1st derivatives, ID1Alg=3 FixD1E=F DoIter=F DoCFld=F I1PDM=0.
 Calling FoFJK, ICntrl=      2127 FMM=F ISym2X=0 I1Cent= 0 IOpClX= 0 NMat=1 NMatS=1 NMatT=0.
 ***** Axes restored to original set *****
 -------------------------------------------------------------------
 Center     Atomic                   Forces (Hartrees/Bohr)
 Number     Number              X              Y              Z
 -------------------------------------------------------------------
      1        6          -0.003616801   -0.004388395    0.000160043
      2        6           0.001265683    0.000962615    0.000595626
      3        6          -0.002817620    0.003098842   -0.004921047
      4        6          -0.001328419    0.004076098    0.004049749
      5        6           0.002268100   -0.000472946   -0.002584223
      6        6           0.004466311    0.003446628   -0.001766509
      7        6           0.002218874   -0.004686924    0.005221554
      8        6          -0.006112120    0.000930174    0.003108663
      9        8           0.005394799    0.006774016    0.002096031
     10        6          -0.001100264   -0.000085757   -0.002365384
     11        8          -0.001000547    0.004714518   -0.010538523
     12        6          -0.000839415   -0.002517560    0.001878712
     13        8           0.003695954   -0.009516612    0.005371459
     14        1           0.002583971    0.002406586    0.005640961
     15        1          -0.001187439   -0.002110586    0.001109314
     16        1          -0.001649682    0.001482119   -0.002076185
     17        1           0.001677643   -0.001625579    0.007955264
     18        1          -0.000252075   -0.003980017   -0.001608805
     19        1           0.001214801    0.003900153   -0.004456069
     20        1           0.000640725   -0.001668122    0.002601990
     21        1          -0.001908451    0.001606686   -0.000078917
     22        1          -0.003235352   -0.001295425    0.002374352
     23        1          -0.001754163   -0.000908833   -0.003707501
     24        1          -0.001387878    0.004582041    0.000028205
     25        1          -0.002860443   -0.003215746   -0.005101706
     26        1          -0.001222995   -0.003463697   -0.005014934
     27        1           0.004219839   -0.000083163    0.001210571
     28        1           0.000547457   -0.003000664    0.000306249
     29        1           0.000736321    0.001790140    0.002657020
     30        1           0.000984868    0.000963341   -0.003942158
     31        1           0.000358317    0.002286068    0.001796199
 -------------------------------------------------------------------
 Cartesian Forces:  Max     0.010538523 RMS     0.003332141

 GradGradGradGradGradGradGradGradGradGradGradGradGradGradGradGradGradGrad
 Berny optimization.
 FormGI is forming the generalized inverse of G from B-inverse, IUseBI=4.
 Internal  Forces:  Max     0.014802700 RMS     0.002124773
 Search for a local minimum.
 Step number   1 out of a maximum of  186
 All quantities printed in internal units (Hartrees-Bohrs-Radians)
 Mixed Optimization -- RFO/linear search
 Second derivative matrix not updated -- first step.
 ITU=  0
     Eigenvalues ---    0.00393   0.00634   0.00686   0.00746   0.01425
     Eigenvalues ---    0.01454   0.01702   0.02698   0.02703   0.03171
     Eigenvalues ---    0.03209   0.04071   0.04089   0.04531   0.04662
     Eigenvalues ---    0.04862   0.04883   0.05097   0.05138   0.05150
     Eigenvalues ---    0.05176   0.05634   0.05748   0.05932   0.06162
     Eigenvalues ---    0.06410   0.06614   0.06631   0.07669   0.07735
     Eigenvalues ---    0.07894   0.07905   0.07925   0.08034   0.08103
     Eigenvalues ---    0.09273   0.09333   0.09678   0.10874   0.11606
     Eigenvalues ---    0.11616   0.11702   0.11703   0.12493   0.12637
     Eigenvalues ---    0.14597   0.15824   0.16296   0.17678   0.19265
     Eigenvalues ---    0.20533   0.21324   0.22411   0.25000   0.27376
     Eigenvalues ---    0.27537   0.28487   0.28663   0.28787   0.29044
     Eigenvalues ---    0.29538   0.30284   0.35082   0.35106   0.35108
     Eigenvalues ---    0.35143   0.35169   0.35229   0.35250   0.35286
     Eigenvalues ---    0.35305   0.35369   0.35443   0.35474   0.35496
     Eigenvalues ---    0.35572   0.35836   0.35855   0.35855   0.35919
     Eigenvalues ---    0.40094   0.41404   0.42514   0.42892   0.43092
     Eigenvalues ---    0.457431000.000001000.000001000.000001000.00000
     Eigenvalues --- 1000.000001000.000001000.000001000.000001000.00000
     Eigenvalues --- 1000.000001000.000001000.000001000.000001000.00000
     Eigenvalues --- 1000.000001000.000001000.000001000.000001000.00000
     Eigenvalues --- 1000.000001000.000001000.000001000.000001000.00000
     Eigenvalues --- 1000.000001000.000001000.000001000.000001000.00000
     Eigenvalues --- 1000.000001000.000001000.000001000.000001000.00000
     Eigenvalues --- 1000.000001000.000001000.000001000.000001000.00000
     Eigenvalues --- 1000.000001000.000001000.000001000.000001000.00000
     Eigenvalues --- 1000.000001000.000001000.000001000.000001000.00000
     Eigenvalues --- 1000.000001000.000001000.000001000.000001000.00000
     Eigenvalues --- 1000.000001000.000001000.000001000.000001000.00000
     Eigenvalues --- 1000.000001000.000001000.000001000.000001000.00000
     Eigenvalues --- 1000.000001000.000001000.000001000.000001000.00000
     Eigenvalues --- 1000.000001000.000001000.000001000.000001000.00000
     Eigenvalues --- 1000.000001000.000001000.000001000.000001000.00000
     Eigenvalues --- 1000.000001000.000001000.000001000.000001000.00000
     Eigenvalues --- 1000.000001000.000001000.000001000.000001000.00000
     Eigenvalues --- 1000.000001000.000001000.000001000.000001000.00000
     Eigenvalues --- 1000.000001000.000001000.000001000.000001000.00000
 RFO step:  Lambda=-3.56069778D-03 EMin= 3.93090324D-03
 Linear search not attempted -- first point.
 Iteration  1 RMS(Cart)=  0.07167187 RMS(Int)=  0.00109022
 Iteration  2 RMS(Cart)=  0.00299277 RMS(Int)=  0.00004494
 Iteration  3 RMS(Cart)=  0.00000197 RMS(Int)=  0.00004492
 Iteration  4 RMS(Cart)=  0.00000000 RMS(Int)=  0.00004492
 Iteration  1 RMS(Cart)=  0.00000541 RMS(Int)=  0.00000130
 Iteration  2 RMS(Cart)=  0.00000297 RMS(Int)=  0.00000145
 Iteration  3 RMS(Cart)=  0.00000163 RMS(Int)=  0.00000164
 Iteration  4 RMS(Cart)=  0.00000090 RMS(Int)=  0.00000176
 Variable       Old X    -DE/DX   Delta X   Delta X   Delta X     New X
                                 (Linear)    (Quad)   (Total)
    R1        2.88421  -0.00206   0.00000  -0.00715  -0.00717   2.87704
    R2        2.87690  -0.00057   0.00000  -0.00229  -0.00229   2.87461
    R3        2.67804   0.00078   0.00000   0.00181   0.00181   2.67985
    R4        2.05500   0.00641   0.00000   0.01807   0.01807   2.07307
    R5        2.89075   0.00109   0.00000   0.00313   0.00316   2.89391
    R6        2.90925  -0.00033   0.00000  -0.00234  -0.00231   2.90694
    R7        2.05081   0.00265   0.00000   0.00743   0.00743   2.05824
    R8        2.05271   0.00301   0.00000   0.00844   0.00844   2.06116
    R9        2.64423   0.00250   0.00000   0.00541   0.00541   2.64964
   R10        2.88212  -0.00095   0.00000  -0.00187  -0.00188   2.88024
   R11        2.65265   0.00336   0.00000   0.00850   0.00848   2.66113
   R12        2.04309   0.00827   0.00000   0.02284   0.02284   2.06593
   R13        2.68100   0.00334   0.00000   0.00763   0.00762   2.68862
   R14        2.04208   0.00430   0.00000   0.01185   0.01185   2.05393
   R15        2.04878   0.00600   0.00000   0.01672   0.01672   2.06550
   R16        2.88565  -0.00043   0.00000  -0.00239  -0.00240   2.88326
   R17        2.05305   0.00307   0.00000   0.00862   0.00862   2.06168
   R18        2.04961   0.00249   0.00000   0.00697   0.00697   2.05658
   R19        2.89505  -0.00048   0.00000  -0.00210  -0.00211   2.89294
   R20        2.04755   0.00404   0.00000   0.01126   0.01126   2.05881
   R21        2.05401   0.00398   0.00000   0.01121   0.01121   2.06522
   R22        2.66396   0.00290   0.00000   0.00687   0.00689   2.67085
   R23        2.04310   0.00473   0.00000   0.01307   0.01307   2.05616
   R24        2.05502   0.00634   0.00000   0.01787   0.01787   2.07290
   R25        2.67706   0.00352   0.00000   0.00832   0.00835   2.68540
   R26        2.87151   0.00020   0.00000   0.00110   0.00110   2.87261
   R27        2.05541   0.00609   0.00000   0.01719   0.01719   2.07260
   R28        2.04339   0.00439   0.00000   0.01213   0.01213   2.05552
   R29        2.05182   0.00304   0.00000   0.00853   0.00853   2.06035
   R30        2.05444   0.00321   0.00000   0.00905   0.00905   2.06349
   R31        2.05213   0.00399   0.00000   0.01119   0.01119   2.06332
   R32        2.04913   0.00292   0.00000   0.00814   0.00814   2.05727
    A1        1.92654  -0.00017   0.00000  -0.00373  -0.00381   1.92274
    A2        2.01036  -0.00293   0.00000  -0.02041  -0.02037   1.98999
    A3        1.89868   0.00122   0.00000   0.00163   0.00170   1.90038
    A4        1.84288   0.00147   0.00000   0.00722   0.00711   1.84998
    A5        1.89559  -0.00082   0.00000  -0.00178  -0.00182   1.89377
    A6        1.88639   0.00128   0.00000   0.01819   0.01818   1.90457
    A7        1.92370  -0.00005   0.00000  -0.00776  -0.00789   1.91581
    A8        1.92236  -0.00056   0.00000   0.00027   0.00030   1.92265
    A9        1.89376   0.00075   0.00000   0.00482   0.00485   1.89861
   A10        1.92196   0.00084   0.00000   0.00231   0.00237   1.92433
   A11        1.93142  -0.00109   0.00000  -0.00245  -0.00242   1.92899
   A12        1.86978   0.00010   0.00000   0.00316   0.00314   1.87292
   A13        1.89048  -0.00195   0.00000  -0.00708  -0.00709   1.88339
   A14        1.94321   0.00005   0.00000   0.00075   0.00086   1.94407
   A15        1.90886   0.00095   0.00000   0.00452   0.00450   1.91337
   A16        1.94916   0.00280   0.00000   0.01022   0.01011   1.95927
   A17        1.93205  -0.00001   0.00000   0.00206   0.00214   1.93419
   A18        1.83996  -0.00179   0.00000  -0.01028  -0.01030   1.82966
   A19        1.92843   0.00133   0.00000   0.00262   0.00244   1.93087
   A20        1.95029  -0.00035   0.00000  -0.00345  -0.00339   1.94690
   A21        1.94056  -0.00098   0.00000  -0.00386  -0.00386   1.93670
   A22        1.85284  -0.00112   0.00000  -0.00107  -0.00102   1.85182
   A23        1.90780   0.00077   0.00000   0.00547   0.00555   1.91335
   A24        1.88111   0.00035   0.00000   0.00057   0.00054   1.88165
   A25        1.91966  -0.00078   0.00000  -0.00659  -0.00678   1.91287
   A26        1.91836   0.00059   0.00000   0.00122   0.00126   1.91962
   A27        1.93211  -0.00020   0.00000   0.00031   0.00036   1.93248
   A28        1.90371   0.00039   0.00000  -0.00095  -0.00089   1.90282
   A29        1.92590  -0.00004   0.00000   0.00159   0.00164   1.92754
   A30        1.86316   0.00009   0.00000   0.00476   0.00473   1.86789
   A31        1.90413   0.00107   0.00000  -0.00212  -0.00215   1.90197
   A32        1.93753  -0.00064   0.00000  -0.00504  -0.00501   1.93251
   A33        1.90664  -0.00126   0.00000  -0.00952  -0.00952   1.89712
   A34        1.92304   0.00024   0.00000   0.00954   0.00953   1.93257
   A35        1.91337   0.00051   0.00000   0.00872   0.00871   1.92208
   A36        1.87891   0.00007   0.00000  -0.00152  -0.00164   1.87727
   A37        1.93468   0.00174   0.00000   0.00614   0.00618   1.94086
   A38        1.93006  -0.00081   0.00000  -0.00614  -0.00619   1.92387
   A39        1.91632  -0.00233   0.00000  -0.01640  -0.01645   1.89987
   A40        1.86711  -0.00044   0.00000   0.00335   0.00336   1.87047
   A41        1.91721   0.00114   0.00000   0.01196   0.01198   1.92919
   A42        1.89759   0.00078   0.00000   0.00173   0.00160   1.89919
   A43        1.93480   0.00198   0.00000   0.00906   0.00906   1.94386
   A44        1.90192   0.00063   0.00000   0.00699   0.00703   1.90894
   A45        1.85538  -0.00118   0.00000  -0.00369  -0.00368   1.85171
   A46        1.93115  -0.00164   0.00000  -0.00989  -0.00992   1.92122
   A47        1.94601  -0.00035   0.00000  -0.00319  -0.00320   1.94281
   A48        1.89230   0.00058   0.00000   0.00112   0.00108   1.89339
   A49        1.97743  -0.00466   0.00000  -0.02504  -0.02500   1.95242
   A50        1.93266  -0.00092   0.00000  -0.00813  -0.00817   1.92449
   A51        1.92341  -0.00027   0.00000   0.00114   0.00115   1.92456
   A52        1.92045   0.00077   0.00000   0.00180   0.00179   1.92224
   A53        1.90840   0.00075   0.00000   0.00524   0.00527   1.91366
   A54        1.90392  -0.00026   0.00000  -0.00279  -0.00280   1.90112
   A55        1.87395  -0.00004   0.00000   0.00309   0.00308   1.87703
   A56        2.07126  -0.01480   0.00000  -0.05838  -0.05838   2.01288
   A57        1.91945   0.00013   0.00000  -0.00607  -0.00614   1.91331
   A58        1.90686  -0.00050   0.00000  -0.00881  -0.00879   1.89807
   A59        1.89436  -0.00020   0.00000   0.00353   0.00357   1.89792
   A60        1.92060   0.00011   0.00000   0.00347   0.00338   1.92397
   A61        1.94976   0.00029   0.00000   0.00467   0.00474   1.95450
   A62        1.87172   0.00014   0.00000   0.00312   0.00310   1.87483
   A63        2.01097  -0.00559   0.00000  -0.03414  -0.03419   1.97678
    D1        0.92308   0.00006   0.00000   0.01001   0.00997   0.93305
    D2        3.04553   0.00066   0.00000   0.01728   0.01722   3.06275
    D3       -1.16829  -0.00044   0.00000   0.00638   0.00636  -1.16194
    D4        3.00771  -0.00017   0.00000   0.00251   0.00254   3.01025
    D5       -1.15302   0.00042   0.00000   0.00978   0.00979  -1.14323
    D6        0.91634  -0.00067   0.00000  -0.00112  -0.00108   0.91527
    D7       -1.15520   0.00041   0.00000   0.01340   0.01342  -1.14178
    D8        0.96726   0.00100   0.00000   0.02067   0.02067   0.98792
    D9        3.03662  -0.00009   0.00000   0.00977   0.00980   3.04642
[...]
 2523,0.00005805,0.00284570,0.00225125,-0.00227591,0.00000178,0.0000038
 0,0.00000138,0.00000541,-0.00000186,0.00000165,-0.00022601,-0.00008304
 ,0.00011806,0.00000631,0.00000511,0.00000787,0.00001731,-0.00000244,-0
 .00000321,0.00000151,0.00000410,-0.00000309,0.00001408,0.00000605,-0.0
 0000225,0.00023968,0.00006102,0.00045633,-0.00003703,0.00095666,0.0002
 9885,0.00123274,0.00035087,0.00233427,0.04410422,0.09554070,0.27512236
 ,-0.00039202,-0.00003796,0.00008193,0.00000134,-0.00000219,0.00000356,
 -0.00008654,-0.00004320,0.00002025,-0.00001983,-0.00000360,-0.00002692
 ,0.00000146,-0.00000762,0.00000101,0.00141605,0.00082493,0.00060189,0.
 00174688,0.00147760,0.00316082,-0.06288286,-0.01548366,-0.03870320,0.0
 0210251,0.00625183,0.00576290,0.00268179,0.00582444,0.01845710,0.00005
 823,-0.00001359,-0.00008090,0.00000807,0.00001178,0.00000247,0.0000588
 2,0.00001848,0.00001282,0.00001952,-0.00004212,-0.00018607,0.00000156,
 0.00000146,-0.00000009,0.00000342,-0.00000076,0.00000050,0.00000595,0.
 00000583,-0.00000037,0.00000133,0.00000242,0.00000302,0.00000017,-0.00
 000086,0.00000169,-0.00000020,0.00000144,-0.00000019,0.00000498,0.0000
 0148,-0.00000033,0.00016174,-0.00013965,-0.00027134,-0.00004043,-0.000
 28711,-0.00020021,0.00006154,-0.00012161,-0.00005596,0.00052674,-0.000
 41931,-0.00041134,0.05843906,0.00018405,-0.00033953,0.00063457,-0.0000
 0176,-0.00000065,0.00000123,-0.00008892,-0.00015865,0.00012201,-0.0000
 2093,-0.00000210,-0.00002483,0.00000722,-0.00001868,0.00000161,0.00082
 469,0.00014243,-0.00013020,-0.00564598,0.00144503,-0.00312303,-0.01255
 322,-0.07723348,-0.07881404,0.00185439,-0.03725237,-0.03083784,0.00185
 044,0.00752037,0.01525401,0.00053439,0.00024953,-0.00026761,0.00002673
 ,0.00003380,-0.00001814,0.00004782,0.00007987,0.00001715,-0.00005225,-
 0.00006572,0.00001991,0.00000197,0.00000217,0.00000034,0.00000307,-0.0
 0000096,0.00000081,0.00000480,0.00000580,-0.00001386,0.00000372,0.0000
 0304,0.00000364,0.00000092,-0.00000271,0.00000037,-0.00000027,0.000001
 57,-0.00000122,0.00000930,0.00000396,-0.00000068,0.00012527,-0.0001002
 2,-0.00010410,-0.00000490,-0.00008057,-0.00034746,0.00007026,0.0001258
 9,0.00050231,0.00071404,0.00070408,0.00118246,0.01502110,0.10278538,-0
 .00017130,0.00003863,0.00003018,0.00000187,-0.00000199,0.00000605,-0.0
 0016631,-0.00010894,0.00010208,-0.00002516,-0.00000624,-0.00004213,0.0
 0000396,-0.00001418,0.00000102,-0.00112208,-0.00063104,0.00089483,0.00
 011485,0.00131950,0.00157760,-0.03712625,-0.08146084,-0.25750284,0.000
 78875,-0.00545926,0.00558087,-0.00452728,-0.00753274,-0.02294983,0.000
 39000,-0.00011516,-0.00006643,0.00002022,0.00002365,-0.00000931,0.0000
 9654,0.00006427,0.00003737,-0.00010044,0.00006038,-0.00011449,0.000002
 04,0.00000243,0.00000027,0.00000504,-0.00000165,0.00000092,0.00000162,
 0.00001270,-0.00000891,0.00000421,0.00000493,0.00000429,0.00000159,-0.
 00000441,0.00000299,-0.00000022,0.00000169,-0.00000074,0.00000841,0.00
 000253,-0.00000044,0.00000501,0.00031621,0.00034754,0.00089427,-0.0000
 1619,0.00038569,0.00025832,0.00001651,0.00031266,0.00115810,-0.0005715
 5,-0.00015339,0.03772320,0.09293188,0.27870603,0.00067932,-0.00053871,
 -0.00021581,-0.00000679,0.00000509,-0.00002006,0.00031458,0.00009489,-
 0.00015307,0.00006473,0.00002696,0.00011607,-0.00000622,0.00002565,-0.
 00000597,-0.00018512,-0.00204756,0.00347355,0.00279209,0.00111614,0.00
 105483,-0.30609098,0.01398506,-0.06024942,-0.00728752,0.00617420,-0.00
 245258,-0.01594608,0.00006956,-0.00469848,-0.00051712,0.00006434,0.000
 08110,-0.00002447,-0.00003795,0.00000153,-0.00025060,-0.00008389,-0.00
 009969,-0.00003352,0.00006703,0.00003816,-0.00000569,-0.00000522,0.000
 00060,-0.00001457,0.00000434,-0.00000095,0.00000073,-0.00001768,-0.000
 01018,-0.00000830,-0.00000969,-0.00001024,-0.00000479,0.00000829,-0.00
 001013,0.00000122,-0.00000288,0.00000261,-0.00001703,-0.00000371,0.000
 00147,-0.00109290,0.00041014,-0.00024662,0.00021862,-0.00001758,-0.000
 08831,-0.00049966,0.00007936,-0.00004248,0.00003238,-0.00011458,-0.000
 02277,-0.00313167,-0.00076483,-0.00123703,0.33005200,-0.00009168,-0.00
 113068,0.00072133,-0.00000813,0.00000304,-0.00001069,-0.00003006,-0.00
 022043,0.00009123,0.00000905,0.00002294,0.00003833,0.00000765,-0.00001
 257,-0.00000200,-0.00121475,-0.00128190,0.00352781,-0.00117911,-0.0059
 0022,-0.00124294,0.00251440,-0.04759873,-0.00126037,0.04250830,-0.0132
 1161,0.01097064,-0.01544377,0.00264391,-0.00532968,0.00040143,0.000518
 60,-0.00036844,0.00002878,0.00002612,-0.00003084,-0.00008043,0.0001137
 0,-0.00004138,0.00002757,0.00007155,-0.00003072,-0.00000058,0.00000031
 ,0.00000087,-0.00000571,0.00000107,0.00000109,0.00002340,-0.00000046,-
 0.00004473,0.00000099,-0.00000198,-0.00000020,-0.00000411,0.00000037,-
 0.00000793,0.00000063,0.00000055,-0.00000040,0.00000375,0.00000334,0.0
 0000002,-0.00121986,0.00047970,-0.00000266,0.00042255,-0.00004498,0.00
 006143,0.00181696,-0.00038479,0.00029720,0.00008827,0.00015315,0.00032
 822,-0.01133742,0.00228000,-0.00158942,-0.01865540,0.06279851,-0.00030
 905,0.00058459,-0.00018390,0.00000764,-0.00000336,0.00001760,-0.000106
 46,0.00006002,0.00001518,-0.00002963,-0.00002456,-0.00007700,-0.000001
 70,-0.00000589,0.00000376,0.00172108,0.00228758,-0.00323351,0.00053913
 ,0.00066101,0.00036615,-0.06227397,0.00258517,-0.06708205,-0.00100881,
 0.00078901,0.00044783,0.02423874,-0.00161092,0.00575628,0.00012448,-0.
 00015569,0.00010372,-0.00000223,0.00000388,0.00000658,0.00018900,-0.00
 000009,0.00008045,0.00000610,-0.00007944,0.00001159,0.00000277,0.00000
 219,-0.00000052,0.00001023,-0.00000266,-0.00000038,0.00000113,0.000005
 48,0.00002341,0.00000336,0.00000610,0.00000484,0.00000431,-0.00000515,
 0.00000935,-0.00000048,0.00000087,-0.00000071,0.00000581,-0.00000014,-
 0.00000056,0.00127575,-0.00018583,0.00031417,0.00022416,0.00010285,0.0
 0021503,-0.00028540,0.00016209,0.00031688,0.00041447,0.00001460,0.0003
 5130,-0.02799108,0.00133142,-0.00541981,0.06465181,-0.00561847,0.06616
 859,-0.00535799,-0.00328717,-0.00097774,0.00000393,0.00000446,-0.00000
 772,0.00105572,0.00062586,-0.00055486,0.00010226,0.00000772,0.00011897
 ,-0.00002366,0.00007043,0.00000374,-0.00773674,0.03433056,-0.00025370,
 -0.00157102,-0.00014726,0.00009671,0.00503618,-0.01702295,-0.00361573,
 -0.00097810,-0.00483895,0.00420848,-0.05712404,0.05379943,0.00207415,-
 0.00217166,0.00278876,-0.00061053,-0.00010986,-0.00014005,0.00002952,-
 0.00018124,-0.00035163,-0.00008616,0.00015894,-0.00000657,0.00026233,-
 0.00000973,-0.00001017,-0.00000185,-0.00001444,0.00000477,-0.00000413,
 -0.00001759,-0.00004946,0.00004959,-0.00001723,-0.00001522,-0.00001843
 ,-0.00000281,0.00001320,-0.00000074,-0.00000276,-0.00000978,0.00000638
 ,-0.00003918,-0.00001340,0.00000282,0.00138190,-0.00049657,0.00066019,
 0.00146763,-0.00057833,-0.00012245,0.00026836,0.00006086,-0.00001104,0
 .00025973,-0.00004220,-0.00003741,0.00059865,0.00059769,-0.00013039,0.
 00014357,0.00065368,-0.00086367,0.06419864,0.00023988,0.00201768,0.000
 10945,0.00000368,-0.00000360,0.00001226,-0.00038507,-0.00018510,0.0001
 9734,-0.00005830,-0.00001723,-0.00008883,0.00000671,-0.00003109,0.0000
 0413,0.00061545,-0.00212900,-0.00020175,-0.00130026,0.00063756,-0.0007
 3886,0.00486885,-0.01339750,-0.00323450,-0.00167627,-0.00273310,0.0038
 4222,0.05385399,-0.30461340,-0.00122194,0.00034324,-0.00030022,-0.0000
 0874,0.00003484,0.00005183,-0.00001206,0.00019071,0.00011892,0.0000646
 5,-0.00002862,0.00013884,-0.00005067,0.00000515,0.00000538,0.00000008,
 0.00001088,-0.00000343,0.00000149,-0.00000125,0.00001696,-0.00001134,0
 .00000805,0.00000912,0.00000945,0.00000351,-0.00000703,0.00000556,0.00
 000014,0.00000371,-0.00000262,0.00001748,0.00000541,-0.00000166,0.0003
 6026,0.00026159,-0.00011235,0.00019599,0.00039412,0.00024316,0.0000906
 6,-0.00009141,0.00000924,0.00017118,-0.00000669,0.00009284,0.00005055,
 0.00056433,0.00029976,-0.00035465,0.00025873,-0.00010201,-0.05897969,0
 .32929409,-0.00087590,-0.00085750,0.00040251,0.00000047,0.00000031,-0.
 00000113,0.00011442,0.00010930,-0.00008665,0.00001113,0.00000056,0.000
 01497,-0.00000522,0.00001213,-0.00000039,-0.00235069,0.00701912,-0.001
 29085,0.00128917,-0.00052855,0.00027969,-0.00764756,0.02064998,0.00150
 707,0.00249105,0.00536267,-0.00311752,0.00228839,-0.00342620,-0.048748
 48,-0.00039262,0.00037773,0.00030860,-0.00002119,-0.00002683,0.0000078
 1,-0.00001004,-0.00006965,-0.00001650,0.00007826,0.00050814,0.00009248
 ,-0.00000102,-0.00000149,-0.00000052,-0.00000178,0.00000075,-0.0000007
 0,-0.00001236,-0.00001037,0.00000793,-0.00000314,-0.00000210,-0.000002
 77,-0.00000107,0.00000138,-0.00000056,-0.00000014,-0.00000145,0.000000
 69,-0.00000621,-0.00000242,0.00000033,0.00014311,-0.00044779,0.0000638
 8,0.00043779,0.00026779,0.00024938,-0.00017964,0.00001469,-0.00001526,
 -0.00010274,-0.00003528,-0.00005165,-0.00070733,-0.00087063,0.00042842
 ,0.00008098,-0.00050505,0.00065992,-0.00086962,0.00110631,0.04851346,0
 .00104149,-0.00161824,-0.00074970,-0.00001104,0.00000747,-0.00002249,0
 .00012812,-0.00018424,-0.00016530,0.00011779,0.00002823,0.00014443,-0.
 00000134,0.00000724,-0.00001096,-0.00869940,-0.01244397,-0.03082278,-0
 .00048736,0.00006622,-0.00008882,0.00309274,0.00831717,0.02077751,0.00
 056320,0.00076273,-0.00188431,-0.06024545,-0.02066453,-0.05304268,-0.0
 0009040,0.00037923,0.00062767,-0.00000079,-0.00001179,0.00000777,-0.00
 044353,0.00008108,0.00010939,0.00001979,0.00067446,0.00034826,-0.00000
 512,-0.00000326,0.00000221,-0.00001611,0.00000458,-0.00000095,-0.00000
 497,-0.00000307,0.00001482,-0.00000207,-0.00001018,-0.00001150,-0.0000
 0112,0.00000403,-0.00001812,0.00000163,-0.00000064,0.00000100,-0.00000
 853,0.00000049,0.00000152,0.00132244,-0.00038444,0.00063457,-0.0058370
 0,0.00194112,-0.00106186,0.00010202,0.00004085,-0.00007935,-0.00008916
 ,0.00004976,0.00009875,-0.00134708,-0.00274970,0.00312571,0.00083751,0
 .00077427,-0.00056000,0.00068586,0.00170682,0.00625134,0.06938320,0.00
 033334,0.00023643,0.00086387,-0.00000062,0.00000111,-0.00000441,0.0000
 8841,0.00004625,-0.00004166,0.00001367,0.00000529,0.00002806,-0.000002
 55,0.00000944,-0.00000010,0.00022429,0.00118442,0.00454878,0.00033417,
 -0.00010997,0.00021242,0.00291718,0.00390850,0.01611564,-0.00003524,0.
 00240422,-0.00078818,-0.01948801,-0.08367009,-0.08632947,-0.00011936,-
 0.00001379,-0.00012127,-0.00001225,-0.00001435,0.00000737,-0.00005482,
 -0.00003986,-0.00002373,0.00023815,0.00016391,-0.00004438,-0.00000171,
 -0.00000154,-0.00000015,-0.00000343,0.00000110,-0.00000006,-0.00000811
 ,-0.00000036,-0.00000291,-0.00000200,-0.00000175,-0.00000307,0.0000000
 9,0.00000191,-0.00000189,0.00000019,-0.00000106,0.00000110,-0.00000550
 ,-0.00000167,0.00000070,-0.00031653,0.00017558,-0.00023066,0.00074604,
 0.00068683,0.00041364,-0.00001561,0.00001025,-0.00003894,-0.00004902,-
 0.00009196,-0.00014495,-0.00155131,-0.00069054,0.00241931,0.00051593,0
 .00040798,-0.00079570,-0.00695969,-0.01025667,-0.02864435,0.02321635,0
 .08564854,0.00035811,-0.00067011,-0.00026694,-0.00000591,0.00000389,-0
 .00001377,0.00006334,-0.00008612,-0.00005601,0.00004127,0.00001910,0.0
 0007370,-0.00000082,0.00000791,-0.00000377,-0.00179010,-0.00169767,-0.
 00498852,0.00015664,0.00011477,0.00002299,-0.00349499,-0.00946246,-0.0
 2374797,-0.00105473,-0.00007674,0.00268259,-0.05261664,-0.08414155,-0.
 26154270,-0.00009631,0.00021896,0.00027014,-0.00000191,-0.00001115,0.0
 0000044,-0.00018074,0.00001541,-0.00001409,-0.00006001,0.00052458,0.00
 003699,-0.00000258,-0.00000226,0.00000087,-0.00000875,0.00000265,-0.00
 000010,-0.00001383,-0.00000243,-0.00000993,-0.00000273,-0.00000465,-0.
 00000497,-0.00000337,0.00000339,-0.00000824,0.00000065,-0.00000120,0.0
 0000090,-0.00000629,-0.00000029,0.00000073,-0.00026675,0.00019178,0.00
 058670,-0.00091610,0.00019799,0.00094793,-0.00001698,0.00005340,-0.000
 02673,0.00005985,-0.00020470,-0.00001890,0.00280193,0.00255167,-0.0021
 4814,0.00005833,0.00004986,0.00112650,0.00062679,-0.00020417,0.0007950
 5,0.05637973,0.09260337,0.28630649,0.00009105,0.00002915,-0.00028134,0
 .00130684,0.00105295,0.00064280,-0.00305009,0.00953734,-0.02758289,0.0
 0044221,0.00001866,-0.00063787,-0.00168455,-0.01342005,0.02813607,0.00
 002532,0.00003426,-0.00002316,0.00002258,-0.00004038,0.00013946,-0.000
 03483,0.00003957,-0.00001632,0.00008764,-0.00000271,-0.00002950,0.0000
 0773,-0.00005232,0.00007999,0.00220222,-0.00022736,-0.00054861,-0.0460
 4738,-0.00320701,0.00856746,0.00010885,0.00045359,0.00143614,0.0000608
 8,0.00005041,0.00011422,0.00004978,0.00032028,-0.00000212,-0.00002021,
 0.00014178,-0.00032798,-0.00373598,0.00290011,0.00039119,0.00000162,0.
 00003977,0.00003014,0.00035521,-0.00013111,0.00020400,-0.00492200,-0.0
 0346676,0.00031356,0.00108614,0.00102057,-0.00020663,0.00002946,-0.000
 12355,0.00006586,-0.00002296,0.00000543,0.00001215,-0.00001183,-0.0000
 0883,0.00000619,-0.00001944,-0.00001067,0.00001415,-0.00000012,-0.0000
 0217,-0.00000013,-0.00000626,-0.00001106,0.00000828,0.00000438,-0.0000
 0017,0.00000235,-0.00000110,0.00000015,-0.00000319,0.05419143,0.000026
 08,0.00013832,-0.00002622,0.00020334,0.00039637,0.00060232,-0.00024991
 ,-0.00823215,0.02163724,0.00021230,-0.00080596,0.00087188,-0.00162856,
 -0.00785289,0.01498422,-0.00018318,-0.00002772,-0.00000578,0.00002300,
 0.00003022,-0.00006307,0.00002038,-0.00002040,0.00000223,-0.00004682,-
 0.00000142,0.00001783,0.00000394,0.00006898,-0.00002384,-0.00296315,0.
 00077123,-0.00085771,-0.00070161,-0.09134528,0.09456043,0.00065303,-0.
 00063179,-0.00166691,-0.00010282,-0.00001342,-0.00007946,0.00010812,0.
 00023904,-0.00012064,-0.00016558,-0.00009059,-0.00023942,0.00229042,-0
 .00130884,-0.00011298,-0.00001969,0.00019610,-0.00017535,0.00030114,-0
 .00080520,-0.00082491,-0.00299833,-0.00090091,0.00038887,0.00018765,0.
 00051071,-0.00047927,-0.00002272,0.00005364,-0.00003106,0.00002395,0.0
 0000759,-0.00000493,0.00000235,-0.00000281,-0.00000186,0.00000760,0.00
 000353,-0.00000094,0.00000028,0.00000116,0.00000166,0.00000036,0.00000
 427,-0.00000234,-0.00001818,0.00000328,-0.00000215,0.00000315,-0.00000
 142,0.00000117,0.00407515,0.09884053,0.00004498,-0.00024196,0.00039973
 ,0.00059299,-0.00052266,0.00082195,-0.00053018,0.00120222,-0.00588231,
 0.00004445,-0.00082616,-0.00104230,0.00108278,0.00123581,-0.00226780,0
 .00015878,0.00003580,0.00000881,-0.00005474,0.00003835,-0.00003688,-0.
 00000639,-0.00000012,-0.00000403,-0.00003346,-0.00000986,0.00000485,-0
 .00000398,-0.00005688,0.00000242,0.00091268,-0.00065945,0.00124786,0.0
 0576860,0.09661214,-0.26735706,-0.00016204,0.00077889,0.00043851,0.000
 13750,-0.00001068,-0.00002850,-0.00002615,0.00007671,0.00005170,0.0001
 1447,0.00074335,-0.00000625,-0.00059728,0.00097792,0.00091034,-0.00006
 796,-0.00013847,0.00037695,-0.00020427,-0.00110542,0.00016713,0.000510
 61,-0.00027004,0.00126757,0.00040585,0.00003133,0.00015760,0.00001464,
 -0.00003472,0.00002584,-0.00001709,-0.00000953,0.00000176,0.00000013,-
 0.00000319,-0.00000410,0.00000184,0.00000288,-0.00000547,0.00000127,0.
 00000073,0.00000002,-0.00000237,-0.00000122,0.00000119,0.00001438,-0.0
 0000099,-0.00000035,-0.00000659,-0.00000028,-0.00000208,-0.00857678,-0
 .10651234,0.28988356,-0.00006128,-0.00048716,-0.00008998,-0.00484285,-
 0.00333725,0.00242955,0.00298273,0.01758864,0.01898268,-0.00175887,0.0
 0004236,-0.00052664,-0.00113225,-0.02048330,-0.02184395,0.00003068,0.0
 0000260,-0.00003023,-0.00000248,0.00003101,-0.00010427,0.00000435,-0.0
 0001147,-0.00001537,-0.00009051,-0.00000297,0.00003631,0.00000051,-0.0
 0000963,0.00002109,-0.00045469,-0.00014916,-0.00094341,-0.04882834,-0.
 01483251,-0.01310427,-0.00213530,0.00578180,0.00042875,-0.00010562,-0.
 00000734,-0.00004940,-0.00023384,-0.00135631,-0.00130669,-0.00003300,-
 0.00000694,-0.00025862,0.00105577,-0.00024321,-0.00001827,0.00018889,-
 0.00000464,0.00004631,0.00017365,0.00018492,0.00003054,0.00117677,0.00
 058915,0.00047013,0.00108330,0.00099773,-0.00027741,-0.00000317,0.0000
 0338,0.00004033,0.00001645,-0.00000028,-0.00001771,0.00000043,-0.00000
 612,0.00000161,-0.00000082,0.00000293,0.00000443,0.00000091,0.00000304
 ,0.00000288,-0.00000747,0.00000041,0.00000424,-0.00000770,0.00000627,-
 0.00000022,-0.00000422,-0.00000222,-0.00000392,-0.00051660,0.00095833,
 0.00048334,0.05350458,0.00007285,0.00011139,-0.00019036,-0.00241550,-0
 .00043167,0.00134239,-0.00419074,-0.01495970,-0.01369279,0.00031418,0.
 00062805,0.00173229,-0.00028922,-0.01052865,-0.00989143,0.00003246,0.0
 0000269,0.00002080,0.00002470,-0.00003025,0.00008009,0.00000038,0.0000
 0961,0.00001616,0.00007548,0.00000538,-0.00002687,-0.00000917,0.000007
 24,-0.00001502,0.00071220,0.00034249,0.00073556,-0.01332964,-0.1940845
 6,-0.13398229,0.00338496,-0.00421652,-0.00043871,0.00003046,-0.0000184
 5,0.00000076,-0.00007468,-0.00049136,-0.00074579,-0.00017846,-0.000152
 46,-0.00016300,-0.00048252,0.00070869,0.00034349,-0.00000127,-0.000002
 18,-0.00015429,0.00004102,0.00020258,-0.00016219,0.00049195,0.00018730
 ,0.00014627,0.00006243,0.00075704,0.00018817,-0.00002230,0.00000559,-0
 .00003934,-0.00000901,0.00000032,0.00002879,0.00000231,0.00000610,-0.0
 0000328,0.00000026,-0.00000254,-0.00000229,-0.00000165,-0.00000223,-0.
 00000244,0.00000699,0.00000051,-0.00000461,0.00000985,-0.00000608,0.00
 000094,0.00000881,0.00000324,0.00000558,0.00098498,0.01077586,0.008667
 84,0.01474793,0.21117258,-0.00008709,0.00010523,0.00007338,0.00097282,
 0.00024140,0.00092016,-0.00152033,0.00532527,0.00159140,-0.00018233,0.
 00020049,-0.00057343,0.00016143,0.00503072,0.00378704,0.00003282,0.000
 01464,-0.00000645,-0.00002383,-0.00004071,0.00004901,-0.00000729,0.000
 01638,0.00001056,0.00005992,0.00000129,-0.00001925,-0.00001160,-0.0000
 2268,-0.00000939,0.00097122,0.00007714,0.00006675,-0.01232874,-0.13728
 187,-0.17239368,-0.00113932,0.00210520,0.00102539,0.00010630,-0.000038
 86,-0.00000183,0.00004938,0.00000120,0.00007257,0.00007033,0.00024025,
 0.00010290,0.00047247,0.00045666,0.00095705,0.00000316,-0.00017940,0.0
 0019310,-0.00019050,-0.00013986,0.00034246,-0.00059046,-0.00024282,0.0
 0040619,-0.00051754,-0.00024596,0.00011348,-0.00000809,0.00000794,0.00
 000068,0.00000451,-0.00000122,-0.00000124,0.00000234,0.00000756,-0.000
 00316,0.00000272,0.,-0.00000634,-0.00000101,-0.00000245,-0.00000238,0.
 00000513,-0.00000088,-0.00000188,0.00001212,-0.00000547,0.00000113,0.0
 0000074,0.00000191,0.00000084,-0.00192746,-0.02183663,-0.01913065,0.01
 560817,0.14620557,0.18243559\\0.00072876,-0.00065149,-0.00268134,0.000
 00413,0.00000028,-0.00000652,0.00000188,-0.00139465,-0.00108531,-0.000
 00851,0.00000168,-0.00000446,0.00001045,-0.00000092,0.00000826,-0.0005
 1003,0.00003182,0.00151673,0.00000352,-0.00000975,0.00000375,-0.000007
 99,-0.00000803,-0.00000096,-0.00000091,0.00000142,-0.00000119,0.000003
 34,-0.00000084,-0.00000206,-0.00021665,0.00201252,0.00222613,-0.000005
 20,0.00000475,0.00000076,-0.00001045,-0.00000471,0.00001369,0.00000324
 ,-0.00000013,0.00000291,0.00000084,0.00000127,0.00000197,-0.00000293,0
 .00000160,0.00000017,0.00000486,0.00000223,0.00000206,-0.00000221,0.00
 000203,-0.00000081,-0.00000152,0.00000594,0.00000157,-0.00000226,0.000
 00425,0.00000145,0.00000461,0.00000928,-0.00000234,-0.00000095,0.00000
 123,0.00000322,0.00000049,0.00000051,-0.00000105,0.00000303,-0.0000003
 6,0.00000363,-0.00000181,-0.00000238,-0.00000232,-0.00000083,-0.000004
 33,-0.00000208,0.00000124,-0.00000095,0.00000059,-0.00000223,-0.000003
 46,-0.00000265,0.00000115,-0.00000325,-0.00000035,0.00000526,0.0000037
 8,0.00000023,-0.00000233,0.00000067,0.00000632\\\@


 Where a calculator on the ENIAC is equipped with 18,000
 vacuum tubes and weighs 30 tons, computers inthe future
 may  have only 1,000 vacuum tubes and weigh only 1 1/2 tons.
              ---Popular Mechanics, March 1949
 Job cpu time:       0 days 13 hours 35 minutes 50.9 seconds.
 Elapsed time:       0 days  0 hours 51 minutes  1.8 seconds.
 File lengths (MBytes):  RWF=    688 Int=      0 D2E=      0 Chk=     33 Scr=      1
 Normal termination of Gaussian 16 at Mon Nov  5 02:15:02 2018.
