 Entering Gaussian System, Link 0=g16
 Initial command:
 /apps/gaussian/g16a03/g16/l1.exe "/jobfs/local/2011846.r-man2/Gau-334.inp" -scrdir="/jobfs/local/2011846.r-man2/"
 Entering Link 1 = /apps/gaussian/g16a03/g16/l1.exe PID=       335.
  
 Copyright (c) 1988,1990,1992,1993,1995,1998,2003,2009,2016,
            Gaussian, Inc.  All Rights Reserved.
  
 This is part of the Gaussian(R) 16 program.  It is based on
 the Gaussian(R) 09 system (copyright 2009, Gaussian, Inc.),
 the Gaussian(R) 03 system (copyright 2003, Gaussian, Inc.),
 the Gaussian(R) 98 system (copyright 1998, Gaussian, Inc.),
 the Gaussian(R) 94 system (copyright 1995, Gaussian, Inc.),
 the Gaussian 92(TM) system (copyright 1992, Gaussian, Inc.),
 the Gaussian 90(TM) system (copyright 1990, Gaussian, Inc.),
 the Gaussian 88(TM) system (copyright 1988, Gaussian, Inc.),
 the Gaussian 86(TM) system (copyright 1986, Carnegie Mellon
 University), and the Gaussian 82(TM) system (copyright 1983,
 Carnegie Mellon University). Gaussian is a federally registered
 trademark of Gaussian, Inc.
  
 This software contains proprietary and confidential information,
 including trade secrets, belonging to Gaussian, Inc.
  
 This software is provided under written license and may be
 used, copied, transmitted, or stored only in accord with that
 written license.
  
 The following legend is applicable only to US Government
 contracts under FAR:
  
                    RESTRICTED RIGHTS LEGEND
  
 Use, reproduction and disclosure by the US Government is
 subject to restrictions as set forth in subparagraphs (a)
 and (c) of the Commercial Computer Software - Restricted
 Rights clause in FAR 52.227-19.
  
 Gaussian, Inc.
 340 Quinnipiac St., Bldg. 40, Wallingford CT 06492
  
  
 ---------------------------------------------------------------
 Warning -- This program may not be used in any manner that
 competes with the business of Gaussian, Inc. or will provide
 assistance to any competitor of Gaussian, Inc.  The licensee
 of this program is prohibited from giving any competitor of
 Gaussian, Inc. access to this program.  By using this program,
 the user acknowledges that Gaussian, Inc. is engaged in the
 business of creating and licensing software in the field of
 computational chemistry and represents and warrants to the
 licensee that it is not a competitor of Gaussian, Inc. and that
 it will not use this program in any manner prohibited above.
 ---------------------------------------------------------------
  

 Cite this work as:
 Gaussian 16, Revision A.03,
 M. J. Frisch, G. W. Trucks, H. B. Schlegel, G. E. Scuseria, 
 M. A. Robb, J. R. Cheeseman, G. Scalmani, V. Barone, 
 G. A. Petersson, H. Nakatsuji, X. Li, M. Caricato, A. V. Marenich, 
 J. Bloino, B. G. Janesko, R. Gomperts, B. Mennucci, H. P. Hratchian, 
 J. V. Ortiz, A. F. Izmaylov, J. L. Sonnenberg, D. Williams-Young, 
 F. Ding, F. Lipparini, F. Egidi, J. Goings, B. Peng, A. Petrone, 
 T. Henderson, D. Ranasinghe, V. G. Zakrzewski, J. Gao, N. Rega, 
 G. Zheng, W. Liang, M. Hada, M. Ehara, K. Toyota, R. Fukuda, 
 J. Hasegawa, M. Ishida, T. Nakajima, Y. Honda, O. Kitao, H. Nakai, 
 T. Vreven, K. Throssell, J. A. Montgomery, Jr., J. E. Peralta, 
 F. Ogliaro, M. J. Bearpark, J. J. Heyd, E. N. Brothers, K. N. Kudin, 
 V. N. Staroverov, T. A. Keith, R. Kobayashi, J. Normand, 
 K. Raghavachari, A. P. Rendell, J. C. Burant, S. S. Iyengar, 
 J. Tomasi, M. Cossi, J. M. Millam, M. Klene, C. Adamo, R. Cammi, 
 J. W. Ochterski, R. L. Martin, K. Morokuma, O. Farkas, 
 J. B. Foresman, and D. J. Fox, Gaussian, Inc., Wallingford CT, 2016.
 
 ******************************************
 Gaussian 16:  ES64L-G16RevA.03 25-Dec-2016
                 4-Nov-2018 
 ******************************************
 %mem=6000mb
 %nproc=24
 Will use up to   24 processors via shared memory.
 %chk=2SO_1_e4_D_PSI.inp_extract_0.chk
 ----------------------------------------------------------------------
 #M062X/6-311++G(2d,2p) opt=ModRedundant freq=noraman SCRF=(Solvent=Wat
 er)
 ----------------------------------------------------------------------
 1/18=120,19=15,26=3,38=1/1,3;
 2/9=110,12=2,17=6,18=5,40=1/2;
 3/5=4,6=6,7=1212,11=2,25=1,30=1,70=2201,71=1,72=1,74=-55/1,2,3;
 4//1;
 5/5=2,38=5,53=1/2;
 6/7=2,8=2,9=2,10=2,28=1/1;
 7//1,2,3,16;
 1/18=20,19=15,26=3/3(2);
 2/9=110/2;
 99//99;
 2/9=110/2;
 3/5=4,6=6,7=1212,11=2,25=1,30=1,70=2205,71=1,72=1,74=-55/1,2,3;
 4/5=5,16=3,69=1/1;
 5/5=2,38=5,53=1/2;
 7//1,2,3,16;
 1/18=20,19=15,26=3/3(-5);
 2/9=110/2;
 6/7=2,8=2,9=2,10=2,19=2,28=1/1;
 99/9=1/99;
 ----------------------------
 2SO_1_e4_D_PSI.inp_extract_0
 ----------------------------
 Symbolic Z-matrix:
 Charge =  0 Multiplicity = 1
 C                     1.14061   0.04585  -0.07261 
 C                    -3.96024   0.56432  -0.07825 
 C                    -1.19181  -0.48494  -0.20943 
 C                    -2.66987   1.3828   -0.1538 
 C                    -3.6353   -0.93704   0.02478 
 C                     1.91446   1.1393    0.64827 
 C                     1.94539  -1.2494   -0.08451 
 C                     4.00333  -0.09685   0.01608 
 O                     3.20993  -1.04443  -0.67625 
 C                     3.32013   1.26099   0.05433 
 O                    -0.08921  -0.17853   0.59504 
 C                    -2.26084  -1.13401   0.66102 
 O                    -1.66928   0.66531  -0.8595 
 H                     0.94808   0.35401  -1.09405 
 H                    -4.57424   0.75329  -0.95288 
 H                    -4.52689   0.89387   0.78786 
 H                    -0.88462  -1.14893  -1.00526 
 H                    -2.81365   2.30873  -0.69199 
 H                    -2.30323   1.62828   0.83655 
 H                    -3.63452  -1.38377  -0.9655 
 H                    -4.39459  -1.45465   0.60076 
 H                     1.37986   2.08109   0.57502 
 H                     1.98179   0.88136   1.70289 
 H                     1.44652  -2.01382  -0.66437 
 H                     2.06929  -1.61164   0.93361 
 H                     4.18886  -0.46071   1.02417 
 H                     4.94739  -0.04927  -0.50911 
 H                     3.92154   1.94942   0.64037 
 H                     3.26269   1.65819  -0.95599 
 H                    -2.23997  -0.68551   1.64974 
 H                    -2.02091  -2.18483   0.77854 
 
 The following ModRedundant input section has been read:
 D       6       1      11       3 F                                           
 

 GradGradGradGradGradGradGradGradGradGradGradGradGradGradGradGradGradGrad
 Berny optimization.
 Initialization pass.
                           ----------------------------
                           !    Initial Parameters    !
                           ! (Angstroms and Degrees)  !
 --------------------------                            --------------------------
 ! Name  Definition              Value          Derivative Info.                !
 --------------------------------------------------------------------------------
 ! R1    R(1,6)                  1.5212         estimate D2E/DX2                !
 ! R2    R(1,7)                  1.525          estimate D2E/DX2                !
 ! R3    R(1,11)                 1.4172         estimate D2E/DX2                !
 ! R4    R(1,14)                 1.0841         estimate D2E/DX2                !
 ! R5    R(2,4)                  1.5299         estimate D2E/DX2                !
 ! R6    R(2,5)                  1.5396         estimate D2E/DX2                !
 ! R7    R(2,15)                 1.0852         estimate D2E/DX2                !
 ! R8    R(2,16)                 1.0862         estimate D2E/DX2                !
 ! R9    R(3,11)                 1.3988         estimate D2E/DX2                !
 ! R10   R(3,12)                 1.5237         estimate D2E/DX2                !
 ! R11   R(3,13)                 1.4049         estimate D2E/DX2                !
 ! R12   R(3,17)                 1.081          estimate D2E/DX2                !
 ! R13   R(4,13)                 1.4192         estimate D2E/DX2                !
 ! R14   R(4,18)                 1.0806         estimate D2E/DX2                !
 ! R15   R(4,19)                 1.0842         estimate D2E/DX2                !
 ! R16   R(5,12)                 1.5273         estimate D2E/DX2                !
 ! R17   R(5,20)                 1.0864         estimate D2E/DX2                !
 ! R18   R(5,21)                 1.0845         estimate D2E/DX2                !
 ! R19   R(6,10)                 1.5309         estimate D2E/DX2                !
 ! R20   R(6,22)                 1.0854         estimate D2E/DX2                !
 ! R21   R(6,23)                 1.0878         estimate D2E/DX2                !
 ! R22   R(7,9)                  1.4111         estimate D2E/DX2                !
 ! R23   R(7,24)                 1.0814         estimate D2E/DX2                !
 ! R24   R(7,25)                 1.0877         estimate D2E/DX2                !
 ! R25   R(8,9)                  1.4166         estimate D2E/DX2                !
 ! R26   R(8,10)                 1.5205         estimate D2E/DX2                !
 ! R27   R(8,26)                 1.0877         estimate D2E/DX2                !
 ! R28   R(8,27)                 1.0814         estimate D2E/DX2                !
 ! R29   R(10,28)                1.0858         estimate D2E/DX2                !
 ! R30   R(10,29)                1.0871         estimate D2E/DX2                !
 ! R31   R(12,30)                1.0859         estimate D2E/DX2                !
 ! R32   R(12,31)                1.0842         estimate D2E/DX2                !
 ! A1    A(6,1,7)              110.2278         estimate D2E/DX2                !
 ! A2    A(6,1,11)             109.3895         estimate D2E/DX2                !
 ! A3    A(6,1,14)             109.4205         estimate D2E/DX2                !
 ! A4    A(7,1,11)             109.0963         estimate D2E/DX2                !
 ! A5    A(7,1,14)             109.1349         estimate D2E/DX2                !
 ! A6    A(11,1,14)            109.5571         estimate D2E/DX2                !
 ! A7    A(4,2,5)              110.3037         estimate D2E/DX2                !
 ! A8    A(4,2,15)             110.1354         estimate D2E/DX2                !
 ! A9    A(4,2,16)             108.4856         estimate D2E/DX2                !
 ! A10   A(5,2,15)             110.0694         estimate D2E/DX2                !
 ! A11   A(5,2,16)             110.6469         estimate D2E/DX2                !
 ! A12   A(15,2,16)            107.1366         estimate D2E/DX2                !
 ! A13   A(11,3,12)            108.5286         estimate D2E/DX2                !
 ! A14   A(11,3,13)            110.773          estimate D2E/DX2                !
 ! A15   A(11,3,17)            109.5082         estimate D2E/DX2                !
 ! A16   A(12,3,13)            112.0029         estimate D2E/DX2                !
 ! A17   A(12,3,17)            110.9939         estimate D2E/DX2                !
 ! A18   A(13,3,17)            105.0005         estimate D2E/DX2                !
 ! A19   A(2,4,13)             110.4107         estimate D2E/DX2                !
 ! A20   A(2,4,18)             111.7643         estimate D2E/DX2                !
 ! A21   A(2,4,19)             111.1767         estimate D2E/DX2                !
 ! A22   A(13,4,18)            106.2219         estimate D2E/DX2                !
 ! A23   A(13,4,19)            109.285          estimate D2E/DX2                !
 ! A24   A(18,4,19)            107.8137         estimate D2E/DX2                !
 ! A25   A(2,5,12)             110.0946         estimate D2E/DX2                !
 ! A26   A(2,5,20)             109.8859         estimate D2E/DX2                !
 ! A27   A(2,5,21)             110.683          estimate D2E/DX2                !
 ! A28   A(12,5,20)            109.0292         estimate D2E/DX2                !
 ! A29   A(12,5,21)            110.3197         estimate D2E/DX2                !
 ! A30   A(20,5,21)            106.7593         estimate D2E/DX2                !
 ! A31   A(1,6,10)             109.9004         estimate D2E/DX2                !
 ! A32   A(1,6,22)             109.9468         estimate D2E/DX2                !
 ! A33   A(1,6,23)             108.692          estimate D2E/DX2                !
 ! A34   A(10,6,22)            110.9215         estimate D2E/DX2                !
 ! A35   A(10,6,23)            109.7651         estimate D2E/DX2                !
 ! A36   A(22,6,23)            107.5577         estimate D2E/DX2                !
 ! A37   A(1,7,9)              110.6603         estimate D2E/DX2                !
 ! A38   A(1,7,24)             111.1693         estimate D2E/DX2                !
 ! A39   A(1,7,25)             109.6136         estimate D2E/DX2                !
 ! A40   A(9,7,24)             106.9312         estimate D2E/DX2                !
 ! A41   A(9,7,25)             109.804          estimate D2E/DX2                !
 ! A42   A(24,7,25)            108.6044         estimate D2E/DX2                !
 ! A43   A(9,8,10)             110.9772         estimate D2E/DX2                !
 ! A44   A(9,8,26)             108.9492         estimate D2E/DX2                !
 ! A45   A(9,8,27)             106.3222         estimate D2E/DX2                !
 ! A46   A(10,8,26)            110.614          estimate D2E/DX2                !
 ! A47   A(10,8,27)            111.4196         estimate D2E/DX2                !
 ! A48   A(26,8,27)            108.4168         estimate D2E/DX2                !
 ! A49   A(7,9,8)              113.2113         estimate D2E/DX2                !
 ! A50   A(6,10,8)             110.5697         estimate D2E/DX2                !
 ! A51   A(6,10,28)            110.4612         estimate D2E/DX2                !
 ! A52   A(6,10,29)            109.9441         estimate D2E/DX2                !
 ! A53   A(8,10,28)            109.3226         estimate D2E/DX2                !
 ! A54   A(8,10,29)            109.0657         estimate D2E/DX2                !
 ! A55   A(28,10,29)           107.4097         estimate D2E/DX2                !
 ! A56   A(1,11,3)             116.5987         estimate D2E/DX2                !
 ! A57   A(3,12,5)             109.7831         estimate D2E/DX2                !
 ! A58   A(3,12,30)            109.312          estimate D2E/DX2                !
 ! A59   A(3,12,31)            108.6329         estimate D2E/DX2                !
 ! A60   A(5,12,30)            110.0798         estimate D2E/DX2                !
 ! A61   A(5,12,31)            111.671          estimate D2E/DX2                !
 ! A62   A(30,12,31)           107.2983         estimate D2E/DX2                !
 ! A63   A(3,13,4)             115.0541         estimate D2E/DX2                !
 ! D1    D(7,1,6,10)            52.4443         estimate D2E/DX2                !
 ! D2    D(7,1,6,22)           174.814          estimate D2E/DX2                !
 ! D3    D(7,1,6,23)           -67.6974         estimate D2E/DX2                !
 ! D4    D(11,1,6,10)          172.3987         estimate D2E/DX2                !
 ! D5    D(11,1,6,22)          -65.2316         estimate D2E/DX2                !
 ! D6    D(11,1,6,23)           52.257          estimate D2E/DX2                !
 ! D7    D(14,1,6,10)          -67.5771         estimate D2E/DX2                !
 ! D8    D(14,1,6,22)           54.7926         estimate D2E/DX2                !
 ! D9    D(14,1,6,23)          172.2812         estimate D2E/DX2                !
 ! D10   D(6,1,7,9)            -56.5819         estimate D2E/DX2                !
 ! D11   D(6,1,7,24)          -175.2535         estimate D2E/DX2                !
 ! D12   D(6,1,7,25)            64.6676         estimate D2E/DX2                !
 ! D13   D(11,1,7,9)          -176.7133         estimate D2E/DX2                !
 ! D14   D(11,1,7,24)           64.6151         estimate D2E/DX2                !
 ! D15   D(11,1,7,25)          -55.4638         estimate D2E/DX2                !
 ! D16   D(14,1,7,9)            63.6118         estimate D2E/DX2                !
 ! D17   D(14,1,7,24)          -55.0598         estimate D2E/DX2                !
 ! D18   D(14,1,7,25)         -175.1387         estimate D2E/DX2                !
 ! D19   D(6,1,11,3)           143.9918         Frozen                          !
 ! D20   D(7,1,11,3)           -95.362          estimate D2E/DX2                !
 ! D21   D(14,1,11,3)           24.0513         estimate D2E/DX2                !
 ! D22   D(5,2,4,13)            33.8994         estimate D2E/DX2                !
 ! D23   D(5,2,4,18)           151.9022         estimate D2E/DX2                !
 ! D24   D(5,2,4,19)           -87.5717         estimate D2E/DX2                !
 ! D25   D(15,2,4,13)          -87.7935         estimate D2E/DX2                !
 ! D26   D(15,2,4,18)           30.2094         estimate D2E/DX2                !
 ! D27   D(15,2,4,19)          150.7354         estimate D2E/DX2                !
 ! D28   D(16,2,4,13)          155.2392         estimate D2E/DX2                !
 ! D29   D(16,2,4,18)          -86.7579         estimate D2E/DX2                !
 ! D30   D(16,2,4,19)           33.7681         estimate D2E/DX2                !
 ! D31   D(4,2,5,12)            26.4386         estimate D2E/DX2                !
 ! D32   D(4,2,5,20)           -93.6627         estimate D2E/DX2                !
 ! D33   D(4,2,5,21)           148.6711         estimate D2E/DX2                !
 ! D34   D(15,2,5,12)          148.1705         estimate D2E/DX2                !
 ! D35   D(15,2,5,20)           28.0693         estimate D2E/DX2                !
 ! D36   D(15,2,5,21)          -89.5969         estimate D2E/DX2                !
 ! D37   D(16,2,5,12)          -93.607          estimate D2E/DX2                !
 ! D38   D(16,2,5,20)          146.2917         estimate D2E/DX2                !
 ! D39   D(16,2,5,21)           28.6256         estimate D2E/DX2                !
 ! D40   D(12,3,11,1)          161.3037         estimate D2E/DX2                !
 ! D41   D(13,3,11,1)          -75.3471         estimate D2E/DX2                !
 ! D42   D(17,3,11,1)           39.998          estimate D2E/DX2                !
 ! D43   D(11,3,12,5)          155.689          estimate D2E/DX2                !
 ! D44   D(11,3,12,30)          34.8478         estimate D2E/DX2                !
 ! D45   D(11,3,12,31)         -81.9383         estimate D2E/DX2                !
 ! D46   D(13,3,12,5)           33.0822         estimate D2E/DX2                !
 ! D47   D(13,3,12,30)         -87.759          estimate D2E/DX2                !
 ! D48   D(13,3,12,31)         155.4549         estimate D2E/DX2                !
 ! D49   D(17,3,12,5)          -83.9231         estimate D2E/DX2                !
 ! D50   D(17,3,12,30)         155.2357         estimate D2E/DX2                !
 ! D51   D(17,3,12,31)          38.4496         estimate D2E/DX2                !
 ! D52   D(11,3,13,4)          -90.5971         estimate D2E/DX2                !
 ! D53   D(12,3,13,4)           30.7252         estimate D2E/DX2                !
 ! D54   D(17,3,13,4)          151.2775         estimate D2E/DX2                !
 ! D55   D(2,4,13,3)           -67.7199         estimate D2E/DX2                !
 ! D56   D(18,4,13,3)          170.928          estimate D2E/DX2                !
 ! D57   D(19,4,13,3)           54.8657         estimate D2E/DX2                !
 ! D58   D(2,5,12,3)           -61.4874         estimate D2E/DX2                !
 ! D59   D(2,5,12,30)           58.8893         estimate D2E/DX2                !
 ! D60   D(2,5,12,31)          177.9624         estimate D2E/DX2                !
 ! D61   D(20,5,12,3)           59.1306         estimate D2E/DX2                !
 ! D62   D(20,5,12,30)         179.5073         estimate D2E/DX2                !
 ! D63   D(20,5,12,31)         -61.4196         estimate D2E/DX2                !
 ! D64   D(21,5,12,3)          176.0655         estimate D2E/DX2                !
 ! D65   D(21,5,12,30)         -63.5578         estimate D2E/DX2                !
 ! D66   D(21,5,12,31)          55.5153         estimate D2E/DX2                !
 ! D67   D(1,6,10,8)           -51.7645         estimate D2E/DX2                !
 ! D68   D(1,6,10,28)         -172.9116         estimate D2E/DX2                !
 ! D69   D(1,6,10,29)           68.7215         estimate D2E/DX2                !
 ! D70   D(22,6,10,8)         -173.5548         estimate D2E/DX2                !
 ! D71   D(22,6,10,28)          65.2981         estimate D2E/DX2                !
 ! D72   D(22,6,10,29)         -53.0688         estimate D2E/DX2                !
 ! D73   D(23,6,10,8)           67.7241         estimate D2E/DX2                !
 ! D74   D(23,6,10,28)         -53.423          estimate D2E/DX2                !
 ! D75   D(23,6,10,29)        -171.7899         estimate D2E/DX2                !
 ! D76   D(1,7,9,8)             61.111          estimate D2E/DX2                !
 ! D77   D(24,7,9,8)          -177.6759         estimate D2E/DX2                !
 ! D78   D(25,7,9,8)           -60.0258         estimate D2E/DX2                !
 ! D79   D(10,8,9,7)           -60.3458         estimate D2E/DX2                !
 ! D80   D(26,8,9,7)            61.6801         estimate D2E/DX2                !
 ! D81   D(27,8,9,7)           178.334          estimate D2E/DX2                !
 ! D82   D(9,8,10,6)            54.8236         estimate D2E/DX2                !
 ! D83   D(9,8,10,28)          176.6434         estimate D2E/DX2                !
 ! D84   D(9,8,10,29)          -66.1855         estimate D2E/DX2                !
 ! D85   D(26,8,10,6)          -66.2267         estimate D2E/DX2                !
 ! D86   D(26,8,10,28)          55.5931         estimate D2E/DX2                !
 ! D87   D(26,8,10,29)         172.7642         estimate D2E/DX2                !
 ! D88   D(27,8,10,6)          173.1            estimate D2E/DX2                !
 ! D89   D(27,8,10,28)         -65.0802         estimate D2E/DX2                !
 ! D90   D(27,8,10,29)          52.0909         estimate D2E/DX2                !
 --------------------------------------------------------------------------------
 Trust Radius=3.00D-01 FncErr=1.00D-07 GrdErr=1.00D-06 EigMax=2.50D+02 EigMin=1.00D-04
 Number of steps in this run=    186 maximum allowed number of steps=    186.
 GradGradGradGradGradGradGradGradGradGradGradGradGradGradGradGradGradGrad

                          Input orientation:                          
 ---------------------------------------------------------------------
 Center     Atomic      Atomic             Coordinates (Angstroms)
 Number     Number       Type             X           Y           Z
 ---------------------------------------------------------------------
      1          6           0        1.140607    0.045849   -0.072608
      2          6           0       -3.960236    0.564322   -0.078247
      3          6           0       -1.191805   -0.484938   -0.209429
      4          6           0       -2.669873    1.382796   -0.153797
      5          6           0       -3.635296   -0.937043    0.024781
      6          6           0        1.914456    1.139295    0.648274
      7          6           0        1.945391   -1.249397   -0.084510
      8          6           0        4.003325   -0.096846    0.016079
      9          8           0        3.209927   -1.044429   -0.676246
     10          6           0        3.320130    1.260992    0.054325
     11          8           0       -0.089213   -0.178532    0.595041
     12          6           0       -2.260841   -1.134010    0.661019
     13          8           0       -1.669282    0.665305   -0.859503
     14          1           0        0.948078    0.354011   -1.094053
     15          1           0       -4.574238    0.753293   -0.952882
     16          1           0       -4.526889    0.893867    0.787857
     17          1           0       -0.884623   -1.148931   -1.005262
     18          1           0       -2.813646    2.308729   -0.691987
     19          1           0       -2.303227    1.628278    0.836550
     20          1           0       -3.634521   -1.383768   -0.965503
     21          1           0       -4.394591   -1.454653    0.600757
     22          1           0        1.379855    2.081095    0.575016
     23          1           0        1.981792    0.881360    1.702890
     24          1           0        1.446518   -2.013821   -0.664369
     25          1           0        2.069294   -1.611640    0.933606
     26          1           0        4.188863   -0.460706    1.024169
     27          1           0        4.947393   -0.049265   -0.509109
     28          1           0        3.921537    1.949418    0.640365
     29          1           0        3.262685    1.658192   -0.955986
     30          1           0       -2.239967   -0.685509    1.649736
     31          1           0       -2.020911   -2.184825    0.778541
 ---------------------------------------------------------------------
                    Distance matrix (angstroms):
                    1          2          3          4          5
     1  C    0.000000
     2  C    5.127128   0.000000
     3  C    2.395955   2.963506   0.000000
     4  C    4.039032   1.529916   2.382480   0.000000
     5  C    4.876967   1.539577   2.495977   2.519044   0.000000
     6  C    1.521229   5.947305   3.608690   4.660331   5.958160
     7  C    1.524953   6.177867   3.231409   5.313558   5.590490
     8  C    2.867644   7.991517   5.214484   6.837380   7.684695
     9  O    2.415610   7.372715   4.461636   6.382509   6.881864
    10  C    2.498601   7.314824   4.845141   5.994855   7.294531
    11  O    1.417236   3.998746   1.398844   3.107782   3.670864
    12  C    3.674252   2.513720   1.523749   2.676854   1.527325
    13  O    2.983020   2.422608   1.404863   1.419153   2.686017
    14  H    1.084150   5.016736   2.462822   3.877119   4.891414
    15  H    5.825359   1.085217   3.677879   2.159031   2.166719
    16  H    5.794829   1.086201   3.744124   2.138755   2.174731
    17  H    2.529605   3.640603   1.081017   3.212748   2.944841
    18  H    4.597866   2.175845   3.266161   1.080588   3.424018
    19  H    3.897517   2.171298   2.606725   1.084195   3.002374
    20  H    5.063883   2.165264   2.710425   3.040278   1.086382
    21  H    5.774370   2.173930   3.443049   3.405161   1.084526
    22  H    2.149159   5.589627   3.716627   4.173618   5.879086
    23  H    2.134962   6.211333   3.949108   5.033559   6.137941
    24  H    2.164718   6.018584   3.083051   5.361191   5.240154
    25  H    2.149929   6.489521   3.634660   5.710411   5.815788
    26  H    3.278930   8.286967   5.520321   7.199192   7.902097
    27  H    3.832910   8.939127   6.161929   7.758852   8.644983
    28  H    3.444630   8.034752   5.726649   6.663215   8.112726
    29  H    2.807708   7.357823   4.999283   5.992879   7.435004
    30  H    3.863888   2.739950   2.143681   2.777667   2.156546
    31  H    3.961762   3.471725   2.133803   3.744105   2.175167
                    6          7          8          9         10
     6  C    0.000000
     7  C    2.498755   0.000000
     8  C    2.508204   2.360844   0.000000
     9  O    2.863782   1.411104   1.416583   0.000000
    10  C    1.530851   2.865525   1.520507   2.420918   0.000000
    11  O    2.398790   2.397531   4.134094   3.640092   3.740083
    12  C    4.754070   4.273349   6.382118   5.632549   6.103388
    13  O    3.916789   4.163239   5.790163   5.173341   5.107265
    14  H    2.141556   2.141198   3.281798   2.691869   2.787116
    15  H    6.694464   6.875347   8.673881   7.993845   7.974539
    16  H    6.447530   6.873501   8.622164   8.109187   7.889775
    17  H    3.975551   2.977727   5.103142   4.109077   4.960887
    18  H    5.051616   5.973083   7.263556   6.894008   6.267212
    19  H    4.250106   5.213456   6.589524   6.310846   5.689369
    20  H    6.305654   5.650630   7.807456   6.858957   7.510125
    21  H    6.821649   6.380211   8.527044   7.721898   8.196965
    22  H    1.085427   3.441945   3.455204   3.831934   2.169874
    23  H    1.087787   2.781411   2.808703   3.298070   2.157090
    24  H    3.447338   1.081413   3.267272   2.012330   3.840748
    25  H    2.770024   1.087719   2.622391   2.052899   3.254188
    26  H    2.806105   2.623808   1.087687   2.047061   2.158596
    27  H    3.457010   3.260769   1.081365   2.009247   2.163843
    28  H    2.164425   3.829232   2.140939   3.347084   1.085847
    29  H    2.158848   3.308898   2.138601   2.717572   1.087104
    30  H    4.646726   4.565392   6.480282   5.936359   6.103186
    31  H    5.153043   4.165505   6.421248   5.547844   6.397254
                   11         12         13         14         15
    11  O    0.000000
    12  C    2.373449   0.000000
    13  O    2.307461   2.428881   0.000000
    14  H    2.052465   3.948626   2.646222   0.000000
    15  H    4.835268   3.393876   2.907788   5.538531   0.000000
    16  H    4.569484   3.043575   3.306350   5.814490   1.747048
    17  H    2.033549   2.161178   1.982016   2.371816   4.151441
    18  H    3.907102   3.740143   2.009595   4.258303   2.363711
    19  H    2.867882   2.768184   2.050804   3.990234   3.020787
    20  H    4.056735   2.143583   2.841144   4.902715   2.334579
    21  H    4.490523   2.158549   3.748852   5.889631   2.705752
    22  H    2.695269   4.857876   3.655071   2.440295   6.288780
    23  H    2.576774   4.811148   4.465745   3.028127   7.074677
    24  H    2.704232   4.034257   4.113879   2.457580   6.632470
    25  H    2.612963   4.364917   4.730398   3.038472   7.299881
    26  H    4.308794   6.494913   6.255716   3.956427   9.065013
    27  H    5.157835   7.382717   6.664366   4.061934   9.565693
    28  H    4.540522   6.908672   5.929233   3.794073   8.726245
    29  H    4.124859   6.396908   5.031842   2.660330   7.888993
    30  H    2.448500   1.085887   2.906314   4.332737   3.780555
    31  H    2.791118   1.084246   3.306066   4.332112   4.260263
                   16         17         18         19         20
    16  H    0.000000
    17  H    4.544711   0.000000
    18  H    2.669639   3.971736   0.000000
    19  H    2.342307   3.621823   1.749276   0.000000
    20  H    3.009687   2.760194   3.792516   3.753953   0.000000
    21  H    2.359673   3.872033   4.281777   3.732809   1.742384
    22  H    6.028635   4.249495   4.386635   3.720018   6.286688
    23  H    6.572699   4.435370   5.546985   4.435067   6.617711
    24  H    6.800382   2.509674   6.069118   5.438587   5.128802
    25  H    7.057509   3.563556   6.469540   5.442925   6.015983
    26  H    8.823551   5.507495   7.723347   6.822484   8.125034
    27  H    9.609039   5.955489   8.113403   7.562833   8.697036
    28  H    8.515389   5.950381   6.875097   6.236129   8.413261
    29  H    8.018893   5.008246   6.116755   5.847517   7.538240
    30  H    2.909858   3.016742   3.844247   2.453341   3.044967
    31  H    3.969680   2.355033   4.794049   3.823980   2.507413
                   21         22         23         24         25
    21  H    0.000000
    22  H    6.770997   0.000000
    23  H    6.879674   1.753223   0.000000
    24  H    6.002647   4.278885   3.777897   0.000000
    25  H    6.474353   3.773620   2.610460   1.761569   0.000000
    26  H    8.651179   3.814842   2.670761   3.575442   2.413591
    27  H    9.512076   4.294309   3.814943   4.017426   3.578533
    28  H    8.985948   2.545929   2.456078   4.851321   4.024665
    29  H    8.411131   2.463303   3.051848   4.106968   3.960624
    30  H    2.516812   4.681050   4.503460   4.550787   4.465455
    31  H    2.489802   5.459369   5.126163   3.759561   4.133082
                   26         27         28         29         30
    26  H    0.000000
    27  H    1.759430   0.000000
    28  H    2.455090   2.523570   0.000000
    29  H    3.044429   2.439949   1.751352   0.000000
    30  H    6.463105   7.531505   6.776858   6.523948   0.000000
    31  H    6.449358   7.401076   7.240424   6.759715   1.747831
                   31
    31  H    0.000000
 Stoichiometry    C10H18O3
 Framework group  C1[X(C10H18O3)]
 Deg. of freedom    87
 Full point group                 C1      NOp   1
 Largest Abelian subgroup         C1      NOp   1
 Largest concise Abelian subgroup C1      NOp   1
                         Standard orientation:                         
 ---------------------------------------------------------------------
 Center     Atomic      Atomic             Coordinates (Angstroms)
 Number     Number       Type             X           Y           Z
 ---------------------------------------------------------------------
      1          6           0        1.140607    0.045849   -0.072608
      2          6           0       -3.960236    0.564322   -0.078247
      3          6           0       -1.191805   -0.484938   -0.209429
      4          6           0       -2.669873    1.382796   -0.153797
      5          6           0       -3.635296   -0.937043    0.024781
      6          6           0        1.914456    1.139295    0.648274
      7          6           0        1.945391   -1.249397   -0.084510
      8          6           0        4.003325   -0.096846    0.016079
      9          8           0        3.209927   -1.044429   -0.676246
     10          6           0        3.320130    1.260992    0.054325
     11          8           0       -0.089213   -0.178532    0.595041
     12          6           0       -2.260841   -1.134010    0.661019
     13          8           0       -1.669282    0.665305   -0.859503
     14          1           0        0.948078    0.354011   -1.094053
     15          1           0       -4.574238    0.753293   -0.952882
     16          1           0       -4.526889    0.893867    0.787857
     17          1           0       -0.884623   -1.148931   -1.005262
     18          1           0       -2.813646    2.308729   -0.691987
     19          1           0       -2.303227    1.628278    0.836550
     20          1           0       -3.634521   -1.383768   -0.965503
     21          1           0       -4.394591   -1.454653    0.600757
     22          1           0        1.379855    2.081095    0.575016
     23          1           0        1.981792    0.881360    1.702890
     24          1           0        1.446518   -2.013821   -0.664369
     25          1           0        2.069294   -1.611640    0.933606
     26          1           0        4.188863   -0.460706    1.024169
     27          1           0        4.947393   -0.049265   -0.509109
     28          1           0        3.921537    1.949418    0.640365
     29          1           0        3.262685    1.658192   -0.955986
     30          1           0       -2.239967   -0.685509    1.649736
     31          1           0       -2.020911   -2.184825    0.778541
 ---------------------------------------------------------------------
 Rotational constants (GHZ):           2.2374387           0.3655804           0.3363902
 Standard basis: 6-311++G(2d,2p) (5D, 7F)
 There are   557 symmetry adapted cartesian basis functions of A   symmetry.
 There are   531 symmetry adapted basis functions of A   symmetry.
   531 basis functions,   762 primitive gaussians,   557 cartesian basis functions
    51 alpha electrons       51 beta electrons
       nuclear repulsion energy       880.2425490046 Hartrees.
 NAtoms=   31 NActive=   31 NUniq=   31 SFac= 1.00D+00 NAtFMM=   60 NAOKFM=F Big=F
 Integral buffers will be    131072 words long.
 Raffenetti 2 integral format.
 Two-electron integral symmetry is turned on.
 ------------------------------------------------------------------------------
 Polarizable Continuum Model (PCM)
 =================================
 Model                : PCM.
 Atomic radii         : UFF (Universal Force Field).
 Polarization charges : Total charges.
 Charge compensation  : None.
 Solution method      : On-the-fly selection.
 Cavity type          : Scaled VdW (van der Waals Surface) (Alpha=1.100).
 Cavity algorithm     : GePol (No added spheres)
                        Default sphere list used, NSphG=   31.
                        Lebedev-Laikov grids with approx.  5.0 points / Ang**2.
                        Smoothing algorithm: York/Karplus (Gamma=1.0000).
                        Polarization charges: spherical gaussians, with
                                              point-specific exponents (IZeta= 3).
                        Self-potential: point-specific (ISelfS= 7).
                        Self-field    : sphere-specific E.n sum rule (ISelfD= 2).
 1st derivatives      : Analytical E(r).r(x)/FMM algorithm (CHGder, D1EAlg=3).
                        Cavity 1st derivative terms included.
 Solvent              : Water, Eps=  78.355300 Eps(inf)=   1.777849
 ------------------------------------------------------------------------------
 One-electron integrals computed using PRISM.
 NBasis=   531 RedAO= T EigKep=  5.46D-06  NBF=   531
 NBsUse=   531 1.00D-06 EigRej= -1.00D+00 NBFU=   531
 ExpMin= 3.60D-02 ExpMax= 8.59D+03 ExpMxC= 1.30D+03 IAcc=3 IRadAn=         5 AccDes= 0.00D+00
 Harris functional with IExCor= 1009 and IRadAn=       5 diagonalized for initial guess.
 HarFok:  IExCor= 1009 AccDes= 0.00D+00 IRadAn=         5 IDoV= 1 UseB2=F ITyADJ=14
 ICtDFT=  3500011 ScaDFX=  1.000000  1.000000  1.000000  1.000000
 FoFCou: FMM=F IPFlag=           0 FMFlag=      100000 FMFlg1=           0
         NFxFlg=           0 DoJE=T BraDBF=F KetDBF=T FulRan=T
         wScrn=  0.000000 ICntrl=       500 IOpCl=  0 I1Cent=   200000004 NGrid=           0
         NMat0=    1 NMatS0=      1 NMatT0=    0 NMatD0=    1 NMtDS0=    0 NMtDT0=    0
 Petite list used in FoFCou.
 Requested convergence on RMS density matrix=1.00D-08 within 128 cycles.
 Requested convergence on MAX density matrix=1.00D-06.
 Requested convergence on             energy=1.00D-06.
 No special actions if energy rises.
 Inv3:  Mode=1 IEnd=    13305708.
 Iteration    1 A*A^-1 deviation from unit magnitude is 4.22D-15 for   2074.
 Iteration    1 A*A^-1 deviation from orthogonality  is 2.11D-15 for   2106   1576.
 Iteration    1 A^-1*A deviation from unit magnitude is 4.22D-15 for   2074.
 Iteration    1 A^-1*A deviation from orthogonality  is 2.79D-15 for   1631    488.
 Error on total polarization charges =  0.01504
 SCF Done:  E(RM062X) =  -617.496781999     A.U. after   12 cycles
            NFock= 12  Conv=0.49D-08     -V/T= 2.0035

 **********************************************************************

            Population analysis using the SCF density.

 **********************************************************************

 Orbital symmetries:
       Occupied  (A) (A) (A) (A) (A) (A) (A) (A) (A) (A) (A) (A)
                 (A) (A) (A) (A) (A) (A) (A) (A) (A) (A) (A) (A)
                 (A) (A) (A) (A) (A) (A) (A) (A) (A) (A) (A) (A)
                 (A) (A) (A) (A) (A) (A) (A) (A) (A) (A) (A) (A)
                 (A) (A) (A)
       Virtual   (A) (A) (A) (A) (A) (A) (A) (A) (A) (A) (A) (A)
                 (A) (A) (A) (A) (A) (A) (A) (A) (A) (A) (A) (A)
                 (A) (A) (A) (A) (A) (A) (A) (A) (A) (A) (A) (A)
                 (A) (A) (A) (A) (A) (A) (A) (A) (A) (A) (A) (A)
                 (A) (A) (A) (A) (A) (A) (A) (A) (A) (A) (A) (A)
                 (A) (A) (A) (A) (A) (A) (A) (A) (A) (A) (A) (A)
                 (A) (A) (A) (A) (A) (A) (A) (A) (A) (A) (A) (A)
                 (A) (A) (A) (A) (A) (A) (A) (A) (A) (A) (A) (A)
                 (A) (A) (A) (A) (A) (A) (A) (A) (A) (A) (A) (A)
                 (A) (A) (A) (A) (A) (A) (A) (A) (A) (A) (A) (A)
                 (A) (A) (A) (A) (A) (A) (A) (A) (A) (A) (A) (A)
                 (A) (A) (A) (A) (A) (A) (A) (A) (A) (A) (A) (A)
                 (A) (A) (A) (A) (A) (A) (A) (A) (A) (A) (A) (A)
                 (A) (A) (A) (A) (A) (A) (A) (A) (A) (A) (A) (A)
                 (A) (A) (A) (A) (A) (A) (A) (A) (A) (A) (A) (A)
                 (A) (A) (A) (A) (A) (A) (A) (A) (A) (A) (A) (A)
                 (A) (A) (A) (A) (A) (A) (A) (A) (A) (A) (A) (A)
                 (A) (A) (A) (A) (A) (A) (A) (A) (A) (A) (A) (A)
                 (A) (A) (A) (A) (A) (A) (A) (A) (A) (A) (A) (A)
                 (A) (A) (A) (A) (A) (A) (A) (A) (A) (A) (A) (A)
                 (A) (A) (A) (A) (A) (A) (A) (A) (A) (A) (A) (A)
                 (A) (A) (A) (A) (A) (A) (A) (A) (A) (A) (A) (A)
                 (A) (A) (A) (A) (A) (A) (A) (A) (A) (A) (A) (A)
                 (A) (A) (A) (A) (A) (A) (A) (A) (A) (A) (A) (A)
                 (A) (A) (A) (A) (A) (A) (A) (A) (A) (A) (A) (A)
                 (A) (A) (A) (A) (A) (A) (A) (A) (A) (A) (A) (A)
                 (A) (A) (A) (A) (A) (A) (A) (A) (A) (A) (A) (A)
                 (A) (A) (A) (A) (A) (A) (A) (A) (A) (A) (A) (A)
                 (A) (A) (A) (A) (A) (A) (A) (A) (A) (A) (A) (A)
                 (A) (A) (A) (A) (A) (A) (A) (A) (A) (A) (A) (A)
                 (A) (A) (A) (A) (A) (A) (A) (A) (A) (A) (A) (A)
                 (A) (A) (A) (A) (A) (A) (A) (A) (A) (A) (A) (A)
                 (A) (A) (A) (A) (A) (A) (A) (A) (A) (A) (A) (A)
                 (A) (A) (A) (A) (A) (A) (A) (A) (A) (A) (A) (A)
                 (A) (A) (A) (A) (A) (A) (A) (A) (A) (A) (A) (A)
                 (A) (A) (A) (A) (A) (A) (A) (A) (A) (A) (A) (A)
                 (A) (A) (A) (A) (A) (A) (A) (A) (A) (A) (A) (A)
                 (A) (A) (A) (A) (A) (A) (A) (A) (A) (A) (A) (A)
                 (A) (A) (A) (A) (A) (A) (A) (A) (A) (A) (A) (A)
                 (A) (A) (A) (A) (A) (A) (A) (A) (A) (A) (A) (A)
 The electronic state is 1-A.
 Alpha  occ. eigenvalues --  -19.63190 -19.62925 -19.62794 -10.63539 -10.58601
 Alpha  occ. eigenvalues --  -10.57874 -10.57825 -10.57764 -10.53205 -10.53179
 Alpha  occ. eigenvalues --  -10.53162 -10.53138 -10.52803  -1.20278  -1.16773
 Alpha  occ. eigenvalues --   -1.13894  -0.90956  -0.89807  -0.87354  -0.84500
 Alpha  occ. eigenvalues --   -0.75388  -0.74295  -0.73654  -0.70475  -0.65850
 Alpha  occ. eigenvalues --   -0.62748  -0.60751  -0.59158  -0.58398  -0.56890
 Alpha  occ. eigenvalues --   -0.55554  -0.53048  -0.52664  -0.49860  -0.49492
 Alpha  occ. eigenvalues --   -0.47885  -0.46895  -0.46031  -0.45701  -0.44563
 Alpha  occ. eigenvalues --   -0.44519  -0.43008  -0.40700  -0.40411  -0.39042
 Alpha  occ. eigenvalues --   -0.38623  -0.38190  -0.36107  -0.35276  -0.34030
 Alpha  occ. eigenvalues --   -0.31761
 Alpha virt. eigenvalues --   -0.00103   0.00755   0.00883   0.01023   0.02107
 Alpha virt. eigenvalues --    0.02404   0.02548   0.03630   0.03708   0.04147
 Alpha virt. eigenvalues --    0.04243   0.04648   0.05592   0.05859   0.06771
 Alpha virt. eigenvalues --    0.07156   0.07577   0.07882   0.08456   0.09085
 Alpha virt. eigenvalues --    0.10037   0.10585   0.10985   0.11517   0.11916
 Alpha virt. eigenvalues --    0.12280   0.12404   0.12688   0.13128   0.13271
 Alpha virt. eigenvalues --    0.13455   0.14006   0.14197   0.14541   0.14890
 Alpha virt. eigenvalues --    0.15032   0.15231   0.15463   0.15888   0.16217
 Alpha virt. eigenvalues --    0.16385   0.16724   0.16959   0.17278   0.17791
 Alpha virt. eigenvalues --    0.17898   0.18144   0.18819   0.19062   0.19482
 Alpha virt. eigenvalues --    0.19908   0.19996   0.20637   0.20987   0.21375
 Alpha virt. eigenvalues --    0.22138   0.22388   0.22519   0.23848   0.24376
 Alpha virt. eigenvalues --    0.24544   0.25220   0.26162   0.26761   0.26992
 Alpha virt. eigenvalues --    0.27179   0.27612   0.28262   0.28531   0.28954
 Alpha virt. eigenvalues --    0.29454   0.30120   0.30749   0.31068   0.31576
 Alpha virt. eigenvalues --    0.32238   0.32692   0.33607   0.33741   0.34277
 Alpha virt. eigenvalues --    0.34498   0.35052   0.35503   0.36277   0.36462
 Alpha virt. eigenvalues --    0.36659   0.36760   0.37314   0.37440   0.37898
 Alpha virt. eigenvalues --    0.39001   0.39280   0.39783   0.40406   0.40790
 Alpha virt. eigenvalues --    0.41720   0.42391   0.43375   0.43632   0.44211
 Alpha virt. eigenvalues --    0.45637   0.48147   0.48887   0.50004   0.50332
 Alpha virt. eigenvalues --    0.51574   0.52165   0.52520   0.53749   0.54338
 Alpha virt. eigenvalues --    0.55224   0.55960   0.56769   0.57482   0.58878
 Alpha virt. eigenvalues --    0.59523   0.59811   0.60510   0.60946   0.61515
 Alpha virt. eigenvalues --    0.61892   0.62084   0.62827   0.62949   0.63662
 Alpha virt. eigenvalues --    0.64061   0.64715   0.65541   0.66173   0.67139
 Alpha virt. eigenvalues --    0.67319   0.68505   0.68997   0.69883   0.70202
 Alpha virt. eigenvalues --    0.70533   0.71305   0.71428   0.72141   0.73034
 Alpha virt. eigenvalues --    0.73299   0.74399   0.74597   0.75048   0.75522
 Alpha virt. eigenvalues --    0.75948   0.76611   0.76844   0.77780   0.77992
 Alpha virt. eigenvalues --    0.81226   0.82192   0.83571   0.84609   0.85451
 Alpha virt. eigenvalues --    0.86436   0.86931   0.88470   0.88942   0.89368
 Alpha virt. eigenvalues --    0.90255   0.91134   0.91951   0.92526   0.94994
 Alpha virt. eigenvalues --    0.96103   0.96935   0.98688   0.99801   1.01822
 Alpha virt. eigenvalues --    1.02604   1.04623   1.05647   1.06069   1.06902
 Alpha virt. eigenvalues --    1.07534   1.08378   1.08914   1.10304   1.11277
 Alpha virt. eigenvalues --    1.12694   1.13636   1.14218   1.16085   1.16790
 Alpha virt. eigenvalues --    1.17111   1.17745   1.18004   1.18483   1.19937
 Alpha virt. eigenvalues --    1.20736   1.21394   1.22848   1.23169   1.24748
 Alpha virt. eigenvalues --    1.24962   1.26033   1.26229   1.26730   1.27920
 Alpha virt. eigenvalues --    1.28366   1.29409   1.29566   1.30037   1.30946
 Alpha virt. eigenvalues --    1.31867   1.32365   1.32607   1.33220   1.33499
 Alpha virt. eigenvalues --    1.33934   1.34944   1.35865   1.37055   1.37520
 Alpha virt. eigenvalues --    1.38121   1.38441   1.38669   1.40411   1.41213
 Alpha virt. eigenvalues --    1.41544   1.41792   1.42924   1.43368   1.45146
 Alpha virt. eigenvalues --    1.45286   1.45748   1.47317   1.48069   1.48301
 Alpha virt. eigenvalues --    1.49004   1.49310   1.50284   1.51231   1.51741
 Alpha virt. eigenvalues --    1.52458   1.53023   1.53393   1.53993   1.54482
 Alpha virt. eigenvalues --    1.55407   1.56274   1.56978   1.57691   1.58702
 Alpha virt. eigenvalues --    1.58783   1.59062   1.60319   1.60914   1.61728
 Alpha virt. eigenvalues --    1.62722   1.63457   1.64619   1.65365   1.66162
 Alpha virt. eigenvalues --    1.66962   1.67757   1.69147   1.69542   1.70973
 Alpha virt. eigenvalues --    1.71324   1.74758   1.75626   1.75851   1.76248
 Alpha virt. eigenvalues --    1.78251   1.78698   1.79678   1.81731   1.82931
 Alpha virt. eigenvalues --    1.87592   1.88373   1.90283   1.94951   1.96714
 Alpha virt. eigenvalues --    2.01252   2.02741   2.09431   2.09696   2.18265
 Alpha virt. eigenvalues --    2.24399   2.25296   2.32719   2.35180   2.38657
 Alpha virt. eigenvalues --    2.41031   2.43172   2.45654   2.46063   2.51503
 Alpha virt. eigenvalues --    2.56339   2.75838   2.76271   2.79894   2.80430
 Alpha virt. eigenvalues --    2.87419   2.88839   2.89947   2.92084   2.93128
 Alpha virt. eigenvalues --    2.93522   2.96397   3.00117   3.01125   3.02439
 Alpha virt. eigenvalues --    3.05761   3.07205   3.07450   3.09074   3.09963
 Alpha virt. eigenvalues --    3.12510   3.14305   3.16828   3.18466   3.22821
 Alpha virt. eigenvalues --    3.26036   3.28233   3.30533   3.31291   3.33319
 Alpha virt. eigenvalues --    3.35103   3.36557   3.36941   3.39446   3.40462
 Alpha virt. eigenvalues --    3.41991   3.42140   3.43934   3.44680   3.45505
 Alpha virt. eigenvalues --    3.47881   3.48456   3.48734   3.49417   3.50263
 Alpha virt. eigenvalues --    3.51338   3.54092   3.54281   3.54981   3.55916
 Alpha virt. eigenvalues --    3.56964   3.57377   3.58697   3.59270   3.60032
 Alpha virt. eigenvalues --    3.60967   3.61425   3.63045   3.63835   3.64428
 Alpha virt. eigenvalues --    3.65735   3.66212   3.67939   3.68451   3.69605
 Alpha virt. eigenvalues --    3.70391   3.71210   3.71698   3.72867   3.73468
 Alpha virt. eigenvalues --    3.73804   3.75338   3.75866   3.77330   3.78283
 Alpha virt. eigenvalues --    3.79678   3.80508   3.82215   3.84039   3.85722
 Alpha virt. eigenvalues --    3.85804   3.87100   3.88870   3.90149   3.91413
 Alpha virt. eigenvalues --    3.93256   3.93755   3.95495   3.97969   3.99081
 Alpha virt. eigenvalues --    3.99751   4.00976   4.02472   4.03168   4.03251
 Alpha virt. eigenvalues --    4.04526   4.05064   4.06194   4.06469   4.07795
 Alpha virt. eigenvalues --    4.07938   4.08640   4.09328   4.10159   4.11321
 Alpha virt. eigenvalues --    4.12440   4.13547   4.14033   4.15306   4.16441
 Alpha virt. eigenvalues --    4.16804   4.17679   4.18586   4.19434   4.20089
 Alpha virt. eigenvalues --    4.20601   4.21762   4.24998   4.25306   4.25805
 Alpha virt. eigenvalues --    4.27285   4.27411   4.28937   4.30410   4.31652
 Alpha virt. eigenvalues --    4.32511   4.33228   4.35192   4.36641   4.38495
 Alpha virt. eigenvalues --    4.42001   4.42084   4.45044   4.47854   4.51992
 Alpha virt. eigenvalues --    4.57119   4.59020   4.75098   4.76432   4.82512
 Alpha virt. eigenvalues --    4.84725   4.92474   4.95498   4.99540   5.00547
 Alpha virt. eigenvalues --    5.02878   5.06757   5.08394   5.11898   5.12615
 Alpha virt. eigenvalues --    5.13622   5.14973   5.18155   5.30351   5.37706
 Alpha virt. eigenvalues --    5.40529   5.57358   5.58732   5.64418   5.85916
 Alpha virt. eigenvalues --    5.87965   6.05916   7.03841   7.04812   7.05928
 Alpha virt. eigenvalues --    7.06302   7.09866   7.11311   7.13258   7.19602
 Alpha virt. eigenvalues --    7.26635   7.35647   7.37750   7.42498   7.52790
 Alpha virt. eigenvalues --    7.55745   7.64105  23.95961  23.98816  24.04662
 Alpha virt. eigenvalues --   24.07038  24.10752  24.12211  24.13099  24.15500
 Alpha virt. eigenvalues --   24.16206  24.20691  50.17512  50.18077  50.23275
          Condensed to atoms (all electrons):
               1          2          3          4          5          6
     1  C    8.326355   0.049596  -0.393801   0.028073  -0.091530  -1.679846
     2  C    0.049596   6.118134   0.502703  -0.324777  -0.366913  -0.020337
     3  C   -0.393801   0.502703   6.753696  -0.509399  -0.286768  -0.026918
     4  C    0.028073  -0.324777  -0.509399   5.792139   0.342622   0.034788
     5  C   -0.091530  -0.366913  -0.286768   0.342622   5.895252  -0.006257
     6  C   -1.679846  -0.020337  -0.026918   0.034788  -0.006257   7.315854
     7  C   -0.678628  -0.025762  -0.029861   0.037341   0.031174   0.043693
     8  C    0.245129   0.002529  -0.008052  -0.002182  -0.002999  -0.160864
     9  O    0.010657   0.000043  -0.005092   0.000012  -0.000606  -0.009029
    10  C   -0.263025  -0.004813  -0.098406   0.012448  -0.000458   0.155844
    11  O    0.228819   0.022251   0.365011  -0.001715  -0.015211  -0.144035
    12  C   -0.020754  -0.205105  -0.601719  -0.135500   0.134279  -0.127973
    13  O    0.027657  -0.011141   0.277530   0.050813  -0.105838  -0.074931
    14  H    0.409203   0.005250  -0.018581  -0.004549  -0.007560   0.075053
    15  H    0.002236   0.481438  -0.007849  -0.087730  -0.051839  -0.003909
    16  H   -0.001731   0.470524   0.014375  -0.044815  -0.066429   0.004432
    17  H    0.120342   0.033731   0.495548  -0.053988  -0.038995  -0.027488
    18  H   -0.006662  -0.010723   0.022511   0.424554  -0.007691   0.010320
    19  H    0.003648  -0.092734  -0.044644   0.480644   0.002748  -0.011169
    20  H    0.001258  -0.075573  -0.033374   0.005169   0.463153   0.004708
    21  H   -0.000798  -0.050312   0.014521   0.005642   0.447439  -0.002448
    22  H   -0.044953  -0.004926   0.003025   0.005324   0.000379   0.393573
    23  H    0.004468   0.000841   0.009030  -0.001763   0.001072   0.484962
    24  H   -0.146965  -0.002571   0.023126   0.004798   0.003043   0.054542
    25  H    0.029068   0.001785  -0.000202  -0.003865  -0.005353  -0.025562
    26  H    0.049040   0.000026   0.003643  -0.000272  -0.000040  -0.030545
    27  H    0.004162   0.000088  -0.002412  -0.000009  -0.000118   0.011022
    28  H   -0.020845  -0.000188  -0.003217   0.000597  -0.000004  -0.015734
    29  H   -0.018902  -0.000160   0.004885  -0.000380   0.000216  -0.024216
    30  H   -0.006256   0.009479  -0.063231  -0.029922  -0.070313   0.006427
    31  H   -0.018718  -0.004336  -0.024584   0.015604   0.005979   0.004463
               7          8          9         10         11         12
     1  C   -0.678628   0.245129   0.010657  -0.263025   0.228819  -0.020754
     2  C   -0.025762   0.002529   0.000043  -0.004813   0.022251  -0.205105
     3  C   -0.029861  -0.008052  -0.005092  -0.098406   0.365011  -0.601719
     4  C    0.037341  -0.002182   0.000012   0.012448  -0.001715  -0.135500
     5  C    0.031174  -0.002999  -0.000606  -0.000458  -0.015211   0.134279
     6  C    0.043693  -0.160864  -0.009029   0.155844  -0.144035  -0.127973
     7  C    6.202760  -0.250627   0.170039   0.181066  -0.178372   0.112911
     8  C   -0.250627   5.384164   0.101845   0.069754   0.017323  -0.008705
     9  O    0.170039   0.101845   8.324631  -0.037910   0.004736   0.001042
    10  C    0.181066   0.069754  -0.037910   5.600603   0.001895   0.009409
    11  O   -0.178372   0.017323   0.004736   0.001895   8.260339  -0.247636
    12  C    0.112911  -0.008705   0.001042   0.009409  -0.247636   6.454772
    13  O    0.025172   0.000466   0.000080  -0.003647  -0.023026   0.003103
    14  H   -0.079001   0.005678  -0.010763  -0.011487  -0.014030  -0.020199
    15  H   -0.000708   0.000059  -0.000008  -0.000300   0.000143   0.048202
    16  H    0.000497  -0.000032   0.000007   0.000337   0.000738  -0.018509
    17  H   -0.068168   0.006372   0.000391  -0.014980  -0.037243  -0.019984
    18  H    0.001234  -0.000148   0.000023   0.001502  -0.001083  -0.024159
    19  H    0.002983  -0.000467  -0.000110  -0.001701   0.010947   0.045833
    20  H    0.000288  -0.000138   0.000028   0.000335   0.000119  -0.010905
    21  H    0.000583  -0.000018  -0.000014  -0.000124  -0.003137  -0.045126
    22  H    0.023899  -0.002746  -0.001514   0.016057   0.005097   0.006000
    23  H   -0.037704  -0.011857   0.000281  -0.082699  -0.005152   0.001778
    24  H    0.465674  -0.001336  -0.076009   0.022065  -0.005648  -0.002377
    25  H    0.358496   0.014596  -0.037704  -0.015485   0.008933   0.004123
    26  H   -0.041068   0.468079  -0.043130  -0.045361  -0.000333   0.000804
    27  H    0.010264   0.434280  -0.072242  -0.048855   0.001113  -0.000313
    28  H   -0.002025  -0.039199   0.007276   0.437186  -0.001618  -0.000867
    29  H    0.005906  -0.081661  -0.001673   0.488270  -0.000544   0.002366
    30  H   -0.003149   0.000183  -0.000016  -0.000227  -0.014599   0.534901
    31  H    0.009162  -0.000845   0.000427   0.000511   0.001732   0.388162
              13         14         15         16         17         18
     1  C    0.027657   0.409203   0.002236  -0.001731   0.120342  -0.006662
     2  C   -0.011141   0.005250   0.481438   0.470524   0.033731  -0.010723
     3  C    0.277530  -0.018581  -0.007849   0.014375   0.495548   0.022511
     4  C    0.050813  -0.004549  -0.087730  -0.044815  -0.053988   0.424554
     5  C   -0.105838  -0.007560  -0.051839  -0.066429  -0.038995  -0.007691
     6  C   -0.074931   0.075053  -0.003909   0.004432  -0.027488   0.010320
     7  C    0.025172  -0.079001  -0.000708   0.000497  -0.068168   0.001234
     8  C    0.000466   0.005678   0.000059  -0.000032   0.006372  -0.000148
     9  O    0.000080  -0.010763  -0.000008   0.000007   0.000391   0.000023
    10  C   -0.003647  -0.011487  -0.000300   0.000337  -0.014980   0.001502
    11  O   -0.023026  -0.014030   0.000143   0.000738  -0.037243  -0.001083
    12  C    0.003103  -0.020199   0.048202  -0.018509  -0.019984  -0.024159
    13  O    8.289546  -0.001260  -0.010563   0.012840  -0.113555  -0.067135
    14  H   -0.001260   0.434561  -0.000145   0.000222  -0.011762   0.000459
    15  H   -0.010563  -0.000145   0.511713  -0.022658   0.003973  -0.011778
    16  H    0.012840   0.000222  -0.022658   0.504504  -0.001095   0.000441
    17  H   -0.113555  -0.011762   0.003973  -0.001095   0.499403  -0.001808
    18  H   -0.067135   0.000459  -0.011778   0.000441  -0.001808   0.473852
    19  H   -0.023356  -0.000232   0.006225  -0.001965  -0.001189  -0.007337
    20  H    0.013027   0.000999  -0.014606   0.007236  -0.007054  -0.000045
    21  H   -0.005220  -0.000344   0.000402  -0.006406   0.000668  -0.000408
    22  H    0.000651  -0.009504  -0.000047   0.000284  -0.000017  -0.000026
    23  H    0.000455   0.005108   0.000034  -0.000156  -0.000345  -0.000117
    24  H    0.002655   0.000872  -0.000262   0.000082  -0.015423   0.000369
    25  H   -0.001151  -0.004819   0.000069  -0.000010   0.008315  -0.000169
    26  H    0.000016  -0.002176   0.000003  -0.000005   0.000480  -0.000029
    27  H    0.000008  -0.000413   0.000001   0.000001   0.000245   0.000008
    28  H   -0.000407   0.001169  -0.000021   0.000024  -0.000375   0.000129
    29  H    0.000272  -0.007600   0.000007  -0.000019   0.000576  -0.000097
    30  H    0.001305  -0.000821  -0.003600   0.001306   0.001858  -0.001257
    31  H    0.009096   0.000838   0.000175  -0.000021  -0.015993   0.001289
              19         20         21         22         23         24
     1  C    0.003648   0.001258  -0.000798  -0.044953   0.004468  -0.146965
     2  C   -0.092734  -0.075573  -0.050312  -0.004926   0.000841  -0.002571
     3  C   -0.044644  -0.033374   0.014521   0.003025   0.009030   0.023126
     4  C    0.480644   0.005169   0.005642   0.005324  -0.001763   0.004798
     5  C    0.002748   0.463153   0.447439   0.000379   0.001072   0.003043
     6  C   -0.011169   0.004708  -0.002448   0.393573   0.484962   0.054542
     7  C    0.002983   0.000288   0.000583   0.023899  -0.037704   0.465674
     8  C   -0.000467  -0.000138  -0.000018  -0.002746  -0.011857  -0.001336
     9  O   -0.000110   0.000028  -0.000014  -0.001514   0.000281  -0.076009
    10  C   -0.001701   0.000335  -0.000124   0.016057  -0.082699   0.022065
    11  O    0.010947   0.000119  -0.003137   0.005097  -0.005152  -0.005648
    12  C    0.045833  -0.010905  -0.045126   0.006000   0.001778  -0.002377
    13  O   -0.023356   0.013027  -0.005220   0.000651   0.000455   0.002655
    14  H   -0.000232   0.000999  -0.000344  -0.009504   0.005108   0.000872
    15  H    0.006225  -0.014606   0.000402  -0.000047   0.000034  -0.000262
    16  H   -0.001965   0.007236  -0.006406   0.000284  -0.000156   0.000082
    17  H   -0.001189  -0.007054   0.000668  -0.000017  -0.000345  -0.015423
    18  H   -0.007337  -0.000045  -0.000408  -0.000026  -0.000117   0.000369
    19  H    0.493846   0.000416  -0.000757  -0.000283   0.000391  -0.000434
    20  H    0.000416   0.492815  -0.011822   0.000064   0.000010   0.001000
    21  H   -0.000757  -0.011822   0.478490   0.000035   0.000027  -0.000098
    22  H   -0.000283   0.000064   0.000035   0.492030  -0.017033  -0.000481
    23  H    0.000391   0.000010   0.000027  -0.017033   0.457877  -0.001856
    24  H   -0.000434   0.001000  -0.000098  -0.000481  -0.001856   0.507764
    25  H    0.000077  -0.000144   0.000015  -0.000833  -0.003709  -0.025186
    26  H    0.000095  -0.000016   0.000007   0.000383  -0.005319  -0.005594
    27  H   -0.000061  -0.000002  -0.000002   0.000737  -0.000753   0.002339
    28  H   -0.000147   0.000023  -0.000006  -0.012982  -0.004919   0.002936
    29  H    0.000158  -0.000013   0.000007  -0.002114   0.003135  -0.002397
    30  H   -0.009035   0.005791  -0.004169   0.000667  -0.000533   0.001177
    31  H    0.000468   0.000104  -0.009437  -0.000106   0.000217  -0.000593
              25         26         27         28         29         30
     1  C    0.029068   0.049040   0.004162  -0.020845  -0.018902  -0.006256
     2  C    0.001785   0.000026   0.000088  -0.000188  -0.000160   0.009479
     3  C   -0.000202   0.003643  -0.002412  -0.003217   0.004885  -0.063231
     4  C   -0.003865  -0.000272  -0.000009   0.000597  -0.000380  -0.029922
     5  C   -0.005353  -0.000040  -0.000118  -0.000004   0.000216  -0.070313
     6  C   -0.025562  -0.030545   0.011022  -0.015734  -0.024216   0.006427
     7  C    0.358496  -0.041068   0.010264  -0.002025   0.005906  -0.003149
     8  C    0.014596   0.468079   0.434280  -0.039199  -0.081661   0.000183
     9  O   -0.037704  -0.043130  -0.072242   0.007276  -0.001673  -0.000016
    10  C   -0.015485  -0.045361  -0.048855   0.437186   0.488270  -0.000227
    11  O    0.008933  -0.000333   0.001113  -0.001618  -0.000544  -0.014599
    12  C    0.004123   0.000804  -0.000313  -0.000867   0.002366   0.534901
    13  O   -0.001151   0.000016   0.000008  -0.000407   0.000272   0.001305
    14  H   -0.004819  -0.002176  -0.000413   0.001169  -0.007600  -0.000821
    15  H    0.000069   0.000003   0.000001  -0.000021   0.000007  -0.003600
    16  H   -0.000010  -0.000005   0.000001   0.000024  -0.000019   0.001306
    17  H    0.008315   0.000480   0.000245  -0.000375   0.000576   0.001858
    18  H   -0.000169  -0.000029   0.000008   0.000129  -0.000097  -0.001257
    19  H    0.000077   0.000095  -0.000061  -0.000147   0.000158  -0.009035
    20  H   -0.000144  -0.000016  -0.000002   0.000023  -0.000013   0.005791
    21  H    0.000015   0.000007  -0.000002  -0.000006   0.000007  -0.004169
    22  H   -0.000833   0.000383   0.000737  -0.012982  -0.002114   0.000667
    23  H   -0.003709  -0.005319  -0.000753  -0.004919   0.003135  -0.000533
    24  H   -0.025186  -0.005594   0.002339   0.002936  -0.002397   0.001177
    25  H    0.493374   0.010473  -0.001736  -0.002290   0.002245   0.001174
    26  H    0.010473   0.495640  -0.005517   0.002886   0.002537   0.000056
    27  H   -0.001736  -0.005517   0.471559  -0.008905  -0.003577   0.000005
    28  H   -0.002290   0.002886  -0.008905   0.485227  -0.007942  -0.000028
    29  H    0.002245   0.002537  -0.003577  -0.007942   0.475298   0.000128
    30  H    0.001174   0.000056   0.000005  -0.000028   0.000128   0.453386
    31  H   -0.001718  -0.000035  -0.000036   0.000009   0.000008  -0.012739
              31
     1  C   -0.018718
     2  C   -0.004336
     3  C   -0.024584
     4  C    0.015604
     5  C    0.005979
     6  C    0.004463
     7  C    0.009162
     8  C   -0.000845
     9  O    0.000427
    10  C    0.000511
    11  O    0.001732
    12  C    0.388162
    13  O    0.009096
    14  H    0.000838
    15  H    0.000175
    16  H   -0.000021
    17  H   -0.015993
    18  H    0.001289
    19  H    0.000468
    20  H    0.000104
    21  H   -0.009437
    22  H   -0.000106
    23  H    0.000217
    24  H   -0.000593
    25  H   -0.001718
    26  H   -0.000035
    27  H   -0.000036
    28  H    0.000009
    29  H    0.000008
    30  H   -0.012739
    31  H    0.480617
 Mulliken charges:
               1
     1  C   -0.146298
     2  C   -0.498046
     3  C   -0.331493
     4  C   -0.039701
     5  C   -0.202434
     6  C   -0.208419
     7  C   -0.288069
     8  C   -0.178585
     9  O   -0.325698
    10  C   -0.367804
    11  O   -0.235816
    12  C   -0.257854
    13  O   -0.273460
    14  H    0.265835
    15  H    0.161342
    16  H    0.146002
    17  H    0.257560
    18  H    0.203982
    19  H    0.147141
    20  H    0.157147
    21  H    0.192809
    22  H    0.149358
    23  H    0.204230
    24  H    0.194788
    25  H    0.197194
    26  H    0.145273
    27  H    0.209118
    28  H    0.184257
    29  H    0.165282
    30  H    0.202055
    31  H    0.170302
 Sum of Mulliken charges =  -0.00000
 Mulliken charges with hydrogens summed into heavy atoms:
               1
     1  C    0.119537
     2  C   -0.190702
     3  C   -0.073933
     4  C    0.311422
     5  C    0.147523
     6  C    0.145169
     7  C    0.103914
     8  C    0.175806
     9  O   -0.325698
    10  C   -0.018265
    11  O   -0.235816
    12  C    0.114504
    13  O   -0.273460
 Electronic spatial extent (au):  <R**2>=           3364.2416
 Charge=              0.0000 electrons
 Dipole moment (field-independent basis, Debye):
    X=             -1.3382    Y=              0.5776    Z=              1.4821  Tot=              2.0787
 Quadrupole moment (field-independent basis, Debye-Ang):
   XX=            -71.3898   YY=            -78.0438   ZZ=            -83.4951
   XY=              5.7264   XZ=              2.6207   YZ=             -0.0987
 Traceless Quadrupole moment (field-independent basis, Debye-Ang):
   XX=              6.2531   YY=             -0.4009   ZZ=             -5.8522
   XY=              5.7264   XZ=              2.6207   YZ=             -0.0987
 Octapole moment (field-independent basis, Debye-Ang**2):
  XXX=             -6.7885  YYY=              1.4496  ZZZ=              0.5113  XYY=             -9.2364
  XXY=             24.7136  XXZ=             20.5928  XZZ=             -0.5522  YZZ=             -0.0814
  YYZ=              0.0120  XYZ=             -5.9822
 Hexadecapole moment (field-independent basis, Debye-Ang**3):
 XXXX=          -3504.9919 YYYY=           -570.1492 ZZZZ=           -245.9077 XXXY=             51.8973
 XXXZ=             32.0530 YYYX=             -9.8281 YYYZ=             -3.5552 ZZZX=              0.7134
 ZZZY=              0.8475 XXYY=           -716.1072 XXZZ=           -657.3736 YYZZ=           -136.5152
 XXYZ=            -23.5865 YYXZ=              9.9998 ZZXY=              2.2044
 N-N= 8.802425490046D+02 E-N=-3.202352636342D+03  KE= 6.153476947602D+02
 D1PCM: PCM CHGder 1st derivatives, ID1Alg=3 FixD1E=F DoIter=F DoCFld=F I1PDM=0.
 Calling FoFJK, ICntrl=      2127 FMM=F ISym2X=0 I1Cent= 0 IOpClX= 0 NMat=1 NMatS=1 NMatT=0.
 ***** Axes restored to original set *****
 -------------------------------------------------------------------
 Center     Atomic                   Forces (Hartrees/Bohr)
 Number     Number              X              Y              Z
 -------------------------------------------------------------------
      1        6          -0.000162639   -0.001076185    0.003542202
      2        6           0.001470698   -0.000972323    0.000230154
      3        6          -0.003615974    0.003800737    0.005219700
      4        6          -0.000699803   -0.005691883    0.000708057
      5        6           0.002095780    0.002596523    0.001151688
      6        6           0.002027993   -0.002255276   -0.003774785
      7        6           0.003247547    0.006936995   -0.000875431
      8        6          -0.006468440    0.002521581   -0.000701509
      9        8           0.002691434   -0.004467213   -0.007960159
     10        6          -0.000684717   -0.001716457    0.002231337
     11        8          -0.000701016   -0.000151137    0.011556353
     12        6          -0.000682946    0.000138351   -0.003129521
     13        8           0.002293702    0.001752507   -0.010495314
     14        1          -0.000264838    0.002224537   -0.006454853
     15        1          -0.001351134    0.000382886   -0.002258042
     16        1          -0.001575361    0.000502520    0.002561198
     17        1           0.001580839   -0.004971436   -0.006585271
     18        1          -0.000660628    0.003698838   -0.002009585
     19        1           0.001453990    0.001054407    0.005750758
     20        1           0.000576293   -0.000876904   -0.002958593
     21        1          -0.001746213   -0.001147976    0.001370694
     22        1          -0.002048711    0.002334496   -0.000279849
     23        1          -0.000097315   -0.001879913    0.003402327
     24        1          -0.002885128   -0.003444239   -0.002684830
     25        1          -0.000854575   -0.000897768    0.006427641
     26        1           0.000717819   -0.000977190    0.006073495
     27        1           0.003738633    0.000258947   -0.002207001
     28        1           0.001401145    0.002156098    0.001537719
     29        1          -0.000317539    0.000540321   -0.003169965
     30        1           0.000862827    0.002474153    0.003215963
     31        1           0.000658275   -0.002847996    0.000565423
 -------------------------------------------------------------------
 Cartesian Forces:  Max     0.011556353 RMS     0.003300218

 GradGradGradGradGradGradGradGradGradGradGradGradGradGradGradGradGradGrad
 Berny optimization.
 FormGI is forming the generalized inverse of G from B-inverse, IUseBI=4.
 Internal  Forces:  Max     0.010369836 RMS     0.001948406
 Search for a local minimum.
 Step number   1 out of a maximum of  186
 All quantities printed in internal units (Hartrees-Bohrs-Radians)
 Mixed Optimization -- RFO/linear search
 Second derivative matrix not updated -- first step.
 ITU=  0
     Eigenvalues ---    0.00392   0.00650   0.00691   0.00740   0.01423
     Eigenvalues ---    0.01444   0.01707   0.02702   0.02774   0.03163
     Eigenvalues ---    0.03206   0.04086   0.04242   0.04645   0.04664
     Eigenvalues ---    0.04861   0.04882   0.05090   0.05125   0.05140
     Eigenvalues ---    0.05169   0.05631   0.05740   0.05925   0.06155
     Eigenvalues ---    0.06346   0.06496   0.06608   0.07672   0.07882
     Eigenvalues ---    0.07896   0.07909   0.07918   0.08005   0.08091
     Eigenvalues ---    0.09303   0.09305   0.09704   0.10869   0.11603
     Eigenvalues ---    0.11609   0.11698   0.11709   0.12501   0.12632
     Eigenvalues ---    0.14596   0.15876   0.16277   0.17474   0.19239
     Eigenvalues ---    0.20556   0.21166   0.22416   0.25000   0.27370
     Eigenvalues ---    0.27557   0.28418   0.28701   0.28821   0.29435
     Eigenvalues ---    0.29560   0.30133   0.35070   0.35078   0.35081
     Eigenvalues ---    0.35149   0.35234   0.35255   0.35292   0.35297
     Eigenvalues ---    0.35346   0.35371   0.35453   0.35486   0.35492
     Eigenvalues ---    0.35498   0.35824   0.35830   0.35872   0.35923
     Eigenvalues ---    0.40038   0.41404   0.42296   0.42879   0.42917
     Eigenvalues ---    0.458131000.000001000.000001000.000001000.00000
     Eigenvalues --- 1000.000001000.000001000.000001000.000001000.00000
     Eigenvalues --- 1000.000001000.000001000.000001000.000001000.00000
     Eigenvalues --- 1000.000001000.000001000.000001000.000001000.00000
     Eigenvalues --- 1000.000001000.000001000.000001000.000001000.00000
     Eigenvalues --- 1000.000001000.000001000.000001000.000001000.00000
     Eigenvalues --- 1000.000001000.000001000.000001000.000001000.00000
     Eigenvalues --- 1000.000001000.000001000.000001000.000001000.00000
     Eigenvalues --- 1000.000001000.000001000.000001000.000001000.00000
     Eigenvalues --- 1000.000001000.000001000.000001000.000001000.00000
     Eigenvalues --- 1000.000001000.000001000.000001000.000001000.00000
     Eigenvalues --- 1000.000001000.000001000.000001000.000001000.00000
     Eigenvalues --- 1000.000001000.000001000.000001000.000001000.00000
     Eigenvalues --- 1000.000001000.000001000.000001000.000001000.00000
     Eigenvalues --- 1000.000001000.000001000.000001000.000001000.00000
     Eigenvalues --- 1000.000001000.000001000.000001000.000001000.00000
     Eigenvalues --- 1000.000001000.000001000.000001000.000001000.00000
     Eigenvalues --- 1000.000001000.000001000.000001000.000001000.00000
     Eigenvalues --- 1000.000001000.000001000.000001000.000001000.00000
     Eigenvalues --- 1000.000001000.000001000.000001000.000001000.00000
 RFO step:  Lambda=-2.84589279D-03 EMin= 3.91778473D-03
 Linear search not attempted -- first point.
 Iteration  1 RMS(Cart)=  0.03722082 RMS(Int)=  0.00038842
 Iteration  2 RMS(Cart)=  0.00122839 RMS(Int)=  0.00005153
 Iteration  3 RMS(Cart)=  0.00000040 RMS(Int)=  0.00005153
 Iteration  1 RMS(Cart)=  0.00000433 RMS(Int)=  0.00000100
 Iteration  2 RMS(Cart)=  0.00000239 RMS(Int)=  0.00000112
 Iteration  3 RMS(Cart)=  0.00000132 RMS(Int)=  0.00000126
 Iteration  4 RMS(Cart)=  0.00000073 RMS(Int)=  0.00000136
 Variable       Old X    -DE/DX   Delta X   Delta X   Delta X     New X
                                 (Linear)    (Quad)   (Total)
    R1        2.87471  -0.00215   0.00000  -0.00722  -0.00724   2.86747
    R2        2.88174   0.00002   0.00000   0.00001   0.00001   2.88176
    R3        2.67819   0.00239   0.00000   0.00554   0.00554   2.68372
    R4        2.04875   0.00676   0.00000   0.01890   0.01890   2.06764
    R5        2.89112   0.00098   0.00000   0.00275   0.00278   2.89390
    R6        2.90938  -0.00045   0.00000  -0.00267  -0.00262   2.90676
    R7        2.05076   0.00265   0.00000   0.00743   0.00743   2.05819
    R8        2.05262   0.00302   0.00000   0.00849   0.00849   2.06111
    R9        2.64343   0.00333   0.00000   0.00721   0.00721   2.65065
   R10        2.87947  -0.00113   0.00000  -0.00242  -0.00243   2.87704
   R11        2.65481   0.00308   0.00000   0.00790   0.00787   2.66268
   R12        2.04283   0.00835   0.00000   0.02310   0.02310   2.06592
   R13        2.68181   0.00324   0.00000   0.00735   0.00731   2.68913
   R14        2.04202   0.00426   0.00000   0.01176   0.01176   2.05377
   R15        2.04883   0.00599   0.00000   0.01673   0.01673   2.06556
   R16        2.88623  -0.00046   0.00000  -0.00245  -0.00245   2.88377
   R17        2.05296   0.00306   0.00000   0.00861   0.00861   2.06157
   R18        2.04946   0.00250   0.00000   0.00699   0.00699   2.05645
   R19        2.89289  -0.00065   0.00000  -0.00223  -0.00225   2.89064
   R20        2.05116   0.00305   0.00000   0.00857   0.00857   2.05973
   R21        2.05562   0.00374   0.00000   0.01057   0.01057   2.06619
   R22        2.66660   0.00311   0.00000   0.00706   0.00709   2.67369
   R23        2.04358   0.00521   0.00000   0.01442   0.01442   2.05799
   R24        2.05549   0.00622   0.00000   0.01758   0.01758   2.07307
   R25        2.67695   0.00333   0.00000   0.00782   0.00784   2.68480
   R26        2.87334   0.00030   0.00000   0.00105   0.00105   2.87440
   R27        2.05543   0.00608   0.00000   0.01718   0.01718   2.07261
   R28        2.04348   0.00435   0.00000   0.01204   0.01204   2.05552
   R29        2.05195   0.00297   0.00000   0.00835   0.00835   2.06031
   R30        2.05433   0.00316   0.00000   0.00892   0.00892   2.06325
   R31        2.05203   0.00397   0.00000   0.01115   0.01115   2.06318
   R32        2.04893   0.00297   0.00000   0.00830   0.00830   2.05723
    A1        1.92384  -0.00027   0.00000  -0.00325  -0.00329   1.92055
    A2        1.90921  -0.00080   0.00000  -0.00217  -0.00216   1.90705
    A3        1.90975   0.00040   0.00000  -0.00362  -0.00361   1.90614
    A4        1.90409   0.00065   0.00000   0.00422   0.00424   1.90833
    A5        1.90476  -0.00026   0.00000  -0.00084  -0.00086   1.90390
    A6        1.91213   0.00028   0.00000   0.00576   0.00575   1.91788
    A7        1.92516  -0.00010   0.00000  -0.00861  -0.00877   1.91639
    A8        1.92223  -0.00051   0.00000   0.00048   0.00051   1.92274
    A9        1.89343   0.00074   0.00000   0.00505   0.00509   1.89852
   A10        1.92107   0.00083   0.00000   0.00225   0.00231   1.92338
   A11        1.93115  -0.00106   0.00000  -0.00212  -0.00209   1.92907
   A12        1.86989   0.00009   0.00000   0.00336   0.00333   1.87321
   A13        1.89418  -0.00269   0.00000  -0.01194  -0.01193   1.88225
   A14        1.93335   0.00048   0.00000   0.00244   0.00259   1.93594
   A15        1.91128   0.00149   0.00000   0.01010   0.01008   1.92136
   A16        1.95482   0.00271   0.00000   0.00818   0.00802   1.96284
   A17        1.93721  -0.00020   0.00000  -0.00001   0.00009   1.93730
   A18        1.83260  -0.00168   0.00000  -0.00811  -0.00813   1.82448
   A19        1.92703   0.00136   0.00000   0.00161   0.00137   1.92840
   A20        1.95066  -0.00037   0.00000  -0.00326  -0.00318   1.94748
   A21        1.94040  -0.00090   0.00000  -0.00302  -0.00301   1.93739
   A22        1.85392  -0.00111   0.00000  -0.00071  -0.00065   1.85327
   A23        1.90738   0.00068   0.00000   0.00490   0.00500   1.91238
   A24        1.88170   0.00034   0.00000   0.00077   0.00074   1.88244
   A25        1.92151  -0.00084   0.00000  -0.00726  -0.00749   1.91402
   A26        1.91787   0.00061   0.00000   0.00149   0.00155   1.91942
   A27        1.93178  -0.00017   0.00000   0.00049   0.00054   1.93233
   A28        1.90292   0.00041   0.00000  -0.00049  -0.00042   1.90249
   A29        1.92544  -0.00003   0.00000   0.00132   0.00138   1.92682
   A30        1.86330   0.00007   0.00000   0.00484   0.00480   1.86810
   A31        1.91812   0.00127   0.00000  -0.00280  -0.00283   1.91529
   A32        1.91893  -0.00060   0.00000  -0.00298  -0.00295   1.91598
   A33        1.89703  -0.00108   0.00000  -0.00758  -0.00758   1.88946
   A34        1.93595   0.00011   0.00000   0.00580   0.00581   1.94175
   A35        1.91576  -0.00016   0.00000   0.00340   0.00337   1.91914
   A36        1.87724   0.00040   0.00000   0.00404   0.00400   1.88123
   A37        1.93139   0.00192   0.00000   0.00900   0.00902   1.94040
   A38        1.94027  -0.00059   0.00000  -0.00587  -0.00592   1.93436
   A39        1.91312  -0.00243   0.00000  -0.01631  -0.01637   1.89675
   A40        1.86630  -0.00090   0.00000   0.00065   0.00066   1.86696
   A41        1.91644   0.00133   0.00000   0.01245   0.01252   1.92896
   A42        1.89550   0.00074   0.00000   0.00070   0.00058   1.89608
   A43        1.93692   0.00193   0.00000   0.00881   0.00881   1.94573
   A44        1.90152   0.00067   0.00000   0.00676   0.00680   1.90832
   A45        1.85567  -0.00122   0.00000  -0.00383  -0.00382   1.85185
   A46        1.93058  -0.00161   0.00000  -0.00957  -0.00960   1.92098
   A47        1.94464  -0.00032   0.00000  -0.00308  -0.00309   1.94155
   A48        1.89223   0.00058   0.00000   0.00127   0.00124   1.89347
   A49        1.97591  -0.00464   0.00000  -0.02773  -0.02765   1.94826
   A50        1.92981  -0.00080   0.00000  -0.00581  -0.00586   1.92395
   A51        1.92791  -0.00041   0.00000  -0.00012  -0.00011   1.92780
   A52        1.91889   0.00077   0.00000   0.00115   0.00115   1.92004
   A53        1.90804   0.00071   0.00000   0.00493   0.00496   1.91300
   A54        1.90356  -0.00024   0.00000  -0.00289  -0.00290   1.90066
   A55        1.87465  -0.00001   0.00000   0.00299   0.00299   1.87764
   A56        2.03503  -0.01037   0.00000  -0.04101  -0.04101   1.99402
   A57        1.91608   0.00021   0.00000  -0.00544  -0.00555   1.91052
   A58        1.90785  -0.00048   0.00000  -0.00905  -0.00902   1.89884
   A59        1.89600  -0.00026   0.00000   0.00352   0.00355   1.89956
   A60        1.92125   0.00005   0.00000   0.00255   0.00245   1.92371
   A61        1.94903   0.00029   0.00000   0.00518   0.00527   1.95430
   A62        1.87271   0.00016   0.00000   0.00313   0.00311   1.87582
   A63        2.00807  -0.00552   0.00000  -0.03442  -0.03453   1.97354
    D1        0.91533  -0.00038   0.00000   0.00476   0.00474   0.92007
    D2        3.05108   0.00020   0.00000   0.00821   0.00820   3.05928
    D3       -1.18154  -0.00029   0.00000   0.00695   0.00694  -1.17460
    D4        3.00893  -0.00024   0.00000   0.00658   0.00658   3.01550
    D5       -1.13851   0.00033   0.00000   0.01003   0.01003  -1.12848
    D6        0.91206  -0.00015   0.00000   0.00877   0.00877   0.92083
    D7       -1.17944  -0.00015   0.00000   0.01010   0.01008  -1.16936
    D8        0.95631   0.00043   0.00000   0.01354   0.01354   0.96985
    D9        3.00687  -0.00006   0.00000   0.01228   0.01228   3.01916
   D10       -0.98754  -0.00125   0.00000  -0.01574  -0.01575  -1.00329
[...]
 030,0.00000011,0.00000013,0.00000557,-0.00000350,-0.00000504,-0.000000
 21,0.00000048,-0.00000028,0.00000033,-0.00000013,-0.00000038,-0.000000
 18,0.00000010,-0.00000032,-0.00000153,0.00000023,-0.00000028,0.0001780
 4,-0.00009129,0.00022959,-0.00014908,0.00005948,0.00034183,0.00010258,
 -0.00007280,0.00026658,0.00023041,-0.00009323,0.00078958,0.06242270,-0
 .00019625,-0.00048529,0.00019087,0.00000006,0.00000005,0.00000007,0.00
 004136,0.00003038,0.00001480,0.00000087,-0.00000019,-0.00000174,0.0000
 0111,0.00000023,-0.00000154,-0.00128751,0.00108698,0.00048333,0.002974
 45,0.00174223,-0.00338149,0.01534387,-0.08224670,0.08655863,-0.0136220
 9,0.00223708,-0.02992961,0.00526266,-0.01185569,0.02869275,-0.00009432
 ,0.00024474,0.00013084,0.00000509,-0.00000057,0.00000655,-0.00000636,0
 .00000610,-0.00000712,-0.00004238,-0.00012152,0.00000934,-0.00000017,0
 .00000004,0.00000002,0.00000007,0.,0.,0.00000886,-0.00000031,0.0000009
 4,-0.00000068,0.00000029,-0.00000106,0.00000006,-0.00000144,0.00000032
 ,-0.00000026,-0.00000023,-0.00000007,0.00000045,0.00000009,0.00000003,
 -0.00023821,0.00002786,-0.00038692,0.00043233,0.00026501,-0.00065421,0
 .00016434,-0.00005257,0.00006493,0.00074327,-0.00001569,0.00104370,-0.
 01340433,0.09295657,0.00022426,-0.00048988,0.00005680,0.00000020,0.000
 00261,0.00000348,0.00027218,0.00001712,0.00025186,0.00003638,-0.000034
 67,-0.00003024,-0.00000402,-0.00001267,0.00001835,-0.00012425,-0.00053
 774,0.00067491,0.00338905,0.00111555,0.00064383,-0.03373164,0.08418518
 ,-0.25472920,-0.01357915,-0.00779166,-0.02288817,0.00163014,0.00053992
 ,0.00129200,-0.00067536,0.00006440,0.00002471,-0.00002759,0.00000840,-
 0.00003418,-0.00011723,0.00008931,-0.00005326,0.00007584,0.00007498,-0
 .00013586,-0.00000369,0.00000213,-0.00000203,-0.00000567,-0.00000082,0
 .00000278,0.00000711,-0.00000879,-0.00001378,-0.00000605,0.00000722,-0
 .00000022,0.00000039,-0.00000297,0.00000417,0.00000006,0.00000039,-0.0
 0000265,-0.00001264,0.00000061,-0.00000312,-0.00009067,0.00005572,0.00
 015486,-0.00054041,-0.00003785,0.00001031,-0.00011577,-0.00029202,0.00
 047761,-0.00128260,-0.00020348,0.00081283,0.04635582,-0.08357555,0.284
 99122,0.00081709,-0.00029951,0.00007431,0.00000034,0.00000386,0.000004
 71,0.00036199,-0.00001502,0.00027978,0.00005264,-0.00004406,-0.0000384
 6,-0.00000462,-0.00001534,0.00002413,0.00013837,0.00305179,-0.00050466
 ,0.00118575,-0.00150890,-0.00382392,-0.24732695,-0.01691489,0.11433076
 ,-0.02201226,-0.00886623,0.00641828,-0.01176526,-0.00023396,0.00810561
 ,-0.00062176,0.00002499,0.00003764,-0.00003327,0.00001735,-0.00004105,
 -0.00015883,0.00012236,-0.00006305,-0.00004029,-0.00000252,-0.00001638
 ,-0.00000542,0.00000245,-0.00000300,-0.00000734,-0.00000095,0.00000341
 ,0.00000749,-0.00000005,-0.00000366,-0.00000950,0.00001086,0.00000021,
 0.00000088,-0.00000330,0.00000413,0.00000024,0.00000018,-0.00000383,-0
 .00001656,0.00000091,-0.00000374,-0.00078161,-0.00023198,0.00037370,0.
 00004112,-0.00008151,0.00011752,-0.00100081,-0.00014469,0.00043163,0.0
 0002806,-0.00001522,0.00027110,0.00662982,0.00079973,-0.00184342,0.273
 94979,-0.00043129,-0.00123203,-0.00025377,0.00000055,0.00000020,0.0000
 0037,0.00003822,0.00004480,-0.00002150,-0.00000154,0.00000338,-0.00000
 622,0.00000443,0.00000194,-0.00000339,0.00191052,-0.00577894,0.0008738
 5,-0.00099754,-0.00248552,-0.00376954,-0.01178643,-0.04970093,0.009035
 21,-0.02901258,-0.00785273,0.01077690,0.02666535,0.00414798,-0.0153626
 6,-0.00009384,0.00051922,0.00018676,0.00001549,0.00000050,0.00001769,-
 0.00001260,0.00001765,-0.00000435,0.00003132,0.00009957,0.00003879,0.0
 0000022,0.00000032,0.00000008,-0.00000023,-0.00000005,0.00000019,0.000
 04593,0.00000465,0.00003005,-0.00000190,0.00000018,0.00000071,-0.00000
 334,-0.00000115,0.00000160,0.00000011,-0.00000010,0.,0.00000143,-0.000
 00031,0.00000052,0.00189371,0.00026502,-0.00060640,-0.00021257,0.00002
 080,-0.00008630,-0.00146405,-0.00009332,0.00029265,0.00022859,0.000032
 18,-0.00004972,-0.00952574,-0.00002240,0.00639804,0.02452437,0.0598924
 1,-0.00010490,-0.00051360,-0.00014913,0.00000042,0.00000009,0.00000010
 ,0.00002143,0.00001509,0.00000914,0.00000332,0.00000002,-0.00000312,0.
 00000169,-0.00000021,-0.00000181,-0.00013481,-0.00085382,0.00101338,-0
 .00167848,-0.00173142,-0.00147984,0.12422959,0.01403037,-0.12377595,-0
 .02125660,-0.00517998,0.00975968,-0.00090654,0.00133145,-0.00006039,-0
 .00008288,0.00025176,0.00012746,0.00000462,-0.00000025,0.00000590,-0.0
 0001240,0.00001195,-0.00000965,0.00000050,0.00000645,0.00000891,0.,0.0
 0000010,-0.00000006,-0.00000015,0.00000009,0.,0.00001564,-0.00000082,0
 .00001139,-0.00000123,0.00000068,-0.00000051,0.00000008,-0.00000054,0.
 00000091,0.00000005,0.00000029,-0.00000026,0.00000015,-0.00000003,0.00
 000011,0.00039513,0.00011073,0.00015981,-0.00038521,-0.00003725,0.0003
 1712,-0.00062710,-0.00024426,0.00048924,-0.00019937,-0.00021575,0.0004
 7566,0.02470476,0.00170111,-0.01292545,-0.12386096,-0.00792944,0.12531
 461,-0.00270941,0.00240487,0.00457505,0.00000547,0.00000562,0.00000965
 ,0.00065822,-0.00037459,0.00114320,0.00010999,-0.00010686,-0.00007962,
 -0.00003729,-0.00006622,0.00009797,-0.01665909,-0.02097705,-0.01675556
 ,-0.00112675,0.00048361,0.00039180,0.00973731,0.00806959,0.00914959,0.
 00032895,0.00538259,0.00090092,-0.12405067,-0.09328446,-0.07818238,-0.
 00268776,-0.00211419,-0.00102696,-0.00020213,0.00004603,-0.00024461,-0
 .00028558,0.00031201,-0.00017654,0.00011865,0.00026094,0.00001227,-0.0
 0001171,0.00000874,-0.00000686,-0.00001668,-0.00000102,0.00000822,-0.0
 0005769,-0.00003585,-0.00009085,-0.00001797,0.00002411,0.00000060,-0.0
 0000069,-0.00000505,0.00001066,0.00000118,0.00000098,-0.00000925,-0.00
 005605,0.00000728,-0.00001633,0.00100939,0.00066817,-0.00057045,0.0014
 2482,0.00021195,0.00011939,0.00021066,-0.00010084,-0.00013410,0.000199
 53,-0.00003448,-0.00001711,0.00051272,-0.00066710,-0.00035558,0.000171
 62,-0.00108394,0.00014204,0.13556091,0.00040636,0.00134636,0.00071293,
 0.00000110,0.00000255,0.00000255,0.00023743,-0.00005568,0.00024813,0.0
 0003547,-0.00002944,-0.00002575,-0.00000389,-0.00001378,0.00002191,-0.
 00156642,-0.00196832,-0.00046112,0.00187350,0.00085828,-0.00072942,-0.
 01854733,-0.01448857,-0.01509950,0.00174419,-0.00848167,-0.00135658,-0
 .09249699,-0.16257941,-0.09253500,-0.00044741,-0.00001605,-0.00028720,
 -0.00002692,0.00001346,-0.00004468,-0.00009732,0.00008501,-0.00004370,
 -0.00006761,-0.00012772,-0.00019312,-0.00000373,0.00000174,-0.00000193
 ,-0.00000511,-0.00000055,0.00000235,-0.00000037,-0.00000350,-0.0000141
 9,-0.00000611,0.00000735,0.00000039,-0.00000037,-0.00000172,0.00000296
 ,0.00000072,0.00000013,-0.00000265,-0.00001259,0.00000131,-0.00000394,
 -0.00019424,0.00033800,0.00036310,-0.00000335,0.00003811,-0.00000526,-
 0.00022781,-0.00003210,0.00006083,-0.00018204,-0.00003214,0.00016497,-
 0.00022217,0.00093321,0.00083402,0.00035385,0.00086302,-0.00016381,0.1
 0241456,0.17474912,0.00219313,-0.00058418,-0.00126364,-0.00000215,0.00
 000101,-0.00000100,-0.00000311,0.00016649,-0.00031069,-0.00001950,0.00
 001475,0.00001288,0.00001619,0.00001674,-0.00002843,0.00908692,0.01197
 800,0.00805904,0.00040398,0.00008405,-0.00035593,-0.00047155,0.0011623
 2,-0.00213487,0.00011638,-0.00114146,0.00147144,-0.07875792,-0.0946670
 1,-0.12455292,0.00097774,0.00058681,0.00056450,0.00006770,-0.00001099,
 0.00007301,0.00003251,-0.00006608,0.00003626,0.00012646,0.00017813,0.0
 0033091,0.00000222,-0.00000208,0.00000118,0.00000242,-0.00000024,-0.00
 000151,0.00000182,0.00000837,0.00001922,0.00000330,-0.00000480,-0.0000
 0027,0.00000081,0.00000093,-0.00000134,-0.00000074,-0.00000003,0.00000
 157,0.00001554,-0.00000239,0.00000472,-0.00081190,-0.00030761,0.000265
 38,-0.00078550,0.00007367,0.00073494,-0.00005576,-0.00000481,-0.000007
 09,-0.00013555,-0.00003139,0.00002947,0.00028804,-0.00032679,0.0002113
 0,0.00012945,-0.00000014,0.00003319,0.08270493,0.10263157,0.13195524,0
 .00139648,0.00030456,0.00115146,0.00000005,0.00000091,-0.00000086,0.00
 005229,-0.00000507,-0.00002555,0.00000499,-0.00000305,-0.00000202,0.00
 000121,-0.00000016,0.00000252,0.00207385,-0.01126169,0.02998484,-0.000
 53232,-0.00009902,0.00028295,-0.00411218,0.00664264,-0.01813521,0.0011
 1168,-0.00135356,0.00116520,-0.05044157,0.00856237,-0.02447028,-0.0002
 2613,0.00018479,-0.00041559,0.00001138,0.00000009,-0.00000100,-0.00001
 883,0.00002846,-0.00002759,-0.00021843,-0.00009424,-0.00044032,-0.0000
 0090,-0.00000006,-0.00000027,-0.00000027,-0.00000013,0.00000030,-0.000
 01957,-0.00001007,-0.00002040,-0.00000181,0.00000166,-0.00000009,0.000
 00094,-0.00000150,-0.00000013,0.00000032,-0.00000003,-0.00000024,-0.00
 000187,0.00000035,-0.00000008,0.00132681,0.00051925,-0.00062076,-0.005
 29636,-0.00134703,0.00223243,0.00009873,-0.00006368,-0.00001455,-0.000
 13458,0.00003659,-0.00014210,-0.00061105,0.00378255,0.00052806,0.00040
 510,-0.00072873,-0.00026613,-0.00213722,0.00704667,-0.01512256,0.05727
 046,0.00018300,-0.00013520,0.00080667,0.00000113,-0.00000104,-0.000001
 31,-0.00004811,-0.00003126,-0.00002455,-0.00000513,0.00001006,0.000006
 91,-0.00000003,0.00000072,-0.00000079,0.00044920,-0.00169197,0.0025026
 5,-0.00009249,-0.00018244,0.00000293,0.00512389,-0.01346984,0.02920183
 ,-0.00063964,0.00321660,-0.00049654,0.00718099,-0.08191955,0.08535303,
 -0.00006496,0.00007547,-0.00016301,0.00000469,-0.00000207,0.00000042,0
 .00002300,-0.00000799,-0.00000178,-0.00026589,-0.00011497,-0.00001780,
 0.00000024,-0.00000028,0.00000033,0.00000139,0.00000048,-0.00000056,-0
 .00000350,-0.00000455,-0.00000163,0.00000061,-0.00000084,0.00000015,-0
 .00000012,0.00000003,-0.00000177,0.00000006,-0.00000019,0.00000018,0.0
 0000109,0.00000024,-0.00000010,-0.00023247,0.00034555,-0.00034497,-0.0
 0030008,0.00082002,0.00018655,-0.00002034,-0.00000451,-0.00002168,0.00
 009294,0.00010272,-0.00003400,0.00272359,-0.00472721,-0.00040328,-0.00
 052771,0.00125684,-0.00058581,-0.00144467,0.00859616,-0.01975254,-0.01
 214260,0.08786812,-0.00091823,-0.00051520,-0.00010298,-0.00000026,-0.0
 0000153,-0.00000149,-0.00013427,0.00009456,-0.00015892,-0.00002057,0.0
 0001855,0.00001367,0.00000512,0.00000865,-0.00001556,-0.00020107,0.004
 38973,-0.01330635,-0.00010258,-0.00003307,0.00014835,-0.00049928,-0.00
 175308,0.00089304,0.00122195,0.00076586,0.00129695,-0.02510909,0.08718
 864,-0.27383975,0.00036906,-0.00007134,0.00043438,0.00002322,-0.000007
 38,0.00002793,0.00005989,-0.00006632,0.00003226,0.00025194,0.00044054,
 0.00045728,0.00000266,-0.00000131,0.00000151,0.00000279,0.00000047,-0.
 00000159,0.00001702,0.00000770,0.00001679,0.00000452,-0.00000560,0.000
 00080,-0.00000166,0.00000220,-0.00000145,-0.00000054,0.00000016,0.0000
 0189,0.00000907,-0.00000118,0.00000257,0.00000523,-0.00031637,0.000457
 50,0.00278154,0.00033016,0.00020580,-0.00000793,0.00008788,-0.00000233
 ,-0.00005088,-0.00008586,-0.00016161,-0.00007469,-0.00063033,0.0011900
 8,-0.00039775,0.00043900,0.00068030,-0.00159378,0.00592224,-0.01514593
 ,0.02435585,-0.09621013,0.29687718,0.00007044,-0.00000252,0.00020940,0
 .00146201,-0.00117859,0.00032892,-0.00304236,0.01372250,0.02350703,0.0
 0044968,0.00054768,0.00032757,-0.00220634,-0.01343206,-0.02947720,0.00
 004709,0.00000513,-0.00015042,0.00004637,0.00009467,0.00001977,-0.0000
 1388,0.00000684,0.00000814,0.00002263,-0.00005509,-0.00004589,0.000024
 33,0.00003041,0.00002360,0.00173672,0.00068390,0.00031810,-0.04600212,
 -0.00479183,-0.00971177,0.00024408,-0.00131400,-0.00044243,0.00001233,
 0.00003358,-0.00018020,0.00009058,-0.00020242,0.00026740,-0.00001700,0
 .00015206,0.00035481,-0.00325079,-0.00232512,0.00197769,0.00000310,-0.
 00005363,0.00001761,0.00033202,0.00004178,-0.00030139,-0.00537817,0.00
 157900,-0.00269336,0.00117434,-0.00040056,0.00089479,0.00000067,-0.000
 00397,0.00000134,-0.00002557,-0.00003061,-0.00001338,0.00004801,-0.000
 07320,-0.00001082,-0.00001982,-0.00000104,-0.00001663,-0.00000116,-0.0
 0000048,0.00000038,-0.00000158,-0.00000416,-0.00000273,0.00001360,0.00
 000154,-0.00000336,0.00000086,0.00000143,0.00000011,0.05455058,-0.0000
 4274,0.00009589,0.00031001,-0.00051085,0.00059648,0.00079548,0.0004730
 6,0.00550357,0.01136349,-0.00001783,-0.00071660,0.00071537,0.00016937,
 0.00239115,0.00613728,0.00006951,0.00000286,-0.00011115,-0.00003922,0.
 00001989,0.00002310,-0.00001251,0.00000546,-0.00000455,0.00002365,-0.0
 0001906,-0.00002072,0.00001508,0.00002578,0.00003026,0.00117213,0.0004
 4248,0.00018036,-0.00423170,-0.10043525,-0.10428536,-0.00030266,-0.000
 62614,-0.00055099,-0.00003672,-0.00000752,-0.00003729,-0.00006008,0.00
 008727,-0.00015885,-0.00004782,0.00022835,-0.00047546,-0.00124497,0.00
 019398,0.00063666,0.00005092,0.00013870,0.00006900,0.00005713,-0.00107
 263,0.00066883,0.00117486,0.00066679,0.00110176,-0.00037377,0.00001812
 ,-0.00030710,0.00000192,-0.00000333,0.00000022,-0.00000771,-0.00001423
 ,-0.00000206,-0.00000176,-0.00002569,-0.00000348,0.00000016,0.00000219
 ,-0.00000169,-0.00000004,-0.00000069,0.00000229,0.00000120,-0.00000271
 ,-0.00000171,0.00001519,0.00000264,-0.00000471,0.00000016,0.00000024,-
 0.00000110,0.00505727,0.10555368,-0.00005997,0.00025003,0.00037497,-0.
 00020699,-0.00034411,0.00060337,0.00030515,-0.01155816,-0.01956820,0.0
 0017384,-0.00096743,-0.00092661,-0.00204183,-0.00493594,-0.01217575,0.
 00004002,0.00000017,0.00002478,-0.00010061,-0.00017203,0.00005789,0.00
 001838,0.00000483,0.00000534,-0.00007566,0.00007522,0.00002197,0.00000
 335,-0.00000540,-0.00001480,-0.00276049,-0.00015372,0.00167726,-0.0060
 5921,-0.10184411,-0.25895046,0.00041004,0.00199577,0.00020899,-0.00022
 161,-0.00009577,0.00009622,0.00010340,0.00002611,0.00017711,-0.0002524
 6,0.00046052,-0.00031098,0.00210325,0.00181894,-0.00101176,0.00003269,
 0.00013701,0.00040862,0.00032305,0.00054248,0.00047911,-0.00241562,0.0
 0045009,0.00019616,-0.00013641,0.00012571,0.00055700,0.00000039,-0.000
 00232,-0.00000810,0.00001003,0.00000362,-0.00000657,-0.00002862,0.0000
 6032,0.00001708,0.00001586,0.00001183,0.00000488,-0.00000139,-0.000001
 16,-0.00000243,-0.00000157,0.00000174,0.00000002,-0.00000685,0.0000001
 7,-0.00000101,0.00000189,0.00000062,-0.00000027,0.01027650,0.11251203,
 0.28331608,-0.00017125,0.00060229,-0.00021101,-0.00520095,-0.00017915,
 -0.00395809,0.00488725,-0.02403087,0.00078837,-0.00169396,0.00010567,0
 .00038460,-0.00356219,0.03074203,-0.00154945,0.00002646,0.00001300,0.0
 0001285,-0.00004391,-0.00017806,0.00002643,0.00002434,0.00001226,0.000
 01389,-0.00010966,0.00006004,0.00003077,0.00000794,-0.00000935,-0.0000
 0400,-0.00072611,0.00053313,0.00029104,-0.05355904,0.04103206,-0.00503
 107,-0.00154387,-0.00374709,0.00387869,0.00004937,-0.00001400,0.000029
 59,-0.00039126,0.00190225,-0.00017214,-0.00005226,0.00019188,0.0001659
 7,0.00098773,0.00018537,-0.00018005,0.00018539,-0.00000698,-0.00003886
 ,0.00017738,-0.00012632,0.00011402,0.00125503,-0.00065986,0.00008733,0
 .00117626,-0.00039417,0.00093004,0.00000163,-0.00000663,-0.00000648,-0
 .00000024,-0.00000155,-0.00000102,0.00002252,0.00002827,0.00001790,-0.
 00000126,0.00000390,-0.00001397,-0.00000089,-0.00000097,-0.00000412,-0
 .00000425,0.00000022,0.00000007,-0.00000632,-0.00000360,0.00000006,-0.
 00000209,0.00000048,0.00000262,-0.00037066,-0.00135124,0.00055144,0.05
 863886,-0.00003223,0.00024326,-0.00015402,0.00040237,0.00118406,0.0007
 4932,0.00493335,-0.01095885,-0.00081053,-0.00024439,0.00087580,0.00002
 592,0.00018110,-0.00224670,-0.00010322,-0.00005602,0.00001810,0.000054
 83,-0.00003972,-0.00010953,0.00005744,0.00002504,0.00001184,0.00002746
 ,-0.00010502,0.00003773,0.00000526,0.00000121,-0.00002627,-0.00003458,
 -0.00133059,0.00029881,0.00027761,0.03973933,-0.31085993,0.03278624,-0
 .00139402,-0.00068972,0.00147508,0.00000385,-0.00000529,-0.00000703,0.
 00001612,-0.00038355,-0.00004922,0.00004504,0.00005974,-0.00007125,-0.
 00005675,0.00123736,-0.00002467,0.00002249,-0.00005087,0.00012912,0.00
 012096,0.00013388,0.00007642,0.00021545,0.00023393,0.00030583,0.000406
 03,0.00034744,-0.00004479,0.00000497,-0.00000436,-0.00000320,-0.000001
 12,-0.00000081,-0.00000783,-0.00002387,-0.00002019,0.00000241,-0.00001
 218,0.00000485,-0.00001218,-0.00000154,-0.00000037,-0.00000651,-0.0000
 0803,-0.00000045,-0.00000150,-0.00001989,-0.00000580,0.00000437,-0.000
 00041,0.00000066,0.00000347,0.00191148,-0.01305164,0.00160291,-0.04470
 304,0.33372689,0.00006854,0.00000665,0.00005949,-0.00225684,-0.0001920
 4,-0.00035690,-0.00424432,0.01918533,-0.00378589,0.00051676,-0.0014549
 8,-0.00082114,-0.00145127,0.01351553,-0.00200985,0.00001688,0.00000587
 ,-0.00000594,0.00001234,-0.00000508,0.00004042,-0.00000111,0.00000365,
 0.00000364,-0.00002078,-0.00000371,-0.00000718,-0.00000141,0.00000547,
 -0.00000139,0.00003297,-0.00036058,-0.00002299,-0.00425573,0.02937408,
 -0.05096103,0.00301075,0.00402317,-0.00319573,-0.00003395,0.00001590,0
 .00000931,-0.00012417,0.00061445,0.00012849,-0.00020942,0.00030036,-0.
 00007970,-0.00069401,0.00002674,0.00040517,-0.00001216,0.00011108,0.00
 023709,0.00014814,0.00013836,0.00036948,0.00072966,0.00001817,0.000301
 46,0.00039848,-0.00047814,0.00045350,-0.00000004,-0.00000107,-0.000001
 36,-0.00000190,-0.00000235,-0.00000080,0.00001177,-0.00001069,0.000000
 33,0.00000078,-0.00000148,-0.00000556,-0.00000079,-0.00000064,-0.00000
 049,-0.00000092,-0.00000071,-0.00000079,0.00000053,-0.00000028,0.00000
 036,0.00000023,-0.00000003,-0.00000005,0.00451643,-0.02857991,0.004750
 10,0.00384457,-0.03625315,0.05449798\\0.00006804,-0.00007046,0.0001088
 3,-0.00000164,-0.00000059,0.00000220,-0.00002766,0.00015557,-0.0000135
 4,0.00000257,0.00000344,0.00000279,0.00000236,0.00000227,-0.00000430,-
 0.00006124,0.00009232,-0.00007501,-0.00000137,-0.00000155,-0.00000695,
 -0.00000391,-0.00000262,-0.00000622,0.00000411,0.00000456,-0.00000129,
 0.00000315,0.00000265,0.00000062,0.00001907,-0.00016819,-0.00002123,-0
 .00000489,-0.00000058,0.00000351,0.00000415,-0.00001545,0.00000420,0.0
 0000056,0.00000074,-0.00000315,0.00000067,0.00000039,0.00000082,-0.000
 00237,-0.00000223,0.00000111,0.00000342,0.00000045,-0.00000501,-0.0000
 0104,0.00000125,0.00000398,-0.00000204,-0.00000223,0.00000429,-0.00000
 001,0.00000010,0.00000009,0.00000052,-0.00000241,0.00000137,-0.0000001
 5,0.00000034,0.00000161,-0.00000133,-0.00000251,0.00000109,-0.00000114
 ,0.00000050,-0.00000236,-0.00000188,0.00000089,-0.00000096,0.00000155,
 0.00000222,0.00000151,0.00000141,0.00000375,0.00000020,-0.00000030,0.0
 0000143,0.00000493,0.00000117,0.00000162,0.00000317,0.00000021,-0.0000
 0333,-0.00000001,-0.00000196,-0.00000233,-0.00000629\\\@


 NOBODY LOSES ALL THE TIME
 I HAD AN UNCLE NAMED
 SOL WHO WAS A BORN FAILURE AND
 NEARLY EVERYBODY SAID HE SHOULD HAVE GONE
 INTO VAUDEVILLE PERHAPS BECAUSE MY UNCLE SOL COULD
 SING MCCANN HE WAS A DIVER ON XMAS EVE LIKE HELL ITSELF WHICH
 MAY OR MAY NOT ACCOUNT FOR THE FACT THAT MY UNCLE
 SOL INDULGED IN THAT POSSIBLY MOST INEXCUSABLE
 OF ALL TO USE A HIGHFALOOTIN PHRASE
 LUXURIES THAT IS OR TO
 WIT FARMING AND BE
 IT NEEDLESSLY
 ADDED
 MY UNCLE SOL'S FARM     
 FAILED BECAUSE THE CHICKENS
 ATE THE VEGETABLES SO
 MY UNCLE SOL HAD A
 CHICKEN FARM TILL THE
 SKUNKS ATE THE CHICKENS WHEN 
 MY UNCLE SOL
 HAD A SKUNK FARM BUT
 THE SKUNKS CAUGHT COLD AND
 DIED AND SO
 MY UNCLE SOL IMITATED THE
 SKUNKS IN A SUBTLE MANNER
 OR BY DROWNING HIMSELF IN THE WATERTANK
 BUT SOMEBODY WHO'D GIVEN MY UNCLE SOL A VICTOR     
 VICTROLA AND RECORDS WHILE HE LIVED PRESENTED TO
 HIM UPON THE AUSPICIOUS OCCASION OF HIS DECEASE A
 SCRUMPTIOUS NOT TO MENTION SPLENDIFEROUS FUNERAL WITH
 TALL BOYS IN BLACK GLOVES AND FLOWERS AND EVERYTHING AND
 I REMEMBER WE ALL CRIED LIKE THE MISSOURI
 WHEN MY UNCLE SOL'S COFFIN LURCHED BECAUSE     
 SOMEBODY PRESSED A BUTTON
 (AND DOWN WENT
 MY UNCLE
 SOL
 AND STARTED A WORM FARM)
           E. E. CUMMINGS
 Job cpu time:       0 days 13 hours 29 minutes 43.3 seconds.
 Elapsed time:       0 days  0 hours 50 minutes 37.7 seconds.
 File lengths (MBytes):  RWF=    690 Int=      0 D2E=      0 Chk=     33 Scr=      1
 Normal termination of Gaussian 16 at Mon Nov  5 01:08:51 2018.
