 Entering Gaussian System, Link 0=g16
 Initial command:
 /apps/gaussian/g16a03/g16/l1.exe "/jobfs/local/2011851.r-man2/Gau-20380.inp" -scrdir="/jobfs/local/2011851.r-man2/"
 Entering Link 1 = /apps/gaussian/g16a03/g16/l1.exe PID=     20381.
  
 Copyright (c) 1988,1990,1992,1993,1995,1998,2003,2009,2016,
            Gaussian, Inc.  All Rights Reserved.
  
 This is part of the Gaussian(R) 16 program.  It is based on
 the Gaussian(R) 09 system (copyright 2009, Gaussian, Inc.),
 the Gaussian(R) 03 system (copyright 2003, Gaussian, Inc.),
 the Gaussian(R) 98 system (copyright 1998, Gaussian, Inc.),
 the Gaussian(R) 94 system (copyright 1995, Gaussian, Inc.),
 the Gaussian 92(TM) system (copyright 1992, Gaussian, Inc.),
 the Gaussian 90(TM) system (copyright 1990, Gaussian, Inc.),
 the Gaussian 88(TM) system (copyright 1988, Gaussian, Inc.),
 the Gaussian 86(TM) system (copyright 1986, Carnegie Mellon
 University), and the Gaussian 82(TM) system (copyright 1983,
 Carnegie Mellon University). Gaussian is a federally registered
 trademark of Gaussian, Inc.
  
 This software contains proprietary and confidential information,
 including trade secrets, belonging to Gaussian, Inc.
  
 This software is provided under written license and may be
 used, copied, transmitted, or stored only in accord with that
 written license.
  
 The following legend is applicable only to US Government
 contracts under FAR:
  
                    RESTRICTED RIGHTS LEGEND
  
 Use, reproduction and disclosure by the US Government is
 subject to restrictions as set forth in subparagraphs (a)
 and (c) of the Commercial Computer Software - Restricted
 Rights clause in FAR 52.227-19.
  
 Gaussian, Inc.
 340 Quinnipiac St., Bldg. 40, Wallingford CT 06492
  
  
 ---------------------------------------------------------------
 Warning -- This program may not be used in any manner that
 competes with the business of Gaussian, Inc. or will provide
 assistance to any competitor of Gaussian, Inc.  The licensee
 of this program is prohibited from giving any competitor of
 Gaussian, Inc. access to this program.  By using this program,
 the user acknowledges that Gaussian, Inc. is engaged in the
 business of creating and licensing software in the field of
 computational chemistry and represents and warrants to the
 licensee that it is not a competitor of Gaussian, Inc. and that
 it will not use this program in any manner prohibited above.
 ---------------------------------------------------------------
  

 Cite this work as:
 Gaussian 16, Revision A.03,
 M. J. Frisch, G. W. Trucks, H. B. Schlegel, G. E. Scuseria, 
 M. A. Robb, J. R. Cheeseman, G. Scalmani, V. Barone, 
 G. A. Petersson, H. Nakatsuji, X. Li, M. Caricato, A. V. Marenich, 
 J. Bloino, B. G. Janesko, R. Gomperts, B. Mennucci, H. P. Hratchian, 
 J. V. Ortiz, A. F. Izmaylov, J. L. Sonnenberg, D. Williams-Young, 
 F. Ding, F. Lipparini, F. Egidi, J. Goings, B. Peng, A. Petrone, 
 T. Henderson, D. Ranasinghe, V. G. Zakrzewski, J. Gao, N. Rega, 
 G. Zheng, W. Liang, M. Hada, M. Ehara, K. Toyota, R. Fukuda, 
 J. Hasegawa, M. Ishida, T. Nakajima, Y. Honda, O. Kitao, H. Nakai, 
 T. Vreven, K. Throssell, J. A. Montgomery, Jr., J. E. Peralta, 
 F. Ogliaro, M. J. Bearpark, J. J. Heyd, E. N. Brothers, K. N. Kudin, 
 V. N. Staroverov, T. A. Keith, R. Kobayashi, J. Normand, 
 K. Raghavachari, A. P. Rendell, J. C. Burant, S. S. Iyengar, 
 J. Tomasi, M. Cossi, J. M. Millam, M. Klene, C. Adamo, R. Cammi, 
 J. W. Ochterski, R. L. Martin, K. Morokuma, O. Farkas, 
 J. B. Foresman, and D. J. Fox, Gaussian, Inc., Wallingford CT, 2016.
 
 ******************************************
 Gaussian 16:  ES64L-G16RevA.03 25-Dec-2016
                 4-Nov-2018 
 ******************************************
 %mem=6000mb
 %nproc=24
 Will use up to   24 processors via shared memory.
 %chk=2SO_1_e4_D_PSI.inp_extract_14.chk
 ----------------------------------------------------------------------
 #M062X/6-311++G(2d,2p) opt=ModRedundant freq=noraman SCRF=(Solvent=Wat
 er)
 ----------------------------------------------------------------------
 1/18=120,19=15,26=3,38=1/1,3;
 2/9=110,12=2,17=6,18=5,40=1/2;
 3/5=4,6=6,7=1212,11=2,25=1,30=1,70=2201,71=1,72=1,74=-55/1,2,3;
 4//1;
 5/5=2,38=5,53=1/2;
 6/7=2,8=2,9=2,10=2,28=1/1;
 7//1,2,3,16;
 1/18=20,19=15,26=3/3(2);
 2/9=110/2;
 99//99;
 2/9=110/2;
 3/5=4,6=6,7=1212,11=2,25=1,30=1,70=2205,71=1,72=1,74=-55/1,2,3;
 4/5=5,16=3,69=1/1;
 5/5=2,38=5,53=1/2;
 7//1,2,3,16;
 1/18=20,19=15,26=3/3(-5);
 2/9=110/2;
 6/7=2,8=2,9=2,10=2,19=2,28=1/1;
 99/9=1/99;
 -----------------------------
 2SO_1_e4_D_PSI.inp_extract_14
 -----------------------------
 Symbolic Z-matrix:
 Charge =  0 Multiplicity = 1
 C                     1.24524   0.50547  -0.66313 
 C                    -3.65699  -0.845     0.4316 
 C                    -1.14251   0.65986  -0.03141 
 C                    -2.23926  -1.41735   0.37965 
 C                    -3.63707   0.65801   0.0985 
 C                     1.61237   0.97183   0.7435 
 C                     1.82684  -0.88045  -0.92328 
 C                     3.62297  -0.52685   0.5632 
 O                     3.22632  -0.88412  -0.74812 
 C                     3.13216   0.86762   0.91431 
 O                    -0.14174   0.43851  -0.98085 
 C                    -2.43124   0.98366  -0.78038 
 O                    -1.2985   -0.45006   0.81719 
 H                     1.67871   1.19629  -1.37758 
 H                    -4.08793  -1.0032    1.41499 
 H                    -4.27425  -1.38697  -0.27918 
 H                    -0.86837   1.47585   0.61689 
 H                    -2.12633  -2.26735   1.03745 
 H                    -1.98321  -1.73894  -0.62358 
 H                    -3.57629   1.23911   1.01445 
 H                    -4.55526   0.95251  -0.39804 
 H                     1.2927    1.99518   0.90714 
 H                     1.12508   0.34873   1.48606 
 H                     1.63736  -1.18282  -1.94403 
 H                     1.36927  -1.60555  -0.25454 
 H                     3.22991  -1.25961   1.26439 
 H                     4.70281  -0.58169   0.58118 
 H                     3.40688   1.09805   1.93911 
 H                     3.62923   1.5915    0.27375 
 H                    -2.4712    0.40309  -1.69699 
 H                    -2.4128    2.03039  -1.06272 
 
 The following ModRedundant input section has been read:
 D       6       1      11       3 F                                           
 

 GradGradGradGradGradGradGradGradGradGradGradGradGradGradGradGradGradGrad
 Berny optimization.
 Initialization pass.
                           ----------------------------
                           !    Initial Parameters    !
                           ! (Angstroms and Degrees)  !
 --------------------------                            --------------------------
 ! Name  Definition              Value          Derivative Info.                !
 --------------------------------------------------------------------------------
 ! R1    R(1,6)                  1.5267         estimate D2E/DX2                !
 ! R2    R(1,7)                  1.5254         estimate D2E/DX2                !
 ! R3    R(1,11)                 1.4245         estimate D2E/DX2                !
 ! R4    R(1,14)                 1.0842         estimate D2E/DX2                !
 ! R5    R(2,4)                  1.5298         estimate D2E/DX2                !
 ! R6    R(2,5)                  1.5396         estimate D2E/DX2                !
 ! R7    R(2,15)                 1.0853         estimate D2E/DX2                !
 ! R8    R(2,16)                 1.0862         estimate D2E/DX2                !
 ! R9    R(3,11)                 1.3971         estimate D2E/DX2                !
 ! R10   R(3,12)                 1.5253         estimate D2E/DX2                !
 ! R11   R(3,13)                 1.4058         estimate D2E/DX2                !
 ! R12   R(3,17)                 1.0776         estimate D2E/DX2                !
 ! R13   R(4,13)                 1.4185         estimate D2E/DX2                !
 ! R14   R(4,18)                 1.0807         estimate D2E/DX2                !
 ! R15   R(4,19)                 1.0842         estimate D2E/DX2                !
 ! R16   R(5,12)                 1.5273         estimate D2E/DX2                !
 ! R17   R(5,20)                 1.0864         estimate D2E/DX2                !
 ! R18   R(5,21)                 1.0846         estimate D2E/DX2                !
 ! R19   R(6,10)                 1.5329         estimate D2E/DX2                !
 ! R20   R(6,22)                 1.0845         estimate D2E/DX2                !
 ! R21   R(6,23)                 1.0849         estimate D2E/DX2                !
 ! R22   R(7,9)                  1.4104         estimate D2E/DX2                !
 ! R23   R(7,24)                 1.0813         estimate D2E/DX2                !
 ! R24   R(7,25)                 1.0874         estimate D2E/DX2                !
 ! R25   R(8,9)                  1.4158         estimate D2E/DX2                !
 ! R26   R(8,10)                 1.5195         estimate D2E/DX2                !
 ! R27   R(8,26)                 1.0877         estimate D2E/DX2                !
 ! R28   R(8,27)                 1.0814         estimate D2E/DX2                !
 ! R29   R(10,28)                1.0857         estimate D2E/DX2                !
 ! R30   R(10,29)                1.0869         estimate D2E/DX2                !
 ! R31   R(12,30)                1.0857         estimate D2E/DX2                !
 ! R32   R(12,31)                1.0843         estimate D2E/DX2                !
 ! A1    A(6,1,7)              110.0591         estimate D2E/DX2                !
 ! A2    A(6,1,11)             117.0            estimate D2E/DX2                !
 ! A3    A(6,1,14)             108.4422         estimate D2E/DX2                !
 ! A4    A(7,1,11)             106.8879         estimate D2E/DX2                !
 ! A5    A(7,1,14)             108.306          estimate D2E/DX2                !
 ! A6    A(11,1,14)            105.7978         estimate D2E/DX2                !
 ! A7    A(4,2,5)              110.2367         estimate D2E/DX2                !
 ! A8    A(4,2,15)             110.1351         estimate D2E/DX2                !
 ! A9    A(4,2,16)             108.526          estimate D2E/DX2                !
 ! A10   A(5,2,15)             110.0895         estimate D2E/DX2                !
 ! A11   A(5,2,16)             110.6624         estimate D2E/DX2                !
 ! A12   A(15,2,16)            107.1303         estimate D2E/DX2                !
 ! A13   A(11,3,12)            107.7672         estimate D2E/DX2                !
 ! A14   A(11,3,13)            111.3828         estimate D2E/DX2                !
 ! A15   A(11,3,17)            110.2771         estimate D2E/DX2                !
 ! A16   A(12,3,13)            111.7313         estimate D2E/DX2                !
 ! A17   A(12,3,17)            110.462          estimate D2E/DX2                !
 ! A18   A(13,3,17)            105.2428         estimate D2E/DX2                !
 ! A19   A(2,4,13)             110.4283         estimate D2E/DX2                !
 ! A20   A(2,4,18)             111.742          estimate D2E/DX2                !
 ! A21   A(2,4,19)             111.1783         estimate D2E/DX2                !
 ! A22   A(13,4,18)            106.2175         estimate D2E/DX2                !
 ! A23   A(13,4,19)            109.3337         estimate D2E/DX2                !
 ! A24   A(18,4,19)            107.7725         estimate D2E/DX2                !
 ! A25   A(2,5,12)             110.0521         estimate D2E/DX2                !
 ! A26   A(2,5,20)             109.9062         estimate D2E/DX2                !
 ! A27   A(2,5,21)             110.6812         estimate D2E/DX2                !
 ! A28   A(12,5,20)            109.0833         estimate D2E/DX2                !
 ! A29   A(12,5,21)            110.3069         estimate D2E/DX2                !
 ! A30   A(20,5,21)            106.7445         estimate D2E/DX2                !
 ! A31   A(1,6,10)             108.6815         estimate D2E/DX2                !
 ! A32   A(1,6,22)             110.8773         estimate D2E/DX2                !
 ! A33   A(1,6,23)             110.3133         estimate D2E/DX2                !
 ! A34   A(10,6,22)            109.8501         estimate D2E/DX2                !
 ! A35   A(10,6,23)            109.2677         estimate D2E/DX2                !
 ! A36   A(22,6,23)            107.8347         estimate D2E/DX2                !
 ! A37   A(1,7,9)              111.0706         estimate D2E/DX2                !
 ! A38   A(1,7,24)             110.3804         estimate D2E/DX2                !
 ! A39   A(1,7,25)             109.9099         estimate D2E/DX2                !
 ! A40   A(9,7,24)             106.8806         estimate D2E/DX2                !
 ! A41   A(9,7,25)             109.8427         estimate D2E/DX2                !
 ! A42   A(24,7,25)            108.6843         estimate D2E/DX2                !
 ! A43   A(9,8,10)             110.8004         estimate D2E/DX2                !
 ! A44   A(9,8,26)             109.0162         estimate D2E/DX2                !
 ! A45   A(9,8,27)             106.4011         estimate D2E/DX2                !
 ! A46   A(10,8,26)            110.6446         estimate D2E/DX2                !
 ! A47   A(10,8,27)            111.4233         estimate D2E/DX2                !
 ! A48   A(26,8,27)            108.4197         estimate D2E/DX2                !
 ! A49   A(7,9,8)              113.1011         estimate D2E/DX2                !
 ! A50   A(6,10,8)             110.9098         estimate D2E/DX2                !
 ! A51   A(6,10,28)            109.9757         estimate D2E/DX2                !
 ! A52   A(6,10,29)            110.0272         estimate D2E/DX2                !
 ! A53   A(8,10,28)            109.339          estimate D2E/DX2                !
 ! A54   A(8,10,29)            109.1052         estimate D2E/DX2                !
 ! A55   A(28,10,29)           107.4094         estimate D2E/DX2                !
 ! A56   A(1,11,3)             122.5772         estimate D2E/DX2                !
 ! A57   A(3,12,5)             109.8307         estimate D2E/DX2                !
 ! A58   A(3,12,30)            109.3973         estimate D2E/DX2                !
 ! A59   A(3,12,31)            108.5675         estimate D2E/DX2                !
 ! A60   A(5,12,30)            110.0444         estimate D2E/DX2                !
 ! A61   A(5,12,31)            111.6606         estimate D2E/DX2                !
 ! A62   A(30,12,31)           107.2771         estimate D2E/DX2                !
 ! A63   A(3,13,4)             115.1991         estimate D2E/DX2                !
 ! D1    D(7,1,6,10)            53.3919         estimate D2E/DX2                !
 ! D2    D(7,1,6,22)           174.2288         estimate D2E/DX2                !
 ! D3    D(7,1,6,23)           -66.3833         estimate D2E/DX2                !
 ! D4    D(11,1,6,10)          175.6097         estimate D2E/DX2                !
 ! D5    D(11,1,6,22)          -63.5534         estimate D2E/DX2                !
 ! D6    D(11,1,6,23)           55.8344         estimate D2E/DX2                !
 ! D7    D(14,1,6,10)          -64.9181         estimate D2E/DX2                !
 ! D8    D(14,1,6,22)           55.9188         estimate D2E/DX2                !
 ! D9    D(14,1,6,23)          175.3066         estimate D2E/DX2                !
 ! D10   D(6,1,7,9)            -57.1443         estimate D2E/DX2                !
 ! D11   D(6,1,7,24)          -175.5101         estimate D2E/DX2                !
 ! D12   D(6,1,7,25)            64.6203         estimate D2E/DX2                !
 ! D13   D(11,1,7,9)           174.8351         estimate D2E/DX2                !
 ! D14   D(11,1,7,24)           56.4693         estimate D2E/DX2                !
 ! D15   D(11,1,7,25)          -63.4003         estimate D2E/DX2                !
 ! D16   D(14,1,7,9)            61.2495         estimate D2E/DX2                !
 ! D17   D(14,1,7,24)          -57.1163         estimate D2E/DX2                !
 ! D18   D(14,1,7,25)         -176.9859         estimate D2E/DX2                !
 ! D19   D(6,1,11,3)            -6.0083         Frozen                          !
 ! D20   D(7,1,11,3)           117.8392         estimate D2E/DX2                !
 ! D21   D(14,1,11,3)         -126.8817         estimate D2E/DX2                !
 ! D22   D(5,2,4,13)            34.0771         estimate D2E/DX2                !
 ! D23   D(5,2,4,18)           152.0719         estimate D2E/DX2                !
 ! D24   D(5,2,4,19)           -87.4688         estimate D2E/DX2                !
 ! D25   D(15,2,4,13)          -87.5965         estimate D2E/DX2                !
 ! D26   D(15,2,4,18)           30.3982         estimate D2E/DX2                !
 ! D27   D(15,2,4,19)          150.8576         estimate D2E/DX2                !
 ! D28   D(16,2,4,13)          155.4205         estimate D2E/DX2                !
 ! D29   D(16,2,4,18)          -86.5848         estimate D2E/DX2                !
 ! D30   D(16,2,4,19)           33.8745         estimate D2E/DX2                !
 ! D31   D(4,2,5,12)            26.3116         estimate D2E/DX2                !
 ! D32   D(4,2,5,20)           -93.8426         estimate D2E/DX2                !
 ! D33   D(4,2,5,21)           148.498          estimate D2E/DX2                !
 ! D34   D(15,2,5,12)          148.0123         estimate D2E/DX2                !
 ! D35   D(15,2,5,20)           27.8581         estimate D2E/DX2                !
 ! D36   D(15,2,5,21)          -89.8013         estimate D2E/DX2                !
 ! D37   D(16,2,5,12)          -93.751          estimate D2E/DX2                !
 ! D38   D(16,2,5,20)          146.0948         estimate D2E/DX2                !
 ! D39   D(16,2,5,21)           28.4354         estimate D2E/DX2                !
 ! D40   D(12,3,11,1)          160.8089         estimate D2E/DX2                !
 ! D41   D(13,3,11,1)          -76.3027         estimate D2E/DX2                !
 ! D42   D(17,3,11,1)           40.1628         estimate D2E/DX2                !
 ! D43   D(11,3,12,5)          156.1476         estimate D2E/DX2                !
 ! D44   D(11,3,12,30)          35.2664         estimate D2E/DX2                !
 ! D45   D(11,3,12,31)         -81.5047         estimate D2E/DX2                !
 ! D46   D(13,3,12,5)           33.4729         estimate D2E/DX2                !
 ! D47   D(13,3,12,30)         -87.4082         estimate D2E/DX2                !
 ! D48   D(13,3,12,31)         155.8207         estimate D2E/DX2                !
 ! D49   D(17,3,12,5)          -83.3225         estimate D2E/DX2                !
 ! D50   D(17,3,12,30)         155.7963         estimate D2E/DX2                !
 ! D51   D(17,3,12,31)          39.0253         estimate D2E/DX2                !
 ! D52   D(11,3,13,4)          -90.1485         estimate D2E/DX2                !
 ! D53   D(12,3,13,4)           30.4383         estimate D2E/DX2                !
 ! D54   D(17,3,13,4)          150.3501         estimate D2E/DX2                !
 ! D55   D(2,4,13,3)           -67.7795         estimate D2E/DX2                !
 ! D56   D(18,4,13,3)          170.8881         estimate D2E/DX2                !
 ! D57   D(19,4,13,3)           54.8521         estimate D2E/DX2                !
 ! D58   D(2,5,12,3)           -61.7063         estimate D2E/DX2                !
 ! D59   D(2,5,12,30)           58.784          estimate D2E/DX2                !
 ! D60   D(2,5,12,31)          177.8006         estimate D2E/DX2                !
 ! D61   D(20,5,12,3)           58.9445         estimate D2E/DX2                !
 ! D62   D(20,5,12,30)         179.4348         estimate D2E/DX2                !
 ! D63   D(20,5,12,31)         -61.5487         estimate D2E/DX2                !
 ! D64   D(21,5,12,3)          175.886          estimate D2E/DX2                !
 ! D65   D(21,5,12,30)         -63.6237         estimate D2E/DX2                !
 ! D66   D(21,5,12,31)          55.3928         estimate D2E/DX2                !
 ! D67   D(1,6,10,8)           -53.2169         estimate D2E/DX2                !
 ! D68   D(1,6,10,28)         -174.2859         estimate D2E/DX2                !
 ! D69   D(1,6,10,29)           67.5931         estimate D2E/DX2                !
 ! D70   D(22,6,10,8)         -174.6846         estimate D2E/DX2                !
 ! D71   D(22,6,10,28)          64.2464         estimate D2E/DX2                !
 ! D72   D(22,6,10,29)         -53.8746         estimate D2E/DX2                !
 ! D73   D(23,6,10,8)           67.2074         estimate D2E/DX2                !
 ! D74   D(23,6,10,28)         -53.8616         estimate D2E/DX2                !
 ! D75   D(23,6,10,29)        -171.9826         estimate D2E/DX2                !
 ! D76   D(1,7,9,8)             60.5904         estimate D2E/DX2                !
 ! D77   D(24,7,9,8)          -178.9506         estimate D2E/DX2                !
 ! D78   D(25,7,9,8)           -61.2134         estimate D2E/DX2                !
 ! D79   D(10,8,9,7)           -59.7221         estimate D2E/DX2                !
 ! D80   D(26,8,9,7)            62.2727         estimate D2E/DX2                !
 ! D81   D(27,8,9,7)           179.0056         estimate D2E/DX2                !
 ! D82   D(9,8,10,6)            55.8233         estimate D2E/DX2                !
 ! D83   D(9,8,10,28)          177.267          estimate D2E/DX2                !
 ! D84   D(9,8,10,29)          -65.5303         estimate D2E/DX2                !
 ! D85   D(26,8,10,6)          -65.2138         estimate D2E/DX2                !
 ! D86   D(26,8,10,28)          56.2299         estimate D2E/DX2                !
 ! D87   D(26,8,10,29)         173.4326         estimate D2E/DX2                !
 ! D88   D(27,8,10,6)          174.0859         estimate D2E/DX2                !
 ! D89   D(27,8,10,28)         -64.4704         estimate D2E/DX2                !
 ! D90   D(27,8,10,29)          52.7323         estimate D2E/DX2                !
 --------------------------------------------------------------------------------
 Trust Radius=3.00D-01 FncErr=1.00D-07 GrdErr=1.00D-06 EigMax=2.50D+02 EigMin=1.00D-04
 Number of steps in this run=    186 maximum allowed number of steps=    186.
 GradGradGradGradGradGradGradGradGradGradGradGradGradGradGradGradGradGrad

                          Input orientation:                          
 ---------------------------------------------------------------------
 Center     Atomic      Atomic             Coordinates (Angstroms)
 Number     Number       Type             X           Y           Z
 ---------------------------------------------------------------------
      1          6           0        1.245241    0.505473   -0.663129
      2          6           0       -3.656993   -0.845003    0.431599
      3          6           0       -1.142515    0.659857   -0.031408
      4          6           0       -2.239258   -1.417345    0.379647
      5          6           0       -3.637069    0.658013    0.098504
      6          6           0        1.612366    0.971832    0.743501
      7          6           0        1.826841   -0.880452   -0.923279
      8          6           0        3.622968   -0.526854    0.563201
      9          8           0        3.226316   -0.884123   -0.748121
     10          6           0        3.132157    0.867620    0.914313
     11          8           0       -0.141736    0.438513   -0.980845
     12          6           0       -2.431236    0.983659   -0.780377
     13          8           0       -1.298496   -0.450062    0.817192
     14          1           0        1.678705    1.196294   -1.377577
     15          1           0       -4.087934   -1.003203    1.414985
     16          1           0       -4.274247   -1.386967   -0.279176
     17          1           0       -0.868374    1.475850    0.616891
     18          1           0       -2.126331   -2.267354    1.037448
     19          1           0       -1.983211   -1.738940   -0.623575
     20          1           0       -3.576287    1.239111    1.014447
     21          1           0       -4.555258    0.952514   -0.398043
     22          1           0        1.292703    1.995184    0.907135
     23          1           0        1.125082    0.348732    1.486062
     24          1           0        1.637360   -1.182822   -1.944031
     25          1           0        1.369265   -1.605548   -0.254538
     26          1           0        3.229906   -1.259610    1.264388
     27          1           0        4.702812   -0.581691    0.581179
     28          1           0        3.406882    1.098048    1.939106
     29          1           0        3.629234    1.591498    0.273754
     30          1           0       -2.471196    0.403090   -1.696987
     31          1           0       -2.412798    2.030392   -1.062719
 ---------------------------------------------------------------------
                    Distance matrix (angstroms):
                    1          2          3          4          5
     1  C    0.000000
     2  C    5.201357   0.000000
     3  C    2.474729   2.966745   0.000000
     4  C    4.114164   1.529787   2.384655   0.000000
     5  C    4.943714   1.539612   2.497935   2.517941   0.000000
     6  C    1.526722   5.582501   2.878747   4.547039   5.298214
     7  C    1.525361   5.648839   3.461945   4.303374   5.767602
     8  C    2.867607   7.288098   4.946885   5.932315   7.370752
     9  O    2.421334   6.983782   4.688735   5.606129   7.085267
    10  C    2.485946   7.018451   4.382964   5.861658   6.821429
    11  O    1.424476   3.999930   1.397134   3.113639   3.664768
    12  C    3.709298   2.513040   1.525321   2.673449   1.527256
    13  O    3.094349   2.422224   1.405835   1.418490   2.685752
    14  H    1.084233   5.992469   3.171627   5.026866   5.543105
    15  H    5.919241   1.085258   3.678765   2.158944   2.167035
    16  H    5.847521   1.086245   3.749483   2.139194   2.174990
    17  H    2.654704   3.632780   1.077631   3.210325   2.933130
    18  H    4.684872   2.175560   3.267860   1.080727   3.423699
    19  H    3.932157   2.171189   2.609915   1.084176   3.000338
    20  H    5.157482   2.165585   2.711567   3.040950   1.086426
    21  H    5.823736   2.173995   3.444834   3.403658   1.084602
    22  H    2.164999   5.726455   2.931595   4.939468   5.171515
    23  H    2.158246   5.040351   2.746181   3.957520   4.969814
    24  H    2.155181   5.812737   3.844645   4.525776   5.948128
    25  H    2.153773   5.129569   3.389821   3.668658   5.505609
    26  H    3.281727   6.949447   4.947879   5.542509   7.224397
    27  H    3.832105   8.365288   6.007042   6.995089   8.445322
    28  H    3.434452   7.479730   4.977143   6.374795   7.293743
    29  H    2.782197   7.684436   4.871413   6.595722   7.328115
    30  H    3.858918   2.737650   2.146037   2.771315   2.155930
    31  H    3.983252   3.471153   2.134382   3.741313   2.175018
                    6          7          8          9         10
     6  C    0.000000
     7  C    2.501022   0.000000
     8  C    2.514177   2.358119   0.000000
     9  O    2.876515   1.410399   1.415818   0.000000
    10  C    1.532906   2.852429   1.519451   2.416848   0.000000
    11  O    2.516877   2.370291   4.181986   3.625921   3.807116
    12  C    4.321234   4.650436   6.382808   5.957982   5.816939
    13  O    3.240421   3.603083   4.928612   4.807550   4.623462
    14  H    2.133953   2.131010   3.242841   2.668230   2.733735
    15  H    6.070014   6.361376   7.772416   7.628333   7.475317
    16  H    6.423551   6.155867   7.988454   7.532012   7.833416
    17  H    2.534588   3.897238   4.917912   4.919270   4.057419
    18  H    4.955460   4.625529   6.025669   5.809683   6.123310
    19  H    4.705885   3.917055   5.857203   5.280662   5.943589
    20  H    5.202593   6.118915   7.426407   7.340993   6.719468
    21  H    6.272406   6.660843   8.366355   8.003042   7.799092
    22  H    1.084532   3.450362   3.450957   3.843064   2.157555
    23  H    1.084941   2.794331   2.803169   3.305554   2.150463
    24  H    3.444704   1.081326   3.264835   2.011020   3.822154
    25  H    2.774539   1.087361   2.628965   2.052490   3.254314
    26  H    2.804834   2.626450   1.087700   2.047241   2.158058
    27  H    3.462750   3.259427   1.081385   2.009613   2.162970
    28  H    2.160021   3.821549   2.140120   3.344069   1.085712
    29  H    2.161575   3.285125   2.138044   2.708371   1.086923
    30  H    4.791130   4.551838   6.565979   5.917677   6.199374
    31  H    4.537061   5.144608   6.753784   6.355547   6.000602
                   11         12         13         14         15
    11  O    0.000000
    12  C    2.362029   0.000000
    13  O    2.315296   2.427114   0.000000
    14  H    2.011376   4.158543   4.048608   0.000000
    15  H    4.836427   3.392917   2.905905   6.774239   0.000000
    16  H    4.571910   3.044300   3.306797   6.581592   1.747046
    17  H    2.038831   2.153404   1.983498   3.247101   4.141041
    18  H    3.915845   3.737183   2.009073   5.683969   2.364000
    19  H    2.874017   2.763668   2.050817   4.753288   3.021075
    20  H    4.051949   2.144246   2.842630   5.773955   2.334563
    21  H    4.481410   2.158383   3.748402   6.315157   2.707451
    22  H    2.836425   4.211722   3.563935   2.450945   6.180574
    23  H    2.774620   4.264654   2.638028   3.037316   5.385937
    24  H    2.592612   4.754072   4.096406   2.445971   6.640350
    25  H    2.643640   4.628640   3.098500   3.034351   5.738567
    26  H    4.392341   6.423539   4.621880   3.926534   7.323879
    27  H    5.191376   7.429589   6.007389   4.017857   8.840256
    28  H    4.642606   6.441451   5.078968   3.741208   7.801425
    29  H    4.138068   6.181420   5.361512   2.586048   8.221287
    30  H    2.437314   1.085740   2.902445   4.237083   3.778342
    31  H    2.774618   1.084300   3.305811   4.187511   4.260023
                   16         17         18         19         20
    16  H    0.000000
    17  H    4.538571   0.000000
    18  H    2.668731   3.971259   0.000000
    19  H    2.343361   3.621670   1.748915   0.000000
    20  H    3.009467   2.747160   3.794496   3.753638   0.000000
    21  H    2.359294   3.859674   4.281106   3.729640   1.742312
    22  H    6.620968   2.241473   5.465895   5.197920   4.928512
    23  H    5.939821   2.449433   4.197243   4.297724   4.808125
    24  H    6.144958   4.461565   4.922479   3.893765   6.465328
    25  H    5.647797   3.906588   3.785024   3.375363   5.844732
    26  H    7.662318   4.969697   5.454936   5.565137   7.254677
    27  H    9.054075   5.939096   7.048889   6.891557   8.488022
    28  H    8.372324   4.490969   6.538759   6.608248   7.045534
    29  H    8.464160   4.512161   6.971406   6.587606   7.252057
    30  H    2.909551   3.012289   3.837621   2.445125   3.045001
    31  H    3.969543   2.348159   4.792013   3.819065   2.508874
                   21         22         23         24         25
    21  H    0.000000
    22  H    6.081883   0.000000
    23  H    6.015037   1.753299   0.000000
    24  H    6.730398   4.283417   3.791256   0.000000
    25  H    6.454785   3.784259   2.628407   1.762089   0.000000
    26  H    8.262321   3.804480   2.658230   3.582744   2.426684
    27  H    9.435281   4.286651   3.805871   4.016845   3.585978
    28  H    8.299344   2.517850   2.444041   4.838629   4.034029
    29  H    8.236839   2.454284   3.047119   4.072221   3.950653
    30  H    2.516433   4.845942   4.802913   4.410939   4.567759
    31  H    2.488725   4.196701   4.673421   5.244543   5.308222
                   26         27         28         29         30
    26  H    0.000000
    27  H    1.759489   0.000000
    28  H    2.458682   2.518913   0.000000
    29  H    3.044608   2.443324   1.751094   0.000000
    30  H    6.636029   7.591194   6.946650   6.520075   0.000000
    31  H    6.933949   7.756113   6.614295   6.203623   1.747518
                   31
    31  H    0.000000
 Stoichiometry    C10H18O3
 Framework group  C1[X(C10H18O3)]
 Deg. of freedom    87
 Full point group                 C1      NOp   1
 Largest Abelian subgroup         C1      NOp   1
 Largest concise Abelian subgroup C1      NOp   1
                         Standard orientation:                         
 ---------------------------------------------------------------------
 Center     Atomic      Atomic             Coordinates (Angstroms)
 Number     Number       Type             X           Y           Z
 ---------------------------------------------------------------------
      1          6           0        1.245241   -0.505473    0.663129
      2          6           0       -3.656993    0.845003   -0.431599
      3          6           0       -1.142515   -0.659857    0.031408
      4          6           0       -2.239258    1.417345   -0.379647
      5          6           0       -3.637069   -0.658013   -0.098504
      6          6           0        1.612366   -0.971832   -0.743501
      7          6           0        1.826841    0.880452    0.923279
      8          6           0        3.622968    0.526854   -0.563201
      9          8           0        3.226316    0.884123    0.748121
     10          6           0        3.132157   -0.867620   -0.914313
     11          8           0       -0.141736   -0.438513    0.980845
     12          6           0       -2.431236   -0.983659    0.780377
     13          8           0       -1.298496    0.450062   -0.817192
     14          1           0        1.678705   -1.196294    1.377577
     15          1           0       -4.087934    1.003203   -1.414985
     16          1           0       -4.274247    1.386967    0.279176
     17          1           0       -0.868374   -1.475850   -0.616891
     18          1           0       -2.126331    2.267354   -1.037448
     19          1           0       -1.983211    1.738940    0.623575
     20          1           0       -3.576287   -1.239111   -1.014447
     21          1           0       -4.555258   -0.952514    0.398043
     22          1           0        1.292703   -1.995184   -0.907135
     23          1           0        1.125082   -0.348732   -1.486062
     24          1           0        1.637360    1.182822    1.944031
     25          1           0        1.369265    1.605548    0.254538
     26          1           0        3.229906    1.259610   -1.264388
     27          1           0        4.702812    0.581691   -0.581179
     28          1           0        3.406882   -1.098048   -1.939106
     29          1           0        3.629234   -1.591498   -0.273754
     30          1           0       -2.471196   -0.403090    1.696987
     31          1           0       -2.412798   -2.030392    1.062719
 ---------------------------------------------------------------------
 Rotational constants (GHZ):           2.0125586           0.3919137           0.3804334
 Standard basis: 6-311++G(2d,2p) (5D, 7F)
 There are   557 symmetry adapted cartesian basis functions of A   symmetry.
 There are   531 symmetry adapted basis functions of A   symmetry.
   531 basis functions,   762 primitive gaussians,   557 cartesian basis functions
    51 alpha electrons       51 beta electrons
       nuclear repulsion energy       891.1598957022 Hartrees.
 NAtoms=   31 NActive=   31 NUniq=   31 SFac= 1.00D+00 NAtFMM=   60 NAOKFM=F Big=F
 Integral buffers will be    131072 words long.
 Raffenetti 2 integral format.
 Two-electron integral symmetry is turned on.
 ------------------------------------------------------------------------------
 Polarizable Continuum Model (PCM)
 =================================
 Model                : PCM.
 Atomic radii         : UFF (Universal Force Field).
 Polarization charges : Total charges.
 Charge compensation  : None.
 Solution method      : On-the-fly selection.
 Cavity type          : Scaled VdW (van der Waals Surface) (Alpha=1.100).
 Cavity algorithm     : GePol (No added spheres)
                        Default sphere list used, NSphG=   31.
                        Lebedev-Laikov grids with approx.  5.0 points / Ang**2.
                        Smoothing algorithm: York/Karplus (Gamma=1.0000).
                        Polarization charges: spherical gaussians, with
                                              point-specific exponents (IZeta= 3).
                        Self-potential: point-specific (ISelfS= 7).
                        Self-field    : sphere-specific E.n sum rule (ISelfD= 2).
 1st derivatives      : Analytical E(r).r(x)/FMM algorithm (CHGder, D1EAlg=3).
                        Cavity 1st derivative terms included.
 Solvent              : Water, Eps=  78.355300 Eps(inf)=   1.777849
 ------------------------------------------------------------------------------
 One-electron integrals computed using PRISM.
 NBasis=   531 RedAO= T EigKep=  4.36D-06  NBF=   531
 NBsUse=   531 1.00D-06 EigRej= -1.00D+00 NBFU=   531
 ExpMin= 3.60D-02 ExpMax= 8.59D+03 ExpMxC= 1.30D+03 IAcc=3 IRadAn=         5 AccDes= 0.00D+00
 Harris functional with IExCor= 1009 and IRadAn=       5 diagonalized for initial guess.
 HarFok:  IExCor= 1009 AccDes= 0.00D+00 IRadAn=         5 IDoV= 1 UseB2=F ITyADJ=14
 ICtDFT=  3500011 ScaDFX=  1.000000  1.000000  1.000000  1.000000
 FoFCou: FMM=F IPFlag=           0 FMFlag=      100000 FMFlg1=           0
         NFxFlg=           0 DoJE=T BraDBF=F KetDBF=T FulRan=T
         wScrn=  0.000000 ICntrl=       500 IOpCl=  0 I1Cent=   200000004 NGrid=           0
         NMat0=    1 NMatS0=      1 NMatT0=    0 NMatD0=    1 NMtDS0=    0 NMtDT0=    0
 Petite list used in FoFCou.
 Requested convergence on RMS density matrix=1.00D-08 within 128 cycles.
 Requested convergence on MAX density matrix=1.00D-06.
 Requested convergence on             energy=1.00D-06.
 No special actions if energy rises.
 Inv3:  Mode=1 IEnd=    12879552.
 Iteration    1 A*A^-1 deviation from unit magnitude is 4.44D-15 for   2066.
 Iteration    1 A*A^-1 deviation from orthogonality  is 1.57D-15 for   2071    849.
 Iteration    1 A^-1*A deviation from unit magnitude is 4.44D-15 for   2066.
 Iteration    1 A^-1*A deviation from orthogonality  is 1.42D-15 for   2070   2064.
 Error on total polarization charges =  0.01474
 SCF Done:  E(RM062X) =  -617.491673719     A.U. after   12 cycles
            NFock= 12  Conv=0.60D-08     -V/T= 2.0035

 **********************************************************************

            Population analysis using the SCF density.

 **********************************************************************

 Orbital symmetries:
       Occupied  (A) (A) (A) (A) (A) (A) (A) (A) (A) (A) (A) (A)
                 (A) (A) (A) (A) (A) (A) (A) (A) (A) (A) (A) (A)
                 (A) (A) (A) (A) (A) (A) (A) (A) (A) (A) (A) (A)
                 (A) (A) (A) (A) (A) (A) (A) (A) (A) (A) (A) (A)
                 (A) (A) (A)
       Virtual   (A) (A) (A) (A) (A) (A) (A) (A) (A) (A) (A) (A)
                 (A) (A) (A) (A) (A) (A) (A) (A) (A) (A) (A) (A)
                 (A) (A) (A) (A) (A) (A) (A) (A) (A) (A) (A) (A)
                 (A) (A) (A) (A) (A) (A) (A) (A) (A) (A) (A) (A)
                 (A) (A) (A) (A) (A) (A) (A) (A) (A) (A) (A) (A)
                 (A) (A) (A) (A) (A) (A) (A) (A) (A) (A) (A) (A)
                 (A) (A) (A) (A) (A) (A) (A) (A) (A) (A) (A) (A)
                 (A) (A) (A) (A) (A) (A) (A) (A) (A) (A) (A) (A)
                 (A) (A) (A) (A) (A) (A) (A) (A) (A) (A) (A) (A)
                 (A) (A) (A) (A) (A) (A) (A) (A) (A) (A) (A) (A)
                 (A) (A) (A) (A) (A) (A) (A) (A) (A) (A) (A) (A)
                 (A) (A) (A) (A) (A) (A) (A) (A) (A) (A) (A) (A)
                 (A) (A) (A) (A) (A) (A) (A) (A) (A) (A) (A) (A)
                 (A) (A) (A) (A) (A) (A) (A) (A) (A) (A) (A) (A)
                 (A) (A) (A) (A) (A) (A) (A) (A) (A) (A) (A) (A)
                 (A) (A) (A) (A) (A) (A) (A) (A) (A) (A) (A) (A)
                 (A) (A) (A) (A) (A) (A) (A) (A) (A) (A) (A) (A)
                 (A) (A) (A) (A) (A) (A) (A) (A) (A) (A) (A) (A)
                 (A) (A) (A) (A) (A) (A) (A) (A) (A) (A) (A) (A)
                 (A) (A) (A) (A) (A) (A) (A) (A) (A) (A) (A) (A)
                 (A) (A) (A) (A) (A) (A) (A) (A) (A) (A) (A) (A)
                 (A) (A) (A) (A) (A) (A) (A) (A) (A) (A) (A) (A)
                 (A) (A) (A) (A) (A) (A) (A) (A) (A) (A) (A) (A)
                 (A) (A) (A) (A) (A) (A) (A) (A) (A) (A) (A) (A)
                 (A) (A) (A) (A) (A) (A) (A) (A) (A) (A) (A) (A)
                 (A) (A) (A) (A) (A) (A) (A) (A) (A) (A) (A) (A)
                 (A) (A) (A) (A) (A) (A) (A) (A) (A) (A) (A) (A)
                 (A) (A) (A) (A) (A) (A) (A) (A) (A) (A) (A) (A)
                 (A) (A) (A) (A) (A) (A) (A) (A) (A) (A) (A) (A)
                 (A) (A) (A) (A) (A) (A) (A) (A) (A) (A) (A) (A)
                 (A) (A) (A) (A) (A) (A) (A) (A) (A) (A) (A) (A)
                 (A) (A) (A) (A) (A) (A) (A) (A) (A) (A) (A) (A)
                 (A) (A) (A) (A) (A) (A) (A) (A) (A) (A) (A) (A)
                 (A) (A) (A) (A) (A) (A) (A) (A) (A) (A) (A) (A)
                 (A) (A) (A) (A) (A) (A) (A) (A) (A) (A) (A) (A)
                 (A) (A) (A) (A) (A) (A) (A) (A) (A) (A) (A) (A)
                 (A) (A) (A) (A) (A) (A) (A) (A) (A) (A) (A) (A)
                 (A) (A) (A) (A) (A) (A) (A) (A) (A) (A) (A) (A)
                 (A) (A) (A) (A) (A) (A) (A) (A) (A) (A) (A) (A)
                 (A) (A) (A) (A) (A) (A) (A) (A) (A) (A) (A) (A)
 The electronic state is 1-A.
 Alpha  occ. eigenvalues --  -19.62890 -19.62845 -19.62598 -10.63399 -10.58791
 Alpha  occ. eigenvalues --  -10.57851 -10.57679 -10.57647 -10.53392 -10.53263
 Alpha  occ. eigenvalues --  -10.53113 -10.53056 -10.52747  -1.19820  -1.16728
 Alpha  occ. eigenvalues --   -1.13558  -0.90844  -0.89706  -0.87654  -0.84419
 Alpha  occ. eigenvalues --   -0.75644  -0.74624  -0.73310  -0.70250  -0.66033
 Alpha  occ. eigenvalues --   -0.62235  -0.60692  -0.59129  -0.57526  -0.56758
 Alpha  occ. eigenvalues --   -0.55649  -0.53152  -0.52124  -0.50602  -0.49427
 Alpha  occ. eigenvalues --   -0.48252  -0.46312  -0.45925  -0.45771  -0.44762
 Alpha  occ. eigenvalues --   -0.44304  -0.43293  -0.40805  -0.40550  -0.39091
 Alpha  occ. eigenvalues --   -0.38237  -0.37344  -0.36137  -0.35002  -0.33548
 Alpha  occ. eigenvalues --   -0.31830
 Alpha virt. eigenvalues --   -0.00142   0.00775   0.00922   0.00930   0.02171
 Alpha virt. eigenvalues --    0.02454   0.02584   0.03357   0.03603   0.04232
 Alpha virt. eigenvalues --    0.04538   0.05033   0.05601   0.05836   0.07014
 Alpha virt. eigenvalues --    0.07292   0.07469   0.07828   0.09115   0.09487
 Alpha virt. eigenvalues --    0.09797   0.10549   0.10995   0.11399   0.12139
 Alpha virt. eigenvalues --    0.12325   0.12459   0.13078   0.13299   0.13465
 Alpha virt. eigenvalues --    0.13855   0.14158   0.14425   0.14594   0.14734
 Alpha virt. eigenvalues --    0.15204   0.15420   0.15495   0.16092   0.16279
 Alpha virt. eigenvalues --    0.16638   0.16760   0.16893   0.17259   0.17610
 Alpha virt. eigenvalues --    0.18025   0.18399   0.18855   0.18943   0.19295
 Alpha virt. eigenvalues --    0.19330   0.20232   0.20664   0.20957   0.21070
 Alpha virt. eigenvalues --    0.21741   0.22056   0.22639   0.23511   0.24402
 Alpha virt. eigenvalues --    0.25226   0.25367   0.26386   0.26911   0.26984
 Alpha virt. eigenvalues --    0.27896   0.28287   0.28580   0.28923   0.28995
 Alpha virt. eigenvalues --    0.29578   0.30356   0.30494   0.31350   0.32321
 Alpha virt. eigenvalues --    0.32727   0.32979   0.33524   0.34120   0.34509
 Alpha virt. eigenvalues --    0.34727   0.34961   0.35602   0.35791   0.36330
 Alpha virt. eigenvalues --    0.36809   0.37462   0.37667   0.37895   0.38500
 Alpha virt. eigenvalues --    0.38517   0.39267   0.39491   0.40168   0.41255
 Alpha virt. eigenvalues --    0.41419   0.41978   0.42856   0.43887   0.44684
 Alpha virt. eigenvalues --    0.46553   0.48134   0.49602   0.49862   0.50664
 Alpha virt. eigenvalues --    0.51759   0.52916   0.53693   0.54389   0.55149
 Alpha virt. eigenvalues --    0.55595   0.57169   0.57681   0.58161   0.59161
 Alpha virt. eigenvalues --    0.59698   0.59864   0.60629   0.60713   0.61344
 Alpha virt. eigenvalues --    0.61981   0.62719   0.62934   0.63340   0.64738
 Alpha virt. eigenvalues --    0.64854   0.65141   0.65726   0.66247   0.66864
 Alpha virt. eigenvalues --    0.68238   0.68487   0.69647   0.70230   0.70861
 Alpha virt. eigenvalues --    0.71119   0.71450   0.72756   0.72900   0.73284
 Alpha virt. eigenvalues --    0.74040   0.74442   0.74822   0.75133   0.75569
 Alpha virt. eigenvalues --    0.76107   0.76519   0.77081   0.78343   0.79125
 Alpha virt. eigenvalues --    0.80190   0.81898   0.83101   0.83408   0.85202
 Alpha virt. eigenvalues --    0.85873   0.86345   0.88144   0.89902   0.90877
 Alpha virt. eigenvalues --    0.91353   0.91807   0.92993   0.94193   0.95157
 Alpha virt. eigenvalues --    0.96102   0.96848   0.99255   1.00099   1.01996
 Alpha virt. eigenvalues --    1.03440   1.04609   1.05333   1.06218   1.07774
 Alpha virt. eigenvalues --    1.08133   1.08887   1.09851   1.10879   1.11673
 Alpha virt. eigenvalues --    1.12863   1.13356   1.15125   1.16315   1.16930
 Alpha virt. eigenvalues --    1.17541   1.18323   1.18924   1.19473   1.20286
 Alpha virt. eigenvalues --    1.20723   1.21679   1.22803   1.24004   1.24389
 Alpha virt. eigenvalues --    1.25673   1.26011   1.26854   1.27617   1.28065
 Alpha virt. eigenvalues --    1.29363   1.29559   1.29938   1.30934   1.31759
 Alpha virt. eigenvalues --    1.32008   1.32485   1.33251   1.34870   1.35096
 Alpha virt. eigenvalues --    1.35561   1.35918   1.36107   1.37236   1.38096
 Alpha virt. eigenvalues --    1.38894   1.39926   1.40446   1.40541   1.41577
 Alpha virt. eigenvalues --    1.42599   1.42858   1.43930   1.44931   1.45871
 Alpha virt. eigenvalues --    1.46696   1.47116   1.47986   1.48227   1.48649
 Alpha virt. eigenvalues --    1.49670   1.49913   1.50560   1.51066   1.51999
 Alpha virt. eigenvalues --    1.52304   1.52473   1.53867   1.54608   1.55488
 Alpha virt. eigenvalues --    1.55818   1.56446   1.57412   1.57868   1.58072
 Alpha virt. eigenvalues --    1.59804   1.60439   1.60965   1.61831   1.62940
 Alpha virt. eigenvalues --    1.63912   1.64219   1.64556   1.65893   1.66826
 Alpha virt. eigenvalues --    1.67661   1.68361   1.69792   1.69879   1.70955
 Alpha virt. eigenvalues --    1.72038   1.72657   1.75418   1.76267   1.76994
 Alpha virt. eigenvalues --    1.78063   1.80435   1.81677   1.82743   1.83015
 Alpha virt. eigenvalues --    1.85924   1.86673   1.88458   1.92859   1.98050
 Alpha virt. eigenvalues --    2.02183   2.04406   2.08505   2.12374   2.18951
 Alpha virt. eigenvalues --    2.22660   2.27524   2.33980   2.36407   2.39481
 Alpha virt. eigenvalues --    2.41916   2.43369   2.45986   2.47647   2.51929
 Alpha virt. eigenvalues --    2.58870   2.76075   2.76935   2.80535   2.81484
 Alpha virt. eigenvalues --    2.86760   2.89073   2.91423   2.92761   2.93153
 Alpha virt. eigenvalues --    2.95462   2.96940   3.01243   3.03494   3.03714
 Alpha virt. eigenvalues --    3.05947   3.07668   3.08628   3.09515   3.11489
 Alpha virt. eigenvalues --    3.12289   3.15031   3.17288   3.19867   3.21233
 Alpha virt. eigenvalues --    3.25376   3.27065   3.30176   3.32070   3.33429
 Alpha virt. eigenvalues --    3.35291   3.36031   3.37600   3.39140   3.39828
 Alpha virt. eigenvalues --    3.41232   3.42785   3.44045   3.45089   3.47087
 Alpha virt. eigenvalues --    3.47344   3.48598   3.49214   3.49937   3.52039
 Alpha virt. eigenvalues --    3.52199   3.53449   3.53913   3.54756   3.56526
 Alpha virt. eigenvalues --    3.57370   3.57846   3.58919   3.59419   3.60123
 Alpha virt. eigenvalues --    3.61171   3.61837   3.62692   3.64229   3.64445
 Alpha virt. eigenvalues --    3.65031   3.66642   3.67148   3.69925   3.70634
 Alpha virt. eigenvalues --    3.71029   3.71933   3.72753   3.74129   3.74841
 Alpha virt. eigenvalues --    3.75519   3.76302   3.77589   3.77955   3.78495
 Alpha virt. eigenvalues --    3.80114   3.80609   3.82904   3.83754   3.85709
 Alpha virt. eigenvalues --    3.86709   3.87643   3.88130   3.90159   3.90910
 Alpha virt. eigenvalues --    3.91964   3.95639   3.95707   3.97856   3.98535
 Alpha virt. eigenvalues --    4.00452   4.02322   4.02788   4.03813   4.04941
 Alpha virt. eigenvalues --    4.05339   4.05624   4.06684   4.07172   4.07612
 Alpha virt. eigenvalues --    4.08816   4.09644   4.10427   4.11040   4.12114
 Alpha virt. eigenvalues --    4.12878   4.14622   4.15379   4.16016   4.16834
 Alpha virt. eigenvalues --    4.17716   4.18045   4.19497   4.20180   4.20681
 Alpha virt. eigenvalues --    4.21758   4.22563   4.23567   4.26241   4.26515
 Alpha virt. eigenvalues --    4.26735   4.27568   4.29046   4.30453   4.32132
 Alpha virt. eigenvalues --    4.34615   4.35872   4.36612   4.37701   4.38442
 Alpha virt. eigenvalues --    4.40159   4.43152   4.46229   4.49326   4.54655
 Alpha virt. eigenvalues --    4.56939   4.59420   4.75296   4.75788   4.83476
 Alpha virt. eigenvalues --    4.84214   4.92291   4.96398   4.99701   5.00783
 Alpha virt. eigenvalues --    5.03080   5.06679   5.08454   5.12104   5.13165
 Alpha virt. eigenvalues --    5.13949   5.15423   5.18255   5.30176   5.38417
 Alpha virt. eigenvalues --    5.39942   5.57974   5.58991   5.65993   5.86066
 Alpha virt. eigenvalues --    5.89393   6.03406   7.01331   7.05536   7.05819
 Alpha virt. eigenvalues --    7.08692   7.09435   7.12969   7.14627   7.19779
 Alpha virt. eigenvalues --    7.29788   7.36284   7.39282   7.42504   7.53828
 Alpha virt. eigenvalues --    7.55131   7.62577  23.96101  23.98825  24.04828
 Alpha virt. eigenvalues --   24.06842  24.09702  24.11642  24.13109  24.15148
 Alpha virt. eigenvalues --   24.18409  24.21960  50.17133  50.18576  50.25111
          Condensed to atoms (all electrons):
               1          2          3          4          5          6
     1  C    7.393533  -0.009050  -0.909414   0.099445  -0.015071  -0.921470
     2  C   -0.009050   6.197458   0.432618  -0.377185  -0.363274   0.023311
     3  C   -0.909414   0.432618   7.201341  -0.519816  -0.466013   0.524251
     4  C    0.099445  -0.377185  -0.519816   5.857434   0.337041  -0.049364
     5  C   -0.015071  -0.363274  -0.466013   0.337041   5.782689  -0.057960
     6  C   -0.921470   0.023311   0.524251  -0.049364  -0.057960   6.861425
     7  C   -0.783102   0.003137   0.221982  -0.003001  -0.007147   0.378112
     8  C    0.152280   0.001252  -0.024499   0.000075   0.000678  -0.072004
     9  O   -0.007582  -0.000398  -0.002282  -0.000031   0.000278  -0.028109
    10  C    0.028710  -0.004052  -0.309713   0.013615  -0.009049  -0.803934
    11  O    0.044621   0.010610   0.386775   0.001832  -0.017007  -0.009520
    12  C    0.259110  -0.163299  -1.132588  -0.063992   0.404436  -0.235465
    13  O    0.022380  -0.004164   0.364615   0.012892  -0.087285  -0.028061
    14  H    0.554075  -0.004388  -0.053602   0.010242   0.002028  -0.042390
    15  H    0.000073   0.473408  -0.019012  -0.087860  -0.049169  -0.002002
    16  H   -0.000590   0.476379   0.054416  -0.048739  -0.062293   0.002731
    17  H   -0.039020   0.041515   0.505810  -0.066666  -0.024648   0.007038
    18  H   -0.008270  -0.007098   0.029365   0.435672  -0.006799   0.005084
    19  H    0.003272  -0.077580  -0.019404   0.460274  -0.004506   0.007737
    20  H   -0.000160  -0.077542   0.044021   0.005307   0.472777   0.009962
    21  H    0.001264  -0.049378   0.018162   0.008984   0.456375  -0.003433
    22  H   -0.015050  -0.001866   0.003684   0.001600   0.001675   0.373200
    23  H    0.036055   0.002962  -0.031706  -0.004869  -0.007233   0.450243
    24  H   -0.081795   0.001491   0.017194  -0.002081  -0.000232   0.028580
    25  H    0.137859  -0.017133  -0.052768   0.026526   0.006999  -0.101645
    26  H    0.035559   0.000148   0.002279   0.000036   0.000245  -0.016646
    27  H   -0.000770  -0.000006  -0.004409   0.000087  -0.000043  -0.007022
    28  H   -0.000657  -0.000092  -0.000780   0.000298  -0.000351  -0.047864
    29  H   -0.013180   0.000258   0.000350  -0.000170  -0.000079   0.002369
    30  H   -0.006651  -0.007826   0.004076  -0.011164  -0.037305   0.004370
    31  H   -0.009984   0.002182  -0.011849   0.011511  -0.014405   0.005884
               7          8          9         10         11         12
     1  C   -0.783102   0.152280  -0.007582   0.028710   0.044621   0.259110
     2  C    0.003137   0.001252  -0.000398  -0.004052   0.010610  -0.163299
     3  C    0.221982  -0.024499  -0.002282  -0.309713   0.386775  -1.132588
     4  C   -0.003001   0.000075  -0.000031   0.013615   0.001832  -0.063992
     5  C   -0.007147   0.000678   0.000278  -0.009049  -0.017007   0.404436
     6  C    0.378112  -0.072004  -0.028109  -0.803934  -0.009520  -0.235465
     7  C    6.028056  -0.206963   0.153832   0.109764  -0.075990  -0.154946
     8  C   -0.206963   5.376458   0.099509   0.089740   0.000512   0.004933
     9  O    0.153832   0.099509   8.366772  -0.020346   0.000862   0.003869
    10  C    0.109764   0.089740  -0.020346   6.669535   0.013301  -0.062446
    11  O   -0.075990   0.000512   0.000862   0.013301   8.309626  -0.214669
    12  C   -0.154946   0.004933   0.003869  -0.062446  -0.214669   7.011937
    13  O   -0.033396  -0.000074   0.000624  -0.036620  -0.040379  -0.015039
    14  H   -0.128129   0.011540   0.004874  -0.013006  -0.066198   0.014955
    15  H   -0.001485  -0.000011  -0.000001  -0.000759  -0.000826   0.059110
    16  H    0.001761  -0.000008  -0.000014   0.000725   0.001510  -0.059457
    17  H    0.000525   0.004282  -0.000535  -0.029607  -0.039368   0.007323
    18  H    0.009630  -0.000603  -0.000094   0.001308  -0.000840  -0.036838
    19  H   -0.006050  -0.000125   0.000946  -0.003128   0.011354   0.030615
    20  H    0.002728  -0.000172   0.000001   0.004253   0.002275  -0.094664
    21  H   -0.001748   0.000132   0.000003  -0.000628  -0.003415  -0.054189
    22  H    0.007799  -0.003915  -0.000791   0.021268  -0.001465   0.017265
    23  H   -0.051096  -0.003459  -0.000696  -0.030070   0.000153  -0.018337
    24  H    0.469296   0.001874  -0.068502  -0.012439  -0.001973   0.001704
    25  H    0.323466  -0.011471  -0.044401   0.018911   0.007652   0.015745
    26  H   -0.030303   0.454830  -0.042134  -0.042092  -0.000802   0.001829
    27  H    0.017787   0.423325  -0.071318  -0.019723   0.000420  -0.000156
    28  H    0.000878  -0.035310   0.009238   0.447469  -0.001154   0.000091
    29  H    0.000840  -0.076860  -0.008391   0.458742   0.000475  -0.000201
    30  H    0.006490   0.000024   0.000162   0.001464  -0.009218   0.432014
    31  H    0.001686  -0.000336  -0.000032   0.000102   0.000952   0.383671
              13         14         15         16         17         18
     1  C    0.022380   0.554075   0.000073  -0.000590  -0.039020  -0.008270
     2  C   -0.004164  -0.004388   0.473408   0.476379   0.041515  -0.007098
     3  C    0.364615  -0.053602  -0.019012   0.054416   0.505810   0.029365
     4  C    0.012892   0.010242  -0.087860  -0.048739  -0.066666   0.435672
     5  C   -0.087285   0.002028  -0.049169  -0.062293  -0.024648  -0.006799
     6  C   -0.028061  -0.042390  -0.002002   0.002731   0.007038   0.005084
     7  C   -0.033396  -0.128129  -0.001485   0.001761   0.000525   0.009630
     8  C   -0.000074   0.011540  -0.000011  -0.000008   0.004282  -0.000603
     9  O    0.000624   0.004874  -0.000001  -0.000014  -0.000535  -0.000094
    10  C   -0.036620  -0.013006  -0.000759   0.000725  -0.029607   0.001308
    11  O   -0.040379  -0.066198  -0.000826   0.001510  -0.039368  -0.000840
    12  C   -0.015039   0.014955   0.059110  -0.059457   0.007323  -0.036838
    13  O    8.303571  -0.000507  -0.007429   0.009895  -0.097763  -0.066809
    14  H   -0.000507   0.462176  -0.000135   0.000300  -0.003212   0.000147
    15  H   -0.007429  -0.000135   0.512291  -0.021485   0.005229  -0.011502
    16  H    0.009895   0.000300  -0.021485   0.502019  -0.001731  -0.000876
    17  H   -0.097763  -0.003212   0.005229  -0.001731   0.507219  -0.003715
    18  H   -0.066809   0.000147  -0.011502  -0.000876  -0.003715   0.473485
    19  H   -0.025570  -0.000216   0.006522  -0.003642   0.000905  -0.010004
    20  H    0.010615   0.000023  -0.013545   0.007213  -0.015324  -0.000162
    21  H   -0.006807  -0.000043   0.001165  -0.008927   0.002457  -0.000670
    22  H    0.004119  -0.006082  -0.000068  -0.000117  -0.009833   0.000225
    23  H   -0.004692   0.007786  -0.000178   0.000342  -0.000271  -0.001434
    24  H    0.001128  -0.012199   0.000078  -0.000232  -0.001516   0.000415
    25  H    0.000858   0.010985  -0.000062   0.000429  -0.002981  -0.001395
    26  H    0.000934   0.000976   0.000047  -0.000029  -0.000008   0.000037
    27  H   -0.000248  -0.001058  -0.000013   0.000009  -0.000518   0.000017
    28  H   -0.000599  -0.000711  -0.000007   0.000014  -0.000354   0.000040
    29  H    0.000396  -0.003269   0.000012  -0.000018   0.000563  -0.000021
    30  H    0.000974  -0.000524  -0.003172   0.001291  -0.003544  -0.001662
    31  H    0.009158  -0.000192  -0.000346  -0.000015  -0.019572   0.001395
              19         20         21         22         23         24
     1  C    0.003272  -0.000160   0.001264  -0.015050   0.036055  -0.081795
     2  C   -0.077580  -0.077542  -0.049378  -0.001866   0.002962   0.001491
     3  C   -0.019404   0.044021   0.018162   0.003684  -0.031706   0.017194
     4  C    0.460274   0.005307   0.008984   0.001600  -0.004869  -0.002081
     5  C   -0.004506   0.472777   0.456375   0.001675  -0.007233  -0.000232
     6  C    0.007737   0.009962  -0.003433   0.373200   0.450243   0.028580
     7  C   -0.006050   0.002728  -0.001748   0.007799  -0.051096   0.469296
     8  C   -0.000125  -0.000172   0.000132  -0.003915  -0.003459   0.001874
     9  O    0.000946   0.000001   0.000003  -0.000791  -0.000696  -0.068502
    10  C   -0.003128   0.004253  -0.000628   0.021268  -0.030070  -0.012439
    11  O    0.011354   0.002275  -0.003415  -0.001465   0.000153  -0.001973
    12  C    0.030615  -0.094664  -0.054189   0.017265  -0.018337   0.001704
    13  O   -0.025570   0.010615  -0.006807   0.004119  -0.004692   0.001128
    14  H   -0.000216   0.000023  -0.000043  -0.006082   0.007786  -0.012199
    15  H    0.006522  -0.013545   0.001165  -0.000068  -0.000178   0.000078
    16  H   -0.003642   0.007213  -0.008927  -0.000117   0.000342  -0.000232
    17  H    0.000905  -0.015324   0.002457  -0.009833  -0.000271  -0.001516
    18  H   -0.010004  -0.000162  -0.000670   0.000225  -0.001434   0.000415
    19  H    0.493252   0.000740  -0.001847  -0.000168   0.000704  -0.000299
    20  H    0.000740   0.496768  -0.017106   0.000732   0.000287   0.000034
    21  H   -0.001847  -0.017106   0.475147  -0.000023  -0.000098   0.000076
    22  H   -0.000168   0.000732  -0.000023   0.481084  -0.024436   0.000922
    23  H    0.000704   0.000287  -0.000098  -0.024436   0.443211  -0.002049
    24  H   -0.000299   0.000034   0.000076   0.000922  -0.002049   0.488553
    25  H   -0.004456  -0.000103   0.000036  -0.000457  -0.000980  -0.026802
    26  H   -0.000041  -0.000042   0.000001   0.000888  -0.010145  -0.002939
    27  H   -0.000040   0.000021   0.000001   0.000976   0.000496   0.002230
    28  H   -0.000049   0.000053  -0.000024  -0.010335  -0.006428   0.001422
    29  H    0.000171  -0.000065   0.000005  -0.006841   0.002140  -0.000572
    30  H   -0.008374   0.004945  -0.005858   0.000743  -0.000400  -0.000668
    31  H   -0.000054   0.001342  -0.010192  -0.000175   0.000350   0.000156
              25         26         27         28         29         30
     1  C    0.137859   0.035559  -0.000770  -0.000657  -0.013180  -0.006651
     2  C   -0.017133   0.000148  -0.000006  -0.000092   0.000258  -0.007826
     3  C   -0.052768   0.002279  -0.004409  -0.000780   0.000350   0.004076
     4  C    0.026526   0.000036   0.000087   0.000298  -0.000170  -0.011164
     5  C    0.006999   0.000245  -0.000043  -0.000351  -0.000079  -0.037305
     6  C   -0.101645  -0.016646  -0.007022  -0.047864   0.002369   0.004370
     7  C    0.323466  -0.030303   0.017787   0.000878   0.000840   0.006490
     8  C   -0.011471   0.454830   0.423325  -0.035310  -0.076860   0.000024
     9  O   -0.044401  -0.042134  -0.071318   0.009238  -0.008391   0.000162
    10  C    0.018911  -0.042092  -0.019723   0.447469   0.458742   0.001464
    11  O    0.007652  -0.000802   0.000420  -0.001154   0.000475  -0.009218
    12  C    0.015745   0.001829  -0.000156   0.000091  -0.000201   0.432014
    13  O    0.000858   0.000934  -0.000248  -0.000599   0.000396   0.000974
    14  H    0.010985   0.000976  -0.001058  -0.000711  -0.003269  -0.000524
    15  H   -0.000062   0.000047  -0.000013  -0.000007   0.000012  -0.003172
    16  H    0.000429  -0.000029   0.000009   0.000014  -0.000018   0.001291
    17  H   -0.002981  -0.000008  -0.000518  -0.000354   0.000563  -0.003544
    18  H   -0.001395   0.000037   0.000017   0.000040  -0.000021  -0.001662
    19  H   -0.004456  -0.000041  -0.000040  -0.000049   0.000171  -0.008374
    20  H   -0.000103  -0.000042   0.000021   0.000053  -0.000065   0.004945
    21  H    0.000036   0.000001   0.000001  -0.000024   0.000005  -0.005858
    22  H   -0.000457   0.000888   0.000976  -0.010335  -0.006841   0.000743
    23  H   -0.000980  -0.010145   0.000496  -0.006428   0.002140  -0.000400
    24  H   -0.026802  -0.002939   0.002230   0.001422  -0.000572  -0.000668
    25  H    0.520790   0.005293  -0.003494  -0.000188  -0.001885   0.000620
    26  H    0.005293   0.499375  -0.007715   0.005691   0.001382   0.000032
    27  H   -0.003494  -0.007715   0.472476  -0.009995  -0.002691   0.000007
    28  H   -0.000188   0.005691  -0.009995   0.493487  -0.011707   0.000003
    29  H   -0.001885   0.001382  -0.002691  -0.011707   0.477002  -0.000104
    30  H    0.000620   0.000032   0.000007   0.000003  -0.000104   0.444703
    31  H   -0.000419  -0.000043   0.000009   0.000006   0.000035  -0.009033
              31
     1  C   -0.009984
     2  C    0.002182
     3  C   -0.011849
     4  C    0.011511
     5  C   -0.014405
     6  C    0.005884
     7  C    0.001686
     8  C   -0.000336
     9  O   -0.000032
    10  C    0.000102
    11  O    0.000952
    12  C    0.383671
    13  O    0.009158
    14  H   -0.000192
    15  H   -0.000346
    16  H   -0.000015
    17  H   -0.019572
    18  H    0.001395
    19  H   -0.000054
    20  H    0.001342
    21  H   -0.010192
    22  H   -0.000175
    23  H    0.000350
    24  H    0.000156
    25  H   -0.000419
    26  H   -0.000043
    27  H    0.000009
    28  H    0.000006
    29  H    0.000035
    30  H   -0.009033
    31  H    0.479978
 Mulliken charges:
               1
     1  C    0.053580
     2  C   -0.502399
     3  C   -0.253084
     4  C   -0.047935
     5  C   -0.235352
     6  C   -0.257408
     7  C   -0.254413
     8  C   -0.185632
     9  O   -0.345314
    10  C   -0.481294
    11  O   -0.310105
    12  C   -0.342318
    13  O   -0.286721
    14  H    0.255756
    15  H    0.161131
    16  H    0.149139
    17  H    0.277320
    18  H    0.201971
    19  H    0.149059
    20  H    0.154790
    21  H    0.200576
    22  H    0.165439
    23  H    0.253848
    24  H    0.199142
    25  H    0.194472
    26  H    0.143359
    27  H    0.211354
    28  H    0.167914
    29  H    0.181312
    30  H    0.203583
    31  H    0.178229
 Sum of Mulliken charges =  -0.00000
 Mulliken charges with hydrogens summed into heavy atoms:
               1
     1  C    0.309337
     2  C   -0.192129
     3  C    0.024236
     4  C    0.303096
     5  C    0.120014
     6  C    0.161879
     7  C    0.139200
     8  C    0.169081
     9  O   -0.345314
    10  C   -0.132068
    11  O   -0.310105
    12  C    0.039494
    13  O   -0.286721
 Electronic spatial extent (au):  <R**2>=           3119.9342
 Charge=             -0.0000 electrons
 Dipole moment (field-independent basis, Debye):
    X=             -1.8259    Y=             -1.2573    Z=             -1.6028  Tot=              2.7356
 Quadrupole moment (field-independent basis, Debye-Ang):
   XX=            -75.8690   YY=            -77.0165   ZZ=            -82.8022
   XY=             -4.6674   XZ=             -7.4234   YZ=             -0.1370
 Traceless Quadrupole moment (field-independent basis, Debye-Ang):
   XX=              2.6936   YY=              1.5460   ZZ=             -4.2396
   XY=             -4.6674   XZ=             -7.4234   YZ=             -0.1370
 Octapole moment (field-independent basis, Debye-Ang**2):
  XXX=            -23.4944  YYY=              0.6803  ZZZ=              1.2405  XYY=             -6.5556
  XXY=            -10.0719  XXZ=            -21.4056  XZZ=              2.0205  YZZ=              1.8346
  YYZ=             -2.3200  XYZ=             -4.0305
 Hexadecapole moment (field-independent basis, Debye-Ang**3):
 XXXX=          -3226.4407 YYYY=           -497.0855 ZZZZ=           -381.3197 XXXY=            -44.8656
 XXXZ=            -99.4009 YYYX=             -6.3493 YYYZ=             -7.2416 ZZZX=              5.1688
 ZZZY=              4.2550 XXYY=           -634.6811 XXZZ=           -614.6226 YYZZ=           -143.8828
 XXYZ=            -23.6748 YYXZ=              0.2752 ZZXY=             -4.8199
 N-N= 8.911598957022D+02 E-N=-3.224190165443D+03  KE= 6.153341235275D+02
 D1PCM: PCM CHGder 1st derivatives, ID1Alg=3 FixD1E=F DoIter=F DoCFld=F I1PDM=0.
 Calling FoFJK, ICntrl=      2127 FMM=F ISym2X=0 I1Cent= 0 IOpClX= 0 NMat=1 NMatS=1 NMatT=0.
 ***** Axes restored to original set *****
 -------------------------------------------------------------------
 Center     Atomic                   Forces (Hartrees/Bohr)
 Number     Number              X              Y              Z
 -------------------------------------------------------------------
      1        6          -0.003455853   -0.004735660    0.008017985
      2        6           0.001133698    0.001215152   -0.000663342
      3        6          -0.001600086   -0.005676979   -0.004410563
      4        6          -0.001835557    0.005223097   -0.000947850
      5        6           0.002387729   -0.002340279   -0.001193648
      6        6           0.002998134   -0.000704018   -0.004388134
      7        6           0.004060580    0.005035567    0.003543237
      8        6          -0.004979656    0.004342877   -0.002456597
      9        8           0.005901553   -0.001786801   -0.006791958
     10        6          -0.001830365   -0.001788550    0.000931275
     11        8          -0.003704397    0.001060871   -0.010308281
     12        6          -0.000415348    0.000309164    0.003126649
     13        8           0.004713509   -0.000573841    0.010659246
     14        1           0.003904276    0.003370144   -0.003430131
     15        1          -0.000882608   -0.000294940    0.002497152
     16        1          -0.001814965   -0.001117760   -0.002179533
     17        1           0.001754790    0.006021033    0.005904905
     18        1           0.000316773   -0.003451072    0.002486757
     19        1           0.000825783   -0.001614353   -0.005881848
     20        1           0.000848409    0.001382940    0.002696626
     21        1          -0.002122329    0.000624018   -0.001178336
     22        1          -0.001253308    0.003385317    0.000384591
     23        1          -0.003343070   -0.003708391    0.002261918
     24        1          -0.001510538   -0.000800479   -0.004492897
     25        1          -0.004732356   -0.002825038    0.004628728
     26        1          -0.002620814   -0.003171693    0.004679982
     27        1           0.004361563   -0.000049170    0.000064278
     28        1           0.000675540    0.000989989    0.002841448
     29        1           0.001369937    0.001698231   -0.002450555
     30        1           0.000851477   -0.002795238   -0.002987870
     31        1          -0.000002503    0.002775861   -0.000963233
 -------------------------------------------------------------------
 Cartesian Forces:  Max     0.010659246 RMS     0.003463430

 GradGradGradGradGradGradGradGradGradGradGradGradGradGradGradGradGradGrad
 Berny optimization.
 FormGI is forming the generalized inverse of G from B-inverse, IUseBI=4.
 Internal  Forces:  Max     0.016791736 RMS     0.002234976
 Search for a local minimum.
 Step number   1 out of a maximum of  186
 All quantities printed in internal units (Hartrees-Bohrs-Radians)
 Mixed Optimization -- RFO/linear search
 Second derivative matrix not updated -- first step.
 ITU=  0
     Eigenvalues ---    0.00391   0.00632   0.00682   0.00731   0.01422
     Eigenvalues ---    0.01439   0.01730   0.02641   0.02700   0.03174
     Eigenvalues ---    0.03207   0.03927   0.04092   0.04508   0.04670
     Eigenvalues ---    0.04855   0.04882   0.05106   0.05150   0.05164
     Eigenvalues ---    0.05195   0.05642   0.05755   0.05939   0.06156
     Eigenvalues ---    0.06403   0.06571   0.06665   0.07664   0.07672
     Eigenvalues ---    0.07897   0.07902   0.07909   0.08056   0.08071
     Eigenvalues ---    0.09245   0.09367   0.09648   0.10880   0.11599
     Eigenvalues ---    0.11633   0.11696   0.11698   0.12489   0.12627
     Eigenvalues ---    0.14679   0.15773   0.16394   0.17764   0.19250
     Eigenvalues ---    0.20508   0.21444   0.22413   0.25000   0.27363
     Eigenvalues ---    0.27530   0.28400   0.28543   0.28767   0.28987
     Eigenvalues ---    0.29526   0.30180   0.35080   0.35119   0.35171
     Eigenvalues ---    0.35229   0.35250   0.35310   0.35313   0.35366
     Eigenvalues ---    0.35404   0.35444   0.35452   0.35480   0.35488
     Eigenvalues ---    0.35494   0.35828   0.35835   0.35907   0.36282
     Eigenvalues ---    0.40113   0.41536   0.41793   0.42415   0.42789
     Eigenvalues ---    0.460991000.000001000.000001000.000001000.00000
     Eigenvalues --- 1000.000001000.000001000.000001000.000001000.00000
     Eigenvalues --- 1000.000001000.000001000.000001000.000001000.00000
     Eigenvalues --- 1000.000001000.000001000.000001000.000001000.00000
     Eigenvalues --- 1000.000001000.000001000.000001000.000001000.00000
     Eigenvalues --- 1000.000001000.000001000.000001000.000001000.00000
     Eigenvalues --- 1000.000001000.000001000.000001000.000001000.00000
     Eigenvalues --- 1000.000001000.000001000.000001000.000001000.00000
     Eigenvalues --- 1000.000001000.000001000.000001000.000001000.00000
     Eigenvalues --- 1000.000001000.000001000.000001000.000001000.00000
     Eigenvalues --- 1000.000001000.000001000.000001000.000001000.00000
     Eigenvalues --- 1000.000001000.000001000.000001000.000001000.00000
     Eigenvalues --- 1000.000001000.000001000.000001000.000001000.00000
     Eigenvalues --- 1000.000001000.000001000.000001000.000001000.00000
     Eigenvalues --- 1000.000001000.000001000.000001000.000001000.00000
     Eigenvalues --- 1000.000001000.000001000.000001000.000001000.00000
     Eigenvalues --- 1000.000001000.000001000.000001000.000001000.00000
     Eigenvalues --- 1000.000001000.000001000.000001000.000001000.00000
     Eigenvalues --- 1000.000001000.000001000.000001000.000001000.00000
     Eigenvalues --- 1000.000001000.000001000.000001000.000001000.00000
 RFO step:  Lambda=-3.95278525D-03 EMin= 3.91268649D-03
 Linear search not attempted -- first point.
 Iteration  1 RMS(Cart)=  0.08011087 RMS(Int)=  0.00118171
 Iteration  2 RMS(Cart)=  0.00374979 RMS(Int)=  0.00006239
 Iteration  3 RMS(Cart)=  0.00000299 RMS(Int)=  0.00006237
 Iteration  4 RMS(Cart)=  0.00000000 RMS(Int)=  0.00006237
 Iteration  1 RMS(Cart)=  0.00002972 RMS(Int)=  0.00000716
 Iteration  2 RMS(Cart)=  0.00001636 RMS(Int)=  0.00000800
 Iteration  3 RMS(Cart)=  0.00000900 RMS(Int)=  0.00000905
 Iteration  4 RMS(Cart)=  0.00000495 RMS(Int)=  0.00000974
 Iteration  5 RMS(Cart)=  0.00000273 RMS(Int)=  0.00001016
 Iteration  6 RMS(Cart)=  0.00000150 RMS(Int)=  0.00001039
 Iteration  7 RMS(Cart)=  0.00000083 RMS(Int)=  0.00001052
 Variable       Old X    -DE/DX   Delta X   Delta X   Delta X     New X
                                 (Linear)    (Quad)   (Total)
    R1        2.88509  -0.00276   0.00000  -0.00857  -0.00856   2.87653
    R2        2.88251  -0.00059   0.00000  -0.00149  -0.00146   2.88105
    R3        2.69187   0.00027   0.00000   0.00064   0.00064   2.69251
    R4        2.04890   0.00597   0.00000   0.01663   0.01663   2.06554
    R5        2.89088   0.00115   0.00000   0.00320   0.00323   2.89410
    R6        2.90945  -0.00027   0.00000  -0.00230  -0.00225   2.90719
    R7        2.05084   0.00265   0.00000   0.00742   0.00742   2.05826
    R8        2.05271   0.00302   0.00000   0.00846   0.00846   2.06117
    R9        2.64020   0.00170   0.00000   0.00365   0.00365   2.64385
   R10        2.88244  -0.00108   0.00000  -0.00208  -0.00210   2.88034
   R11        2.65664   0.00388   0.00000   0.00988   0.00985   2.66649
   R12        2.03643   0.00856   0.00000   0.02333   0.02333   2.05976
   R13        2.68056   0.00325   0.00000   0.00737   0.00735   2.68790
   R14        2.04228   0.00426   0.00000   0.01173   0.01173   2.05401
   R15        2.04880   0.00612   0.00000   0.01705   0.01705   2.06584
   R16        2.88610  -0.00045   0.00000  -0.00253  -0.00253   2.88357
   R17        2.05305   0.00306   0.00000   0.00859   0.00859   2.06164
   R18        2.04960   0.00251   0.00000   0.00699   0.00699   2.05659
   R19        2.89677  -0.00066   0.00000  -0.00229  -0.00231   2.89446
   R20        2.04947   0.00362   0.00000   0.01010   0.01010   2.05957
   R21        2.05024   0.00518   0.00000   0.01447   0.01447   2.06471
   R22        2.66527   0.00309   0.00000   0.00697   0.00699   2.67226
   R23        2.04341   0.00473   0.00000   0.01306   0.01306   2.05647
   R24        2.05481   0.00672   0.00000   0.01892   0.01892   2.07374
   R25        2.67551   0.00353   0.00000   0.00772   0.00771   2.68322
   R26        2.87135   0.00040   0.00000   0.00081   0.00078   2.87213
   R27        2.05546   0.00610   0.00000   0.01720   0.01720   2.07265
   R28        2.04352   0.00436   0.00000   0.01203   0.01203   2.05555
   R29        2.05170   0.00306   0.00000   0.00858   0.00858   2.06028
   R30        2.05399   0.00320   0.00000   0.00900   0.00900   2.06298
   R31        2.05175   0.00398   0.00000   0.01116   0.01116   2.06291
   R32        2.04903   0.00293   0.00000   0.00817   0.00817   2.05720
    A1        1.92089   0.00033   0.00000  -0.00762  -0.00781   1.91309
    A2        2.04204  -0.00304   0.00000  -0.02323  -0.02332   2.01871
    A3        1.89267   0.00056   0.00000   0.00732   0.00748   1.90015
    A4        1.86555   0.00130   0.00000  -0.00127  -0.00165   1.86390
    A5        1.89030  -0.00039   0.00000   0.00371   0.00368   1.89398
    A6        1.84652   0.00139   0.00000   0.02371   0.02380   1.87032
    A7        1.92399   0.00007   0.00000  -0.00734  -0.00749   1.91650
    A8        1.92222  -0.00064   0.00000  -0.00026  -0.00023   1.92199
    A9        1.89414   0.00075   0.00000   0.00500   0.00504   1.89917
   A10        1.92142   0.00086   0.00000   0.00226   0.00232   1.92375
   A11        1.93142  -0.00117   0.00000  -0.00244  -0.00241   1.92901
   A12        1.86978   0.00012   0.00000   0.00312   0.00309   1.87287
   A13        1.88089  -0.00205   0.00000  -0.00835  -0.00833   1.87256
   A14        1.94400  -0.00019   0.00000  -0.00250  -0.00237   1.94163
   A15        1.92470   0.00130   0.00000   0.00906   0.00904   1.93374
   A16        1.95008   0.00288   0.00000   0.01002   0.00987   1.95995
   A17        1.92793   0.00003   0.00000   0.00339   0.00348   1.93140
   A18        1.83683  -0.00187   0.00000  -0.01111  -0.01113   1.82570
   A19        1.92734   0.00123   0.00000   0.00191   0.00171   1.92905
   A20        1.95027  -0.00031   0.00000  -0.00318  -0.00311   1.94716
   A21        1.94043  -0.00091   0.00000  -0.00319  -0.00318   1.93724
   A22        1.85385  -0.00107   0.00000  -0.00033  -0.00028   1.85356
   A23        1.90823   0.00072   0.00000   0.00424   0.00433   1.91257
   A24        1.88099   0.00034   0.00000   0.00081   0.00079   1.88177
   A25        1.92077  -0.00080   0.00000  -0.00654  -0.00676   1.91401
   A26        1.91823   0.00060   0.00000   0.00153   0.00159   1.91981
   A27        1.93175  -0.00019   0.00000   0.00009   0.00015   1.93190
   A28        1.90386   0.00044   0.00000  -0.00045  -0.00039   1.90347
   A29        1.92522  -0.00008   0.00000   0.00102   0.00107   1.92629
   A30        1.86304   0.00008   0.00000   0.00471   0.00467   1.86771
   A31        1.89685   0.00103   0.00000  -0.00034  -0.00031   1.89654
   A32        1.93517  -0.00007   0.00000  -0.00075  -0.00077   1.93440
   A33        1.92533  -0.00167   0.00000  -0.01370  -0.01369   1.91164
   A34        1.91725  -0.00021   0.00000   0.00331   0.00330   1.92054
   A35        1.90708   0.00057   0.00000   0.00883   0.00880   1.91588
   A36        1.88207   0.00035   0.00000   0.00286   0.00280   1.88487
   A37        1.93855   0.00157   0.00000   0.00862   0.00870   1.94725
   A38        1.92650  -0.00073   0.00000  -0.00752  -0.00763   1.91887
   A39        1.91829  -0.00284   0.00000  -0.02029  -0.02035   1.89794
   A40        1.86542  -0.00037   0.00000   0.00410   0.00410   1.86952
   A41        1.91712   0.00158   0.00000   0.01401   0.01405   1.93117
   A42        1.89690   0.00089   0.00000   0.00184   0.00164   1.89854
   A43        1.93383   0.00220   0.00000   0.00948   0.00951   1.94334
   A44        1.90269   0.00058   0.00000   0.00658   0.00660   1.90929
   A45        1.85705  -0.00120   0.00000  -0.00285  -0.00284   1.85421
   A46        1.93111  -0.00173   0.00000  -0.01067  -0.01072   1.92040
   A47        1.94470  -0.00045   0.00000  -0.00333  -0.00334   1.94136
   A48        1.89228   0.00063   0.00000   0.00123   0.00119   1.89347
   A49        1.97399  -0.00484   0.00000  -0.02723  -0.02720   1.94679
   A50        1.93574  -0.00097   0.00000  -0.00678  -0.00683   1.92891
   A51        1.91944  -0.00025   0.00000   0.00100   0.00102   1.92046
   A52        1.92034   0.00073   0.00000   0.00070   0.00068   1.92102
   A53        1.90833   0.00076   0.00000   0.00495   0.00496   1.91328
   A54        1.90424  -0.00021   0.00000  -0.00268  -0.00267   1.90158
   A55        1.87465  -0.00003   0.00000   0.00315   0.00314   1.87779
   A56        2.13938  -0.01679   0.00000  -0.06612  -0.06612   2.07325
   A57        1.91691   0.00008   0.00000  -0.00591  -0.00601   1.91090
   A58        1.90934  -0.00046   0.00000  -0.00902  -0.00899   1.90035
   A59        1.89486  -0.00020   0.00000   0.00369   0.00373   1.89859
   A60        1.92064   0.00004   0.00000   0.00248   0.00238   1.92301
   A61        1.94884   0.00036   0.00000   0.00518   0.00527   1.95411
   A62        1.87234   0.00016   0.00000   0.00350   0.00348   1.87582
   A63        2.01060  -0.00569   0.00000  -0.03441  -0.03448   1.97612
    D1        0.93186   0.00002   0.00000   0.00924   0.00916   0.94102
    D2        3.04087   0.00038   0.00000   0.01265   0.01255   3.05342
    D3       -1.15861  -0.00032   0.00000   0.00688   0.00680  -1.15181
    D4        3.06497  -0.00024   0.00000  -0.01630  -0.01623   3.04874
    D5       -1.10922   0.00012   0.00000  -0.01290  -0.01283  -1.12205
    D6        0.97449  -0.00057   0.00000  -0.01866  -0.01859   0.95590
[...]
 529,0.00006091,0.00028073,-0.00038969,-0.00017797,0.00004927,-0.000933
 55,0.00088172,0.00001660,-0.00000994,-0.00000347,0.00000007,0.00000098
 ,0.00000317,-0.00001119,-0.00001222,0.00001873,-0.00005677,0.00003102,
 -0.00000782,-0.00009297,-0.00001813,-0.00006609,-0.00000243,-0.0000001
 8,0.00000127,-0.00000215,-0.00000785,0.00000956,-0.00007425,0.00010549
 ,0.00007281,0.00029420,0.00011440,0.00038582,0.01253908,0.01873223,-0.
 01709146,-0.07858430,-0.10688120,0.16116785,-0.00038449,0.00019386,0.0
 0000407,0.00000118,0.00000500,0.00000177,-0.00012388,0.00001534,0.0000
 8529,-0.00003546,-0.00005052,-0.00000301,0.00000435,-0.00000186,0.0000
 1095,0.00118976,0.00032916,-0.00072395,0.00297919,0.00200272,-0.002699
 98,-0.10532291,-0.07100232,0.06858802,0.00480623,0.00543778,-0.0081112
 2,0.00358045,0.00682078,-0.00504714,0.00012957,-0.00005355,0.00004928,
 0.00000529,0.00001115,-0.00001447,0.00011055,0.00004252,-0.00002324,-0
 .00010262,-0.00018893,0.00007036,0.00000365,0.00000095,-0.00000281,0.0
 0000626,0.00000029,0.00000099,-0.00000187,0.00000818,-0.00000339,0.000
 00448,0.00000580,0.00000007,-0.00000024,-0.00000103,-0.00000161,-0.000
 00048,-0.00000057,-0.00000194,0.00000675,0.00000054,-0.00000243,0.0001
 0319,-0.00015944,0.00005580,0.00016773,-0.00007235,0.00026472,0.000151
 24,0.00001475,0.00010898,0.00063517,-0.00050395,0.00077035,0.10341494,
 -0.00016920,-0.00019226,-0.00012700,0.00000019,0.00000109,0.00000211,-
 0.00007718,-0.00002152,0.00009495,0.00000031,-0.00001108,-0.00000403,0
 .00000134,-0.00000387,0.00000609,-0.00129935,0.00154347,0.00047724,0.0
 0162167,0.00066257,-0.00050368,-0.07037731,-0.15460558,0.09931287,0.00
 348613,0.01004303,-0.00800031,-0.01520357,-0.02285213,0.01970869,0.000
 19332,0.00007235,0.00011412,0.00000328,0.00000797,-0.00000815,0.000021
 43,0.00004761,-0.00002446,-0.00010044,-0.00005300,-0.00007586,0.000001
 14,0.00000120,-0.00000126,0.00000187,0.00000006,0.00000016,0.00000417,
 0.00000728,-0.00000220,0.00000458,0.00000235,-0.00000032,0.00000075,-0
 .00000157,0.00000133,0.00000004,0.00000029,-0.00000164,0.00000349,0.00
 000114,-0.00000182,0.00001425,0.00029630,-0.00046264,0.00084618,0.0002
 2155,-0.00012948,0.00021191,0.00004842,-0.00003468,0.00056427,-0.00038
 087,0.00077157,0.07645263,0.16658202,-0.00031542,-0.00058975,-0.000126
 09,0.00000189,-0.00000021,0.00000044,0.00012532,0.00005793,-0.00027917
 ,0.00002945,0.00002675,0.00000531,-0.00001357,0.00000836,-0.00001925,-
 0.00037093,-0.00001886,-0.00005590,0.00616978,0.00103051,0.00107578,0.
 06466386,0.09811195,-0.13728946,0.00572755,0.01408433,-0.04433687,-0.0
 0213992,-0.00426386,0.00620921,-0.00058178,0.00032387,0.00021043,-0.00
 002633,-0.00001173,0.00005204,-0.00004850,-0.00006135,0.00007207,0.000
 10255,-0.00002663,-0.00004405,-0.00000306,-0.00000138,0.00000267,-0.00
 000366,-0.00000065,-0.00000141,-0.00001038,0.00000672,0.00002352,-0.00
 000472,-0.00000685,0.00000115,0.00000149,0.00000347,0.00000039,0.00000
 087,0.00000059,0.00000232,-0.00001090,-0.00000260,0.00000525,-0.000118
 18,0.00002216,0.00001806,-0.00021824,0.00026743,-0.00018022,-0.0003412
 7,-0.00042615,0.00029156,-0.00131914,-0.00038119,0.00072204,-0.0725631
 2,-0.10643924,0.16982306,0.00043239,-0.00037005,0.00033777,-0.00000047
 ,-0.00000476,-0.00000470,0.00023597,0.00004589,-0.00020680,0.00006103,
 0.00007509,0.00001753,-0.00001109,0.00000842,-0.00002407,0.00115721,0.
 00188552,0.00048471,0.00303962,-0.00047461,-0.00170188,-0.31778572,0.0
 2822162,-0.00988805,-0.01001348,-0.00125644,-0.00617143,-0.00637927,0.
 00027128,0.00089741,-0.00044974,0.00011927,0.00007668,-0.00001567,-0.0
 0002550,0.00003620,-0.00014623,-0.00010439,0.00005732,-0.00000368,0.00
 003757,-0.00003234,-0.00000546,-0.00000223,0.00000463,-0.00001007,-0.0
 0000065,-0.00000243,-0.00000478,-0.00002384,0.00001029,-0.00000497,-0.
 00001226,0.00000190,0.00000063,0.00000062,-0.00000184,0.00000165,0.000
 00074,0.00000350,-0.00001512,-0.00000213,0.00000569,-0.00058920,0.0000
 1215,-0.00026231,0.00025956,-0.00006011,-0.00002292,-0.00061412,0.0002
 3346,-0.00020212,0.00018580,0.00004651,0.00008765,-0.01218907,0.001518
 51,0.00052139,0.34226109,-0.00058014,-0.00044945,-0.00093681,0.0000031
 6,0.00000692,0.00000901,-0.00008206,-0.00015216,-0.00001377,-0.0000319
 6,-0.00005882,-0.00002465,-0.00000066,-0.00000571,0.00001483,0.0001591
 5,-0.00608558,-0.00129109,-0.00002692,-0.00024862,-0.00201306,0.029947
 58,-0.05424147,0.00314224,-0.01163240,0.00122612,-0.00255979,0.0326110
 9,-0.00258744,0.00145343,0.00018919,0.00022132,0.00019150,-0.00001013,
 0.00005274,0.00001779,0.00009356,0.00013814,-0.00000628,0.00001908,0.0
 0004478,0.00010212,0.00000246,0.00000282,-0.00000339,0.00000846,0.0000
 0031,0.00000160,-0.00001307,0.00009140,0.00005494,0.00000826,0.0000123
 9,-0.00000148,0.00000553,0.00000398,0.00000952,-0.00000141,-0.00000092
 ,-0.00000265,0.00001028,0.00000174,-0.00000366,0.00196962,-0.00026152,
 0.00036178,-0.00001566,0.00011302,-0.00014199,-0.00053777,0.00033592,-
 0.00032319,0.00038148,0.00006146,-0.00004230,-0.02048275,0.00316911,-0
 .00074642,-0.03075219,0.05607715,0.00002124,-0.00089558,-0.00059575,0.
 00000297,0.00000171,0.00000278,0.00011595,0.00005084,-0.00025219,0.000
 02039,0.00000481,-0.00000190,-0.00001053,0.00000607,-0.00001166,-0.000
 09696,-0.00221009,0.00028587,0.00135666,-0.00117696,-0.00543618,0.0021
 0463,0.00270578,-0.04864395,-0.04244302,0.00041093,-0.01120895,0.00707
 582,0.00118963,0.00131305,-0.00043781,0.00043099,0.00037540,-0.0000208
 9,0.00001334,0.00005105,-0.00000806,-0.00002133,0.00007416,-0.00000332
 ,0.00005326,0.00003441,-0.00000215,-0.00000030,0.00000116,-0.00000042,
 -0.00000062,-0.00000073,-0.00006673,0.00002959,0.00004614,-0.00000146,
 -0.00000228,0.00000061,0.00000725,0.00000610,0.00000496,0.00000018,0.0
 0000039,0.00000108,-0.00000658,-0.00000174,0.00000333,0.00067150,-0.00
 025973,0.00040694,-0.00049375,-0.00001554,0.00002346,-0.00172006,0.000
 14599,-0.00029051,-0.00036199,-0.00023466,0.00025436,0.01908302,-0.002
 88951,0.00271032,0.01601755,0.00234089,0.06052529,-0.00561181,0.002018
 41,0.00298690,0.00000344,-0.00000440,-0.00000895,0.00105991,-0.0000863
 6,-0.00096474,0.00010089,0.00011469,0.00003879,-0.00003007,0.00003563,
 -0.00005055,-0.01007578,-0.00831618,-0.03290803,-0.00082532,0.00058920
 ,0.00021169,0.00136551,-0.00056978,0.00881586,0.00108432,0.00322606,0.
 00163968,-0.06079163,-0.01422399,-0.06084848,-0.00216161,-0.00086378,-
 0.00228938,-0.00007711,-0.00003219,0.00012474,-0.00020169,-0.00025901,
 0.00025423,0.00020418,0.00016028,-0.00015045,-0.00000953,-0.00000718,0
 .00000933,-0.00001584,-0.00000151,-0.00000484,0.00005803,0.00004971,0.
 00010784,-0.00001476,-0.00002361,0.00000791,-0.00000288,0.00001034,-0.
 00000722,-0.00000259,0.00000054,0.00001253,-0.00003483,-0.00000738,0.0
 0001625,0.00160898,0.00025569,0.00044969,0.00145858,-0.00040146,0.0004
 6804,0.00017222,-0.00009020,-0.00004219,0.00017351,-0.00008877,0.00006
 977,0.00027934,-0.00017833,-0.00021235,-0.00003955,-0.00071153,-0.0002
 0683,0.06868108,0.00113012,0.00032609,0.00019054,0.00000098,0.00000061
 ,0.00000279,-0.00010321,0.00006112,0.00011308,0.00000107,-0.00000874,-
 0.00000842,0.00000313,-0.00000424,0.00000146,0.00040956,0.00040852,0.0
 0471043,0.00217364,-0.00012122,0.00060092,-0.00973271,-0.00212030,-0.0
 2852993,0.00068808,-0.00807207,-0.00506577,-0.01431028,-0.06249819,-0.
 05469209,0.00045491,0.00048115,0.00034049,0.00001223,-0.00000517,-0.00
 001342,0.00001881,0.00002779,-0.00001378,0.00006459,-0.00008913,-0.000
 40161,-0.00000016,0.00000065,-0.00000025,0.00000119,-0.00000008,0.0000
 0039,-0.00000934,-0.00001572,-0.00001433,0.00000123,0.00000061,-0.0000
 0080,0.00000089,-0.00000052,0.00000426,0.00000061,-0.00000006,-0.00000
 119,0.00000216,0.00000063,-0.00000140,-0.00047613,0.00015758,0.0003459
 5,-0.00013577,0.00009695,-0.00034107,-0.00025957,0.00007833,-0.0000292
 7,-0.00024452,0.00003115,0.00001383,-0.00063049,0.00095528,0.00095054,
 0.00046146,0.00103246,0.00044983,0.01469768,0.06423376,-0.00017942,0.0
 0040292,0.00168652,-0.00000121,-0.00000665,-0.00000662,0.00031632,0.00
 001666,-0.00033139,0.00005629,0.00008112,0.00002123,-0.00001129,0.0000
 1297,-0.00002682,-0.00025626,0.00005377,-0.00181051,0.00097934,0.00044
 429,0.00030319,-0.00137960,0.00112175,-0.00607157,-0.00014224,-0.00267
 815,0.00009920,-0.06189042,-0.05662041,-0.28774386,-0.00042124,-0.0002
 5790,-0.00005317,-0.00002192,-0.00002658,0.00004481,-0.00015148,-0.000
 13634,0.00008344,0.00000930,0.00008327,0.00029292,-0.00000565,-0.00000
 299,0.00000522,-0.00001063,-0.00000047,-0.00000253,0.00001357,-0.00001
 846,0.00001058,-0.00000637,-0.00001407,0.00000308,-0.00000054,0.000002
 54,-0.00000434,0.00000008,0.00000068,0.00000484,-0.00001711,-0.0000029
 0,0.00000732,-0.00022233,0.00030515,0.00011369,-0.00027690,-0.00001999
 ,0.00052638,-0.00002283,-0.00002318,-0.00008314,-0.00014009,-0.0000267
 5,-0.00000518,0.00006323,-0.00036332,0.00037286,0.00024540,-0.00021083
 ,0.00012612,0.06774364,0.06224786,0.30975153,0.00074867,-0.00054508,0.
 00216514,-0.00003041,-0.00004677,-0.00003808,0.00015559,0.00005447,0.0
 0045178,0.00006210,0.00028501,0.00003492,0.00000873,-0.00000952,-0.000
 02030,-0.01834023,-0.02060504,0.02044120,-0.00045602,0.00003300,-0.000
 12489,0.00483365,0.00752459,-0.00734589,-0.00007980,-0.00099042,-0.000
 24653,-0.11137450,-0.08079235,0.07773927,0.00022701,0.00038143,-0.0004
 5920,0.00003877,-0.00006743,-0.00003656,-0.00052869,-0.00027789,-0.000
 23569,0.00002003,0.00006010,-0.00089235,-0.00000900,-0.00000242,0.0000
 0823,-0.00003503,0.00000245,-0.00000184,0.00000068,-0.00011710,-0.0000
 7029,-0.00000639,-0.00002404,0.00000868,-0.00001871,-0.00002564,-0.000
 02527,0.00000417,0.00000254,0.00000207,-0.00001633,0.00000111,0.000001
 92,0.00137833,0.00035391,0.00007276,-0.00566330,0.00115287,-0.00190240
 ,0.00005652,-0.00012415,-0.00003298,-0.00002187,0.00012586,-0.00001863
 ,0.00057581,0.00244991,0.00095628,0.00065458,-0.00055968,-0.00060621,0
 .00365465,0.00577849,-0.00425554,0.12420737,-0.00024968,-0.00014310,0.
 00014851,0.00000463,0.00000547,0.00000183,0.00001026,0.00003675,-0.000
 03791,0.00000565,-0.00002713,0.00000174,-0.00000123,0.00000322,-0.0000
 0050,0.00271825,0.00298133,-0.00352988,0.00017256,-0.00014331,-0.00010
 120,-0.01522595,-0.02389183,0.02168164,0.00010980,0.00372090,-0.000020
 54,-0.08085966,-0.14876925,0.09728835,-0.00001711,0.00005196,-0.000084
 45,-0.00000506,-0.00000307,-0.00000398,0.00005518,0.00002665,0.0000256
 0,-0.00021024,-0.00010220,-0.00020883,0.00000081,-0.00000017,0.,0.0000
 0242,-0.00000043,-0.00000008,0.00001639,-0.00000306,-0.00000128,0.0000
 0068,0.00000079,-0.00000110,0.00000151,0.00000188,0.00000183,-0.000000
 29,-0.00000048,0.00000049,-0.00000019,-0.00000024,0.00000040,-0.000437
 18,0.00049170,-0.00037666,0.00123608,0.00078617,0.00041784,-0.00004192
 ,0.00001884,-0.00003376,0.00010138,0.00001338,0.00016463,0.00180833,-0
 .00553931,-0.00191945,0.00014645,0.00150464,-0.00013185,0.00468022,0.0
 0504782,-0.00437199,0.08597934,0.16393045,-0.00063777,-0.00055840,0.00
 039153,-0.00000117,0.00000546,0.00000526,-0.00014655,-0.00003187,0.000
 10620,-0.00002362,-0.00002940,-0.00001896,0.00000324,-0.00000505,0.000
 00920,-0.00165662,-0.00354116,0.00244921,-0.00042864,-0.00002512,-0.00
 004333,-0.00373662,-0.00547754,0.00239066,0.00042699,0.00037194,0.0022
 3700,0.07759757,0.09975543,-0.14602514,0.00019532,0.00002145,0.0000491
 8,0.00001361,0.00000394,-0.00001084,0.00005412,0.00006630,-0.00003968,
 -0.00022397,0.00017552,0.00019476,0.00000148,0.00000120,-0.00000186,0.
 00000496,-0.00000042,0.00000117,-0.00001260,0.00001770,-0.00000631,0.0
 0000416,0.00000519,-0.00000062,0.00000162,0.00000048,0.00000144,-0.000
 00040,-0.00000020,-0.00000175,0.00000624,0.00000093,-0.00000216,0.0004
 7070,-0.00004849,0.00019302,-0.00093606,-0.00024147,0.00078256,0.00003
 930,0.00003103,0.00001021,0.00004893,0.00007719,-0.00017990,0.00004018
 ,-0.00141868,0.00073258,-0.00028126,0.00061274,0.00019691,0.01470909,0
 .01914703,-0.01731599,-0.08554108,-0.10891215,0.15389613,0.00014665,-0
 .00012976,-0.00009317,0.00107636,0.00109061,-0.00069954,-0.00411515,-0
 .02019680,-0.02476961,0.00037685,-0.00053395,-0.00060204,-0.00003066,0
 .01488241,0.02393464,-0.00025484,-0.00008110,-0.00013551,0.00002195,0.
 00010463,0.00004653,-0.00006856,-0.00003583,-0.00006500,0.00008701,-0.
 00005229,0.00003443,0.00004488,0.00008894,0.00010348,0.00255501,-0.000
 43231,-0.00055134,-0.04600871,-0.00100141,-0.00334790,-0.00010117,0.00
 169576,0.00035817,0.00008104,0.00000549,0.00001631,-0.00000853,0.00017
 003,-0.00023175,-0.00001189,-0.00016287,-0.00027618,-0.00430087,0.0016
 1642,-0.00170875,0.00000654,0.00005687,0.00002340,0.00023122,0.0003196
 9,0.00012934,-0.00381532,-0.00197024,0.00337397,0.00086688,0.00047554,
 -0.00095707,0.00000444,0.00016965,0.00005402,0.00006075,-0.00004578,0.
 00009164,-0.00001051,0.00001195,0.00000776,0.00000632,-0.00002086,0.00
 000247,0.00000287,0.00000254,0.00000354,-0.00000550,0.00002581,0.00001
 180,0.00000687,-0.00000160,-0.00000518,-0.00003828,-0.00000172,0.00000
 379,0.05371088,0.00005346,0.00023397,0.00021682,0.00074240,0.00097696,
 0.00055521,-0.00056353,0.00174771,0.00406005,0.00033089,-0.00086078,0.
 00061045,0.00044467,0.00511135,0.00855611,0.00012422,-0.00003376,-0.00
 000720,-0.00002712,-0.00004891,-0.00003201,0.00000340,-0.00000068,0.00
 001551,-0.00005246,0.00002969,-0.00000568,-0.00000072,0.00000266,0.000
 03846,-0.00038265,0.00024989,0.00053969,-0.00248489,-0.12974208,-0.121
 26659,0.00021150,-0.00006527,-0.00044049,-0.00001727,-0.00000223,0.000
 01400,0.00000257,0.00010530,-0.00020019,-0.00007696,0.00016922,-0.0005
 8839,0.00023883,0.00093219,-0.00001058,-0.00006530,0.00017109,0.000121
 66,0.00027366,-0.00089545,0.00093380,-0.00151028,0.00036375,0.00178757
 ,0.00048233,0.00014423,-0.00047495,0.00000420,0.00000460,-0.00002088,0
 .00000178,-0.00002178,0.00001035,-0.00000072,-0.00000300,-0.00000029,-
 0.00000209,0.00000045,0.00000254,0.00000147,-0.00000038,-0.00000225,-0
 .00000239,0.00000066,-0.00000233,0.00000726,-0.00000249,-0.00000130,-0
 .00000718,0.00000161,-0.00000018,0.00298032,0.13785508,-0.00004652,0.0
 0021113,0.00031685,0.00008747,-0.00055799,0.00067553,-0.00035941,-0.01
 166539,-0.01483808,-0.00023860,-0.00090131,-0.00079392,0.00100839,-0.0
 0951889,-0.01699944,0.00020992,-0.00011525,-0.00005524,-0.00001549,0.0
 0002981,0.00001827,-0.00003296,-0.00001091,-0.00002797,0.00002351,-0.0
 0001537,0.00000872,0.00001852,0.00007007,0.00013337,0.00304201,0.00066
 366,0.00128164,-0.00742823,-0.11957910,-0.22954391,-0.00077854,0.00162
 634,0.00008785,0.00004463,0.00001575,0.00001227,-0.00007638,-0.0000094
 0,0.00026128,0.00011987,0.00046103,-0.00027467,-0.00193975,0.00100231,
 -0.00054832,0.00001451,0.00015867,0.00037759,-0.00043942,0.00066081,0.
 00025202,0.00316855,0.00113168,-0.00109874,0.00000994,0.00013468,0.000
 72378,-0.00001315,0.00009230,-0.00000927,0.00003982,-0.00002995,0.0000
 2489,-0.00000548,-0.00000187,0.00000010,-0.00000578,-0.00000948,0.0000
 0054,0.00000015,-0.00000047,0.00000126,-0.00000226,0.00000893,0.000004
 54,0.00002788,-0.00000609,0.00000250,-0.00001955,0.00000160,-0.0000006
 5,0.00349118,0.13164494,0.25176088,0.00001995,-0.00051765,0.00043338,-
 0.00389609,-0.00031943,0.00439898,0.00023607,0.02825752,-0.00558996,-0
 .00171900,-0.00089636,-0.00013479,0.00219275,-0.02699197,0.00486844,-0
 .00003349,0.00004278,-0.00005091,0.00011843,-0.00002981,-0.00001651,0.
 00000944,-0.00001038,0.00001745,-0.00005334,0.00001122,-0.00001494,0.0
 0001545,-0.00002640,-0.00001756,-0.00084012,-0.00078132,-0.00022564,-0
 .04833815,0.01462676,-0.00387423,-0.00356889,0.00340933,-0.00464170,-0
 .00020657,-0.00000137,-0.00001905,-0.00000164,-0.00167186,0.00044727,0
 .00000123,-0.00016845,-0.00013751,0.00122617,-0.00017920,0.00019732,0.
 00018401,0.00007375,0.00001373,0.00012965,0.00013280,-0.00010813,0.000
 99722,0.00076805,-0.00036742,0.00093797,0.00030573,-0.00101701,-0.0000
 0605,-0.00002056,-0.00001038,0.00002933,-0.00000986,0.00003464,-0.0000
 0285,-0.00000063,0.00000415,0.00000816,-0.00000956,0.00000461,0.000003
 01,0.00000145,-0.00000248,-0.00000633,0.00000358,-0.00000219,-0.000016
 51,0.00000295,-0.00000894,-0.00000812,0.00000030,0.00000508,-0.0005164
 9,-0.00070941,0.00009522,0.05310479,-0.00009670,0.00006445,-0.00007407
 ,-0.00092792,0.00116500,0.00136376,-0.00282643,-0.00451638,-0.00035485
 ,-0.00024358,0.00059180,-0.00021155,0.00047693,-0.00539369,0.00056961,
 0.00009905,-0.00001658,-0.00000113,-0.00003277,0.00006205,0.00002918,-
 0.00000521,0.00000978,-0.00002805,0.00008875,-0.00004190,0.00001244,-0
 .00002429,0.00001308,0.00002752,0.00117472,0.00041719,-0.00013586,0.01
 638642,-0.30243231,0.06827231,0.00059511,0.00065821,0.00017014,0.00009
 406,-0.00001221,0.00001065,0.00004995,-0.00060490,0.00008558,-0.000051
 57,0.00004887,-0.00011064,0.00010317,0.00121768,-0.00012796,0.00004046
 ,-0.00000925,0.00016606,-0.00012084,0.00015923,0.00010950,-0.00011899,
 0.00035787,0.00030698,-0.00034415,0.00027184,-0.00012280,0.00000301,-0
 .00000620,0.00000288,-0.00002979,0.00000587,-0.00002492,0.00000156,-0.
 00000222,-0.00000694,-0.00000191,0.00000781,-0.00000453,-0.00000347,-0
 .00000152,0.00000395,0.00000700,-0.00000540,0.00000239,0.00001995,-0.0
 0000257,0.00000929,0.00000960,0.00000002,-0.00000340,0.00096988,-0.016
 42358,0.00450778,-0.01529200,0.32441798,-0.00007334,0.00005324,0.00009
 582,0.00295697,0.00001479,-0.00162960,0.00016566,0.01541793,-0.0058413
 2,-0.00006759,-0.00164261,-0.00051730,-0.00192372,0.01850516,-0.004724
 97,0.00002878,0.00001293,-0.00004477,0.00001893,0.00001429,-0.00001276
 ,0.00000363,-0.00000104,-0.00000038,-0.00001139,-0.00000171,0.00000162
 ,0.00000355,-0.00001920,0.00001963,0.00001609,-0.00026828,0.00001839,-
 0.00430021,0.06505254,-0.06481866,-0.00376415,0.00250911,-0.00247072,-
 0.00001287,0.00001402,0.00000890,0.00001715,0.00100702,-0.00004761,0.0
 0014832,0.00033912,-0.00010952,0.00057077,0.00007060,0.00031653,-0.000
 00750,0.00013769,0.00019484,-0.00011746,0.00011314,0.00038466,-0.00082
 266,-0.00023970,0.00044402,-0.00032024,-0.00056633,0.00076050,-0.00000
 965,-0.00001422,-0.00000336,0.00003276,0.00000494,0.00002786,-0.000003
 25,-0.00000383,0.00000522,0.00000466,-0.00001331,0.00000471,0.00000109
 ,-0.00000035,0.00000011,-0.00000118,0.00000004,-0.00000012,0.00000016,
 0.00000001,-0.00000031,-0.00000897,0.00000116,0.00000017,0.00175657,-0
 .02605387,0.00824634,0.00571910,-0.07444333,0.06969210\\0.00027991,0.0
 0435654,-0.00134957,0.00000734,-0.00001202,-0.00000289,0.00012264,0.00
 246036,-0.00059153,-0.00000977,-0.00001726,0.00000042,0.00001103,0.000
 00854,-0.00000041,-0.00015091,-0.00212577,0.00070041,0.00000610,0.0000
 0839,0.00001504,-0.00000434,0.00000038,0.00000053,-0.00000886,0.,0.000
 00250,0.00000991,-0.00000365,0.00000998,-0.00023225,-0.00467741,0.0012
 1132,-0.00001570,-0.00000534,0.00000466,-0.00000186,0.00001488,0.00001
 212,-0.00000082,-0.00000171,0.00000284,0.00000030,0.00000126,0.0000018
 1,-0.00000229,-0.00000586,0.00000291,-0.00000379,-0.00001711,-0.000003
 82,0.00000368,-0.00000273,0.00000074,-0.00000282,0.00000273,-0.0000014
 6,-0.00000312,0.00000050,-0.00000517,0.00000075,-0.00000364,-0.0000125
 5,0.00000449,-0.00000039,-0.00000320,-0.00000692,-0.00000959,0.0000101
 3,0.00000130,0.00000416,-0.00000402,0.00000216,0.00000125,-0.00000259,
 0.00000081,0.00000232,0.00000124,0.00000162,0.00000684,-0.00000061,-0.
 00000097,0.00000503,0.00000142,-0.00000177,0.00000318,-0.00000162,0.00
 000482,0.00000098,-0.00000358,-0.00001069,0.00000515,0.00000494\\\@


 THE ... SCIENTISTS WERE WRONG ... THE MOST PERSISTENT PRINCIPLES 
 OF THE UNIVERSE WERE ACCIDENT AND ERROR.

                          -- FRANK HERBERT IN DUNE
 Job cpu time:       0 days 13 hours 50 minutes 21.0 seconds.
 Elapsed time:       0 days  0 hours 51 minutes 55.6 seconds.
 File lengths (MBytes):  RWF=    689 Int=      0 D2E=      0 Chk=     33 Scr=      1
 Normal termination of Gaussian 16 at Mon Nov  5 01:13:05 2018.
