 Entering Gaussian System, Link 0=g16
 Initial command:
 /apps/gaussian/g16a03/g16/l1.exe "/jobfs/local/2011848.r-man2/Gau-28555.inp" -scrdir="/jobfs/local/2011848.r-man2/"
 Entering Link 1 = /apps/gaussian/g16a03/g16/l1.exe PID=     28556.
  
 Copyright (c) 1988,1990,1992,1993,1995,1998,2003,2009,2016,
            Gaussian, Inc.  All Rights Reserved.
  
 This is part of the Gaussian(R) 16 program.  It is based on
 the Gaussian(R) 09 system (copyright 2009, Gaussian, Inc.),
 the Gaussian(R) 03 system (copyright 2003, Gaussian, Inc.),
 the Gaussian(R) 98 system (copyright 1998, Gaussian, Inc.),
 the Gaussian(R) 94 system (copyright 1995, Gaussian, Inc.),
 the Gaussian 92(TM) system (copyright 1992, Gaussian, Inc.),
 the Gaussian 90(TM) system (copyright 1990, Gaussian, Inc.),
 the Gaussian 88(TM) system (copyright 1988, Gaussian, Inc.),
 the Gaussian 86(TM) system (copyright 1986, Carnegie Mellon
 University), and the Gaussian 82(TM) system (copyright 1983,
 Carnegie Mellon University). Gaussian is a federally registered
 trademark of Gaussian, Inc.
  
 This software contains proprietary and confidential information,
 including trade secrets, belonging to Gaussian, Inc.
  
 This software is provided under written license and may be
 used, copied, transmitted, or stored only in accord with that
 written license.
  
 The following legend is applicable only to US Government
 contracts under FAR:
  
                    RESTRICTED RIGHTS LEGEND
  
 Use, reproduction and disclosure by the US Government is
 subject to restrictions as set forth in subparagraphs (a)
 and (c) of the Commercial Computer Software - Restricted
 Rights clause in FAR 52.227-19.
  
 Gaussian, Inc.
 340 Quinnipiac St., Bldg. 40, Wallingford CT 06492
  
  
 ---------------------------------------------------------------
 Warning -- This program may not be used in any manner that
 competes with the business of Gaussian, Inc. or will provide
 assistance to any competitor of Gaussian, Inc.  The licensee
 of this program is prohibited from giving any competitor of
 Gaussian, Inc. access to this program.  By using this program,
 the user acknowledges that Gaussian, Inc. is engaged in the
 business of creating and licensing software in the field of
 computational chemistry and represents and warrants to the
 licensee that it is not a competitor of Gaussian, Inc. and that
 it will not use this program in any manner prohibited above.
 ---------------------------------------------------------------
  

 Cite this work as:
 Gaussian 16, Revision A.03,
 M. J. Frisch, G. W. Trucks, H. B. Schlegel, G. E. Scuseria, 
 M. A. Robb, J. R. Cheeseman, G. Scalmani, V. Barone, 
 G. A. Petersson, H. Nakatsuji, X. Li, M. Caricato, A. V. Marenich, 
 J. Bloino, B. G. Janesko, R. Gomperts, B. Mennucci, H. P. Hratchian, 
 J. V. Ortiz, A. F. Izmaylov, J. L. Sonnenberg, D. Williams-Young, 
 F. Ding, F. Lipparini, F. Egidi, J. Goings, B. Peng, A. Petrone, 
 T. Henderson, D. Ranasinghe, V. G. Zakrzewski, J. Gao, N. Rega, 
 G. Zheng, W. Liang, M. Hada, M. Ehara, K. Toyota, R. Fukuda, 
 J. Hasegawa, M. Ishida, T. Nakajima, Y. Honda, O. Kitao, H. Nakai, 
 T. Vreven, K. Throssell, J. A. Montgomery, Jr., J. E. Peralta, 
 F. Ogliaro, M. J. Bearpark, J. J. Heyd, E. N. Brothers, K. N. Kudin, 
 V. N. Staroverov, T. A. Keith, R. Kobayashi, J. Normand, 
 K. Raghavachari, A. P. Rendell, J. C. Burant, S. S. Iyengar, 
 J. Tomasi, M. Cossi, J. M. Millam, M. Klene, C. Adamo, R. Cammi, 
 J. W. Ochterski, R. L. Martin, K. Morokuma, O. Farkas, 
 J. B. Foresman, and D. J. Fox, Gaussian, Inc., Wallingford CT, 2016.
 
 ******************************************
 Gaussian 16:  ES64L-G16RevA.03 25-Dec-2016
                 4-Nov-2018 
 ******************************************
 %mem=6000mb
 %nproc=24
 Will use up to   24 processors via shared memory.
 %chk=2SO_1_e4_D_PSI.inp_extract_11.chk
 ----------------------------------------------------------------------
 #M062X/6-311++G(2d,2p) opt=ModRedundant freq=noraman SCRF=(Solvent=Wat
 er)
 ----------------------------------------------------------------------
 1/18=120,19=15,26=3,38=1/1,3;
 2/9=110,12=2,17=6,18=5,40=1/2;
 3/5=4,6=6,7=1212,11=2,25=1,30=1,70=2201,71=1,72=1,74=-55/1,2,3;
 4//1;
 5/5=2,38=5,53=1/2;
 6/7=2,8=2,9=2,10=2,28=1/1;
 7//1,2,3,16;
 1/18=20,19=15,26=3/3(2);
 2/9=110/2;
 99//99;
 2/9=110/2;
 3/5=4,6=6,7=1212,11=2,25=1,30=1,70=2205,71=1,72=1,74=-55/1,2,3;
 4/5=5,16=3,69=1/1;
 5/5=2,38=5,53=1/2;
 7//1,2,3,16;
 1/18=20,19=15,26=3/3(-5);
 2/9=110/2;
 6/7=2,8=2,9=2,10=2,19=2,28=1/1;
 99/9=1/99;
 -----------------------------
 2SO_1_e4_D_PSI.inp_extract_11
 -----------------------------
 Symbolic Z-matrix:
 Charge =  0 Multiplicity = 1
 C                     1.2449    0.31915  -0.71375 
 C                    -3.7556   -0.70943   0.27224 
 C                    -1.07205   0.5436    0.09521 
 C                    -2.43115  -1.40973  -0.03825 
 C                    -3.5378    0.80935   0.39753 
 C                     1.85562   1.27453   0.30722 
 C                     1.60032  -1.12238  -0.35623 
 C                     3.64375  -0.45701   0.62469 
 O                     3.00597  -1.26809  -0.34584 
 C                     3.36503   1.01695   0.37371 
 O                    -0.1443    0.49271  -0.95101 
 C                    -2.32673   1.23409  -0.43023 
 O                    -1.3553   -0.73762   0.59674 
 H                     1.68929   0.5271   -1.67935 
 H                    -4.18024  -1.1022    1.19049 
 H                    -4.45858  -0.93088  -0.52573 
 H                    -0.66308   1.08782   0.93059 
 H                    -2.41669  -2.42356   0.33565 
 H                    -2.24937  -1.44815  -1.10637 
 H                    -3.36763   1.07396   1.43741 
 H                    -4.42153   1.35073   0.07773 
 H                     1.65151   2.3038    0.02821 
 H                     1.42981   1.10726   1.29148 
 H                     1.21691  -1.80798  -1.09954 
 H                     1.20295  -1.39853   0.61439 
 H                     3.29579  -0.74874   1.61307 
 H                     4.70067  -0.67555   0.55698 
 H                     3.81409   1.60627   1.16748 
 H                     3.83513   1.31523  -0.55974 
 H                    -2.47565   0.96603  -1.47188 
 H                    -2.17211   2.30667  -0.39283 
 
 The following ModRedundant input section has been read:
 D       6       1      11       3 F                                           
 

 GradGradGradGradGradGradGradGradGradGradGradGradGradGradGradGradGradGrad
 Berny optimization.
 Initialization pass.
                           ----------------------------
                           !    Initial Parameters    !
                           ! (Angstroms and Degrees)  !
 --------------------------                            --------------------------
 ! Name  Definition              Value          Derivative Info.                !
 --------------------------------------------------------------------------------
 ! R1    R(1,6)                  1.5258         estimate D2E/DX2                !
 ! R2    R(1,7)                  1.5271         estimate D2E/DX2                !
 ! R3    R(1,11)                 1.42           estimate D2E/DX2                !
 ! R4    R(1,14)                 1.0831         estimate D2E/DX2                !
 ! R5    R(2,4)                  1.53           estimate D2E/DX2                !
 ! R6    R(2,5)                  1.5394         estimate D2E/DX2                !
 ! R7    R(2,15)                 1.0853         estimate D2E/DX2                !
 ! R8    R(2,16)                 1.0863         estimate D2E/DX2                !
 ! R9    R(3,11)                 1.3993         estimate D2E/DX2                !
 ! R10   R(3,12)                 1.5255         estimate D2E/DX2                !
 ! R11   R(3,13)                 1.4047         estimate D2E/DX2                !
 ! R12   R(3,17)                 1.0776         estimate D2E/DX2                !
 ! R13   R(4,13)                 1.4186         estimate D2E/DX2                !
 ! R14   R(4,18)                 1.0807         estimate D2E/DX2                !
 ! R15   R(4,19)                 1.0842         estimate D2E/DX2                !
 ! R16   R(5,12)                 1.5272         estimate D2E/DX2                !
 ! R17   R(5,20)                 1.0864         estimate D2E/DX2                !
 ! R18   R(5,21)                 1.0846         estimate D2E/DX2                !
 ! R19   R(6,10)                 1.5327         estimate D2E/DX2                !
 ! R20   R(6,22)                 1.0858         estimate D2E/DX2                !
 ! R21   R(6,23)                 1.0854         estimate D2E/DX2                !
 ! R22   R(7,9)                  1.4132         estimate D2E/DX2                !
 ! R23   R(7,24)                 1.0815         estimate D2E/DX2                !
 ! R24   R(7,25)                 1.0846         estimate D2E/DX2                !
 ! R25   R(8,9)                  1.4165         estimate D2E/DX2                !
 ! R26   R(8,10)                 1.5209         estimate D2E/DX2                !
 ! R27   R(8,26)                 1.0877         estimate D2E/DX2                !
 ! R28   R(8,27)                 1.0814         estimate D2E/DX2                !
 ! R29   R(10,28)                1.0858         estimate D2E/DX2                !
 ! R30   R(10,29)                1.0869         estimate D2E/DX2                !
 ! R31   R(12,30)                1.0859         estimate D2E/DX2                !
 ! R32   R(12,31)                1.0843         estimate D2E/DX2                !
 ! A1    A(6,1,7)              109.9521         estimate D2E/DX2                !
 ! A2    A(6,1,11)             115.2682         estimate D2E/DX2                !
 ! A3    A(6,1,14)             108.1854         estimate D2E/DX2                !
 ! A4    A(7,1,11)             112.4698         estimate D2E/DX2                !
 ! A5    A(7,1,14)             107.1252         estimate D2E/DX2                !
 ! A6    A(11,1,14)            103.2368         estimate D2E/DX2                !
 ! A7    A(4,2,5)              110.2189         estimate D2E/DX2                !
 ! A8    A(4,2,15)             110.1667         estimate D2E/DX2                !
 ! A9    A(4,2,16)             108.5307         estimate D2E/DX2                !
 ! A10   A(5,2,15)             110.0938         estimate D2E/DX2                !
 ! A11   A(5,2,16)             110.6395         estimate D2E/DX2                !
 ! A12   A(15,2,16)            107.1311         estimate D2E/DX2                !
 ! A13   A(11,3,12)            107.7135         estimate D2E/DX2                !
 ! A14   A(11,3,13)            111.5598         estimate D2E/DX2                !
 ! A15   A(11,3,17)            110.2654         estimate D2E/DX2                !
 ! A16   A(12,3,13)            111.7132         estimate D2E/DX2                !
 ! A17   A(12,3,17)            110.5217         estimate D2E/DX2                !
 ! A18   A(13,3,17)            105.0917         estimate D2E/DX2                !
 ! A19   A(2,4,13)             110.4142         estimate D2E/DX2                !
 ! A20   A(2,4,18)             111.763          estimate D2E/DX2                !
 ! A21   A(2,4,19)             111.1795         estimate D2E/DX2                !
 ! A22   A(13,4,18)            106.2278         estimate D2E/DX2                !
 ! A23   A(13,4,19)            109.307          estimate D2E/DX2                !
 ! A24   A(18,4,19)            107.7808         estimate D2E/DX2                !
 ! A25   A(2,5,12)             110.0279         estimate D2E/DX2                !
 ! A26   A(2,5,20)             109.899          estimate D2E/DX2                !
 ! A27   A(2,5,21)             110.682          estimate D2E/DX2                !
 ! A28   A(12,5,20)            109.0771         estimate D2E/DX2                !
 ! A29   A(12,5,21)            110.3346         estimate D2E/DX2                !
 ! A30   A(20,5,21)            106.7544         estimate D2E/DX2                !
 ! A31   A(1,6,10)             108.5408         estimate D2E/DX2                !
 ! A32   A(1,6,22)             110.2657         estimate D2E/DX2                !
 ! A33   A(1,6,23)             110.6872         estimate D2E/DX2                !
 ! A34   A(10,6,22)            110.83           estimate D2E/DX2                !
 ! A35   A(10,6,23)            108.7303         estimate D2E/DX2                !
 ! A36   A(22,6,23)            107.7804         estimate D2E/DX2                !
 ! A37   A(1,7,9)              109.3016         estimate D2E/DX2                !
 ! A38   A(1,7,24)             110.7929         estimate D2E/DX2                !
 ! A39   A(1,7,25)             111.3828         estimate D2E/DX2                !
 ! A40   A(9,7,24)             106.9967         estimate D2E/DX2                !
 ! A41   A(9,7,25)             109.3658         estimate D2E/DX2                !
 ! A42   A(24,7,25)            108.8925         estimate D2E/DX2                !
 ! A43   A(9,8,10)             111.0592         estimate D2E/DX2                !
 ! A44   A(9,8,26)             108.9648         estimate D2E/DX2                !
 ! A45   A(9,8,27)             106.3463         estimate D2E/DX2                !
 ! A46   A(10,8,26)            110.5635         estimate D2E/DX2                !
 ! A47   A(10,8,27)            111.3844         estimate D2E/DX2                !
 ! A48   A(26,8,27)            108.3821         estimate D2E/DX2                !
 ! A49   A(7,9,8)              113.193          estimate D2E/DX2                !
 ! A50   A(6,10,8)             110.5181         estimate D2E/DX2                !
 ! A51   A(6,10,28)            110.3519         estimate D2E/DX2                !
 ! A52   A(6,10,29)            110.0337         estimate D2E/DX2                !
 ! A53   A(8,10,28)            109.2421         estimate D2E/DX2                !
 ! A54   A(8,10,29)            109.1734         estimate D2E/DX2                !
 ! A55   A(28,10,29)           107.4583         estimate D2E/DX2                !
 ! A56   A(1,11,3)             121.8826         estimate D2E/DX2                !
 ! A57   A(3,12,5)             109.856          estimate D2E/DX2                !
 ! A58   A(3,12,30)            109.3585         estimate D2E/DX2                !
 ! A59   A(3,12,31)            108.5766         estimate D2E/DX2                !
 ! A60   A(5,12,30)            110.0317         estimate D2E/DX2                !
 ! A61   A(5,12,31)            111.685          estimate D2E/DX2                !
 ! A62   A(30,12,31)           107.2677         estimate D2E/DX2                !
 ! A63   A(3,13,4)             115.1656         estimate D2E/DX2                !
 ! D1    D(7,1,6,10)            55.3647         estimate D2E/DX2                !
 ! D2    D(7,1,6,22)           176.9421         estimate D2E/DX2                !
 ! D3    D(7,1,6,23)           -63.8892         estimate D2E/DX2                !
 ! D4    D(11,1,6,10)         -176.2479         estimate D2E/DX2                !
 ! D5    D(11,1,6,22)          -54.6705         estimate D2E/DX2                !
 ! D6    D(11,1,6,23)           64.4982         estimate D2E/DX2                !
 ! D7    D(14,1,6,10)          -61.3139         estimate D2E/DX2                !
 ! D8    D(14,1,6,22)           60.2634         estimate D2E/DX2                !
 ! D9    D(14,1,6,23)          179.4321         estimate D2E/DX2                !
 ! D10   D(6,1,7,9)            -59.4248         estimate D2E/DX2                !
 ! D11   D(6,1,7,24)          -177.0892         estimate D2E/DX2                !
 ! D12   D(6,1,7,25)            61.536          estimate D2E/DX2                !
 ! D13   D(11,1,7,9)           170.6666         estimate D2E/DX2                !
 ! D14   D(11,1,7,24)           53.0021         estimate D2E/DX2                !
 ! D15   D(11,1,7,25)          -68.3727         estimate D2E/DX2                !
 ! D16   D(14,1,7,9)            57.9159         estimate D2E/DX2                !
 ! D17   D(14,1,7,24)          -59.7485         estimate D2E/DX2                !
 ! D18   D(14,1,7,25)          178.8767         estimate D2E/DX2                !
 ! D19   D(6,1,11,3)           -51.0084         Frozen                          !
 ! D20   D(7,1,11,3)            76.1172         estimate D2E/DX2                !
 ! D21   D(14,1,11,3)         -168.7551         estimate D2E/DX2                !
 ! D22   D(5,2,4,13)            33.6935         estimate D2E/DX2                !
 ! D23   D(5,2,4,18)           151.7051         estimate D2E/DX2                !
 ! D24   D(5,2,4,19)           -87.8098         estimate D2E/DX2                !
 ! D25   D(15,2,4,13)          -87.9947         estimate D2E/DX2                !
 ! D26   D(15,2,4,18)           30.0169         estimate D2E/DX2                !
 ! D27   D(15,2,4,19)          150.502          estimate D2E/DX2                !
 ! D28   D(16,2,4,13)          155.0008         estimate D2E/DX2                !
 ! D29   D(16,2,4,18)          -86.9877         estimate D2E/DX2                !
 ! D30   D(16,2,4,19)           33.4975         estimate D2E/DX2                !
 ! D31   D(4,2,5,12)            26.7159         estimate D2E/DX2                !
 ! D32   D(4,2,5,20)           -93.411          estimate D2E/DX2                !
 ! D33   D(4,2,5,21)           148.9215         estimate D2E/DX2                !
 ! D34   D(15,2,5,12)          148.4473         estimate D2E/DX2                !
 ! D35   D(15,2,5,20)           28.3205         estimate D2E/DX2                !
 ! D36   D(15,2,5,21)          -89.3471         estimate D2E/DX2                !
 ! D37   D(16,2,5,12)          -93.3264         estimate D2E/DX2                !
 ! D38   D(16,2,5,20)          146.5468         estimate D2E/DX2                !
 ! D39   D(16,2,5,21)           28.8792         estimate D2E/DX2                !
 ! D40   D(12,3,11,1)          159.3373         estimate D2E/DX2                !
 ! D41   D(13,3,11,1)          -77.7206         estimate D2E/DX2                !
 ! D42   D(17,3,11,1)           38.6586         estimate D2E/DX2                !
 ! D43   D(11,3,12,5)          155.8594         estimate D2E/DX2                !
 ! D44   D(11,3,12,30)          35.0026         estimate D2E/DX2                !
 ! D45   D(11,3,12,31)         -81.7409         estimate D2E/DX2                !
 ! D46   D(13,3,12,5)           33.0114         estimate D2E/DX2                !
 ! D47   D(13,3,12,30)         -87.8454         estimate D2E/DX2                !
 ! D48   D(13,3,12,31)         155.4111         estimate D2E/DX2                !
 ! D49   D(17,3,12,5)          -83.623          estimate D2E/DX2                !
 ! D50   D(17,3,12,30)         155.5202         estimate D2E/DX2                !
 ! D51   D(17,3,12,31)          38.7766         estimate D2E/DX2                !
 ! D52   D(11,3,13,4)          -89.6361         estimate D2E/DX2                !
 ! D53   D(12,3,13,4)           30.9926         estimate D2E/DX2                !
 ! D54   D(17,3,13,4)          150.8735         estimate D2E/DX2                !
 ! D55   D(2,4,13,3)           -67.9252         estimate D2E/DX2                !
 ! D56   D(18,4,13,3)          170.7188         estimate D2E/DX2                !
 ! D57   D(19,4,13,3)           54.6809         estimate D2E/DX2                !
 ! D58   D(2,5,12,3)           -61.7331         estimate D2E/DX2                !
 ! D59   D(2,5,12,30)           58.7171         estimate D2E/DX2                !
 ! D60   D(2,5,12,31)          177.7291         estimate D2E/DX2                !
 ! D61   D(20,5,12,3)           58.8899         estimate D2E/DX2                !
 ! D62   D(20,5,12,30)         179.3402         estimate D2E/DX2                !
 ! D63   D(20,5,12,31)         -61.6478         estimate D2E/DX2                !
 ! D64   D(21,5,12,3)          175.8558         estimate D2E/DX2                !
 ! D65   D(21,5,12,30)         -63.6939         estimate D2E/DX2                !
 ! D66   D(21,5,12,31)          55.318          estimate D2E/DX2                !
 ! D67   D(1,6,10,8)           -52.9908         estimate D2E/DX2                !
 ! D68   D(1,6,10,28)         -173.9305         estimate D2E/DX2                !
 ! D69   D(1,6,10,29)           67.6545         estimate D2E/DX2                !
 ! D70   D(22,6,10,8)         -174.2217         estimate D2E/DX2                !
 ! D71   D(22,6,10,28)          64.8386         estimate D2E/DX2                !
 ! D72   D(22,6,10,29)         -53.5764         estimate D2E/DX2                !
 ! D73   D(23,6,10,8)           67.4841         estimate D2E/DX2                !
 ! D74   D(23,6,10,28)         -53.4556         estimate D2E/DX2                !
 ! D75   D(23,6,10,29)        -171.8706         estimate D2E/DX2                !
 ! D76   D(1,7,9,8)             62.135          estimate D2E/DX2                !
 ! D77   D(24,7,9,8)          -177.8408         estimate D2E/DX2                !
 ! D78   D(25,7,9,8)           -60.0448         estimate D2E/DX2                !
 ! D79   D(10,8,9,7)           -60.3057         estimate D2E/DX2                !
 ! D80   D(26,8,9,7)            61.7204         estimate D2E/DX2                !
 ! D81   D(27,8,9,7)           178.3544         estimate D2E/DX2                !
 ! D82   D(9,8,10,6)            54.8766         estimate D2E/DX2                !
 ! D83   D(9,8,10,28)          176.4742         estimate D2E/DX2                !
 ! D84   D(9,8,10,29)          -66.2806         estimate D2E/DX2                !
 ! D85   D(26,8,10,6)          -66.2143         estimate D2E/DX2                !
 ! D86   D(26,8,10,28)          55.3833         estimate D2E/DX2                !
 ! D87   D(26,8,10,29)         172.6285         estimate D2E/DX2                !
 ! D88   D(27,8,10,6)          173.214          estimate D2E/DX2                !
 ! D89   D(27,8,10,28)         -65.1885         estimate D2E/DX2                !
 ! D90   D(27,8,10,29)          52.0567         estimate D2E/DX2                !
 --------------------------------------------------------------------------------
 Trust Radius=3.00D-01 FncErr=1.00D-07 GrdErr=1.00D-06 EigMax=2.50D+02 EigMin=1.00D-04
 Number of steps in this run=    186 maximum allowed number of steps=    186.
 GradGradGradGradGradGradGradGradGradGradGradGradGradGradGradGradGradGrad

                          Input orientation:                          
 ---------------------------------------------------------------------
 Center     Atomic      Atomic             Coordinates (Angstroms)
 Number     Number       Type             X           Y           Z
 ---------------------------------------------------------------------
      1          6           0        1.244899    0.319145   -0.713751
      2          6           0       -3.755602   -0.709426    0.272235
      3          6           0       -1.072045    0.543604    0.095214
      4          6           0       -2.431150   -1.409727   -0.038253
      5          6           0       -3.537800    0.809345    0.397528
      6          6           0        1.855618    1.274530    0.307220
      7          6           0        1.600324   -1.122375   -0.356225
      8          6           0        3.643749   -0.457012    0.624686
      9          8           0        3.005971   -1.268088   -0.345838
     10          6           0        3.365031    1.016947    0.373711
     11          8           0       -0.144295    0.492710   -0.951013
     12          6           0       -2.326734    1.234091   -0.430226
     13          8           0       -1.355301   -0.737621    0.596743
     14          1           0        1.689291    0.527099   -1.679345
     15          1           0       -4.180236   -1.102202    1.190494
     16          1           0       -4.458577   -0.930884   -0.525730
     17          1           0       -0.663084    1.087817    0.930590
     18          1           0       -2.416686   -2.423565    0.335647
     19          1           0       -2.249366   -1.448147   -1.106370
     20          1           0       -3.367632    1.073963    1.437408
     21          1           0       -4.421532    1.350726    0.077727
     22          1           0        1.651507    2.303797    0.028214
     23          1           0        1.429810    1.107256    1.291484
     24          1           0        1.216911   -1.807980   -1.099540
     25          1           0        1.202952   -1.398529    0.614387
     26          1           0        3.295791   -0.748737    1.613073
     27          1           0        4.700667   -0.675551    0.556981
     28          1           0        3.814085    1.606265    1.167475
     29          1           0        3.835125    1.315233   -0.559742
     30          1           0       -2.475650    0.966031   -1.471881
     31          1           0       -2.172113    2.306674   -0.392829
 ---------------------------------------------------------------------
                    Distance matrix (angstroms):
                    1          2          3          4          5
     1  C    0.000000
     2  C    5.199532   0.000000
     3  C    2.464353   2.966968   0.000000
     4  C    4.118086   1.530032   2.383376   0.000000
     5  C    4.934516   1.539416   2.498391   2.517709   0.000000
     6  C    1.525818   5.951730   3.024964   5.069612   5.414195
     7  C    1.527132   5.408459   3.181327   4.054190   5.540758
     8  C    2.854525   7.412040   4.849772   6.184784   7.295883
     9  O    2.399176   6.812708   4.484080   5.447656   6.905741
    10  C    2.482833   7.327624   4.470935   6.297156   6.905993
    11  O    1.419957   3.997875   1.399250   3.111608   3.665337
    12  C    3.697847   2.512444   1.525485   2.674756   1.527176
    13  O    3.097610   2.422302   1.404743   1.418590   2.682553
    14  H    1.083098   5.914771   3.282424   4.839681   5.631656
    15  H    5.922708   1.085259   3.683635   2.159558   2.166917
    16  H    5.841880   1.086262   3.745435   2.139482   2.174542
    17  H    2.633460   3.636919   1.077622   3.209741   2.936953
    18  H    4.693708   2.176003   3.266490   1.080684   3.422343
    19  H    3.935398   2.171407   2.607098   1.084157   3.003005
    20  H    5.145161   2.165323   2.711547   3.036987   1.086430
    21  H    5.813694   2.173827   3.445405   3.405169   1.084596
    22  H    2.157472   6.194827   3.243533   5.519309   5.412826
    23  H    2.162470   5.588175   2.829849   4.796917   5.056190
    24  H    2.162008   5.273943   3.492378   3.820116   5.630176
    25  H    2.171662   5.017887   3.035957   3.692257   5.234163
    26  H    3.280341   7.177850   4.801253   5.996802   7.113588
    27  H    3.813989   8.461130   5.918089   7.194173   8.372734
    28  H    3.434590   7.966432   5.114026   7.039385   7.434925
    29  H    2.779421   7.900036   5.010459   6.852996   7.452001
    30  H    3.851715   2.736307   2.145772   2.775157   2.155784
    31  H    3.966010   3.470822   2.134655   3.742253   2.175261
                    6          7          8          9         10
     6  C    0.000000
     7  C    2.500098   0.000000
     8  C    2.509270   2.362304   0.000000
     9  O    2.866130   1.413217   1.416518   0.000000
    10  C    1.532677   2.867699   1.520930   2.422408   0.000000
    11  O    2.488784   2.450708   4.211185   3.659347   3.787491
    12  C    4.247061   4.580414   6.294389   5.891160   5.752361
    13  O    3.800339   3.129202   5.006997   4.493389   5.040812
    14  H    2.129028   2.116442   3.177568   2.595108   2.695013
    15  H    6.546798   5.983947   7.870905   7.350470   7.879656
    16  H    6.739934   6.064296   8.197298   7.474326   8.112452
    17  H    2.601406   3.415239   4.585726   4.543294   4.067044
    18  H    5.650601   4.278803   6.378068   5.586122   6.728062
    19  H    5.124656   3.935601   6.221552   5.313134   6.307835
    20  H    5.347887   5.720280   7.222456   7.020540   6.816411
    21  H    6.281806   6.524361   8.283468   7.887040   7.799332
    22  H    1.085770   3.448053   3.456425   3.838339   2.170603
    23  H    1.085389   2.777638   2.791609   3.287456   2.143722
    24  H    3.448012   1.081470   3.269191   2.015015   3.842538
    25  H    2.768676   1.084552   2.616114   2.046930   3.250698
    26  H    2.805879   2.625328   1.087698   2.047206   2.158345
    27  H    3.458251   3.262779   1.081397   2.009522   2.163807
    28  H    2.164643   3.829866   2.140268   3.347397   1.085821
    29  H    2.161418   3.313259   2.140174   2.721543   1.086875
    30  H    4.692574   4.713777   6.623269   6.025565   6.125550
    31  H    4.216397   5.098137   6.519014   6.292351   5.736806
                   11         12         13         14         15
    11  O    0.000000
    12  C    2.363029   0.000000
    13  O    2.318577   2.426107   0.000000
    14  H    1.973243   4.264809   4.006199   0.000000
    15  H    4.839278   3.394181   2.909591   6.733643   0.000000
    16  H    4.562950   3.039900   3.305695   6.422836   1.747069
    17  H    2.040521   2.154286   1.980617   3.558066   4.151396
    18  H    3.914577   3.738061   2.009258   5.442946   2.363657
    19  H    2.867470   2.767229   2.050559   4.443300   3.020517
    20  H    4.053679   2.144100   2.835142   5.965373   2.336019
    21  H    4.482104   2.158657   3.745977   6.411538   2.704317
    22  H    2.732000   4.144978   4.314434   2.464516   6.852806
    23  H    2.807894   4.134247   3.412196   3.038048   6.030300
    24  H    2.677334   4.718008   3.261797   2.451920   5.905216
    25  H    2.800417   4.525548   2.642304   3.034102   5.422031
    26  H    4.466533   6.302338   4.760852   3.879255   7.496298
    27  H    5.206970   7.348855   6.056417   3.939024   8.913687
    28  H    4.625664   6.356164   5.704567   3.712645   8.440704
    29  H    4.082330   6.163754   5.700192   2.545441   8.552972
    30  H    2.435273   1.085853   2.904620   4.193142   3.777756
    31  H    2.777423   1.084316   3.303660   4.442122   4.261444
                   16         17         18         19         20
    16  H    0.000000
    17  H    4.538919   0.000000
    18  H    2.671963   3.969746   0.000000
    19  H    2.342075   3.618924   1.748957   0.000000
    20  H    3.010562   2.751661   3.788255   3.752648   0.000000
    21  H    2.360355   3.862956   4.281495   3.735516   1.742422
    22  H    6.935643   2.765903   6.244410   5.530025   5.356312
    23  H    6.490715   2.123871   5.308093   5.080957   4.799776
    24  H    5.771457   4.005178   3.954963   3.484911   5.979944
    25  H    5.794089   3.124739   3.772290   3.857715   5.261256
    26  H    8.045985   4.417172   6.088453   6.215570   6.910449
    27  H    9.226549   5.658522   7.332207   7.187948   8.302614
    28  H    8.817086   4.513308   7.466858   7.159975   7.206474
    29  H    8.592537   4.744122   7.339310   6.704931   7.478404
    30  H    2.902669   3.011992   3.841874   2.452154   3.044872
    31  H    3.965774   2.348237   4.792249   3.822799   2.509703
                   21         22         23         24         25
    21  H    0.000000
    22  H    6.147569   0.000000
    23  H    5.980860   1.754056   0.000000
    24  H    6.569279   4.285722   3.776364   0.000000
    25  H    6.283409   3.775185   2.605549   1.762212   0.000000
    26  H    8.143839   3.812271   2.651417   3.577989   2.408231
    27  H    9.356816   4.295752   3.796894   4.020325   3.572115
    28  H    8.311332   2.541891   2.439089   4.851983   4.019043
    29  H    8.281305   2.468023   3.042340   4.111069   3.958714
    30  H    2.517088   4.590569   4.786308   4.633442   4.845180
    31  H    2.489005   3.846733   4.153235   5.377295   5.112150
                   26         27         28         29         30
    26  H    0.000000
    27  H    1.759080   0.000000
    28  H    2.452187   2.522977   0.000000
    29  H    3.044992   2.441199   1.751691   0.000000
    30  H    6.765124   7.636138   6.851049   6.385908   0.000000
    31  H    6.577017   7.551881   6.225728   6.090790   1.747516
                   31
    31  H    0.000000
 Stoichiometry    C10H18O3
 Framework group  C1[X(C10H18O3)]
 Deg. of freedom    87
 Full point group                 C1      NOp   1
 Largest Abelian subgroup         C1      NOp   1
 Largest concise Abelian subgroup C1      NOp   1
                         Standard orientation:                         
 ---------------------------------------------------------------------
 Center     Atomic      Atomic             Coordinates (Angstroms)
 Number     Number       Type             X           Y           Z
 ---------------------------------------------------------------------
      1          6           0        1.244899   -0.319145    0.713751
      2          6           0       -3.755602    0.709426   -0.272235
      3          6           0       -1.072045   -0.543604   -0.095214
      4          6           0       -2.431150    1.409727    0.038253
      5          6           0       -3.537800   -0.809345   -0.397528
      6          6           0        1.855618   -1.274530   -0.307220
      7          6           0        1.600324    1.122375    0.356225
      8          6           0        3.643749    0.457012   -0.624686
      9          8           0        3.005971    1.268088    0.345838
     10          6           0        3.365031   -1.016947   -0.373711
     11          8           0       -0.144295   -0.492710    0.951013
     12          6           0       -2.326734   -1.234091    0.430226
     13          8           0       -1.355301    0.737621   -0.596743
     14          1           0        1.689291   -0.527099    1.679345
     15          1           0       -4.180236    1.102202   -1.190494
     16          1           0       -4.458577    0.930884    0.525730
     17          1           0       -0.663084   -1.087817   -0.930590
     18          1           0       -2.416686    2.423565   -0.335647
     19          1           0       -2.249366    1.448147    1.106370
     20          1           0       -3.367632   -1.073963   -1.437408
     21          1           0       -4.421532   -1.350726   -0.077727
     22          1           0        1.651507   -2.303797   -0.028214
     23          1           0        1.429810   -1.107256   -1.291484
     24          1           0        1.216911    1.807980    1.099540
     25          1           0        1.202952    1.398529   -0.614387
     26          1           0        3.295791    0.748737   -1.613073
     27          1           0        4.700667    0.675551   -0.556981
     28          1           0        3.814085   -1.606265   -1.167475
     29          1           0        3.835125   -1.315233    0.559742
     30          1           0       -2.475650   -0.966031    1.471881
     31          1           0       -2.172113   -2.306674    0.392829
 ---------------------------------------------------------------------
 Rotational constants (GHZ):           2.0377497           0.4026673           0.3661136
 Standard basis: 6-311++G(2d,2p) (5D, 7F)
 There are   557 symmetry adapted cartesian basis functions of A   symmetry.
 There are   531 symmetry adapted basis functions of A   symmetry.
   531 basis functions,   762 primitive gaussians,   557 cartesian basis functions
    51 alpha electrons       51 beta electrons
       nuclear repulsion energy       890.8541475562 Hartrees.
 NAtoms=   31 NActive=   31 NUniq=   31 SFac= 1.00D+00 NAtFMM=   60 NAOKFM=F Big=F
 Integral buffers will be    131072 words long.
 Raffenetti 2 integral format.
 Two-electron integral symmetry is turned on.
 ------------------------------------------------------------------------------
 Polarizable Continuum Model (PCM)
 =================================
 Model                : PCM.
 Atomic radii         : UFF (Universal Force Field).
 Polarization charges : Total charges.
 Charge compensation  : None.
 Solution method      : On-the-fly selection.
 Cavity type          : Scaled VdW (van der Waals Surface) (Alpha=1.100).
 Cavity algorithm     : GePol (No added spheres)
                        Default sphere list used, NSphG=   31.
                        Lebedev-Laikov grids with approx.  5.0 points / Ang**2.
                        Smoothing algorithm: York/Karplus (Gamma=1.0000).
                        Polarization charges: spherical gaussians, with
                                              point-specific exponents (IZeta= 3).
                        Self-potential: point-specific (ISelfS= 7).
                        Self-field    : sphere-specific E.n sum rule (ISelfD= 2).
 1st derivatives      : Analytical E(r).r(x)/FMM algorithm (CHGder, D1EAlg=3).
                        Cavity 1st derivative terms included.
 Solvent              : Water, Eps=  78.355300 Eps(inf)=   1.777849
 ------------------------------------------------------------------------------
 One-electron integrals computed using PRISM.
 NBasis=   531 RedAO= T EigKep=  5.59D-06  NBF=   531
 NBsUse=   531 1.00D-06 EigRej= -1.00D+00 NBFU=   531
 ExpMin= 3.60D-02 ExpMax= 8.59D+03 ExpMxC= 1.30D+03 IAcc=3 IRadAn=         5 AccDes= 0.00D+00
 Harris functional with IExCor= 1009 and IRadAn=       5 diagonalized for initial guess.
 HarFok:  IExCor= 1009 AccDes= 0.00D+00 IRadAn=         5 IDoV= 1 UseB2=F ITyADJ=14
 ICtDFT=  3500011 ScaDFX=  1.000000  1.000000  1.000000  1.000000
 FoFCou: FMM=F IPFlag=           0 FMFlag=      100000 FMFlg1=           0
         NFxFlg=           0 DoJE=T BraDBF=F KetDBF=T FulRan=T
         wScrn=  0.000000 ICntrl=       500 IOpCl=  0 I1Cent=   200000004 NGrid=           0
         NMat0=    1 NMatS0=      1 NMatT0=    0 NMatD0=    1 NMtDS0=    0 NMtDT0=    0
 Petite list used in FoFCou.
 Requested convergence on RMS density matrix=1.00D-08 within 128 cycles.
 Requested convergence on MAX density matrix=1.00D-06.
 Requested convergence on             energy=1.00D-06.
 No special actions if energy rises.
 Inv3:  Mode=1 IEnd=    12792675.
 Iteration    1 A*A^-1 deviation from unit magnitude is 4.00D-15 for   2046.
 Iteration    1 A*A^-1 deviation from orthogonality  is 3.34D-15 for   2042    399.
 Iteration    1 A^-1*A deviation from unit magnitude is 4.00D-15 for   2046.
 Iteration    1 A^-1*A deviation from orthogonality  is 3.68D-15 for   2057   1353.
 Error on total polarization charges =  0.01479
 SCF Done:  E(RM062X) =  -617.492410725     A.U. after   13 cycles
            NFock= 13  Conv=0.21D-08     -V/T= 2.0035

 **********************************************************************

            Population analysis using the SCF density.

 **********************************************************************

 Orbital symmetries:
       Occupied  (A) (A) (A) (A) (A) (A) (A) (A) (A) (A) (A) (A)
                 (A) (A) (A) (A) (A) (A) (A) (A) (A) (A) (A) (A)
                 (A) (A) (A) (A) (A) (A) (A) (A) (A) (A) (A) (A)
                 (A) (A) (A) (A) (A) (A) (A) (A) (A) (A) (A) (A)
                 (A) (A) (A)
       Virtual   (A) (A) (A) (A) (A) (A) (A) (A) (A) (A) (A) (A)
                 (A) (A) (A) (A) (A) (A) (A) (A) (A) (A) (A) (A)
                 (A) (A) (A) (A) (A) (A) (A) (A) (A) (A) (A) (A)
                 (A) (A) (A) (A) (A) (A) (A) (A) (A) (A) (A) (A)
                 (A) (A) (A) (A) (A) (A) (A) (A) (A) (A) (A) (A)
                 (A) (A) (A) (A) (A) (A) (A) (A) (A) (A) (A) (A)
                 (A) (A) (A) (A) (A) (A) (A) (A) (A) (A) (A) (A)
                 (A) (A) (A) (A) (A) (A) (A) (A) (A) (A) (A) (A)
                 (A) (A) (A) (A) (A) (A) (A) (A) (A) (A) (A) (A)
                 (A) (A) (A) (A) (A) (A) (A) (A) (A) (A) (A) (A)
                 (A) (A) (A) (A) (A) (A) (A) (A) (A) (A) (A) (A)
                 (A) (A) (A) (A) (A) (A) (A) (A) (A) (A) (A) (A)
                 (A) (A) (A) (A) (A) (A) (A) (A) (A) (A) (A) (A)
                 (A) (A) (A) (A) (A) (A) (A) (A) (A) (A) (A) (A)
                 (A) (A) (A) (A) (A) (A) (A) (A) (A) (A) (A) (A)
                 (A) (A) (A) (A) (A) (A) (A) (A) (A) (A) (A) (A)
                 (A) (A) (A) (A) (A) (A) (A) (A) (A) (A) (A) (A)
                 (A) (A) (A) (A) (A) (A) (A) (A) (A) (A) (A) (A)
                 (A) (A) (A) (A) (A) (A) (A) (A) (A) (A) (A) (A)
                 (A) (A) (A) (A) (A) (A) (A) (A) (A) (A) (A) (A)
                 (A) (A) (A) (A) (A) (A) (A) (A) (A) (A) (A) (A)
                 (A) (A) (A) (A) (A) (A) (A) (A) (A) (A) (A) (A)
                 (A) (A) (A) (A) (A) (A) (A) (A) (A) (A) (A) (A)
                 (A) (A) (A) (A) (A) (A) (A) (A) (A) (A) (A) (A)
                 (A) (A) (A) (A) (A) (A) (A) (A) (A) (A) (A) (A)
                 (A) (A) (A) (A) (A) (A) (A) (A) (A) (A) (A) (A)
                 (A) (A) (A) (A) (A) (A) (A) (A) (A) (A) (A) (A)
                 (A) (A) (A) (A) (A) (A) (A) (A) (A) (A) (A) (A)
                 (A) (A) (A) (A) (A) (A) (A) (A) (A) (A) (A) (A)
                 (A) (A) (A) (A) (A) (A) (A) (A) (A) (A) (A) (A)
                 (A) (A) (A) (A) (A) (A) (A) (A) (A) (A) (A) (A)
                 (A) (A) (A) (A) (A) (A) (A) (A) (A) (A) (A) (A)
                 (A) (A) (A) (A) (A) (A) (A) (A) (A) (A) (A) (A)
                 (A) (A) (A) (A) (A) (A) (A) (A) (A) (A) (A) (A)
                 (A) (A) (A) (A) (A) (A) (A) (A) (A) (A) (A) (A)
                 (A) (A) (A) (A) (A) (A) (A) (A) (A) (A) (A) (A)
                 (A) (A) (A) (A) (A) (A) (A) (A) (A) (A) (A) (A)
                 (A) (A) (A) (A) (A) (A) (A) (A) (A) (A) (A) (A)
                 (A) (A) (A) (A) (A) (A) (A) (A) (A) (A) (A) (A)
                 (A) (A) (A) (A) (A) (A) (A) (A) (A) (A) (A) (A)
 The electronic state is 1-A.
 Alpha  occ. eigenvalues --  -19.63057 -19.62775 -19.62644 -10.63382 -10.58762
 Alpha  occ. eigenvalues --  -10.57863 -10.57703 -10.57558 -10.53329 -10.53253
 Alpha  occ. eigenvalues --  -10.53116 -10.53061 -10.52759  -1.19917  -1.16618
 Alpha  occ. eigenvalues --   -1.13692  -0.90802  -0.89766  -0.87446  -0.84544
 Alpha  occ. eigenvalues --   -0.75594  -0.74113  -0.73887  -0.70329  -0.66250
 Alpha  occ. eigenvalues --   -0.62162  -0.60773  -0.59080  -0.57725  -0.56576
 Alpha  occ. eigenvalues --   -0.55171  -0.53116  -0.52645  -0.49798  -0.49561
 Alpha  occ. eigenvalues --   -0.48608  -0.46734  -0.46038  -0.45671  -0.44450
 Alpha  occ. eigenvalues --   -0.44210  -0.42921  -0.41261  -0.40494  -0.38874
 Alpha  occ. eigenvalues --   -0.38493  -0.37807  -0.35842  -0.35256  -0.33690
 Alpha  occ. eigenvalues --   -0.31562
 Alpha virt. eigenvalues --   -0.00112   0.00741   0.00832   0.01072   0.02140
 Alpha virt. eigenvalues --    0.02451   0.02567   0.03537   0.03688   0.04221
 Alpha virt. eigenvalues --    0.04537   0.04797   0.05541   0.05864   0.07057
 Alpha virt. eigenvalues --    0.07354   0.07515   0.08379   0.09090   0.09228
 Alpha virt. eigenvalues --    0.10004   0.10341   0.11199   0.11320   0.11966
 Alpha virt. eigenvalues --    0.12203   0.12439   0.13278   0.13438   0.13684
 Alpha virt. eigenvalues --    0.13764   0.13821   0.14092   0.14458   0.14729
 Alpha virt. eigenvalues --    0.14984   0.15256   0.15404   0.15791   0.16356
 Alpha virt. eigenvalues --    0.16494   0.17126   0.17208   0.17490   0.18099
 Alpha virt. eigenvalues --    0.18232   0.18359   0.18571   0.19013   0.19050
 Alpha virt. eigenvalues --    0.19925   0.20262   0.20767   0.21109   0.21683
 Alpha virt. eigenvalues --    0.21964   0.22392   0.22740   0.23850   0.24180
 Alpha virt. eigenvalues --    0.24543   0.25357   0.26225   0.26392   0.26927
 Alpha virt. eigenvalues --    0.27087   0.27666   0.28269   0.28573   0.29306
 Alpha virt. eigenvalues --    0.30411   0.30768   0.31266   0.31831   0.32122
 Alpha virt. eigenvalues --    0.32844   0.33012   0.33631   0.34288   0.34378
 Alpha virt. eigenvalues --    0.34908   0.34957   0.35195   0.35883   0.36143
 Alpha virt. eigenvalues --    0.36564   0.37158   0.37581   0.37894   0.38341
 Alpha virt. eigenvalues --    0.38777   0.39362   0.40242   0.40533   0.41020
 Alpha virt. eigenvalues --    0.41612   0.42112   0.43122   0.44368   0.45353
 Alpha virt. eigenvalues --    0.45922   0.46527   0.49515   0.49784   0.50389
 Alpha virt. eigenvalues --    0.51339   0.52563   0.53016   0.53588   0.54599
 Alpha virt. eigenvalues --    0.55576   0.56783   0.57231   0.58051   0.58709
 Alpha virt. eigenvalues --    0.59421   0.59706   0.60662   0.60908   0.61412
 Alpha virt. eigenvalues --    0.61880   0.62493   0.63247   0.63728   0.63992
 Alpha virt. eigenvalues --    0.64957   0.65463   0.66088   0.66963   0.67269
 Alpha virt. eigenvalues --    0.67981   0.68727   0.69429   0.69629   0.70611
 Alpha virt. eigenvalues --    0.71113   0.71418   0.71802   0.72197   0.73491
 Alpha virt. eigenvalues --    0.74394   0.74515   0.74762   0.74972   0.75839
 Alpha virt. eigenvalues --    0.76362   0.76926   0.77520   0.77857   0.79226
 Alpha virt. eigenvalues --    0.79861   0.81216   0.83368   0.83954   0.85246
 Alpha virt. eigenvalues --    0.86150   0.86591   0.87920   0.89775   0.90249
 Alpha virt. eigenvalues --    0.90786   0.92002   0.93073   0.93470   0.93932
 Alpha virt. eigenvalues --    0.95797   0.97112   0.98004   1.00331   1.01743
 Alpha virt. eigenvalues --    1.03038   1.04981   1.06283   1.06777   1.07611
 Alpha virt. eigenvalues --    1.08326   1.08778   1.10299   1.10614   1.11067
 Alpha virt. eigenvalues --    1.12937   1.14151   1.14357   1.15926   1.16810
 Alpha virt. eigenvalues --    1.17476   1.17692   1.19016   1.20245   1.20533
 Alpha virt. eigenvalues --    1.21633   1.22485   1.23087   1.23423   1.24650
 Alpha virt. eigenvalues --    1.25003   1.25654   1.25973   1.26997   1.27656
 Alpha virt. eigenvalues --    1.28662   1.29174   1.29711   1.30469   1.30737
 Alpha virt. eigenvalues --    1.32294   1.33068   1.33435   1.34124   1.34706
 Alpha virt. eigenvalues --    1.35883   1.36112   1.36513   1.36956   1.38605
 Alpha virt. eigenvalues --    1.39099   1.39363   1.40541   1.40925   1.41269
 Alpha virt. eigenvalues --    1.42431   1.43012   1.43433   1.44157   1.45735
 Alpha virt. eigenvalues --    1.46556   1.47147   1.47807   1.48498   1.48940
 Alpha virt. eigenvalues --    1.49216   1.50797   1.50871   1.51390   1.52388
 Alpha virt. eigenvalues --    1.52441   1.53224   1.54266   1.54604   1.55255
 Alpha virt. eigenvalues --    1.56203   1.57050   1.57525   1.58408   1.58580
 Alpha virt. eigenvalues --    1.59014   1.59891   1.60649   1.61899   1.62660
 Alpha virt. eigenvalues --    1.62956   1.64182   1.64475   1.65932   1.66659
 Alpha virt. eigenvalues --    1.67462   1.68097   1.68740   1.68847   1.70105
 Alpha virt. eigenvalues --    1.72463   1.73374   1.74811   1.77518   1.77996
 Alpha virt. eigenvalues --    1.78916   1.79600   1.81038   1.81919   1.82914
 Alpha virt. eigenvalues --    1.85000   1.86932   1.89968   1.92555   1.96804
 Alpha virt. eigenvalues --    2.02793   2.04617   2.08180   2.13100   2.17955
 Alpha virt. eigenvalues --    2.25004   2.25768   2.30328   2.36562   2.40142
 Alpha virt. eigenvalues --    2.42415   2.44068   2.47276   2.47463   2.52145
 Alpha virt. eigenvalues --    2.56136   2.76196   2.76520   2.80757   2.81189
 Alpha virt. eigenvalues --    2.87549   2.88818   2.91951   2.92769   2.93231
 Alpha virt. eigenvalues --    2.95170   2.96431   3.00904   3.02255   3.03616
 Alpha virt. eigenvalues --    3.06217   3.07256   3.08124   3.09309   3.10948
 Alpha virt. eigenvalues --    3.13123   3.14108   3.15757   3.18170   3.21659
 Alpha virt. eigenvalues --    3.23536   3.28161   3.30951   3.32136   3.33276
 Alpha virt. eigenvalues --    3.36059   3.36337   3.37793   3.39221   3.40203
 Alpha virt. eigenvalues --    3.40948   3.43182   3.43901   3.44762   3.46365
 Alpha virt. eigenvalues --    3.47857   3.48638   3.48996   3.50561   3.51397
 Alpha virt. eigenvalues --    3.51949   3.52822   3.54472   3.54684   3.56112
 Alpha virt. eigenvalues --    3.57166   3.57433   3.58191   3.58763   3.60815
 Alpha virt. eigenvalues --    3.61123   3.61867   3.63397   3.63900   3.64409
 Alpha virt. eigenvalues --    3.65117   3.66225   3.67555   3.68858   3.70078
 Alpha virt. eigenvalues --    3.70707   3.71266   3.71799   3.72779   3.73773
 Alpha virt. eigenvalues --    3.75517   3.76639   3.77101   3.77391   3.78973
 Alpha virt. eigenvalues --    3.79554   3.80807   3.82272   3.83996   3.85601
 Alpha virt. eigenvalues --    3.86687   3.88100   3.88949   3.89689   3.90476
 Alpha virt. eigenvalues --    3.92489   3.94975   3.96043   3.97338   3.98313
 Alpha virt. eigenvalues --    3.99907   4.01676   4.03506   4.03816   4.04703
 Alpha virt. eigenvalues --    4.05023   4.05535   4.06382   4.07283   4.07933
 Alpha virt. eigenvalues --    4.08959   4.09962   4.10782   4.10818   4.11778
 Alpha virt. eigenvalues --    4.13080   4.13842   4.15151   4.15851   4.17344
 Alpha virt. eigenvalues --    4.17418   4.18208   4.19447   4.20021   4.20816
 Alpha virt. eigenvalues --    4.21406   4.21948   4.24664   4.26129   4.27060
 Alpha virt. eigenvalues --    4.27354   4.29094   4.29707   4.31008   4.32715
 Alpha virt. eigenvalues --    4.33418   4.34454   4.36016   4.38062   4.38234
 Alpha virt. eigenvalues --    4.39100   4.43395   4.44008   4.47674   4.51992
 Alpha virt. eigenvalues --    4.56718   4.58768   4.75048   4.75872   4.83802
 Alpha virt. eigenvalues --    4.84462   4.92682   4.96625   4.99847   5.00706
 Alpha virt. eigenvalues --    5.02805   5.06905   5.08260   5.12335   5.12826
 Alpha virt. eigenvalues --    5.13691   5.15877   5.18161   5.30972   5.38853
 Alpha virt. eigenvalues --    5.39304   5.58427   5.59309   5.64091   5.85519
 Alpha virt. eigenvalues --    5.88470   6.02137   7.01668   7.04401   7.06207
 Alpha virt. eigenvalues --    7.06652   7.09759   7.12540   7.13735   7.19577
 Alpha virt. eigenvalues --    7.27872   7.36573   7.39003   7.46369   7.54415
 Alpha virt. eigenvalues --    7.55010   7.64120  23.96611  23.98848  24.04820
 Alpha virt. eigenvalues --   24.07142  24.11363  24.11760  24.11965  24.16086
 Alpha virt. eigenvalues --   24.16232  24.21348  50.18306  50.19665  50.21329
          Condensed to atoms (all electrons):
               1          2          3          4          5          6
     1  C    7.390846   0.032408  -0.754692  -0.066556  -0.109991  -0.935009
     2  C    0.032408   6.208598   0.513083  -0.392262  -0.394531   0.013532
     3  C   -0.754692   0.513083   6.790864  -0.422349  -0.218328   0.122496
     4  C   -0.066556  -0.392262  -0.422349   5.841193   0.411200   0.026895
     5  C   -0.109991  -0.394531  -0.218328   0.411200   5.836986  -0.006635
     6  C   -0.935009   0.013532   0.122496   0.026895  -0.006635   6.563648
     7  C   -0.667605  -0.003378   0.206664   0.016747   0.020212   0.340853
     8  C    0.051037  -0.000531   0.006974  -0.002206   0.000581  -0.055201
     9  O    0.006300  -0.000965  -0.011189   0.003399   0.000681  -0.043954
    10  C    0.207831  -0.000206  -0.165472  -0.001329  -0.010730  -0.335209
    11  O    0.027474   0.027213   0.460916  -0.006993  -0.019608  -0.006632
    12  C    0.269907  -0.270054  -0.851076  -0.075114   0.093204  -0.151221
    13  O    0.030683   0.019025   0.287133  -0.018557  -0.116236  -0.041573
    14  H    0.644500  -0.000534  -0.074379   0.001317  -0.001092  -0.094946
    15  H   -0.003164   0.467790  -0.010958  -0.072828  -0.050306  -0.001967
    16  H    0.003711   0.480504   0.017546  -0.057623  -0.061344   0.001614
    17  H   -0.050345   0.051223   0.546655  -0.078901  -0.018329   0.023730
    18  H   -0.006254  -0.019557   0.022848   0.435538   0.000778   0.005510
    19  H    0.019692  -0.080569  -0.056157   0.470147  -0.004903  -0.005689
    20  H    0.003114  -0.086152  -0.032283   0.011487   0.469108   0.003555
    21  H   -0.001242  -0.047679   0.016871   0.005071   0.437372  -0.002889
    22  H   -0.062745   0.003293   0.030401  -0.004027  -0.002889   0.428476
    23  H    0.072094  -0.008824  -0.059585   0.011970   0.000352   0.420229
    24  H   -0.115621  -0.008602   0.026897   0.009289   0.002834   0.015101
    25  H    0.219312   0.011222  -0.086536  -0.013501  -0.008616  -0.106991
    26  H    0.040087  -0.000030  -0.011235   0.000383   0.000259  -0.029350
    27  H   -0.006274  -0.000060   0.002070  -0.000161   0.000004   0.014235
    28  H    0.010913   0.000363  -0.006773  -0.000328  -0.000386  -0.055919
    29  H   -0.021639  -0.000130  -0.002558   0.000617   0.000150  -0.021936
    30  H   -0.014433  -0.004967  -0.069104  -0.013525  -0.052311   0.003972
    31  H    0.020064   0.002503  -0.039176   0.004427  -0.009852  -0.001553
               7          8          9         10         11         12
     1  C   -0.667605   0.051037   0.006300   0.207831   0.027474   0.269907
     2  C   -0.003378  -0.000531  -0.000965  -0.000206   0.027213  -0.270054
     3  C    0.206664   0.006974  -0.011189  -0.165472   0.460916  -0.851076
     4  C    0.016747  -0.002206   0.003399  -0.001329  -0.006993  -0.075114
     5  C    0.020212   0.000581   0.000681  -0.010730  -0.019608   0.093204
     6  C    0.340853  -0.055201  -0.043954  -0.335209  -0.006632  -0.151221
     7  C    5.924587  -0.208553   0.169886  -0.069716  -0.027666  -0.037947
     8  C   -0.208553   5.441103   0.081320   0.082890   0.005779   0.001192
     9  O    0.169886   0.081320   8.350498   0.001214   0.001098   0.001444
    10  C   -0.069716   0.082890   0.001214   5.846177  -0.032793   0.048980
    11  O   -0.027666   0.005779   0.001098  -0.032793   8.316289  -0.264539
    12  C   -0.037947   0.001192   0.001444   0.048980  -0.264539   6.690376
    13  O    0.037342  -0.006483  -0.000777   0.004011  -0.064904   0.001128
    14  H   -0.146310   0.006697   0.005647   0.019260  -0.094695   0.016586
    15  H    0.001950  -0.000091  -0.000029  -0.000410  -0.000469   0.044030
    16  H   -0.002220   0.000013   0.000004   0.000284   0.000952  -0.021057
    17  H    0.033090  -0.002124  -0.000548  -0.037838  -0.036891  -0.085008
    18  H   -0.000719  -0.000006   0.000588  -0.000276  -0.000417  -0.023344
    19  H   -0.006620  -0.000278   0.000108   0.000151   0.011934   0.053126
    20  H   -0.002544   0.000356   0.000037   0.001145   0.001610  -0.006485
    21  H    0.000831   0.000108   0.000001  -0.000410  -0.003498  -0.036768
    22  H    0.013497   0.002810  -0.001690  -0.009648   0.008780  -0.016723
    23  H   -0.057031  -0.012298  -0.000562  -0.000443  -0.013454   0.030439
    24  H    0.485935  -0.000940  -0.061489   0.003593   0.017251  -0.001547
    25  H    0.308866   0.005370  -0.041739   0.021665  -0.011872  -0.009211
    26  H   -0.021438   0.453585  -0.038907  -0.026079  -0.000665  -0.001255
    27  H    0.015420   0.432712  -0.073530  -0.045822   0.000019   0.000643
    28  H   -0.000757  -0.029972   0.008703   0.444951  -0.001507  -0.001112
    29  H    0.013449  -0.091174  -0.009825   0.498496   0.001172   0.000351
    30  H    0.005573   0.000189  -0.000031  -0.000120  -0.005870   0.524926
    31  H   -0.006172  -0.000224   0.000105   0.002806  -0.000722   0.405684
              13         14         15         16         17         18
     1  C    0.030683   0.644500  -0.003164   0.003711  -0.050345  -0.006254
     2  C    0.019025  -0.000534   0.467790   0.480504   0.051223  -0.019557
     3  C    0.287133  -0.074379  -0.010958   0.017546   0.546655   0.022848
     4  C   -0.018557   0.001317  -0.072828  -0.057623  -0.078901   0.435538
     5  C   -0.116236  -0.001092  -0.050306  -0.061344  -0.018329   0.000778
     6  C   -0.041573  -0.094946  -0.001967   0.001614   0.023730   0.005510
     7  C    0.037342  -0.146310   0.001950  -0.002220   0.033090  -0.000719
     8  C   -0.006483   0.006697  -0.000091   0.000013  -0.002124  -0.000006
     9  O   -0.000777   0.005647  -0.000029   0.000004  -0.000548   0.000588
    10  C    0.004011   0.019260  -0.000410   0.000284  -0.037838  -0.000276
    11  O   -0.064904  -0.094695  -0.000469   0.000952  -0.036891  -0.000417
    12  C    0.001128   0.016586   0.044030  -0.021057  -0.085008  -0.023344
    13  O    8.329853   0.002203  -0.007683   0.011301  -0.086628  -0.068256
    14  H    0.002203   0.454977  -0.000206   0.000308  -0.005587  -0.000030
    15  H   -0.007683  -0.000206   0.511455  -0.021350   0.007911  -0.010709
    16  H    0.011301   0.000308  -0.021350   0.499960  -0.002535  -0.001133
    17  H   -0.086628  -0.005587   0.007911  -0.002535   0.568356  -0.004779
    18  H   -0.068256  -0.000030  -0.010709  -0.001133  -0.004779   0.475714
    19  H   -0.027473   0.000804   0.004836  -0.001306  -0.000500  -0.006641
    20  H    0.012131   0.000271  -0.015883   0.007461  -0.023190   0.000313
    21  H   -0.005766   0.000001   0.000750  -0.005307   0.002289  -0.000396
    22  H    0.001117  -0.007658   0.000162  -0.000054   0.004482  -0.000151
    23  H   -0.002577   0.009468  -0.000998   0.000410  -0.028154   0.000949
    24  H   -0.005518  -0.011401   0.000014   0.000139  -0.002533   0.000589
    25  H   -0.010557   0.017721  -0.000558   0.000574  -0.004145  -0.002653
    26  H    0.001779   0.002141   0.000050  -0.000018   0.004281  -0.000152
    27  H   -0.000147  -0.002660  -0.000003  -0.000001  -0.000856   0.000004
    28  H   -0.000291  -0.000640  -0.000008   0.000011   0.001924  -0.000006
    29  H    0.000155  -0.001063   0.000006  -0.000009   0.000001   0.000030
    30  H    0.000236  -0.002584  -0.003090   0.001060  -0.005431  -0.001168
    31  H    0.008326   0.002026  -0.000102  -0.000205  -0.021202   0.000925
              19         20         21         22         23         24
     1  C    0.019692   0.003114  -0.001242  -0.062745   0.072094  -0.115621
     2  C   -0.080569  -0.086152  -0.047679   0.003293  -0.008824  -0.008602
     3  C   -0.056157  -0.032283   0.016871   0.030401  -0.059585   0.026897
     4  C    0.470147   0.011487   0.005071  -0.004027   0.011970   0.009289
     5  C   -0.004903   0.469108   0.437372  -0.002889   0.000352   0.002834
     6  C   -0.005689   0.003555  -0.002889   0.428476   0.420229   0.015101
     7  C   -0.006620  -0.002544   0.000831   0.013497  -0.057031   0.485935
     8  C   -0.000278   0.000356   0.000108   0.002810  -0.012298  -0.000940
     9  O    0.000108   0.000037   0.000001  -0.001690  -0.000562  -0.061489
    10  C    0.000151   0.001145  -0.000410  -0.009648  -0.000443   0.003593
    11  O    0.011934   0.001610  -0.003498   0.008780  -0.013454   0.017251
    12  C    0.053126  -0.006485  -0.036768  -0.016723   0.030439  -0.001547
    13  O   -0.027473   0.012131  -0.005766   0.001117  -0.002577  -0.005518
    14  H    0.000804   0.000271   0.000001  -0.007658   0.009468  -0.011401
    15  H    0.004836  -0.015883   0.000750   0.000162  -0.000998   0.000014
    16  H   -0.001306   0.007461  -0.005307  -0.000054   0.000410   0.000139
    17  H   -0.000500  -0.023190   0.002289   0.004482  -0.028154  -0.002533
    18  H   -0.006641   0.000313  -0.000396  -0.000151   0.000949   0.000589
    19  H    0.488326   0.001011  -0.001192   0.000031  -0.000189  -0.002560
    20  H    0.001011   0.501765  -0.012271  -0.000547   0.003302   0.000045
    21  H   -0.001192  -0.012271   0.476554  -0.000029  -0.000319  -0.000113
    22  H    0.000031  -0.000547  -0.000029   0.466797  -0.025277  -0.000643
    23  H   -0.000189   0.003302  -0.000319  -0.025277   0.475640   0.000648
    24  H   -0.002560   0.000045  -0.000113  -0.000643   0.000648   0.475791
    25  H    0.002159   0.000324  -0.000138  -0.001386  -0.002523  -0.032607
    26  H    0.000146  -0.000222   0.000008   0.000186  -0.011098  -0.003062
    27  H   -0.000012   0.000021   0.000003   0.000738   0.000025   0.003585
    28  H   -0.000002   0.000001  -0.000026  -0.011084  -0.006180   0.001288
    29  H   -0.000007  -0.000054   0.000007  -0.005647   0.001703  -0.000360
    30  H   -0.007913   0.006597  -0.004592   0.000116   0.000843   0.000814
    31  H    0.000812   0.001384  -0.010230  -0.001949   0.002477  -0.000182
              25         26         27         28         29         30
     1  C    0.219312   0.040087  -0.006274   0.010913  -0.021639  -0.014433
     2  C    0.011222  -0.000030  -0.000060   0.000363  -0.000130  -0.004967
     3  C   -0.086536  -0.011235   0.002070  -0.006773  -0.002558  -0.069104
     4  C   -0.013501   0.000383  -0.000161  -0.000328   0.000617  -0.013525
     5  C   -0.008616   0.000259   0.000004  -0.000386   0.000150  -0.052311
     6  C   -0.106991  -0.029350   0.014235  -0.055919  -0.021936   0.003972
     7  C    0.308866  -0.021438   0.015420  -0.000757   0.013449   0.005573
     8  C    0.005370   0.453585   0.432712  -0.029972  -0.091174   0.000189
     9  O   -0.041739  -0.038907  -0.073530   0.008703  -0.009825  -0.000031
    10  C    0.021665  -0.026079  -0.045822   0.444951   0.498496  -0.000120
    11  O   -0.011872  -0.000665   0.000019  -0.001507   0.001172  -0.005870
    12  C   -0.009211  -0.001255   0.000643  -0.001112   0.000351   0.524926
    13  O   -0.010557   0.001779  -0.000147  -0.000291   0.000155   0.000236
    14  H    0.017721   0.002141  -0.002660  -0.000640  -0.001063  -0.002584
    15  H   -0.000558   0.000050  -0.000003  -0.000008   0.000006  -0.003090
    16  H    0.000574  -0.000018  -0.000001   0.000011  -0.000009   0.001060
    17  H   -0.004145   0.004281  -0.000856   0.001924   0.000001  -0.005431
    18  H   -0.002653  -0.000152   0.000004  -0.000006   0.000030  -0.001168
    19  H    0.002159   0.000146  -0.000012  -0.000002  -0.000007  -0.007913
    20  H    0.000324  -0.000222   0.000021   0.000001  -0.000054   0.006597
    21  H   -0.000138   0.000008   0.000003  -0.000026   0.000007  -0.004592
    22  H   -0.001386   0.000186   0.000738  -0.011084  -0.005647   0.000116
    23  H   -0.002523  -0.011098   0.000025  -0.006180   0.001703   0.000843
    24  H   -0.032607  -0.003062   0.003585   0.001288  -0.000360   0.000814
    25  H    0.519662   0.004195  -0.003929  -0.000018  -0.001712  -0.001542
    26  H    0.004195   0.496493  -0.007884   0.006296   0.001546  -0.000081
    27  H   -0.003929  -0.007884   0.468791  -0.009245  -0.003012   0.000027
    28  H   -0.000018   0.006296  -0.009245   0.493633  -0.010632  -0.000040
    29  H   -0.001712   0.001546  -0.003012  -0.010632   0.475370  -0.000074
    30  H   -0.001542  -0.000081   0.000027  -0.000040  -0.000074   0.447894
    31  H    0.001379  -0.000017  -0.000015   0.000039   0.000065  -0.012086
              31
     1  C    0.020064
     2  C    0.002503
     3  C   -0.039176
     4  C    0.004427
     5  C   -0.009852
     6  C   -0.001553
     7  C   -0.006172
     8  C   -0.000224
     9  O    0.000105
    10  C    0.002806
    11  O   -0.000722
    12  C    0.405684
    13  O    0.008326
    14  H    0.002026
    15  H   -0.000102
    16  H   -0.000205
    17  H   -0.021202
    18  H    0.000925
    19  H    0.000812
    20  H    0.001384
    21  H   -0.010230
    22  H   -0.001949
    23  H    0.002477
    24  H   -0.000182
    25  H    0.001379
    26  H   -0.000017
    27  H   -0.000015
    28  H    0.000039
    29  H    0.000065
    30  H   -0.012086
    31  H    0.483051
 Mulliken charges:
               1
     1  C   -0.234400
     2  C   -0.511727
     3  C   -0.179568
     4  C   -0.023418
     5  C   -0.187634
     6  C   -0.087175
     7  C   -0.336227
     8  C   -0.162637
     9  O   -0.345797
    10  C   -0.446952
    11  O   -0.287293
    12  C   -0.329553
    13  O   -0.283000
    14  H    0.259858
    15  H    0.161860
    16  H    0.148308
    17  H    0.251582
    18  H    0.202860
    19  H    0.148731
    20  H    0.154592
    21  H    0.193001
    22  H    0.191260
    23  H    0.198965
    24  H    0.203365
    25  H    0.227783
    26  H    0.140056
    27  H    0.215309
    28  H    0.166805
    29  H    0.176714
    30  H    0.206717
    31  H    0.167615
 Sum of Mulliken charges =  -0.00000
 Mulliken charges with hydrogens summed into heavy atoms:
               1
     1  C    0.025458
     2  C   -0.201559
     3  C    0.072014
     4  C    0.328172
     5  C    0.159959
     6  C    0.303050
     7  C    0.094922
     8  C    0.192728
     9  O   -0.345797
    10  C   -0.103432
    11  O   -0.287293
    12  C    0.044778
    13  O   -0.283000
 Electronic spatial extent (au):  <R**2>=           3138.6363
 Charge=              0.0000 electrons
 Dipole moment (field-independent basis, Debye):
    X=             -1.4365    Y=             -2.0807    Z=             -1.3710  Tot=              2.8762
 Quadrupole moment (field-independent basis, Debye-Ang):
   XX=            -72.7147   YY=            -79.9372   ZZ=            -81.7307
   XY=             -6.6243   XZ=             -5.1002   YZ=              1.1733
 Traceless Quadrupole moment (field-independent basis, Debye-Ang):
   XX=              5.4129   YY=             -1.8097   ZZ=             -3.6032
   XY=             -6.6243   XZ=             -5.1002   YZ=              1.1733
 Octapole moment (field-independent basis, Debye-Ang**2):
  XXX=            -10.9159  YYY=              1.1462  ZZZ=              0.3740  XYY=            -12.0984
  XXY=            -16.5356  XXZ=            -11.2673  XZZ=              4.2256  YZZ=              1.6543
  YYZ=             -1.2541  XYZ=             -5.0852
 Hexadecapole moment (field-independent basis, Debye-Ang**3):
 XXXX=          -3195.1028 YYYY=           -601.5701 ZZZZ=           -265.3691 XXXY=            -56.3727
 XXXZ=            -65.3719 YYYX=            -19.4267 YYYZ=             -3.1913 ZZZX=              3.0230
 ZZZY=              2.6552 XXYY=           -672.2187 XXZZ=           -592.5625 YYZZ=           -145.6734
 XXYZ=            -17.7419 YYXZ=             -2.7510 ZZXY=             -3.0226
 N-N= 8.908541475562D+02 E-N=-3.223571271803D+03  KE= 6.153379537261D+02
 D1PCM: PCM CHGder 1st derivatives, ID1Alg=3 FixD1E=F DoIter=F DoCFld=F I1PDM=0.
 Calling FoFJK, ICntrl=      2127 FMM=F ISym2X=0 I1Cent= 0 IOpClX= 0 NMat=1 NMatS=1 NMatT=0.
 ***** Axes restored to original set *****
 -------------------------------------------------------------------
 Center     Atomic                   Forces (Hartrees/Bohr)
 Number     Number              X              Y              Z
 -------------------------------------------------------------------
      1        6          -0.003935998   -0.001804925    0.008950369
      2        6           0.001294755    0.001147291   -0.000301361
      3        6          -0.002382805   -0.003526120   -0.005673785
      4        6          -0.001215517    0.005478820    0.000530517
      5        6           0.002006840   -0.002105417   -0.001953173
      6        6           0.002631157   -0.002760631   -0.003489144
      7        6           0.004247062    0.005825602    0.000422837
      8        6          -0.004830554    0.003444364   -0.003695670
      9        8           0.005547792   -0.005574319   -0.005664280
     10        6          -0.001866432   -0.001174661    0.002158617
     11        8          -0.004096536    0.003782362   -0.009887984
     12        6          -0.000286401   -0.000617823    0.003030844
     13        8           0.005090806   -0.004494148    0.009423118
     14        1           0.003581706    0.000714306   -0.004775600
     15        1          -0.000847239   -0.000899358    0.002352705
     16        1          -0.001981627   -0.000184023   -0.002283615
     17        1           0.003032348    0.004211921    0.007117642
     18        1          -0.000079663   -0.004036660    0.001391775
     19        1           0.000382658    0.000110054   -0.006059333
     20        1           0.001107473    0.000381540    0.002915658
     21        1          -0.002056088    0.001198798   -0.000790662
     22        1          -0.001033372    0.002850963   -0.000979811
     23        1          -0.002032207   -0.001647386    0.003937225
     24        1          -0.002551328   -0.002433726   -0.003416881
     25        1          -0.004874824   -0.000079421    0.006096999
     26        1          -0.002142846   -0.000437618    0.005847298
     27        1           0.004300083   -0.000739370   -0.000341376
     28        1           0.001196721    0.001961078    0.002041529
     29        1           0.001008343    0.000318638   -0.003060030
     30        1           0.000428648   -0.001829329   -0.003736796
     31        1           0.000357046    0.002919199   -0.000107632
 -------------------------------------------------------------------
 Cartesian Forces:  Max     0.009887984 RMS     0.003476370

 GradGradGradGradGradGradGradGradGradGradGradGradGradGradGradGradGradGrad
 Berny optimization.
 FormGI is forming the generalized inverse of G from B-inverse, IUseBI=4.
 Internal  Forces:  Max     0.017371034 RMS     0.002234201
 Search for a local minimum.
 Step number   1 out of a maximum of  186
 All quantities printed in internal units (Hartrees-Bohrs-Radians)
 Mixed Optimization -- RFO/linear search
 Second derivative matrix not updated -- first step.
 ITU=  0
     Eigenvalues ---    0.00392   0.00638   0.00681   0.00731   0.01426
     Eigenvalues ---    0.01433   0.01702   0.02603   0.02703   0.03137
     Eigenvalues ---    0.03210   0.03824   0.04093   0.04588   0.04664
     Eigenvalues ---    0.04859   0.04884   0.05105   0.05163   0.05165
     Eigenvalues ---    0.05245   0.05642   0.05762   0.05935   0.06142
     Eigenvalues ---    0.06367   0.06518   0.06666   0.07643   0.07673
     Eigenvalues ---    0.07898   0.07901   0.07907   0.07977   0.08000
     Eigenvalues ---    0.09240   0.09425   0.09637   0.10729   0.11545
     Eigenvalues ---    0.11599   0.11697   0.11710   0.12480   0.12628
     Eigenvalues ---    0.14858   0.15765   0.16486   0.17943   0.19253
     Eigenvalues ---    0.20504   0.21562   0.22419   0.25000   0.27380
     Eigenvalues ---    0.27512   0.28329   0.28508   0.28765   0.29028
     Eigenvalues ---    0.29514   0.30037   0.35080   0.35176   0.35228
     Eigenvalues ---    0.35248   0.35296   0.35300   0.35306   0.35351
     Eigenvalues ---    0.35366   0.35445   0.35450   0.35478   0.35497
     Eigenvalues ---    0.35623   0.35817   0.35826   0.35912   0.36283
     Eigenvalues ---    0.40105   0.41430   0.41984   0.42467   0.42936
     Eigenvalues ---    0.457451000.000001000.000001000.000001000.00000
     Eigenvalues --- 1000.000001000.000001000.000001000.000001000.00000
     Eigenvalues --- 1000.000001000.000001000.000001000.000001000.00000
     Eigenvalues --- 1000.000001000.000001000.000001000.000001000.00000
     Eigenvalues --- 1000.000001000.000001000.000001000.000001000.00000
     Eigenvalues --- 1000.000001000.000001000.000001000.000001000.00000
     Eigenvalues --- 1000.000001000.000001000.000001000.000001000.00000
     Eigenvalues --- 1000.000001000.000001000.000001000.000001000.00000
     Eigenvalues --- 1000.000001000.000001000.000001000.000001000.00000
     Eigenvalues --- 1000.000001000.000001000.000001000.000001000.00000
     Eigenvalues --- 1000.000001000.000001000.000001000.000001000.00000
     Eigenvalues --- 1000.000001000.000001000.000001000.000001000.00000
     Eigenvalues --- 1000.000001000.000001000.000001000.000001000.00000
     Eigenvalues --- 1000.000001000.000001000.000001000.000001000.00000
     Eigenvalues --- 1000.000001000.000001000.000001000.000001000.00000
     Eigenvalues --- 1000.000001000.000001000.000001000.000001000.00000
     Eigenvalues --- 1000.000001000.000001000.000001000.000001000.00000
     Eigenvalues --- 1000.000001000.000001000.000001000.000001000.00000
     Eigenvalues --- 1000.000001000.000001000.000001000.000001000.00000
     Eigenvalues --- 1000.000001000.000001000.000001000.000001000.00000
 RFO step:  Lambda=-3.99034854D-03 EMin= 3.91918010D-03
 Linear search not attempted -- first point.
 Iteration  1 RMS(Cart)=  0.08110133 RMS(Int)=  0.00126971
 Iteration  2 RMS(Cart)=  0.00380968 RMS(Int)=  0.00006308
 Iteration  3 RMS(Cart)=  0.00000384 RMS(Int)=  0.00006304
 Iteration  4 RMS(Cart)=  0.00000000 RMS(Int)=  0.00006304
 Iteration  1 RMS(Cart)=  0.00001652 RMS(Int)=  0.00000391
 Iteration  2 RMS(Cart)=  0.00000913 RMS(Int)=  0.00000437
 Iteration  3 RMS(Cart)=  0.00000505 RMS(Int)=  0.00000494
 Iteration  4 RMS(Cart)=  0.00000279 RMS(Int)=  0.00000532
 Iteration  5 RMS(Cart)=  0.00000154 RMS(Int)=  0.00000555
 Iteration  6 RMS(Cart)=  0.00000085 RMS(Int)=  0.00000568
 Variable       Old X    -DE/DX   Delta X   Delta X   Delta X     New X
                                 (Linear)    (Quad)   (Total)
    R1        2.88338  -0.00178   0.00000  -0.00557  -0.00555   2.87783
    R2        2.88586  -0.00066   0.00000  -0.00167  -0.00165   2.88421
    R3        2.68333   0.00012   0.00000   0.00029   0.00029   2.68362
    R4        2.04676   0.00586   0.00000   0.01628   0.01628   2.06304
    R5        2.89134   0.00112   0.00000   0.00308   0.00310   2.89444
    R6        2.90907  -0.00020   0.00000  -0.00218  -0.00214   2.90693
    R7        2.05084   0.00265   0.00000   0.00740   0.00740   2.05824
    R8        2.05274   0.00300   0.00000   0.00841   0.00841   2.06115
    R9        2.64420   0.00108   0.00000   0.00233   0.00233   2.64653
   R10        2.88275  -0.00110   0.00000  -0.00222  -0.00223   2.88052
   R11        2.65458   0.00391   0.00000   0.00994   0.00992   2.66450
   R12        2.03641   0.00880   0.00000   0.02398   0.02398   2.06039
   R13        2.68075   0.00327   0.00000   0.00754   0.00752   2.68826
   R14        2.04220   0.00427   0.00000   0.01175   0.01175   2.05395
   R15        2.04876   0.00603   0.00000   0.01680   0.01680   2.06556
   R16        2.88594  -0.00041   0.00000  -0.00240  -0.00241   2.88354
   R17        2.05306   0.00306   0.00000   0.00858   0.00858   2.06163
   R18        2.04959   0.00251   0.00000   0.00699   0.00699   2.05658
   R19        2.89634  -0.00066   0.00000  -0.00245  -0.00248   2.89386
   R20        2.05181   0.00315   0.00000   0.00882   0.00882   2.06063
   R21        2.05109   0.00462   0.00000   0.01293   0.01293   2.06402
   R22        2.67059   0.00406   0.00000   0.00936   0.00939   2.67999
   R23        2.04368   0.00480   0.00000   0.01324   0.01324   2.05692
   R24        2.04951   0.00726   0.00000   0.02026   0.02026   2.06977
   R25        2.67683   0.00322   0.00000   0.00722   0.00721   2.68404
   R26        2.87414   0.00057   0.00000   0.00132   0.00130   2.87544
   R27        2.05545   0.00612   0.00000   0.01724   0.01724   2.07269
   R28        2.04354   0.00437   0.00000   0.01207   0.01207   2.05562
   R29        2.05190   0.00305   0.00000   0.00855   0.00855   2.06045
   R30        2.05390   0.00315   0.00000   0.00886   0.00886   2.06275
   R31        2.05197   0.00398   0.00000   0.01114   0.01114   2.06311
   R32        2.04906   0.00293   0.00000   0.00818   0.00818   2.05724
    A1        1.91903  -0.00014   0.00000  -0.00923  -0.00939   1.90964
    A2        2.01181  -0.00055   0.00000  -0.00844  -0.00875   2.00306
    A3        1.88819   0.00029   0.00000   0.00703   0.00710   1.89529
    A4        1.96297  -0.00064   0.00000  -0.01295  -0.01317   1.94980
    A5        1.86969   0.00017   0.00000   0.00644   0.00649   1.87617
    A6        1.80182   0.00105   0.00000   0.02142   0.02151   1.82333
    A7        1.92368   0.00011   0.00000  -0.00719  -0.00733   1.91635
    A8        1.92277  -0.00063   0.00000   0.00005   0.00008   1.92285
    A9        1.89422   0.00071   0.00000   0.00458   0.00462   1.89884
   A10        1.92150   0.00084   0.00000   0.00230   0.00236   1.92386
   A11        1.93102  -0.00118   0.00000  -0.00259  -0.00256   1.92846
   A12        1.86979   0.00013   0.00000   0.00318   0.00315   1.87294
   A13        1.87996  -0.00187   0.00000  -0.00808  -0.00806   1.87189
   A14        1.94709  -0.00039   0.00000  -0.00409  -0.00397   1.94311
   A15        1.92449   0.00112   0.00000   0.00660   0.00659   1.93109
   A16        1.94976   0.00289   0.00000   0.01039   0.01026   1.96002
   A17        1.92897  -0.00005   0.00000   0.00307   0.00314   1.93210
   A18        1.83420  -0.00161   0.00000  -0.00743  -0.00746   1.82673
   A19        1.92709   0.00116   0.00000   0.00191   0.00173   1.92882
   A20        1.95063  -0.00029   0.00000  -0.00332  -0.00325   1.94738
   A21        1.94045  -0.00092   0.00000  -0.00327  -0.00327   1.93718
   A22        1.85402  -0.00109   0.00000  -0.00086  -0.00082   1.85321
   A23        1.90777   0.00080   0.00000   0.00485   0.00493   1.91270
   A24        1.88113   0.00035   0.00000   0.00097   0.00094   1.88207
   A25        1.92035  -0.00084   0.00000  -0.00649  -0.00669   1.91366
   A26        1.91810   0.00063   0.00000   0.00144   0.00149   1.91959
   A27        1.93177  -0.00021   0.00000   0.00004   0.00009   1.93186
   A28        1.90376   0.00043   0.00000  -0.00053  -0.00047   1.90328
   A29        1.92570  -0.00005   0.00000   0.00119   0.00123   1.92694
   A30        1.86322   0.00008   0.00000   0.00471   0.00467   1.86789
   A31        1.89439   0.00128   0.00000  -0.00083  -0.00082   1.89357
   A32        1.92450  -0.00052   0.00000  -0.00170  -0.00173   1.92277
   A33        1.93186  -0.00092   0.00000  -0.00693  -0.00692   1.92494
   A34        1.93435   0.00018   0.00000   0.00621   0.00622   1.94057
   A35        1.89770  -0.00047   0.00000  -0.00041  -0.00046   1.89724
   A36        1.88112   0.00043   0.00000   0.00366   0.00365   1.88477
   A37        1.90767   0.00165   0.00000   0.01117   0.01126   1.91893
   A38        1.93370  -0.00081   0.00000  -0.00977  -0.00993   1.92377
   A39        1.94400  -0.00290   0.00000  -0.02093  -0.02107   1.92293
   A40        1.86744  -0.00042   0.00000   0.00453   0.00453   1.87198
   A41        1.90879   0.00188   0.00000   0.01839   0.01849   1.92728
   A42        1.90053   0.00074   0.00000  -0.00199  -0.00229   1.89824
   A43        1.93835   0.00207   0.00000   0.00886   0.00890   1.94725
   A44        1.90179   0.00067   0.00000   0.00688   0.00689   1.90869
   A45        1.85609  -0.00121   0.00000  -0.00292  -0.00291   1.85318
   A46        1.92970  -0.00176   0.00000  -0.01056  -0.01060   1.91910
   A47        1.94403  -0.00035   0.00000  -0.00304  -0.00306   1.94097
   A48        1.89162   0.00061   0.00000   0.00121   0.00117   1.89280
   A49        1.97559  -0.00457   0.00000  -0.02646  -0.02638   1.94921
   A50        1.92890  -0.00099   0.00000  -0.00682  -0.00689   1.92201
   A51        1.92600  -0.00027   0.00000   0.00065   0.00068   1.92669
   A52        1.92045   0.00067   0.00000  -0.00005  -0.00005   1.92039
   A53        1.90664   0.00070   0.00000   0.00459   0.00459   1.91123
   A54        1.90543  -0.00005   0.00000  -0.00142  -0.00140   1.90404
   A55        1.87550  -0.00002   0.00000   0.00336   0.00335   1.87885
   A56        2.12725  -0.01737   0.00000  -0.06839  -0.06839   2.05886
   A57        1.91735   0.00002   0.00000  -0.00633  -0.00642   1.91093
   A58        1.90867  -0.00046   0.00000  -0.00924  -0.00922   1.89945
   A59        1.89502  -0.00020   0.00000   0.00369   0.00373   1.89875
   A60        1.92041   0.00007   0.00000   0.00318   0.00308   1.92350
   A61        1.94927   0.00041   0.00000   0.00520   0.00527   1.95454
   A62        1.87217   0.00014   0.00000   0.00342   0.00340   1.87557
   A63        2.01002  -0.00567   0.00000  -0.03430  -0.03434   1.97567
    D1        0.96630   0.00012   0.00000   0.00955   0.00950   0.97580
    D2        3.08822   0.00084   0.00000   0.01563   0.01558   3.10380
    D3       -1.11508   0.00045   0.00000   0.01470   0.01465  -1.10042
    D4       -3.07611  -0.00135   0.00000  -0.02368  -0.02368  -3.09978
    D5       -0.95418  -0.00064   0.00000  -0.01761  -0.01760  -0.97178
    D6        1.12571  -0.00102   0.00000  -0.01853  -0.01852   1.10718
    D7       -1.07013  -0.00017   0.00000   0.00290   0.00289  -1.06724
[...]
 00240506,0.00399966,0.00010315,-0.00011155,-0.00009386,-0.00145548,0.0
 0062066,0.00076285,-0.00003851,-0.00015341,0.00014041,0.00394332,-0.00
 182877,-0.00001937,-0.00031252,0.00112557,0.00093447,0.00002063,-0.000
 00562,-0.00001790,0.00006383,-0.00000569,0.00000931,-0.00006937,-0.000
 04742,0.00006881,-0.00010991,0.00007828,0.00000400,-0.00002596,0.00006
 408,0.00000754,-0.00000901,-0.00000226,0.00000623,0.00001067,-0.000024
 90,0.00001517,-0.00020784,0.00002284,0.00014648,0.00035834,0.00030500,
 0.00058465,0.00751662,0.00645038,-0.01814665,-0.09613857,-0.06491003,0
 .27590903,-0.00045594,0.00021433,0.00001896,0.00000202,0.00000287,0.00
 000520,-0.00005602,0.00004907,0.00001213,-0.00005422,-0.00005027,-0.00
 002487,0.00000270,-0.00000310,0.00000826,0.00078004,0.00002492,-0.0008
 4468,0.00387112,0.00027840,-0.00379524,-0.09506017,-0.02771385,0.08812
 746,0.00364739,0.00129814,-0.02022396,0.00130022,0.00181958,-0.0021840
 7,0.00006713,0.00008086,0.00004951,-0.00000002,0.00000609,-0.00000170,
 0.00015823,-0.00002221,-0.00002181,-0.00015913,-0.00014020,0.00015371,
 0.00000267,0.00000096,-0.00000248,0.00000656,0.,0.00000102,-0.00000506
 ,0.00000832,0.00001151,0.00000022,0.00000519,0.00000199,-0.00000199,0.
 00000173,0.00000208,-0.00000035,-0.00000019,-0.00000112,0.00000524,-0.
 00000030,-0.00000154,0.00006429,-0.00012373,0.00003806,0.00028031,0.00
 011797,0.00014714,0.00016798,-0.00000950,0.00009755,0.00052109,-0.0003
 2346,0.00100508,0.09373807,-0.00027829,-0.00036010,0.00001239,-0.00000
 107,-0.00000212,-0.00000194,0.00001226,-0.00003984,-0.00000214,0.00002
 423,0.00002537,0.00000987,-0.00000229,-0.00000045,-0.00000262,-0.00121
 178,0.00166497,0.00030061,0.00294709,0.00006892,-0.00026414,-0.0285452
 6,-0.07303862,0.06766220,0.00168632,0.00403416,-0.02431336,-0.01422228
 ,-0.01175806,0.03013742,0.00002438,0.00024280,0.00006806,-0.00000132,-
 0.00000106,0.00000587,-0.00006544,0.00002433,-0.00001038,-0.00008920,-
 0.00006328,-0.00007159,-0.00000146,0.00000033,0.00000087,-0.00000345,0
 .00000009,-0.00000083,-0.00000337,0.00000196,0.00000695,0.00000080,-0.
 00000252,0.00000023,0.00000169,-0.00000170,-0.00000038,0.00000060,0.00
 000046,-0.00000020,-0.00000206,0.00000023,0.00000041,-0.00004241,0.000
 11782,-0.00051505,0.00076112,-0.00006260,-0.00043052,0.00008188,-0.000
 07970,0.00003679,0.00007339,-0.00007766,0.00082962,0.03397602,0.080991
 20,-0.00026345,-0.00048277,0.00018923,0.00000060,-0.00000343,-0.000002
 12,0.00018387,0.00002131,-0.00028862,0.00006131,0.00005686,0.00001908,
 -0.00001281,0.00001176,-0.00001833,-0.00014104,-0.00056855,0.00007362,
 0.00487915,0.00012050,0.00069622,0.08402832,0.06696527,-0.22872612,-0.
 00273127,-0.00523838,-0.03770734,0.00327917,0.00224499,-0.00229541,-0.
 00056692,0.00040477,0.00005528,-0.00002163,-0.00001831,0.00004605,-0.0
 0016858,-0.00005103,0.00007231,0.00014199,-0.00007309,-0.00002265,-0.0
 0000583,-0.00000193,0.00000384,-0.00000789,0.00000025,-0.00000167,-0.0
 0000434,0.00000564,0.00002324,-0.00000338,-0.00001028,-0.00000061,0.00
 000646,0.00000027,0.00000320,0.00000095,0.00000027,0.00000310,-0.00001
 256,-0.00000204,0.00000518,-0.00010674,0.00004368,0.00017712,-0.000510
 93,0.00026438,-0.00015458,-0.00036292,-0.00021317,0.00047470,-0.001331
 27,0.00023057,0.00053425,-0.08833683,-0.06571368,0.26515449,0.00027777
 ,-0.00062743,0.00026462,-0.00000035,-0.00000380,-0.00000192,0.00021758
 ,-0.00003213,-0.00023281,0.00008919,0.00007809,0.00002389,-0.00001211,
 0.00001101,-0.00001952,0.00124233,0.00040215,-0.00006390,0.00230115,-0
 .00215303,-0.00294893,-0.29628669,0.07198296,0.01593779,-0.02073055,-0
 .00017538,-0.00470387,-0.00013822,0.00067639,0.00125240,-0.00040531,0.
 00034284,0.00009598,-0.00001688,-0.00001624,0.00003872,-0.00020287,-0.
 00003439,0.00005783,-0.00000291,0.00003262,-0.00001638,-0.00000803,-0.
 00000124,0.00000530,-0.00001128,0.00000051,-0.00000263,-0.00000265,-0.
 00000124,0.00002558,-0.00000239,-0.00001120,-0.00000108,0.00001013,-0.
 00000035,0.00000797,0.00000131,0.00000012,0.00000295,-0.00001426,-0.00
 000108,0.00000531,-0.00017939,-0.00007265,-0.00004547,0.00011945,-0.00
 009486,-0.00001223,-0.00099912,0.00036087,-0.00024118,0.00025872,0.000
 01018,0.00001690,-0.01014152,0.00364405,0.00186102,0.32424536,-0.00092
 808,-0.00086328,-0.00071373,-0.00000078,0.00000020,0.00000407,-0.00012
 604,-0.00019172,0.00005316,-0.00000336,-0.00000271,-0.00002214,0.00000
 202,-0.00001053,0.00001065,-0.00123929,-0.00653280,0.00124176,-0.00096
 739,-0.00149416,-0.00286671,0.07798437,-0.07147509,-0.00296361,-0.0231
 0512,0.00400425,-0.00191086,0.03274808,-0.00818307,-0.00210615,0.00030
 486,0.00048571,0.00011175,0.00000136,0.00003575,0.00000440,-0.00001901
 ,0.00013329,0.00000094,0.00003834,0.00007499,0.00008586,-0.00000057,0.
 00000352,-0.00000064,0.00000206,0.00000047,0.00000053,-0.00003443,0.00
 003668,0.00004841,0.00000794,0.00000635,0.00000011,0.00000983,-0.00000
 143,0.00001006,-0.00000128,0.00000073,-0.00000234,0.00000697,0.0000027
 8,-0.00000333,0.00213863,-0.00049293,0.00033098,-0.00018631,0.00011315
 ,-0.00017076,-0.00097329,0.00033856,-0.00029896,0.00023501,-0.00007312
 ,-0.00004135,-0.00956476,0.00352155,0.00086400,-0.07524477,0.07800715,
 0.00003346,-0.00069760,-0.00003715,0.00000037,-0.00000192,0.00000154,0
 .00011573,-0.00001970,-0.00015912,0.00005976,0.00004266,0.00000552,-0.
 00000726,0.00000455,-0.00001016,-0.00019315,0.00024078,0.00067549,-0.0
 0009698,-0.00219888,-0.00351305,0.02621303,-0.00458429,-0.05237714,-0.
 03404720,0.00351487,-0.00330022,-0.00399628,0.00305197,0.00042913,-0.0
 0024267,0.00043415,0.00013536,-0.00000864,-0.00000163,0.00003049,-0.00
 013819,-0.00001674,0.00006591,-0.00001210,0.00002023,-0.00002290,-0.00
 000527,0.00000017,0.00000302,-0.00000551,0.00000026,-0.00000144,-0.000
 02794,0.00000221,0.00002002,0.00000011,-0.00000705,0.00000062,0.000012
 78,0.00000213,0.00000905,0.00000041,0.00000035,0.00000127,-0.00000769,
 -0.00000008,0.00000274,0.00000947,0.00000256,0.00030843,-0.00047720,0.
 00008920,0.00014013,-0.00128239,0.00017333,0.00011613,-0.00041250,-0.0
 0006798,0.00041331,0.02593222,-0.00801382,0.00028309,-0.01096922,0.008
 53272,0.05634382,-0.00390166,0.00408827,0.00290040,0.00000354,-0.00000
 465,-0.00000771,0.00093808,0.00010799,-0.00116193,0.00011829,0.0001120
 2,0.00006086,-0.00003217,0.00005066,-0.00004496,-0.01585684,-0.0164712
 3,-0.02507867,-0.00013847,0.00079586,-0.00001547,0.00025707,0.00057321
 ,0.00340174,0.00156362,0.00124885,0.00011868,-0.09661902,-0.05488991,-
 0.08902511,-0.00299949,-0.00126354,-0.00156992,-0.00007298,-0.00003480
 ,0.00013843,-0.00024312,-0.00031497,0.00021503,0.00015889,0.00015039,-
 0.00013386,-0.00001148,-0.00000847,0.00000891,-0.00001751,0.00000064,-
 0.00000470,0.00006751,0.00003626,0.00012708,-0.00001401,-0.00002470,0.
 00000455,0.00000061,0.00001339,-0.00000014,-0.00000207,-0.00000276,0.0
 0001211,-0.00003687,-0.00000954,0.00001743,0.00143415,0.00027133,0.000
 18871,0.00141764,-0.00038384,0.00039635,0.00009108,-0.00014547,-0.0000
 3791,0.00009831,-0.00006406,0.00007764,0.00018957,-0.00014042,0.000008
 66,-0.00006283,-0.00060209,0.00008561,0.10704754,0.00194047,-0.0002961
 0,-0.00005339,-0.00000104,-0.00000173,0.00000097,-0.00009689,-0.000022
 21,0.00022698,0.00001795,0.00001265,-0.00000302,0.00000597,-0.00000936
 ,0.00000199,0.00405477,0.00499263,0.00835479,0.00236113,-0.00022333,0.
 00029263,-0.01512415,-0.00945198,-0.02612505,-0.00162895,-0.00990791,-
 0.00136029,-0.05511400,-0.10761340,-0.09453540,0.00092528,0.00053402,0
 .00039698,0.00002430,-0.00000030,-0.00003269,-0.00005904,0.00007050,-0
 .00002914,0.00004903,-0.00019819,-0.00021250,-0.00000132,0.00000146,0.
 00000060,-0.00000174,0.00000019,-0.00000007,-0.00001676,-0.00001580,-0
 .00002835,0.00000244,0.00000059,-0.00000187,0.00000319,-0.00000549,0.0
 0000464,0.00000123,0.00000088,-0.00000173,0.00000308,0.00000238,-0.000
 00272,-0.00073575,0.00033971,0.00023645,-0.00053928,0.00018555,-0.0001
 8533,-0.00028194,0.00011237,-0.00002512,-0.00024617,0.00007869,-0.0000
 0309,-0.00032157,0.00122602,0.00072742,0.00076584,0.00094643,0.0000485
 0,0.05892981,0.11476911,0.00035923,0.00030598,0.00100265,0.00000103,-0
 .00000145,-0.00000431,0.00013604,0.00003180,-0.00029564,0.00005021,0.0
 0004553,0.00002837,-0.00001095,0.00001707,-0.00001973,0.00103733,0.000
 85560,-0.00005024,0.00010587,0.00032872,-0.00011524,0.00289004,0.00251
 676,0.00234885,-0.00006813,0.00073208,0.00162188,-0.09039407,-0.096245
 88,-0.20663644,-0.00045082,-0.00020283,0.00029843,-0.00001890,-0.00002
 315,0.00004089,-0.00010387,-0.00010587,0.00006281,0.00002340,0.0002424
 7,0.00041374,-0.00000365,-0.00000292,0.00000335,-0.00000707,0.00000011
 ,-0.00000187,0.00001594,-0.00001627,-0.00000555,-0.00000491,-0.0000097
 8,-0.00000063,0.00000049,0.00000218,-0.00000363,0.00000052,-0.00000060
 ,0.00000356,-0.00001325,-0.00000334,0.00000652,-0.00021011,0.00015965,
 -0.00012820,-0.00029122,0.00024390,0.00064587,0.00002982,-0.00007281,-
 0.00004516,-0.00006072,-0.00004192,-0.00000960,0.00016489,-0.00063587,
 0.00028353,-0.00001037,-0.00046302,0.00013250,0.09841842,0.10511764,0.
 22018158,0.00086965,0.00020379,0.00248489,-0.00000424,-0.00000564,-0.0
 0001202,0.00002417,0.00035545,0.00033375,0.00006360,0.00007154,0.00004
 755,0.00000613,0.00000382,-0.00002124,-0.01706433,-0.00861451,0.027319
 74,-0.00042326,0.00007738,-0.00005486,0.00156697,0.00131231,-0.0047490
 7,-0.00008105,-0.00026342,0.00025411,-0.10316495,-0.03438192,0.1003123
 7,0.00023798,0.00022712,-0.00051365,0.00003240,-0.00012302,-0.00010520
 ,-0.00009679,-0.00012264,-0.00009514,-0.00008199,-0.00026273,-0.000913
 59,-0.00000485,-0.00000401,0.00000407,-0.00001315,0.00000047,-0.000001
 57,-0.00001339,-0.00019933,-0.00019060,-0.00001163,-0.00001784,-0.0000
 0318,-0.00000867,-0.00000557,-0.00001006,0.00000520,0.00000066,0.00000
 367,-0.00001345,-0.00000171,0.00000443,0.00146561,0.00014953,-0.000249
 33,-0.00585823,0.00131093,-0.00094609,0.00003057,-0.00012221,0.0000069
 5,-0.00000230,0.00012103,-0.00006862,0.00112031,0.00137567,0.00013969,
 0.00046160,-0.00049724,-0.00053114,0.00663277,0.00508797,-0.01157446,0
 .11438450,-0.00065117,-0.00014182,-0.00010574,0.00000119,0.00000238,0.
 00000363,-0.00000176,-0.00012603,-0.00007351,-0.00001753,-0.00002542,-
 0.00001593,-0.00000160,-0.00000371,0.00000834,0.00526864,0.00195105,-0
 .00835677,0.00011584,-0.00021512,-0.00004120,-0.01522701,-0.01276193,0
 .03164356,0.00084470,0.00342889,-0.00078255,-0.03474883,-0.06750628,0.
 05928471,-0.00000148,-0.00004255,0.00000046,-0.00000787,0.00003510,0.0
 0002162,0.00002139,0.00005497,0.00001715,-0.00032149,0.00004244,0.0001
 0538,0.00000186,0.00000146,-0.00000140,0.00000398,-0.00000018,0.000000
 32,0.00002141,0.00006070,0.00004929,0.00000430,0.00000672,0.00000157,0
 .00000295,0.00000126,0.00000295,-0.00000173,0.00000024,-0.00000145,0.0
 0000526,0.00000134,-0.00000208,-0.00051738,0.00035287,-0.00033672,0.00
 226074,0.00044340,0.00039519,-0.00002536,0.00004739,-0.00003589,0.0001
 3180,0.00003237,0.00004135,0.00039307,-0.00643215,0.00041011,0.0001562
 1,0.00161433,-0.00055312,0.00795934,0.00447565,-0.01278039,0.03431389,
 0.07470517,-0.00078906,-0.00026622,0.00037376,0.00000070,0.00000313,0.
 00000297,-0.00023604,-0.00011797,0.00001136,-0.00003009,-0.00003030,-0
 .00001663,-0.00000095,-0.00000559,0.00000491,-0.00053128,-0.00129105,0
 .00141041,-0.00052308,0.00003976,0.00012642,0.00081674,0.00048429,-0.0
 0525242,0.00073558,0.00004220,0.00209971,0.10091533,0.06162138,-0.2354
 5383,0.00026705,0.00015252,0.00021763,-0.00000040,0.00000224,-0.000001
 29,0.00007641,0.00005741,-0.00000011,-0.00006000,0.00029953,0.00025361
 ,0.00000254,0.00000121,-0.00000218,0.00000515,-0.00000006,0.00000093,0
 .00001686,0.00001218,-0.00000060,0.00000208,0.00000638,-0.00000009,0.0
 0000039,-0.00000026,0.00000003,-0.00000008,0.00000075,-0.00000113,0.00
 000586,0.00000007,-0.00000110,0.00043725,-0.00022018,0.00036834,-0.000
 48778,-0.00022924,0.00107459,0.00005418,0.00002821,0.00001035,-0.00002
 861,-0.00005337,-0.00024806,-0.00033962,0.00090695,0.00111812,-0.00032
 529,0.00026398,0.00030288,0.01086388,0.00720080,-0.01975951,-0.1108542
 6,-0.06890612,0.25336188,0.00009432,-0.00008462,-0.00007881,0.00114619
 ,0.00120943,-0.00046565,-0.00648555,-0.01425958,-0.02852645,0.00034594
 ,-0.00055955,-0.00074913,0.00193741,0.00920739,0.02619063,-0.00016912,
 0.00005025,-0.00021484,0.00010230,0.00007407,-0.00004739,-0.00003272,-
 0.00003050,-0.00002884,0.00004647,-0.00006379,0.00004808,0.00002581,-0
 .00001494,0.00016441,0.00246707,-0.00043853,-0.00053999,-0.04819692,-0
 .00684070,-0.02065455,-0.00003203,0.00189495,0.00060758,0.00005130,-0.
 00000034,0.00001844,-0.00000569,0.00021674,-0.00018727,-0.00002484,-0.
 00006465,-0.00034278,-0.00432342,0.00222526,-0.00109106,0.00001051,0.0
 0006289,0.00006166,0.00022382,0.00021392,0.00025025,-0.00367945,-0.002
 43212,0.00313149,0.00086589,0.00063800,-0.00086096,0.00002662,0.000023
 96,-0.00000872,-0.00001027,-0.00002720,0.00022713,-0.00000437,0.000008
 83,0.00001108,0.00002324,-0.00005177,0.00002608,0.00000507,0.00000143,
 0.00000275,0.00000018,0.00001407,0.00000201,0.00001309,-0.00000574,-0.
 00000201,-0.00006241,0.00001703,0.00000267,0.05616089,0.00008344,0.000
 08356,0.00020434,0.00073368,0.00087247,0.00063782,0.00048809,0.0031815
 6,0.00923568,0.00032537,-0.00065575,0.00059461,0.00107650,0.00379316,0
 .01212015,0.00010919,-0.00001443,-0.00000262,-0.00001787,-0.00001841,0
 .00000560,0.00000897,0.00000904,0.00001822,-0.00004081,0.00002315,-0.0
 0001305,0.00000265,0.00000555,-0.00001349,-0.00115958,0.00017772,0.000
 46167,-0.00751744,-0.08283104,-0.08756863,0.00037886,-0.00054387,-0.00
 051620,-0.00004424,0.00001362,0.00000137,0.00001146,0.00014178,-0.0002
 0785,-0.00011746,0.00018668,-0.00048025,0.00085249,0.00051451,0.000271
 81,-0.00005714,0.00011426,0.00005176,0.00033199,-0.00103486,0.00056081
 ,-0.00188717,-0.00011373,0.00194067,0.00040535,0.00019503,-0.00056829,
 -0.00000483,-0.00001031,-0.00000133,-0.00000351,-0.00000526,-0.0000267
 2,-0.00000400,-0.00000430,-0.00000531,-0.00000174,0.00000571,0.0000008
 9,-0.00000013,-0.00000153,-0.00000178,-0.00000233,-0.00000196,-0.00000
 270,-0.00000145,-0.00000079,-0.00000113,0.00000516,-0.00000040,0.00000
 065,0.00892334,0.08639987,0.00002244,0.00024681,0.00049210,0.00017210,
 -0.00053874,0.00071197,-0.00127524,-0.00692848,-0.01383516,-0.00029060
 ,-0.00085142,-0.00078306,-0.00016893,-0.00534159,-0.01766025,0.0002581
 3,-0.00004202,-0.00015626,0.00002629,0.00003609,-0.00003684,-0.0000111
 4,-0.00000201,-0.00001096,-0.00000286,-0.00002239,0.00002179,0.0000341
 7,0.00006132,0.00011245,0.00299764,0.00016884,0.00135702,-0.02480923,-
 0.08570339,-0.27438102,-0.00065293,0.00158784,0.00025727,-0.00003703,0
 .00002080,-0.00001895,-0.00006405,-0.00004064,0.00022459,0.00011093,0.
 00055614,-0.00026893,-0.00155048,0.00122203,-0.00014642,0.00002591,0.0
 0010286,0.00040247,-0.00034678,0.00038083,0.00046520,0.00298016,0.0013
 2324,-0.00074040,0.00010217,-0.00001440,0.00067184,0.00000480,0.000007
 69,-0.00001203,-0.00002272,-0.00004001,0.00007788,-0.00000721,0.000002
 09,0.00000700,0.00000734,-0.00002407,0.00001704,0.00000085,-0.00000142
 ,0.00000166,-0.00000077,0.00000329,0.00000134,0.00002735,-0.00000836,0
 .00000002,-0.00002072,0.00000811,0.00000047,0.02237202,0.09358129,0.30
 084714,-0.00005979,-0.00054287,0.00028679,-0.00363689,-0.00102493,0.00
 442534,0.00166841,0.02910609,0.00051516,-0.00176288,-0.00076566,-0.000
 25729,0.00080920,-0.02689378,-0.00126440,-0.00008661,0.00005189,0.0000
 0491,0.00017082,-0.00002593,-0.00009094,0.00002385,0.00001294,0.000038
 11,-0.00010507,-0.00001539,0.00001766,0.00000164,-0.00003789,-0.000044
 50,-0.00098209,-0.00055294,-0.00032491,-0.04724956,0.00330021,-0.00022
 041,-0.00366901,0.00450685,-0.00355222,-0.00018121,0.00000659,-0.00000
 837,-0.00006615,-0.00170951,0.00007964,-0.00001028,-0.00010441,-0.0001
 7867,0.00126533,-0.00018305,0.00010409,0.00018639,0.00006020,0.0000350
 9,0.00011776,0.00015544,-0.00005933,0.00097083,0.00078004,-0.00020025,
 0.00088318,0.00047122,-0.00096842,-0.00000050,-0.00002160,0.00000670,0
 .00000179,0.00000580,-0.00000584,0.00000497,0.00000090,-0.00000068,0.0
 0002092,-0.00001702,0.00004282,0.00000419,-0.00000082,-0.00000556,-0.0
 0000740,0.00000028,-0.00000364,-0.00002325,0.00000186,-0.00000872,0.00
 000320,-0.00000040,0.00000385,-0.00051932,-0.00287682,0.00011842,0.052
 22751,-0.00007174,0.00020006,-0.00010498,-0.00126935,0.00085080,0.0017
 9470,-0.00331018,-0.00891331,-0.00072093,-0.00010294,0.00097606,0.0001
 2242,0.00038432,-0.00832442,-0.00046220,0.00011709,-0.00005912,-0.0000
 1462,-0.00007802,0.00005267,0.00004826,-0.00001748,-0.00001155,-0.0000
 4205,0.00011792,-0.00002869,0.00000145,-0.00001891,0.00003096,0.000036
 09,0.00125444,0.00028535,-0.00001600,0.00526163,-0.32051085,0.01035330
 ,0.00159747,-0.00031577,0.00077135,0.00010178,-0.00001488,-0.00000132,
 0.00001266,-0.00074171,-0.00009395,-0.00008408,0.00000830,-0.00007902,
 -0.00001107,0.00122572,0.00008320,0.00003630,-0.00006615,0.00010215,-0
 .00008399,0.00011905,0.00005259,0.00004928,0.00031593,0.00028790,-0.00
 028915,0.00043190,-0.00014376,0.00000367,0.00000174,0.00000530,-0.0000
 1225,0.00000312,-0.00000583,-0.00000432,-0.00000156,0.00000586,-0.0000
 2125,0.00001854,-0.00003177,-0.00000424,0.00000118,0.00000640,0.000008
 26,-0.00000308,0.00000487,0.00002389,-0.00000225,0.00000775,0.00000508
 ,-0.00000212,-0.00000327,0.00009248,-0.01048103,0.00024968,-0.00368728
 ,0.34495509,-0.00009651,0.00010474,0.00013417,0.00283329,0.00051563,-0
 .00160627,0.00005119,0.01323615,-0.00258259,-0.00012520,-0.00123817,-0
 .00080764,-0.00105580,0.01910938,-0.00053754,0.00008425,-0.00003598,-0
 .00000902,0.00003627,0.00003276,-0.00006648,0.00000889,0.00001280,0.00
 000557,-0.00002981,-0.00002339,0.00002425,0.00000800,0.00001350,0.0000
 1460,0.00033085,-0.00004526,-0.00001036,-0.00032515,0.00711476,-0.0478
 2267,-0.00324914,0.00291125,-0.00138475,-0.00002006,-0.00000524,-0.000
 00354,0.00007811,0.00093516,0.00015788,0.00014958,0.00035762,-0.000050
 76,0.00051587,0.00028161,0.00029760,0.00000542,0.00007965,0.00023533,-
 0.00012680,0.00007319,0.00040404,-0.00084844,-0.00025540,0.00051834,-0
 .00044657,-0.00065259,0.00067519,-0.00000947,-0.00000350,-0.00000226,0
 .00000147,0.00000184,-0.00001200,-0.00000076,0.00000098,0.00000112,0.0
 0002107,-0.00002348,0.00002902,0.00000031,-0.00000029,0.00000017,-0.00
 000070,-0.00000305,-0.00000062,0.00000853,-0.00000225,0.00000119,0.000
 00358,-0.00000086,-0.00000143,0.00068216,-0.03027798,0.00238100,0.0015
 1556,-0.01221356,0.05001846\\-0.00093467,-0.00251355,0.00162110,-0.000
 01005,-0.00000514,0.00000376,-0.00035568,-0.00190306,-0.00025101,0.000
 03538,0.00000048,0.00001814,0.00000474,-0.00000467,0.00000911,0.000515
 30,0.00110359,-0.00117635,-0.00000387,0.00001474,0.00000372,-0.0000171
 9,-0.00000344,-0.00001135,0.00002222,-0.00000346,-0.00000770,0.0000085
 5,-0.00000013,0.00000107,0.00078878,0.00325148,-0.00019596,-0.00001094
 ,0.00001109,-0.00000052,-0.00001952,0.00001276,-0.00000483,0.00000592,
 -0.00000352,-0.00000389,-0.00000200,-0.00000799,-0.00000096,-0.0000019
 6,0.00000267,-0.00000540,0.00000546,0.00000692,0.00001102,-0.00000003,
 -0.00000828,0.00000664,-0.00001179,0.00000198,-0.00001061,-0.00000066,
 0.00000554,-0.00000254,-0.00000746,0.00000766,-0.00000946,0.00000308,0
 .00000656,-0.00001109,-0.00000188,-0.00000133,-0.00000170,-0.00000142,
 -0.00000161,-0.00001220,-0.00000778,0.00000143,0.00000524,0.00000207,0
 .00000278,0.00000895,0.00000998,0.00000195,-0.00000480,-0.00000160,0.0
 0000855,0.00001000,0.00000016,0.00000156,0.00000028,0.00000061,-0.0000
 0047,0.00000150,-0.00001376,0.00001492,0.00000985\\\@


 WHEN ALL ELSE FAILS, TRY THE BOSS'S SUGGESTION.
 Job cpu time:       0 days 14 hours  8 minutes  1.9 seconds.
 Elapsed time:       0 days  0 hours 53 minutes  1.8 seconds.
 File lengths (MBytes):  RWF=    684 Int=      0 D2E=      0 Chk=     33 Scr=      1
 Normal termination of Gaussian 16 at Mon Nov  5 01:19:12 2018.
