 Entering Gaussian System, Link 0=g16
 Initial command:
 /apps/gaussian/g16a03/g16/l1.exe "/jobfs/local/2011862.r-man2/Gau-6385.inp" -scrdir="/jobfs/local/2011862.r-man2/"
 Entering Link 1 = /apps/gaussian/g16a03/g16/l1.exe PID=      6386.
  
 Copyright (c) 1988,1990,1992,1993,1995,1998,2003,2009,2016,
            Gaussian, Inc.  All Rights Reserved.
  
 This is part of the Gaussian(R) 16 program.  It is based on
 the Gaussian(R) 09 system (copyright 2009, Gaussian, Inc.),
 the Gaussian(R) 03 system (copyright 2003, Gaussian, Inc.),
 the Gaussian(R) 98 system (copyright 1998, Gaussian, Inc.),
 the Gaussian(R) 94 system (copyright 1995, Gaussian, Inc.),
 the Gaussian 92(TM) system (copyright 1992, Gaussian, Inc.),
 the Gaussian 90(TM) system (copyright 1990, Gaussian, Inc.),
 the Gaussian 88(TM) system (copyright 1988, Gaussian, Inc.),
 the Gaussian 86(TM) system (copyright 1986, Carnegie Mellon
 University), and the Gaussian 82(TM) system (copyright 1983,
 Carnegie Mellon University). Gaussian is a federally registered
 trademark of Gaussian, Inc.
  
 This software contains proprietary and confidential information,
 including trade secrets, belonging to Gaussian, Inc.
  
 This software is provided under written license and may be
 used, copied, transmitted, or stored only in accord with that
 written license.
  
 The following legend is applicable only to US Government
 contracts under FAR:
  
                    RESTRICTED RIGHTS LEGEND
  
 Use, reproduction and disclosure by the US Government is
 subject to restrictions as set forth in subparagraphs (a)
 and (c) of the Commercial Computer Software - Restricted
 Rights clause in FAR 52.227-19.
  
 Gaussian, Inc.
 340 Quinnipiac St., Bldg. 40, Wallingford CT 06492
  
  
 ---------------------------------------------------------------
 Warning -- This program may not be used in any manner that
 competes with the business of Gaussian, Inc. or will provide
 assistance to any competitor of Gaussian, Inc.  The licensee
 of this program is prohibited from giving any competitor of
 Gaussian, Inc. access to this program.  By using this program,
 the user acknowledges that Gaussian, Inc. is engaged in the
 business of creating and licensing software in the field of
 computational chemistry and represents and warrants to the
 licensee that it is not a competitor of Gaussian, Inc. and that
 it will not use this program in any manner prohibited above.
 ---------------------------------------------------------------
  

 Cite this work as:
 Gaussian 16, Revision A.03,
 M. J. Frisch, G. W. Trucks, H. B. Schlegel, G. E. Scuseria, 
 M. A. Robb, J. R. Cheeseman, G. Scalmani, V. Barone, 
 G. A. Petersson, H. Nakatsuji, X. Li, M. Caricato, A. V. Marenich, 
 J. Bloino, B. G. Janesko, R. Gomperts, B. Mennucci, H. P. Hratchian, 
 J. V. Ortiz, A. F. Izmaylov, J. L. Sonnenberg, D. Williams-Young, 
 F. Ding, F. Lipparini, F. Egidi, J. Goings, B. Peng, A. Petrone, 
 T. Henderson, D. Ranasinghe, V. G. Zakrzewski, J. Gao, N. Rega, 
 G. Zheng, W. Liang, M. Hada, M. Ehara, K. Toyota, R. Fukuda, 
 J. Hasegawa, M. Ishida, T. Nakajima, Y. Honda, O. Kitao, H. Nakai, 
 T. Vreven, K. Throssell, J. A. Montgomery, Jr., J. E. Peralta, 
 F. Ogliaro, M. J. Bearpark, J. J. Heyd, E. N. Brothers, K. N. Kudin, 
 V. N. Staroverov, T. A. Keith, R. Kobayashi, J. Normand, 
 K. Raghavachari, A. P. Rendell, J. C. Burant, S. S. Iyengar, 
 J. Tomasi, M. Cossi, J. M. Millam, M. Klene, C. Adamo, R. Cammi, 
 J. W. Ochterski, R. L. Martin, K. Morokuma, O. Farkas, 
 J. B. Foresman, and D. J. Fox, Gaussian, Inc., Wallingford CT, 2016.
 
 ******************************************
 Gaussian 16:  ES64L-G16RevA.03 25-Dec-2016
                 5-Nov-2018 
 ******************************************
 %mem=6000mb
 %nproc=24
 Will use up to   24 processors via shared memory.
 %chk=2SO_1_e4_D_PSI.inp_extract_24.chk
 ----------------------------------------------------------------------
 #M062X/6-311++G(2d,2p) opt=ModRedundant freq=noraman SCRF=(Solvent=Wat
 er)
 ----------------------------------------------------------------------
 1/18=120,19=15,26=3,38=1/1,3;
 2/9=110,12=2,17=6,18=5,40=1/2;
 3/5=4,6=6,7=1212,11=2,25=1,30=1,70=2201,71=1,72=1,74=-55/1,2,3;
 4//1;
 5/5=2,38=5,53=1/2;
 6/7=2,8=2,9=2,10=2,28=1/1;
 7//1,2,3,16;
 1/18=20,19=15,26=3/3(2);
 2/9=110/2;
 99//99;
 2/9=110/2;
 3/5=4,6=6,7=1212,11=2,25=1,30=1,70=2205,71=1,72=1,74=-55/1,2,3;
 4/5=5,16=3,69=1/1;
 5/5=2,38=5,53=1/2;
 7//1,2,3,16;
 1/18=20,19=15,26=3/3(-5);
 2/9=110/2;
 6/7=2,8=2,9=2,10=2,19=2,28=1/1;
 99/9=1/99;
 -----------------------------
 2SO_1_e4_D_PSI.inp_extract_24
 -----------------------------
 Symbolic Z-matrix:
 Charge =  0 Multiplicity = 1
 C                     1.14056  -0.04575   0.07244 
 C                    -3.96002  -0.56451   0.07823 
 C                    -1.1918    0.48507   0.20943 
 C                    -2.66958  -1.38281   0.15386 
 C                    -3.63531   0.93691  -0.02474 
 C                     1.91439  -1.13928  -0.64837 
 C                     1.94539   1.24947   0.08439 
 C                     4.00322   0.09676  -0.0159 
 O                     3.20981   1.04443   0.67625 
 C                     3.31997  -1.26104  -0.05433 
 O                    -0.08928   0.17857  -0.59509 
 C                    -2.26091   1.134    -0.66102 
 O                    -1.6692   -0.66511   0.85968 
 H                     0.94819  -0.35392   1.09393 
 H                    -4.57403  -0.75364   0.95283 
 H                    -4.52665  -0.89405  -0.78791 
 H                    -0.88458   1.14923   1.00511 
 H                    -2.81325  -2.30878   0.692 
 H                    -2.30276  -1.62819  -0.83644 
 H                    -3.63467   1.38368   0.96551 
 H                    -4.39471   1.45433  -0.60077 
 H                     1.37973  -2.08104  -0.5751 
 H                     1.98179  -0.88142  -1.703 
 H                     1.44652   2.01394   0.66418 
 H                     2.06941   1.6117   -0.93372 
 H                     4.18904   0.4606   -1.02394 
 H                     4.94714   0.04908   0.50953 
 H                     3.92142  -1.94938  -0.64044 
 H                     3.26248  -1.65842   0.9559 
 H                    -2.24013   0.68545  -1.64972 
 H                    -2.02098   2.1848   -0.77866 
 
 The following ModRedundant input section has been read:
 D       6       1      11       3 F                                           
 

 GradGradGradGradGradGradGradGradGradGradGradGradGradGradGradGradGradGrad
 Berny optimization.
 Initialization pass.
                           ----------------------------
                           !    Initial Parameters    !
                           ! (Angstroms and Degrees)  !
 --------------------------                            --------------------------
 ! Name  Definition              Value          Derivative Info.                !
 --------------------------------------------------------------------------------
 ! R1    R(1,6)                  1.5212         estimate D2E/DX2                !
 ! R2    R(1,7)                  1.5249         estimate D2E/DX2                !
 ! R3    R(1,11)                 1.4172         estimate D2E/DX2                !
 ! R4    R(1,14)                 1.0842         estimate D2E/DX2                !
 ! R5    R(2,4)                  1.5299         estimate D2E/DX2                !
 ! R6    R(2,5)                  1.5396         estimate D2E/DX2                !
 ! R7    R(2,15)                 1.0852         estimate D2E/DX2                !
 ! R8    R(2,16)                 1.0862         estimate D2E/DX2                !
 ! R9    R(3,11)                 1.3988         estimate D2E/DX2                !
 ! R10   R(3,12)                 1.5237         estimate D2E/DX2                !
 ! R11   R(3,13)                 1.4049         estimate D2E/DX2                !
 ! R12   R(3,17)                 1.081          estimate D2E/DX2                !
 ! R13   R(4,13)                 1.4192         estimate D2E/DX2                !
 ! R14   R(4,18)                 1.0806         estimate D2E/DX2                !
 ! R15   R(4,19)                 1.0842         estimate D2E/DX2                !
 ! R16   R(5,12)                 1.5273         estimate D2E/DX2                !
 ! R17   R(5,20)                 1.0864         estimate D2E/DX2                !
 ! R18   R(5,21)                 1.0845         estimate D2E/DX2                !
 ! R19   R(6,10)                 1.5308         estimate D2E/DX2                !
 ! R20   R(6,22)                 1.0854         estimate D2E/DX2                !
 ! R21   R(6,23)                 1.0878         estimate D2E/DX2                !
 ! R22   R(7,9)                  1.4111         estimate D2E/DX2                !
 ! R23   R(7,24)                 1.0814         estimate D2E/DX2                !
 ! R24   R(7,25)                 1.0877         estimate D2E/DX2                !
 ! R25   R(8,9)                  1.4166         estimate D2E/DX2                !
 ! R26   R(8,10)                 1.5205         estimate D2E/DX2                !
 ! R27   R(8,26)                 1.0877         estimate D2E/DX2                !
 ! R28   R(8,27)                 1.0814         estimate D2E/DX2                !
 ! R29   R(10,28)                1.0859         estimate D2E/DX2                !
 ! R30   R(10,29)                1.0871         estimate D2E/DX2                !
 ! R31   R(12,30)                1.0859         estimate D2E/DX2                !
 ! R32   R(12,31)                1.0843         estimate D2E/DX2                !
 ! A1    A(6,1,7)              110.2303         estimate D2E/DX2                !
 ! A2    A(6,1,11)             109.3919         estimate D2E/DX2                !
 ! A3    A(6,1,14)             109.4127         estimate D2E/DX2                !
 ! A4    A(7,1,11)             109.1022         estimate D2E/DX2                !
 ! A5    A(7,1,14)             109.1288         estimate D2E/DX2                !
 ! A6    A(11,1,14)            109.5602         estimate D2E/DX2                !
 ! A7    A(4,2,5)              110.3057         estimate D2E/DX2                !
 ! A8    A(4,2,15)             110.1317         estimate D2E/DX2                !
 ! A9    A(4,2,16)             108.4911         estimate D2E/DX2                !
 ! A10   A(5,2,15)             110.0711         estimate D2E/DX2                !
 ! A11   A(5,2,16)             110.6441         estimate D2E/DX2                !
 ! A12   A(15,2,16)            107.1338         estimate D2E/DX2                !
 ! A13   A(11,3,12)            108.5282         estimate D2E/DX2                !
 ! A14   A(11,3,13)            110.7723         estimate D2E/DX2                !
 ! A15   A(11,3,17)            109.5087         estimate D2E/DX2                !
 ! A16   A(12,3,13)            112.0026         estimate D2E/DX2                !
 ! A17   A(12,3,17)            110.9907         estimate D2E/DX2                !
 ! A18   A(13,3,17)            105.0047         estimate D2E/DX2                !
 ! A19   A(2,4,13)             110.4061         estimate D2E/DX2                !
 ! A20   A(2,4,18)             111.7657         estimate D2E/DX2                !
 ! A21   A(2,4,19)             111.1789         estimate D2E/DX2                !
 ! A22   A(13,4,18)            106.2241         estimate D2E/DX2                !
 ! A23   A(13,4,19)            109.2837         estimate D2E/DX2                !
 ! A24   A(18,4,19)            107.8138         estimate D2E/DX2                !
 ! A25   A(2,5,12)             110.0898         estimate D2E/DX2                !
 ! A26   A(2,5,20)             109.8903         estimate D2E/DX2                !
 ! A27   A(2,5,21)             110.6775         estimate D2E/DX2                !
 ! A28   A(12,5,20)            109.0343         estimate D2E/DX2                !
 ! A29   A(12,5,21)            110.3208         estimate D2E/DX2                !
 ! A30   A(20,5,21)            106.7593         estimate D2E/DX2                !
 ! A31   A(1,6,10)             109.8994         estimate D2E/DX2                !
 ! A32   A(1,6,22)             109.9467         estimate D2E/DX2                !
 ! A33   A(1,6,23)             108.6936         estimate D2E/DX2                !
 ! A34   A(10,6,22)            110.9209         estimate D2E/DX2                !
 ! A35   A(10,6,23)            109.7666         estimate D2E/DX2                !
 ! A36   A(22,6,23)            107.5562         estimate D2E/DX2                !
 ! A37   A(1,7,9)              110.6582         estimate D2E/DX2                !
 ! A38   A(1,7,24)             111.1716         estimate D2E/DX2                !
 ! A39   A(1,7,25)             109.6147         estimate D2E/DX2                !
 ! A40   A(9,7,24)             106.9304         estimate D2E/DX2                !
 ! A41   A(9,7,25)             109.8048         estimate D2E/DX2                !
 ! A42   A(24,7,25)            108.603          estimate D2E/DX2                !
 ! A43   A(9,8,10)             110.982          estimate D2E/DX2                !
 ! A44   A(9,8,26)             108.9494         estimate D2E/DX2                !
 ! A45   A(9,8,27)             106.3194         estimate D2E/DX2                !
 ! A46   A(10,8,26)            110.6131         estimate D2E/DX2                !
 ! A47   A(10,8,27)            111.4171         estimate D2E/DX2                !
 ! A48   A(26,8,27)            108.4178         estimate D2E/DX2                !
 ! A49   A(7,9,8)              113.2131         estimate D2E/DX2                !
 ! A50   A(6,10,8)             110.5717         estimate D2E/DX2                !
 ! A51   A(6,10,28)            110.4598         estimate D2E/DX2                !
 ! A52   A(6,10,29)            109.946          estimate D2E/DX2                !
 ! A53   A(8,10,28)            109.3187         estimate D2E/DX2                !
 ! A54   A(8,10,29)            109.0685         estimate D2E/DX2                !
 ! A55   A(28,10,29)           107.4083         estimate D2E/DX2                !
 ! A56   A(1,11,3)             116.5998         estimate D2E/DX2                !
 ! A57   A(3,12,5)             109.7826         estimate D2E/DX2                !
 ! A58   A(3,12,30)            109.3165         estimate D2E/DX2                !
 ! A59   A(3,12,31)            108.6303         estimate D2E/DX2                !
 ! A60   A(5,12,30)            110.074          estimate D2E/DX2                !
 ! A61   A(5,12,31)            111.6781         estimate D2E/DX2                !
 ! A62   A(30,12,31)           107.2955         estimate D2E/DX2                !
 ! A63   A(3,13,4)             115.0479         estimate D2E/DX2                !
 ! D1    D(7,1,6,10)            52.4446         estimate D2E/DX2                !
 ! D2    D(7,1,6,22)           174.8128         estimate D2E/DX2                !
 ! D3    D(7,1,6,23)           -67.6994         estimate D2E/DX2                !
 ! D4    D(11,1,6,10)          172.4094         estimate D2E/DX2                !
 ! D5    D(11,1,6,22)          -65.2224         estimate D2E/DX2                !
 ! D6    D(11,1,6,23)           52.2653         estimate D2E/DX2                !
 ! D7    D(14,1,6,10)          -67.566          estimate D2E/DX2                !
 ! D8    D(14,1,6,22)           54.8022         estimate D2E/DX2                !
 ! D9    D(14,1,6,23)          172.29           estimate D2E/DX2                !
 ! D10   D(6,1,7,9)            -56.584          estimate D2E/DX2                !
 ! D11   D(6,1,7,24)          -175.2547         estimate D2E/DX2                !
 ! D12   D(6,1,7,25)            64.6659         estimate D2E/DX2                !
 ! D13   D(11,1,7,9)          -176.7236         estimate D2E/DX2                !
 ! D14   D(11,1,7,24)           64.6057         estimate D2E/DX2                !
 ! D15   D(11,1,7,25)          -55.4737         estimate D2E/DX2                !
 ! D16   D(14,1,7,9)            63.5978         estimate D2E/DX2                !
 ! D17   D(14,1,7,24)          -55.0729         estimate D2E/DX2                !
 ! D18   D(14,1,7,25)         -175.1523         estimate D2E/DX2                !
 ! D19   D(6,1,11,3)           143.9918         Frozen                          !
 ! D20   D(7,1,11,3)           -95.3537         estimate D2E/DX2                !
 ! D21   D(14,1,11,3)           24.0576         estimate D2E/DX2                !
 ! D22   D(5,2,4,13)            33.8993         estimate D2E/DX2                !
 ! D23   D(5,2,4,18)           151.9027         estimate D2E/DX2                !
 ! D24   D(5,2,4,19)           -87.5685         estimate D2E/DX2                !
 ! D25   D(15,2,4,13)          -87.7945         estimate D2E/DX2                !
 ! D26   D(15,2,4,18)           30.2089         estimate D2E/DX2                !
 ! D27   D(15,2,4,19)          150.7377         estimate D2E/DX2                !
 ! D28   D(16,2,4,13)          155.2405         estimate D2E/DX2                !
 ! D29   D(16,2,4,18)          -86.7561         estimate D2E/DX2                !
 ! D30   D(16,2,4,19)           33.7727         estimate D2E/DX2                !
 ! D31   D(4,2,5,12)            26.445          estimate D2E/DX2                !
 ! D32   D(4,2,5,20)           -93.6624         estimate D2E/DX2                !
 ! D33   D(4,2,5,21)           148.672          estimate D2E/DX2                !
 ! D34   D(15,2,5,12)          148.1746         estimate D2E/DX2                !
 ! D35   D(15,2,5,20)           28.0672         estimate D2E/DX2                !
 ! D36   D(15,2,5,21)          -89.5984         estimate D2E/DX2                !
 ! D37   D(16,2,5,12)          -93.607          estimate D2E/DX2                !
 ! D38   D(16,2,5,20)          146.2856         estimate D2E/DX2                !
 ! D39   D(16,2,5,21)           28.62           estimate D2E/DX2                !
 ! D40   D(12,3,11,1)          161.3061         estimate D2E/DX2                !
 ! D41   D(13,3,11,1)          -75.3459         estimate D2E/DX2                !
 ! D42   D(17,3,11,1)           40.0042         estimate D2E/DX2                !
 ! D43   D(11,3,12,5)          155.6806         estimate D2E/DX2                !
 ! D44   D(11,3,12,30)          34.8439         estimate D2E/DX2                !
 ! D45   D(11,3,12,31)         -81.9399         estimate D2E/DX2                !
 ! D46   D(13,3,12,5)           33.0753         estimate D2E/DX2                !
 ! D47   D(13,3,12,30)         -87.7615         estimate D2E/DX2                !
 ! D48   D(13,3,12,31)         155.4547         estimate D2E/DX2                !
 ! D49   D(17,3,12,5)          -83.9331         estimate D2E/DX2                !
 ! D50   D(17,3,12,30)         155.2302         estimate D2E/DX2                !
 ! D51   D(17,3,12,31)          38.4464         estimate D2E/DX2                !
 ! D52   D(11,3,13,4)          -90.5805         estimate D2E/DX2                !
 ! D53   D(12,3,13,4)           30.7406         estimate D2E/DX2                !
 ! D54   D(17,3,13,4)          151.2914         estimate D2E/DX2                !
 ! D55   D(2,4,13,3)           -67.7309         estimate D2E/DX2                !
 ! D56   D(18,4,13,3)          170.9166         estimate D2E/DX2                !
 ! D57   D(19,4,13,3)           54.8536         estimate D2E/DX2                !
 ! D58   D(2,5,12,3)           -61.4905         estimate D2E/DX2                !
 ! D59   D(2,5,12,30)           58.8879         estimate D2E/DX2                !
 ! D60   D(2,5,12,31)          177.9582         estimate D2E/DX2                !
 ! D61   D(20,5,12,3)           59.1332         estimate D2E/DX2                !
 ! D62   D(20,5,12,30)         179.5116         estimate D2E/DX2                !
 ! D63   D(20,5,12,31)         -61.4182         estimate D2E/DX2                !
 ! D64   D(21,5,12,3)          176.0718         estimate D2E/DX2                !
 ! D65   D(21,5,12,30)         -63.5498         estimate D2E/DX2                !
 ! D66   D(21,5,12,31)          55.5204         estimate D2E/DX2                !
 ! D67   D(1,6,10,8)           -51.7576         estimate D2E/DX2                !
 ! D68   D(1,6,10,28)         -172.9002         estimate D2E/DX2                !
 ! D69   D(1,6,10,29)           68.7344         estimate D2E/DX2                !
 ! D70   D(22,6,10,8)         -173.5468         estimate D2E/DX2                !
 ! D71   D(22,6,10,28)          65.3107         estimate D2E/DX2                !
 ! D72   D(22,6,10,29)         -53.0547         estimate D2E/DX2                !
 ! D73   D(23,6,10,8)           67.7333         estimate D2E/DX2                !
 ! D74   D(23,6,10,28)         -53.4092         estimate D2E/DX2                !
 ! D75   D(23,6,10,29)        -171.7746         estimate D2E/DX2                !
 ! D76   D(1,7,9,8)             61.1082         estimate D2E/DX2                !
 ! D77   D(24,7,9,8)          -177.6776         estimate D2E/DX2                !
 ! D78   D(25,7,9,8)           -60.0292         estimate D2E/DX2                !
 ! D79   D(10,8,9,7)           -60.3397         estimate D2E/DX2                !
 ! D80   D(26,8,9,7)            61.6884         estimate D2E/DX2                !
 ! D81   D(27,8,9,7)           178.3422         estimate D2E/DX2                !
 ! D82   D(9,8,10,6)            54.8153         estimate D2E/DX2                !
 ! D83   D(9,8,10,28)          176.632          estimate D2E/DX2                !
 ! D84   D(9,8,10,29)          -66.1993         estimate D2E/DX2                !
 ! D85   D(26,8,10,6)          -66.2379         estimate D2E/DX2                !
 ! D86   D(26,8,10,28)          55.5789         estimate D2E/DX2                !
 ! D87   D(26,8,10,29)         172.7476         estimate D2E/DX2                !
 ! D88   D(27,8,10,6)          173.0897         estimate D2E/DX2                !
 ! D89   D(27,8,10,28)         -65.0936         estimate D2E/DX2                !
 ! D90   D(27,8,10,29)          52.0752         estimate D2E/DX2                !
 --------------------------------------------------------------------------------
 Trust Radius=3.00D-01 FncErr=1.00D-07 GrdErr=1.00D-06 EigMax=2.50D+02 EigMin=1.00D-04
 Number of steps in this run=    186 maximum allowed number of steps=    186.
 GradGradGradGradGradGradGradGradGradGradGradGradGradGradGradGradGradGrad

                          Input orientation:                          
 ---------------------------------------------------------------------
 Center     Atomic      Atomic             Coordinates (Angstroms)
 Number     Number       Type             X           Y           Z
 ---------------------------------------------------------------------
      1          6           0        1.140563   -0.045748    0.072440
      2          6           0       -3.960017   -0.564508    0.078225
      3          6           0       -1.191798    0.485066    0.209433
      4          6           0       -2.669579   -1.382805    0.153859
      5          6           0       -3.635313    0.936913   -0.024742
      6          6           0        1.914387   -1.139279   -0.648372
      7          6           0        1.945385    1.249469    0.084389
      8          6           0        4.003219    0.096758   -0.015897
      9          8           0        3.209806    1.044433    0.676253
     10          6           0        3.319968   -1.261041   -0.054331
     11          8           0       -0.089277    0.178568   -0.595087
     12          6           0       -2.260908    1.133995   -0.661015
     13          8           0       -1.669204   -0.665113    0.859682
     14          1           0        0.948185   -0.353920    1.093928
     15          1           0       -4.574027   -0.753637    0.952825
     16          1           0       -4.526649   -0.894054   -0.787906
     17          1           0       -0.884582    1.149226    1.005106
     18          1           0       -2.813254   -2.308776    0.692001
     19          1           0       -2.302760   -1.628187   -0.836441
     20          1           0       -3.634666    1.383683    0.965509
     21          1           0       -4.394707    1.454327   -0.600768
     22          1           0        1.379727   -2.081041   -0.575102
     23          1           0        1.981790   -0.881422   -1.702999
     24          1           0        1.446519    2.013944    0.664176
     25          1           0        2.069410    1.611701   -0.933718
     26          1           0        4.189035    0.460600   -1.023940
     27          1           0        4.947143    0.049078    0.509533
     28          1           0        3.921424   -1.949378   -0.640443
     29          1           0        3.262476   -1.658417    0.955903
     30          1           0       -2.240126    0.685453   -1.649716
     31          1           0       -2.020977    2.184804   -0.778655
 ---------------------------------------------------------------------
                    Distance matrix (angstroms):
                    1          2          3          4          5
     1  C    0.000000
     2  C    5.126896   0.000000
     3  C    2.395921   2.963420   0.000000
     4  C    4.038754   1.529889   2.382408   0.000000
     5  C    4.876890   1.539578   2.495951   2.519054   0.000000
     6  C    1.521244   5.947010   3.608699   4.660003   5.958075
     7  C    1.524949   6.177728   3.231387   5.313340   5.590509
     8  C    2.867562   7.991199   5.214380   6.836970   7.684602
     9  O    2.415544   7.372428   4.461494   6.382127   6.881759
    10  C    2.498562   7.314432   4.845048   5.994401   7.294368
    11  O    1.417186   3.998517   1.398837   3.107533   3.670797
    12  C    3.674201   2.513635   1.523740   2.676810   1.527309
    13  O    2.982977   2.422524   1.404867   1.419161   2.685941
    14  H    1.084167   5.016617   2.462876   3.876925   4.891434
    15  H    5.825180   1.085220   3.677838   2.158963   2.166744
    16  H    5.794576   1.086211   3.744047   2.138810   2.174704
    17  H    2.529633   3.640645   1.081011   3.212790   2.944857
    18  H    4.597589   2.175835   3.266121   1.080584   3.424033
    19  H    3.897005   2.171296   2.606516   1.084188   3.002381
    20  H    5.063957   2.165312   2.710492   3.040333   1.086371
    21  H    5.774309   2.173863   3.443039   3.405121   1.084529
    22  H    2.149169   5.589237   3.716603   4.173224   5.878909
    23  H    2.134994   6.211140   3.949221   5.033343   6.137975
    24  H    2.164738   6.018504   3.083014   5.361025   5.240193
    25  H    2.149941   6.489523   3.634773   5.710333   5.815964
    26  H    3.278966   8.286897   5.520432   7.199023   7.902259
    27  H    3.832766   8.938681   6.161716   7.758302   8.644782
    28  H    3.444590   8.034392   5.726591   6.662825   8.112585
    29  H    2.807797   7.357402   4.999229   5.992371   7.434843
    30  H    3.863876   2.739746   2.143731   2.777590   2.156460
    31  H    3.961699   3.471719   2.133768   3.744075   2.175247
                    6          7          8          9         10
     6  C    0.000000
     7  C    2.498803   0.000000
     8  C    2.508193   2.360822   0.000000
     9  O    2.863798   1.411065   1.416568   0.000000
    10  C    1.530807   2.865551   1.520502   2.420971   0.000000
    11  O    2.398797   2.397575   4.134087   3.640052   3.740032
    12  C    4.754053   4.273390   6.382110   5.632497   6.103314
    13  O    3.916782   4.163167   5.789945   5.173097   5.107092
    14  H    2.141482   2.141129   3.281471   2.691612   2.786884
    15  H    6.694182   6.875271   8.673566   7.993598   7.974144
    16  H    6.447213   6.873341   8.621853   8.108898   7.889373
    17  H    3.975610   2.977664   5.103012   4.108910   4.960850
    18  H    5.051229   5.972851   7.263058   6.893585   6.266672
    19  H    4.249556   5.213019   6.588938   6.310271   5.688722
    20  H    6.305707   5.650784   7.807472   6.858976   7.510098
    21  H    6.821563   6.380296   8.527029   7.721879   8.196830
    22  H    1.085424   3.441975   3.455174   3.831927   2.169824
    23  H    1.087783   2.781506   2.808794   3.298148   2.157067
    24  H    3.447390   1.081408   3.267234   2.012282   3.840780
    25  H    2.770080   1.087721   2.622416   2.052877   3.254207
    26  H    2.806187   2.623866   1.087685   2.047048   2.158580
    27  H    3.456956   3.260711   1.081361   2.009196   2.163805
    28  H    2.164375   3.829195   2.140892   3.347087   1.085857
    29  H    2.158830   3.309088   2.138629   2.717789   1.087100
    30  H    4.646753   4.565494   6.480377   5.936393   6.103174
    31  H    5.153018   4.165540   6.421267   5.547819   6.397201
                   11         12         13         14         15
    11  O    0.000000
    12  C    2.373430   0.000000
    13  O    2.307449   2.428873   0.000000
    14  H    2.052472   3.948670   2.646212   0.000000
    15  H    4.835082   3.393841   2.907664   5.538457   0.000000
    16  H    4.569241   3.043463   3.306350   5.814366   1.747028
    17  H    2.033545   2.161126   1.982071   2.371997   4.151581
    18  H    3.906856   3.740108   2.009626   4.258102   2.363643
    19  H    2.867424   2.768063   2.050790   3.989828   3.020756
    20  H    4.056790   2.143627   2.841092   4.902885   2.334673
    21  H    4.490470   2.158551   3.748774   5.889673   2.705718
    22  H    2.695219   4.857784   3.655056   2.440253   6.288382
    23  H    2.576891   4.811250   4.465857   3.028101   7.074494
    24  H    2.704259   4.034285   4.113794   2.457601   6.632480
    25  H    2.613134   4.365114   4.730476   3.038447   7.299940
    26  H    4.308992   6.495147   6.255735   3.956250   9.064945
    27  H    5.157759   7.382630   6.663987   4.061476   9.565225
    28  H    4.540477   6.908606   5.929151   3.793900   8.725880
    29  H    4.124843   6.396855   5.031638   2.660208   7.888562
    30  H    2.448536   1.085887   2.906382   4.332806   3.780383
    31  H    2.791083   1.084253   3.306043   4.332160   4.260343
                   16         17         18         19         20
    16  H    0.000000
    17  H    4.544726   0.000000
    18  H    2.669698   3.971849   0.000000
    19  H    2.342432   3.621677   1.749269   0.000000
    20  H    3.009682   2.760344   3.792595   3.753979   0.000000
    21  H    2.359517   3.872066   4.281727   3.732784   1.742377
    22  H    6.028225   4.249562   4.386172   3.719420   6.286647
    23  H    6.572468   4.435477   5.546694   4.434631   6.617871
    24  H    6.800274   2.509582   6.068966   5.438204   5.128983
    25  H    7.057483   3.563564   6.469429   5.442629   6.016273
    26  H    8.823488   5.507524   7.723079   6.822140   8.125287
    27  H    9.608620   5.955244   8.112739   7.562140   8.696926
    28  H    8.515010   5.950367   6.874624   6.235547   8.413256
    29  H    8.018453   5.008330   6.116135   5.846816   7.538238
    30  H    2.909596   3.016731   3.844154   2.453216   3.044942
    31  H    3.969615   2.354914   4.794037   3.823825   2.507568
                   21         22         23         24         25
    21  H    0.000000
    22  H    6.770788   0.000000
    23  H    6.879706   1.753202   0.000000
    24  H    6.002764   4.278922   3.777986   0.000000
    25  H    6.474599   3.773673   2.610581   1.761550   0.000000
    26  H    8.651427   3.814919   2.670969   3.575473   2.413707
    27  H    9.511974   4.294217   3.815029   4.017335   3.578563
    28  H    8.985812   2.545943   2.455959   4.851299   4.024581
    29  H    8.410996   2.463195   3.051825   4.107194   3.960776
    30  H    2.516680   4.680985   4.503611   4.550861   4.465724
    31  H    2.489947   5.459272   5.126236   3.759585   4.133250
                   26         27         28         29         30
    26  H    0.000000
    27  H    1.759437   0.000000
    28  H    2.454930   2.523563   0.000000
    29  H    3.044425   2.439854   1.751340   0.000000
    30  H    6.463456   7.531545   6.776848   6.523926   0.000000
    31  H    6.449596   7.401044   7.240352   6.759727   1.747806
                   31
    31  H    0.000000
 Stoichiometry    C10H18O3
 Framework group  C1[X(C10H18O3)]
 Deg. of freedom    87
 Full point group                 C1      NOp   1
 Largest Abelian subgroup         C1      NOp   1
 Largest concise Abelian subgroup C1      NOp   1
                         Standard orientation:                         
 ---------------------------------------------------------------------
 Center     Atomic      Atomic             Coordinates (Angstroms)
 Number     Number       Type             X           Y           Z
 ---------------------------------------------------------------------
      1          6           0        1.140563    0.045748   -0.072440
      2          6           0       -3.960017    0.564508   -0.078225
      3          6           0       -1.191798   -0.485066   -0.209433
      4          6           0       -2.669579    1.382805   -0.153859
      5          6           0       -3.635313   -0.936913    0.024742
      6          6           0        1.914387    1.139279    0.648372
      7          6           0        1.945385   -1.249469   -0.084389
      8          6           0        4.003219   -0.096758    0.015897
      9          8           0        3.209806   -1.044433   -0.676253
     10          6           0        3.319968    1.261041    0.054331
     11          8           0       -0.089277   -0.178568    0.595087
     12          6           0       -2.260908   -1.133995    0.661015
     13          8           0       -1.669204    0.665113   -0.859682
     14          1           0        0.948185    0.353920   -1.093928
     15          1           0       -4.574027    0.753637   -0.952825
     16          1           0       -4.526649    0.894054    0.787906
     17          1           0       -0.884582   -1.149226   -1.005106
     18          1           0       -2.813254    2.308776   -0.692001
     19          1           0       -2.302760    1.628187    0.836441
     20          1           0       -3.634666   -1.383683   -0.965509
     21          1           0       -4.394707   -1.454327    0.600768
     22          1           0        1.379727    2.081041    0.575102
     23          1           0        1.981790    0.881422    1.702999
     24          1           0        1.446519   -2.013944   -0.664176
     25          1           0        2.069410   -1.611701    0.933718
     26          1           0        4.189035   -0.460600    1.023940
     27          1           0        4.947143   -0.049078   -0.509533
     28          1           0        3.921424    1.949378    0.640443
     29          1           0        3.262476    1.658417   -0.955903
     30          1           0       -2.240126   -0.685453    1.649716
     31          1           0       -2.020977   -2.184804    0.778655
 ---------------------------------------------------------------------
 Rotational constants (GHZ):           2.2373606           0.3656017           0.3364095
 Standard basis: 6-311++G(2d,2p) (5D, 7F)
 There are   557 symmetry adapted cartesian basis functions of A   symmetry.
 There are   531 symmetry adapted basis functions of A   symmetry.
   531 basis functions,   762 primitive gaussians,   557 cartesian basis functions
    51 alpha electrons       51 beta electrons
       nuclear repulsion energy       880.2537844429 Hartrees.
 NAtoms=   31 NActive=   31 NUniq=   31 SFac= 1.00D+00 NAtFMM=   60 NAOKFM=F Big=F
 Integral buffers will be    131072 words long.
 Raffenetti 2 integral format.
 Two-electron integral symmetry is turned on.
 ------------------------------------------------------------------------------
 Polarizable Continuum Model (PCM)
 =================================
 Model                : PCM.
 Atomic radii         : UFF (Universal Force Field).
 Polarization charges : Total charges.
 Charge compensation  : None.
 Solution method      : On-the-fly selection.
 Cavity type          : Scaled VdW (van der Waals Surface) (Alpha=1.100).
 Cavity algorithm     : GePol (No added spheres)
                        Default sphere list used, NSphG=   31.
                        Lebedev-Laikov grids with approx.  5.0 points / Ang**2.
                        Smoothing algorithm: York/Karplus (Gamma=1.0000).
                        Polarization charges: spherical gaussians, with
                                              point-specific exponents (IZeta= 3).
                        Self-potential: point-specific (ISelfS= 7).
                        Self-field    : sphere-specific E.n sum rule (ISelfD= 2).
 1st derivatives      : Analytical E(r).r(x)/FMM algorithm (CHGder, D1EAlg=3).
                        Cavity 1st derivative terms included.
 Solvent              : Water, Eps=  78.355300 Eps(inf)=   1.777849
 ------------------------------------------------------------------------------
 One-electron integrals computed using PRISM.
 NBasis=   531 RedAO= T EigKep=  5.46D-06  NBF=   531
 NBsUse=   531 1.00D-06 EigRej= -1.00D+00 NBFU=   531
 ExpMin= 3.60D-02 ExpMax= 8.59D+03 ExpMxC= 1.30D+03 IAcc=3 IRadAn=         5 AccDes= 0.00D+00
 Harris functional with IExCor= 1009 and IRadAn=       5 diagonalized for initial guess.
 HarFok:  IExCor= 1009 AccDes= 0.00D+00 IRadAn=         5 IDoV= 1 UseB2=F ITyADJ=14
 ICtDFT=  3500011 ScaDFX=  1.000000  1.000000  1.000000  1.000000
 FoFCou: FMM=F IPFlag=           0 FMFlag=      100000 FMFlg1=           0
         NFxFlg=           0 DoJE=T BraDBF=F KetDBF=T FulRan=T
         wScrn=  0.000000 ICntrl=       500 IOpCl=  0 I1Cent=   200000004 NGrid=           0
         NMat0=    1 NMatS0=      1 NMatT0=    0 NMatD0=    1 NMtDS0=    0 NMtDT0=    0
 Petite list used in FoFCou.
 Requested convergence on RMS density matrix=1.00D-08 within 128 cycles.
 Requested convergence on MAX density matrix=1.00D-06.
 Requested convergence on             energy=1.00D-06.
 No special actions if energy rises.
 Inv3:  Mode=1 IEnd=    13305708.
 Iteration    1 A*A^-1 deviation from unit magnitude is 4.55D-15 for   2106.
 Iteration    1 A*A^-1 deviation from orthogonality  is 2.42D-15 for   1848   1633.
 Iteration    1 A^-1*A deviation from unit magnitude is 4.55D-15 for   2106.
 Iteration    1 A^-1*A deviation from orthogonality  is 1.38D-15 for   1791    683.
 Error on total polarization charges =  0.01504
 SCF Done:  E(RM062X) =  -617.496782583     A.U. after   12 cycles
            NFock= 12  Conv=0.49D-08     -V/T= 2.0035

 **********************************************************************

            Population analysis using the SCF density.

 **********************************************************************

 Orbital symmetries:
       Occupied  (A) (A) (A) (A) (A) (A) (A) (A) (A) (A) (A) (A)
                 (A) (A) (A) (A) (A) (A) (A) (A) (A) (A) (A) (A)
                 (A) (A) (A) (A) (A) (A) (A) (A) (A) (A) (A) (A)
                 (A) (A) (A) (A) (A) (A) (A) (A) (A) (A) (A) (A)
                 (A) (A) (A)
       Virtual   (A) (A) (A) (A) (A) (A) (A) (A) (A) (A) (A) (A)
                 (A) (A) (A) (A) (A) (A) (A) (A) (A) (A) (A) (A)
                 (A) (A) (A) (A) (A) (A) (A) (A) (A) (A) (A) (A)
                 (A) (A) (A) (A) (A) (A) (A) (A) (A) (A) (A) (A)
                 (A) (A) (A) (A) (A) (A) (A) (A) (A) (A) (A) (A)
                 (A) (A) (A) (A) (A) (A) (A) (A) (A) (A) (A) (A)
                 (A) (A) (A) (A) (A) (A) (A) (A) (A) (A) (A) (A)
                 (A) (A) (A) (A) (A) (A) (A) (A) (A) (A) (A) (A)
                 (A) (A) (A) (A) (A) (A) (A) (A) (A) (A) (A) (A)
                 (A) (A) (A) (A) (A) (A) (A) (A) (A) (A) (A) (A)
                 (A) (A) (A) (A) (A) (A) (A) (A) (A) (A) (A) (A)
                 (A) (A) (A) (A) (A) (A) (A) (A) (A) (A) (A) (A)
                 (A) (A) (A) (A) (A) (A) (A) (A) (A) (A) (A) (A)
                 (A) (A) (A) (A) (A) (A) (A) (A) (A) (A) (A) (A)
                 (A) (A) (A) (A) (A) (A) (A) (A) (A) (A) (A) (A)
                 (A) (A) (A) (A) (A) (A) (A) (A) (A) (A) (A) (A)
                 (A) (A) (A) (A) (A) (A) (A) (A) (A) (A) (A) (A)
                 (A) (A) (A) (A) (A) (A) (A) (A) (A) (A) (A) (A)
                 (A) (A) (A) (A) (A) (A) (A) (A) (A) (A) (A) (A)
                 (A) (A) (A) (A) (A) (A) (A) (A) (A) (A) (A) (A)
                 (A) (A) (A) (A) (A) (A) (A) (A) (A) (A) (A) (A)
                 (A) (A) (A) (A) (A) (A) (A) (A) (A) (A) (A) (A)
                 (A) (A) (A) (A) (A) (A) (A) (A) (A) (A) (A) (A)
                 (A) (A) (A) (A) (A) (A) (A) (A) (A) (A) (A) (A)
                 (A) (A) (A) (A) (A) (A) (A) (A) (A) (A) (A) (A)
                 (A) (A) (A) (A) (A) (A) (A) (A) (A) (A) (A) (A)
                 (A) (A) (A) (A) (A) (A) (A) (A) (A) (A) (A) (A)
                 (A) (A) (A) (A) (A) (A) (A) (A) (A) (A) (A) (A)
                 (A) (A) (A) (A) (A) (A) (A) (A) (A) (A) (A) (A)
                 (A) (A) (A) (A) (A) (A) (A) (A) (A) (A) (A) (A)
                 (A) (A) (A) (A) (A) (A) (A) (A) (A) (A) (A) (A)
                 (A) (A) (A) (A) (A) (A) (A) (A) (A) (A) (A) (A)
                 (A) (A) (A) (A) (A) (A) (A) (A) (A) (A) (A) (A)
                 (A) (A) (A) (A) (A) (A) (A) (A) (A) (A) (A) (A)
                 (A) (A) (A) (A) (A) (A) (A) (A) (A) (A) (A) (A)
                 (A) (A) (A) (A) (A) (A) (A) (A) (A) (A) (A) (A)
                 (A) (A) (A) (A) (A) (A) (A) (A) (A) (A) (A) (A)
                 (A) (A) (A) (A) (A) (A) (A) (A) (A) (A) (A) (A)
                 (A) (A) (A) (A) (A) (A) (A) (A) (A) (A) (A) (A)
                 (A) (A) (A) (A) (A) (A) (A) (A) (A) (A) (A) (A)
 The electronic state is 1-A.
 Alpha  occ. eigenvalues --  -19.63190 -19.62925 -19.62795 -10.63539 -10.58600
 Alpha  occ. eigenvalues --  -10.57874 -10.57824 -10.57763 -10.53205 -10.53178
 Alpha  occ. eigenvalues --  -10.53162 -10.53137 -10.52803  -1.20279  -1.16774
 Alpha  occ. eigenvalues --   -1.13895  -0.90956  -0.89808  -0.87354  -0.84500
 Alpha  occ. eigenvalues --   -0.75388  -0.74295  -0.73653  -0.70475  -0.65849
 Alpha  occ. eigenvalues --   -0.62749  -0.60752  -0.59159  -0.58398  -0.56890
 Alpha  occ. eigenvalues --   -0.55554  -0.53049  -0.52664  -0.49861  -0.49492
 Alpha  occ. eigenvalues --   -0.47884  -0.46895  -0.46031  -0.45700  -0.44563
 Alpha  occ. eigenvalues --   -0.44519  -0.43008  -0.40700  -0.40412  -0.39042
 Alpha  occ. eigenvalues --   -0.38623  -0.38189  -0.36107  -0.35276  -0.34031
 Alpha  occ. eigenvalues --   -0.31761
 Alpha virt. eigenvalues --   -0.00103   0.00755   0.00883   0.01023   0.02107
 Alpha virt. eigenvalues --    0.02404   0.02548   0.03630   0.03708   0.04147
 Alpha virt. eigenvalues --    0.04243   0.04648   0.05592   0.05859   0.06772
 Alpha virt. eigenvalues --    0.07156   0.07578   0.07882   0.08456   0.09085
 Alpha virt. eigenvalues --    0.10037   0.10586   0.10985   0.11517   0.11916
 Alpha virt. eigenvalues --    0.12280   0.12404   0.12688   0.13128   0.13271
 Alpha virt. eigenvalues --    0.13455   0.14006   0.14197   0.14541   0.14890
 Alpha virt. eigenvalues --    0.15032   0.15231   0.15464   0.15888   0.16217
 Alpha virt. eigenvalues --    0.16385   0.16724   0.16959   0.17277   0.17791
 Alpha virt. eigenvalues --    0.17898   0.18144   0.18820   0.19062   0.19482
 Alpha virt. eigenvalues --    0.19908   0.19996   0.20637   0.20987   0.21374
 Alpha virt. eigenvalues --    0.22138   0.22388   0.22519   0.23848   0.24377
 Alpha virt. eigenvalues --    0.24544   0.25220   0.26163   0.26761   0.26991
 Alpha virt. eigenvalues --    0.27179   0.27612   0.28262   0.28531   0.28955
 Alpha virt. eigenvalues --    0.29454   0.30120   0.30749   0.31068   0.31577
 Alpha virt. eigenvalues --    0.32239   0.32691   0.33607   0.33741   0.34277
 Alpha virt. eigenvalues --    0.34499   0.35052   0.35504   0.36277   0.36463
 Alpha virt. eigenvalues --    0.36659   0.36761   0.37315   0.37441   0.37897
 Alpha virt. eigenvalues --    0.39001   0.39280   0.39784   0.40405   0.40790
 Alpha virt. eigenvalues --    0.41720   0.42392   0.43374   0.43631   0.44212
 Alpha virt. eigenvalues --    0.45638   0.48146   0.48886   0.50003   0.50333
 Alpha virt. eigenvalues --    0.51575   0.52166   0.52522   0.53748   0.54339
 Alpha virt. eigenvalues --    0.55225   0.55960   0.56769   0.57482   0.58878
 Alpha virt. eigenvalues --    0.59522   0.59811   0.60510   0.60946   0.61515
 Alpha virt. eigenvalues --    0.61893   0.62084   0.62829   0.62949   0.63662
 Alpha virt. eigenvalues --    0.64061   0.64714   0.65541   0.66174   0.67140
 Alpha virt. eigenvalues --    0.67319   0.68504   0.68999   0.69883   0.70202
 Alpha virt. eigenvalues --    0.70534   0.71305   0.71429   0.72141   0.73033
 Alpha virt. eigenvalues --    0.73300   0.74399   0.74597   0.75049   0.75522
 Alpha virt. eigenvalues --    0.75949   0.76611   0.76844   0.77781   0.77991
 Alpha virt. eigenvalues --    0.81226   0.82194   0.83573   0.84609   0.85450
 Alpha virt. eigenvalues --    0.86437   0.86931   0.88469   0.88944   0.89369
 Alpha virt. eigenvalues --    0.90255   0.91135   0.91952   0.92526   0.94996
 Alpha virt. eigenvalues --    0.96104   0.96937   0.98690   0.99801   1.01821
 Alpha virt. eigenvalues --    1.02604   1.04623   1.05646   1.06070   1.06902
 Alpha virt. eigenvalues --    1.07534   1.08378   1.08914   1.10304   1.11277
 Alpha virt. eigenvalues --    1.12695   1.13635   1.14218   1.16088   1.16790
 Alpha virt. eigenvalues --    1.17110   1.17747   1.18007   1.18485   1.19936
 Alpha virt. eigenvalues --    1.20733   1.21394   1.22849   1.23170   1.24749
 Alpha virt. eigenvalues --    1.24964   1.26033   1.26228   1.26730   1.27919
 Alpha virt. eigenvalues --    1.28366   1.29410   1.29567   1.30038   1.30945
 Alpha virt. eigenvalues --    1.31867   1.32368   1.32609   1.33221   1.33502
 Alpha virt. eigenvalues --    1.33934   1.34944   1.35866   1.37054   1.37520
 Alpha virt. eigenvalues --    1.38121   1.38443   1.38671   1.40410   1.41215
 Alpha virt. eigenvalues --    1.41545   1.41794   1.42924   1.43368   1.45146
 Alpha virt. eigenvalues --    1.45286   1.45748   1.47317   1.48068   1.48300
 Alpha virt. eigenvalues --    1.49005   1.49309   1.50284   1.51233   1.51742
 Alpha virt. eigenvalues --    1.52459   1.53023   1.53393   1.53992   1.54482
 Alpha virt. eigenvalues --    1.55408   1.56274   1.56978   1.57693   1.58703
 Alpha virt. eigenvalues --    1.58783   1.59062   1.60321   1.60914   1.61729
 Alpha virt. eigenvalues --    1.62724   1.63459   1.64620   1.65367   1.66163
 Alpha virt. eigenvalues --    1.66964   1.67756   1.69148   1.69544   1.70974
 Alpha virt. eigenvalues --    1.71326   1.74759   1.75625   1.75853   1.76250
 Alpha virt. eigenvalues --    1.78250   1.78697   1.79677   1.81733   1.82933
 Alpha virt. eigenvalues --    1.87590   1.88376   1.90284   1.94957   1.96713
 Alpha virt. eigenvalues --    2.01261   2.02742   2.09432   2.09700   2.18267
 Alpha virt. eigenvalues --    2.24402   2.25296   2.32724   2.35181   2.38656
 Alpha virt. eigenvalues --    2.41031   2.43172   2.45654   2.46066   2.51507
 Alpha virt. eigenvalues --    2.56343   2.75839   2.76274   2.79892   2.80433
 Alpha virt. eigenvalues --    2.87419   2.88841   2.89947   2.92084   2.93130
 Alpha virt. eigenvalues --    2.93524   2.96396   3.00118   3.01126   3.02439
 Alpha virt. eigenvalues --    3.05763   3.07206   3.07450   3.09074   3.09964
 Alpha virt. eigenvalues --    3.12512   3.14309   3.16829   3.18467   3.22820
 Alpha virt. eigenvalues --    3.26037   3.28233   3.30532   3.31291   3.33322
 Alpha virt. eigenvalues --    3.35103   3.36559   3.36944   3.39446   3.40462
 Alpha virt. eigenvalues --    3.41990   3.42141   3.43934   3.44680   3.45505
 Alpha virt. eigenvalues --    3.47880   3.48457   3.48735   3.49417   3.50263
 Alpha virt. eigenvalues --    3.51339   3.54091   3.54282   3.54980   3.55917
 Alpha virt. eigenvalues --    3.56964   3.57379   3.58698   3.59270   3.60032
 Alpha virt. eigenvalues --    3.60966   3.61423   3.63045   3.63837   3.64430
 Alpha virt. eigenvalues --    3.65736   3.66213   3.67940   3.68453   3.69603
 Alpha virt. eigenvalues --    3.70393   3.71211   3.71700   3.72868   3.73468
 Alpha virt. eigenvalues --    3.73805   3.75336   3.75867   3.77330   3.78287
 Alpha virt. eigenvalues --    3.79680   3.80510   3.82216   3.84042   3.85723
 Alpha virt. eigenvalues --    3.85803   3.87101   3.88869   3.90153   3.91416
 Alpha virt. eigenvalues --    3.93258   3.93754   3.95494   3.97970   3.99082
 Alpha virt. eigenvalues --    3.99754   4.00976   4.02474   4.03167   4.03251
 Alpha virt. eigenvalues --    4.04530   4.05067   4.06195   4.06469   4.07794
 Alpha virt. eigenvalues --    4.07937   4.08642   4.09329   4.10158   4.11321
 Alpha virt. eigenvalues --    4.12440   4.13547   4.14032   4.15309   4.16444
 Alpha virt. eigenvalues --    4.16806   4.17680   4.18585   4.19434   4.20089
 Alpha virt. eigenvalues --    4.20603   4.21761   4.24999   4.25308   4.25807
 Alpha virt. eigenvalues --    4.27286   4.27411   4.28937   4.30412   4.31653
 Alpha virt. eigenvalues --    4.32511   4.33227   4.35192   4.36641   4.38495
 Alpha virt. eigenvalues --    4.42001   4.42085   4.45045   4.47854   4.51996
 Alpha virt. eigenvalues --    4.57120   4.59021   4.75100   4.76435   4.82515
 Alpha virt. eigenvalues --    4.84728   4.92476   4.95500   4.99537   5.00549
 Alpha virt. eigenvalues --    5.02878   5.06756   5.08395   5.11900   5.12614
 Alpha virt. eigenvalues --    5.13624   5.14973   5.18154   5.30351   5.37709
 Alpha virt. eigenvalues --    5.40530   5.57362   5.58736   5.64419   5.85920
 Alpha virt. eigenvalues --    5.87969   6.05920   7.03843   7.04814   7.05929
 Alpha virt. eigenvalues --    7.06302   7.09868   7.11311   7.13259   7.19604
 Alpha virt. eigenvalues --    7.26635   7.35646   7.37750   7.42500   7.52790
 Alpha virt. eigenvalues --    7.55744   7.64107  23.95961  23.98817  24.04665
 Alpha virt. eigenvalues --   24.07039  24.10752  24.12213  24.13102  24.15502
 Alpha virt. eigenvalues --   24.16207  24.20693  50.17511  50.18077  50.23278
          Condensed to atoms (all electrons):
               1          2          3          4          5          6
     1  C    8.326141   0.049568  -0.393828   0.028129  -0.091432  -1.679626
     2  C    0.049568   6.118021   0.502688  -0.324756  -0.366749  -0.020319
     3  C   -0.393828   0.502688   6.753894  -0.509590  -0.286746  -0.027020
     4  C    0.028129  -0.324756  -0.509590   5.792172   0.342638   0.034770
     5  C   -0.091432  -0.366749  -0.286746   0.342638   5.895063  -0.006286
     6  C   -1.679626  -0.020319  -0.027020   0.034770  -0.006286   7.315843
     7  C   -0.678383  -0.025760  -0.029975   0.037338   0.031157   0.043522
     8  C    0.244984   0.002528  -0.008065  -0.002179  -0.002996  -0.160744
     9  O    0.010688   0.000043  -0.005094   0.000012  -0.000606  -0.009003
    10  C   -0.263117  -0.004812  -0.098343   0.012446  -0.000463   0.155802
    11  O    0.228671   0.022253   0.365156  -0.001723  -0.015213  -0.144001
    12  C   -0.020719  -0.205149  -0.601730  -0.135418   0.134260  -0.127982
    13  O    0.027688  -0.011143   0.277594   0.050817  -0.105904  -0.074925
    14  H    0.409115   0.005245  -0.018560  -0.004548  -0.007557   0.075113
    15  H    0.002239   0.481462  -0.007841  -0.087746  -0.051852  -0.003910
    16  H   -0.001735   0.470532   0.014373  -0.044824  -0.066443   0.004435
    17  H    0.120340   0.033733   0.495540  -0.053985  -0.038961  -0.027484
    18  H   -0.006665  -0.010723   0.022493   0.424550  -0.007688   0.010321
    19  H    0.003649  -0.092712  -0.044624   0.480612   0.002734  -0.011167
    20  H    0.001254  -0.075570  -0.033380   0.005173   0.463149   0.004708
    21  H   -0.000794  -0.050330   0.014523   0.005644   0.447449  -0.002448
    22  H   -0.044938  -0.004927   0.003026   0.005329   0.000379   0.393559
    23  H    0.004478   0.000840   0.009029  -0.001764   0.001072   0.484970
    24  H   -0.146987  -0.002572   0.023102   0.004800   0.003040   0.054535
    25  H    0.029039   0.001785  -0.000187  -0.003865  -0.005350  -0.025568
    26  H    0.049061   0.000026   0.003645  -0.000273  -0.000040  -0.030578
    27  H    0.004152   0.000088  -0.002410  -0.000009  -0.000118   0.011032
    28  H   -0.020860  -0.000188  -0.003219   0.000597  -0.000004  -0.015739
    29  H   -0.018869  -0.000160   0.004887  -0.000381   0.000216  -0.024253
    30  H   -0.006267   0.009471  -0.063227  -0.029923  -0.070292   0.006425
    31  H   -0.018720  -0.004338  -0.024597   0.015597   0.005984   0.004463
               7          8          9         10         11         12
     1  C   -0.678383   0.244984   0.010688  -0.263117   0.228671  -0.020719
     2  C   -0.025760   0.002528   0.000043  -0.004812   0.022253  -0.205149
     3  C   -0.029975  -0.008065  -0.005094  -0.098343   0.365156  -0.601730
     4  C    0.037338  -0.002179   0.000012   0.012446  -0.001723  -0.135418
     5  C    0.031157  -0.002996  -0.000606  -0.000463  -0.015213   0.134260
     6  C    0.043522  -0.160744  -0.009003   0.155802  -0.144001  -0.127982
     7  C    6.202719  -0.250519   0.169966   0.181071  -0.178364   0.112933
     8  C   -0.250519   5.384174   0.101841   0.069707   0.017314  -0.008705
     9  O    0.169966   0.101841   8.324624  -0.037881   0.004737   0.001042
    10  C    0.181071   0.069707  -0.037881   5.600698   0.001896   0.009416
    11  O   -0.178364   0.017314   0.004737   0.001896   8.260359  -0.247668
    12  C    0.112933  -0.008705   0.001042   0.009416  -0.247668   6.454769
    13  O    0.025160   0.000469   0.000080  -0.003650  -0.023032   0.003081
    14  H   -0.078993   0.005676  -0.010769  -0.011508  -0.014041  -0.020194
    15  H   -0.000708   0.000059  -0.000008  -0.000300   0.000143   0.048201
    16  H    0.000498  -0.000032   0.000007   0.000338   0.000738  -0.018502
    17  H   -0.068171   0.006373   0.000392  -0.014981  -0.037214  -0.020033
    18  H    0.001235  -0.000148   0.000023   0.001504  -0.001083  -0.024157
    19  H    0.002982  -0.000467  -0.000110  -0.001705   0.010947   0.045839
    20  H    0.000289  -0.000138   0.000028   0.000335   0.000119  -0.010906
    21  H    0.000582  -0.000018  -0.000014  -0.000124  -0.003138  -0.045116
    22  H    0.023891  -0.002753  -0.001515   0.016071   0.005100   0.005998
    23  H   -0.037708  -0.011841   0.000280  -0.082730  -0.005148   0.001781
    24  H    0.465715  -0.001333  -0.076014   0.022073  -0.005653  -0.002363
    25  H    0.358511   0.014571  -0.037711  -0.015453   0.008941   0.004112
    26  H   -0.041072   0.468057  -0.043135  -0.045329  -0.000333   0.000803
    27  H    0.010267   0.434290  -0.072259  -0.048857   0.001113  -0.000313
    28  H   -0.002019  -0.039202   0.007275   0.437211  -0.001619  -0.000867
    29  H    0.005909  -0.081659  -0.001667   0.488269  -0.000542   0.002366
    30  H   -0.003149   0.000182  -0.000016  -0.000224  -0.014593   0.534888
    31  H    0.009163  -0.000845   0.000427   0.000510   0.001727   0.388189
              13         14         15         16         17         18
     1  C    0.027688   0.409115   0.002239  -0.001735   0.120340  -0.006665
     2  C   -0.011143   0.005245   0.481462   0.470532   0.033733  -0.010723
     3  C    0.277594  -0.018560  -0.007841   0.014373   0.495540   0.022493
     4  C    0.050817  -0.004548  -0.087746  -0.044824  -0.053985   0.424550
     5  C   -0.105904  -0.007557  -0.051852  -0.066443  -0.038961  -0.007688
     6  C   -0.074925   0.075113  -0.003910   0.004435  -0.027484   0.010321
     7  C    0.025160  -0.078993  -0.000708   0.000498  -0.068171   0.001235
     8  C    0.000469   0.005676   0.000059  -0.000032   0.006373  -0.000148
     9  O    0.000080  -0.010769  -0.000008   0.000007   0.000392   0.000023
    10  C   -0.003650  -0.011508  -0.000300   0.000338  -0.014981   0.001504
    11  O   -0.023032  -0.014041   0.000143   0.000738  -0.037214  -0.001083
    12  C    0.003081  -0.020194   0.048201  -0.018502  -0.020033  -0.024157
    13  O    8.289474  -0.001261  -0.010569   0.012846  -0.113522  -0.067120
    14  H   -0.001261   0.434570  -0.000145   0.000222  -0.011759   0.000460
    15  H   -0.010569  -0.000145   0.511713  -0.022660   0.003973  -0.011781
    16  H    0.012846   0.000222  -0.022660   0.504509  -0.001097   0.000442
    17  H   -0.113522  -0.011759   0.003973  -0.001097   0.499361  -0.001809
    18  H   -0.067120   0.000460  -0.011781   0.000442  -0.001809   0.473840
    19  H   -0.023356  -0.000231   0.006227  -0.001962  -0.001188  -0.007338
    20  H    0.013038   0.000999  -0.014604   0.007237  -0.007063  -0.000045
    21  H   -0.005223  -0.000344   0.000402  -0.006409   0.000671  -0.000408
    22  H    0.000653  -0.009507  -0.000047   0.000284  -0.000018  -0.000026
    23  H    0.000455   0.005107   0.000034  -0.000156  -0.000344  -0.000117
    24  H    0.002657   0.000878  -0.000262   0.000082  -0.015430   0.000370
    25  H   -0.001151  -0.004820   0.000069  -0.000010   0.008317  -0.000169
    26  H    0.000016  -0.002177   0.000003  -0.000005   0.000481  -0.000029
    27  H    0.000008  -0.000414   0.000001   0.000001   0.000246   0.000008
    28  H   -0.000407   0.001170  -0.000021   0.000024  -0.000375   0.000129
    29  H    0.000271  -0.007600   0.000007  -0.000019   0.000577  -0.000097
    30  H    0.001305  -0.000821  -0.003601   0.001306   0.001855  -0.001257
    31  H    0.009095   0.000837   0.000176  -0.000022  -0.015995   0.001289
              19         20         21         22         23         24
     1  C    0.003649   0.001254  -0.000794  -0.044938   0.004478  -0.146987
     2  C   -0.092712  -0.075570  -0.050330  -0.004927   0.000840  -0.002572
     3  C   -0.044624  -0.033380   0.014523   0.003026   0.009029   0.023102
     4  C    0.480612   0.005173   0.005644   0.005329  -0.001764   0.004800
     5  C    0.002734   0.463149   0.447449   0.000379   0.001072   0.003040
     6  C   -0.011167   0.004708  -0.002448   0.393559   0.484970   0.054535
     7  C    0.002982   0.000289   0.000582   0.023891  -0.037708   0.465715
     8  C   -0.000467  -0.000138  -0.000018  -0.002753  -0.011841  -0.001333
     9  O   -0.000110   0.000028  -0.000014  -0.001515   0.000280  -0.076014
    10  C   -0.001705   0.000335  -0.000124   0.016071  -0.082730   0.022073
    11  O    0.010947   0.000119  -0.003138   0.005100  -0.005148  -0.005653
    12  C    0.045839  -0.010906  -0.045116   0.005998   0.001781  -0.002363
    13  O   -0.023356   0.013038  -0.005223   0.000653   0.000455   0.002657
    14  H   -0.000231   0.000999  -0.000344  -0.009507   0.005107   0.000878
    15  H    0.006227  -0.014604   0.000402  -0.000047   0.000034  -0.000262
    16  H   -0.001962   0.007237  -0.006409   0.000284  -0.000156   0.000082
    17  H   -0.001188  -0.007063   0.000671  -0.000018  -0.000344  -0.015430
    18  H   -0.007338  -0.000045  -0.000408  -0.000026  -0.000117   0.000370
    19  H    0.493856   0.000417  -0.000758  -0.000284   0.000392  -0.000435
    20  H    0.000417   0.492805  -0.011820   0.000064   0.000010   0.001001
    21  H   -0.000758  -0.011820   0.478493   0.000035   0.000027  -0.000099
    22  H   -0.000284   0.000064   0.000035   0.492029  -0.017034  -0.000479
    23  H    0.000392   0.000010   0.000027  -0.017034   0.457878  -0.001860
    24  H   -0.000435   0.001001  -0.000099  -0.000479  -0.001860   0.507761
    25  H    0.000077  -0.000144   0.000015  -0.000835  -0.003702  -0.025192
    26  H    0.000095  -0.000016   0.000007   0.000381  -0.005313  -0.005597
    27  H   -0.000061  -0.000002  -0.000002   0.000737  -0.000754   0.002339
    28  H   -0.000147   0.000023  -0.000006  -0.012983  -0.004923   0.002937
    29  H    0.000159  -0.000013   0.000007  -0.002117   0.003138  -0.002400
    30  H   -0.009035   0.005789  -0.004171   0.000667  -0.000533   0.001176
    31  H    0.000469   0.000111  -0.009436  -0.000106   0.000217  -0.000591
              25         26         27         28         29         30
     1  C    0.029039   0.049061   0.004152  -0.020860  -0.018869  -0.006267
     2  C    0.001785   0.000026   0.000088  -0.000188  -0.000160   0.009471
     3  C   -0.000187   0.003645  -0.002410  -0.003219   0.004887  -0.063227
     4  C   -0.003865  -0.000273  -0.000009   0.000597  -0.000381  -0.029923
     5  C   -0.005350  -0.000040  -0.000118  -0.000004   0.000216  -0.070292
     6  C   -0.025568  -0.030578   0.011032  -0.015739  -0.024253   0.006425
     7  C    0.358511  -0.041072   0.010267  -0.002019   0.005909  -0.003149
     8  C    0.014571   0.468057   0.434290  -0.039202  -0.081659   0.000182
     9  O   -0.037711  -0.043135  -0.072259   0.007275  -0.001667  -0.000016
    10  C   -0.015453  -0.045329  -0.048857   0.437211   0.488269  -0.000224
    11  O    0.008941  -0.000333   0.001113  -0.001619  -0.000542  -0.014593
    12  C    0.004112   0.000803  -0.000313  -0.000867   0.002366   0.534888
    13  O   -0.001151   0.000016   0.000008  -0.000407   0.000271   0.001305
    14  H   -0.004820  -0.002177  -0.000414   0.001170  -0.007600  -0.000821
    15  H    0.000069   0.000003   0.000001  -0.000021   0.000007  -0.003601
    16  H   -0.000010  -0.000005   0.000001   0.000024  -0.000019   0.001306
    17  H    0.008317   0.000481   0.000246  -0.000375   0.000577   0.001855
    18  H   -0.000169  -0.000029   0.000008   0.000129  -0.000097  -0.001257
    19  H    0.000077   0.000095  -0.000061  -0.000147   0.000159  -0.009035
    20  H   -0.000144  -0.000016  -0.000002   0.000023  -0.000013   0.005789
    21  H    0.000015   0.000007  -0.000002  -0.000006   0.000007  -0.004171
    22  H   -0.000835   0.000381   0.000737  -0.012983  -0.002117   0.000667
    23  H   -0.003702  -0.005313  -0.000754  -0.004923   0.003138  -0.000533
    24  H   -0.025192  -0.005597   0.002339   0.002937  -0.002400   0.001176
    25  H    0.493384   0.010476  -0.001735  -0.002290   0.002245   0.001173
    26  H    0.010476   0.495631  -0.005517   0.002880   0.002539   0.000056
    27  H   -0.001735  -0.005517   0.471578  -0.008902  -0.003580   0.000005
    28  H   -0.002290   0.002880  -0.008902   0.485239  -0.007949  -0.000028
    29  H    0.002245   0.002539  -0.003580  -0.007949   0.475297   0.000128
    30  H    0.001173   0.000056   0.000005  -0.000028   0.000128   0.453375
    31  H   -0.001717  -0.000035  -0.000036   0.000010   0.000008  -0.012736
              31
     1  C   -0.018720
     2  C   -0.004338
     3  C   -0.024597
     4  C    0.015597
     5  C    0.005984
     6  C    0.004463
     7  C    0.009163
     8  C   -0.000845
     9  O    0.000427
    10  C    0.000510
    11  O    0.001727
    12  C    0.388189
    13  O    0.009095
    14  H    0.000837
    15  H    0.000176
    16  H   -0.000022
    17  H   -0.015995
    18  H    0.001289
    19  H    0.000469
    20  H    0.000111
    21  H   -0.009436
    22  H   -0.000106
    23  H    0.000217
    24  H   -0.000591
    25  H   -0.001717
    26  H   -0.000035
    27  H   -0.000036
    28  H    0.000010
    29  H    0.000008
    30  H   -0.012736
    31  H    0.480612
 Mulliken charges:
               1
     1  C   -0.146252
     2  C   -0.498077
     3  C   -0.331516
     4  C   -0.039640
     5  C   -0.202443
     6  C   -0.208443
     7  C   -0.288085
     8  C   -0.178582
     9  O   -0.325665
    10  C   -0.367869
    11  O   -0.235849
    12  C   -0.257859
    13  O   -0.273443
    14  H    0.265857
    15  H    0.161347
    16  H    0.146003
    17  H    0.257570
    18  H    0.203999
    19  H    0.147126
    20  H    0.157151
    21  H    0.192802
    22  H    0.149367
    23  H    0.204220
    24  H    0.194801
    25  H    0.197186
    26  H    0.145293
    27  H    0.209100
    28  H    0.184254
    29  H    0.165284
    30  H    0.202072
    31  H    0.170291
 Sum of Mulliken charges =  -0.00000
 Mulliken charges with hydrogens summed into heavy atoms:
               1
     1  C    0.119605
     2  C   -0.190726
     3  C   -0.073946
     4  C    0.311485
     5  C    0.147510
     6  C    0.145144
     7  C    0.103902
     8  C    0.175811
     9  O   -0.325665
    10  C   -0.018332
    11  O   -0.235849
    12  C    0.114504
    13  O   -0.273443
 Electronic spatial extent (au):  <R**2>=           3364.0865
 Charge=              0.0000 electrons
 Dipole moment (field-independent basis, Debye):
    X=             -1.3378    Y=              0.5779    Z=              1.4825  Tot=              2.0788
 Quadrupole moment (field-independent basis, Debye-Ang):
   XX=            -71.3908   YY=            -78.0423   ZZ=            -83.4963
   XY=              5.7256   XZ=              2.6193   YZ=             -0.0988
 Traceless Quadrupole moment (field-independent basis, Debye-Ang):
   XX=              6.2524   YY=             -0.3992   ZZ=             -5.8532
   XY=              5.7256   XZ=              2.6193   YZ=             -0.0988
 Octapole moment (field-independent basis, Debye-Ang**2):
  XXX=             -6.7859  YYY=              1.4493  ZZZ=              0.5125  XYY=             -9.2350
  XXY=             24.7131  XXZ=             20.5893  XZZ=             -0.5497  YZZ=             -0.0812
  YYZ=              0.0103  XYZ=             -5.9815
 Hexadecapole moment (field-independent basis, Debye-Ang**3):
 XXXX=          -3504.8055 YYYY=           -570.1510 ZZZZ=           -245.9260 XXXY=             51.8975
 XXXZ=             32.0224 YYYX=             -9.8334 YYYZ=             -3.5558 ZZZX=              0.7096
 ZZZY=              0.8480 XXYY=           -716.0724 XXZZ=           -657.3328 YYZZ=           -136.5175
 XXYZ=            -23.5862 YYXZ=             10.0024 ZZXY=              2.2063
 N-N= 8.802537844429D+02 E-N=-3.202375237496D+03  KE= 6.153480354303D+02
 D1PCM: PCM CHGder 1st derivatives, ID1Alg=3 FixD1E=F DoIter=F DoCFld=F I1PDM=0.
 Calling FoFJK, ICntrl=      2127 FMM=F ISym2X=0 I1Cent= 0 IOpClX= 0 NMat=1 NMatS=1 NMatT=0.
 ***** Axes restored to original set *****
 -------------------------------------------------------------------
 Center     Atomic                   Forces (Hartrees/Bohr)
 Number     Number              X              Y              Z
 -------------------------------------------------------------------
      1        6          -0.000145318    0.001054153   -0.003505811
      2        6           0.001444102    0.000969448   -0.000223758
      3        6          -0.003617210   -0.003808205   -0.005222052
      4        6          -0.000691744    0.005695218   -0.000706806
      5        6           0.002084918   -0.002598197   -0.001162953
      6        6           0.002008511    0.002268713    0.003766268
      7        6           0.003233429   -0.006935510    0.000854237
      8        6          -0.006456554   -0.002521510    0.000700255
      9        8           0.002704240    0.004464503    0.007974886
     10        6          -0.000663487    0.001708302   -0.002233867
     11        8          -0.000709468    0.000155785   -0.011573039
     12        6          -0.000682026   -0.000126806    0.003118543
     13        8           0.002299329   -0.001747235    0.010491855
     14        1          -0.000273045   -0.002219717    0.006447909
     15        1          -0.001352197   -0.000377426    0.002257667
     16        1          -0.001565551   -0.000505347   -0.002557988
     17        1           0.001581981    0.004965818    0.006593162
     18        1          -0.000660407   -0.003699942    0.002012524
     19        1           0.001455240   -0.001056536   -0.005754636
     20        1           0.000579426    0.000875843    0.002965603
     21        1          -0.001742283    0.001153011   -0.001369685
     22        1          -0.002052477   -0.002335071    0.000281321
     23        1          -0.000095722    0.001882980   -0.003405059
     24        1          -0.002892123    0.003444434    0.002686933
     25        1          -0.000853466    0.000897864   -0.006429615
     26        1           0.000719182    0.000978532   -0.006074744
     27        1           0.003743889   -0.000259562    0.002203894
     28        1           0.001399368   -0.002154285   -0.001532977
     29        1          -0.000320336   -0.000537823    0.003173715
     30        1           0.000871448   -0.002477813   -0.003214259
     31        1           0.000648352    0.002846381   -0.000561524
 -------------------------------------------------------------------
 Cartesian Forces:  Max     0.011573039 RMS     0.003300201

 GradGradGradGradGradGradGradGradGradGradGradGradGradGradGradGradGradGrad
 Berny optimization.
 FormGI is forming the generalized inverse of G from B-inverse, IUseBI=4.
 Internal  Forces:  Max     0.010372074 RMS     0.001948901
 Search for a local minimum.
 Step number   1 out of a maximum of  186
 All quantities printed in internal units (Hartrees-Bohrs-Radians)
 Mixed Optimization -- RFO/linear search
 Second derivative matrix not updated -- first step.
 ITU=  0
     Eigenvalues ---    0.00392   0.00650   0.00692   0.00740   0.01423
     Eigenvalues ---    0.01444   0.01707   0.02702   0.02774   0.03163
     Eigenvalues ---    0.03206   0.04087   0.04241   0.04645   0.04664
     Eigenvalues ---    0.04861   0.04883   0.05090   0.05125   0.05140
     Eigenvalues ---    0.05169   0.05632   0.05740   0.05925   0.06155
     Eigenvalues ---    0.06346   0.06496   0.06608   0.07672   0.07882
     Eigenvalues ---    0.07896   0.07909   0.07918   0.08005   0.08091
     Eigenvalues ---    0.09304   0.09305   0.09704   0.10869   0.11603
     Eigenvalues ---    0.11609   0.11698   0.11710   0.12501   0.12632
     Eigenvalues ---    0.14597   0.15876   0.16278   0.17475   0.19238
     Eigenvalues ---    0.20556   0.21166   0.22416   0.25000   0.27370
     Eigenvalues ---    0.27558   0.28418   0.28705   0.28822   0.29434
     Eigenvalues ---    0.29562   0.30134   0.35070   0.35077   0.35082
     Eigenvalues ---    0.35150   0.35235   0.35254   0.35292   0.35296
     Eigenvalues ---    0.35347   0.35371   0.35453   0.35485   0.35493
     Eigenvalues ---    0.35496   0.35825   0.35830   0.35872   0.35924
     Eigenvalues ---    0.40037   0.41406   0.42302   0.42887   0.42916
     Eigenvalues ---    0.458141000.000001000.000001000.000001000.00000
     Eigenvalues --- 1000.000001000.000001000.000001000.000001000.00000
     Eigenvalues --- 1000.000001000.000001000.000001000.000001000.00000
     Eigenvalues --- 1000.000001000.000001000.000001000.000001000.00000
     Eigenvalues --- 1000.000001000.000001000.000001000.000001000.00000
     Eigenvalues --- 1000.000001000.000001000.000001000.000001000.00000
     Eigenvalues --- 1000.000001000.000001000.000001000.000001000.00000
     Eigenvalues --- 1000.000001000.000001000.000001000.000001000.00000
     Eigenvalues --- 1000.000001000.000001000.000001000.000001000.00000
     Eigenvalues --- 1000.000001000.000001000.000001000.000001000.00000
     Eigenvalues --- 1000.000001000.000001000.000001000.000001000.00000
     Eigenvalues --- 1000.000001000.000001000.000001000.000001000.00000
     Eigenvalues --- 1000.000001000.000001000.000001000.000001000.00000
     Eigenvalues --- 1000.000001000.000001000.000001000.000001000.00000
     Eigenvalues --- 1000.000001000.000001000.000001000.000001000.00000
     Eigenvalues --- 1000.000001000.000001000.000001000.000001000.00000
     Eigenvalues --- 1000.000001000.000001000.000001000.000001000.00000
     Eigenvalues --- 1000.000001000.000001000.000001000.000001000.00000
     Eigenvalues --- 1000.000001000.000001000.000001000.000001000.00000
     Eigenvalues --- 1000.000001000.000001000.000001000.000001000.00000
 RFO step:  Lambda=-2.84585184D-03 EMin= 3.91942122D-03
 Linear search not attempted -- first point.
 Iteration  1 RMS(Cart)=  0.03714613 RMS(Int)=  0.00038726
 Iteration  2 RMS(Cart)=  0.00122568 RMS(Int)=  0.00005134
 Iteration  3 RMS(Cart)=  0.00000040 RMS(Int)=  0.00005134
 Iteration  1 RMS(Cart)=  0.00000435 RMS(Int)=  0.00000101
 Iteration  2 RMS(Cart)=  0.00000240 RMS(Int)=  0.00000112
 Iteration  3 RMS(Cart)=  0.00000133 RMS(Int)=  0.00000127
 Iteration  4 RMS(Cart)=  0.00000073 RMS(Int)=  0.00000137
 Variable       Old X    -DE/DX   Delta X   Delta X   Delta X     New X
                                 (Linear)    (Quad)   (Total)
    R1        2.87473  -0.00215   0.00000  -0.00724  -0.00726   2.86747
    R2        2.88174   0.00002   0.00000   0.00002   0.00002   2.88175
    R3        2.67809   0.00241   0.00000   0.00558   0.00558   2.68368
    R4        2.04878   0.00676   0.00000   0.01888   0.01888   2.06766
    R5        2.89107   0.00099   0.00000   0.00279   0.00282   2.89390
    R6        2.90938  -0.00044   0.00000  -0.00266  -0.00260   2.90678
    R7        2.05077   0.00265   0.00000   0.00743   0.00743   2.05820
    R8        2.05264   0.00301   0.00000   0.00847   0.00847   2.06112
    R9        2.64342   0.00333   0.00000   0.00723   0.00723   2.65065
   R10        2.87945  -0.00112   0.00000  -0.00238  -0.00240   2.87706
   R11        2.65481   0.00307   0.00000   0.00789   0.00786   2.66267
   R12        2.04282   0.00835   0.00000   0.02310   0.02310   2.06592
   R13        2.68183   0.00324   0.00000   0.00736   0.00731   2.68914
   R14        2.04201   0.00426   0.00000   0.01176   0.01176   2.05377
   R15        2.04882   0.00599   0.00000   0.01674   0.01674   2.06556
   R16        2.88620  -0.00045   0.00000  -0.00242  -0.00242   2.88377
   R17        2.05294   0.00306   0.00000   0.00862   0.00862   2.06157
   R18        2.04946   0.00250   0.00000   0.00699   0.00699   2.05645
   R19        2.89281  -0.00063   0.00000  -0.00215  -0.00217   2.89063
   R20        2.05115   0.00306   0.00000   0.00858   0.00858   2.05973
   R21        2.05561   0.00374   0.00000   0.01058   0.01058   2.06620
   R22        2.66653   0.00314   0.00000   0.00713   0.00715   2.67367
   R23        2.04356   0.00521   0.00000   0.01443   0.01443   2.05799
   R24        2.05549   0.00622   0.00000   0.01758   0.01758   2.07308
   R25        2.67692   0.00333   0.00000   0.00784   0.00786   2.68479
   R26        2.87333   0.00031   0.00000   0.00107   0.00107   2.87440
   R27        2.05543   0.00608   0.00000   0.01719   0.01719   2.07261
   R28        2.04348   0.00435   0.00000   0.01205   0.01205   2.05553
   R29        2.05197   0.00297   0.00000   0.00834   0.00834   2.06031
   R30        2.05432   0.00316   0.00000   0.00893   0.00893   2.06325
   R31        2.05203   0.00397   0.00000   0.01115   0.01115   2.06318
   R32        2.04894   0.00296   0.00000   0.00829   0.00829   2.05723
    A1        1.92388  -0.00027   0.00000  -0.00331  -0.00335   1.92053
    A2        1.90925  -0.00080   0.00000  -0.00220  -0.00219   1.90706
    A3        1.90961   0.00040   0.00000  -0.00353  -0.00352   1.90609
    A4        1.90419   0.00065   0.00000   0.00416   0.00418   1.90837
    A5        1.90466  -0.00025   0.00000  -0.00077  -0.00079   1.90387
    A6        1.91219   0.00027   0.00000   0.00574   0.00572   1.91791
    A7        1.92520  -0.00011   0.00000  -0.00864  -0.00879   1.91640
    A8        1.92216  -0.00050   0.00000   0.00053   0.00057   1.92273
    A9        1.89353   0.00074   0.00000   0.00499   0.00502   1.89854
   A10        1.92110   0.00083   0.00000   0.00223   0.00228   1.92339
   A11        1.93110  -0.00105   0.00000  -0.00209  -0.00206   1.92905
   A12        1.86984   0.00009   0.00000   0.00339   0.00336   1.87320
   A13        1.89417  -0.00269   0.00000  -0.01192  -0.01192   1.88226
   A14        1.93334   0.00048   0.00000   0.00246   0.00261   1.93595
   A15        1.91129   0.00149   0.00000   0.01009   0.01007   1.92136
   A16        1.95481   0.00271   0.00000   0.00819   0.00803   1.96284
   A17        1.93715  -0.00019   0.00000   0.00004   0.00014   1.93729
   A18        1.83268  -0.00169   0.00000  -0.00821  -0.00822   1.82445
   A19        1.92695   0.00136   0.00000   0.00165   0.00142   1.92837
   A20        1.95068  -0.00037   0.00000  -0.00328  -0.00319   1.94749
   A21        1.94044  -0.00090   0.00000  -0.00303  -0.00302   1.93742
   A22        1.85396  -0.00111   0.00000  -0.00074  -0.00068   1.85328
   A23        1.90736   0.00068   0.00000   0.00491   0.00501   1.91237
   A24        1.88171   0.00034   0.00000   0.00076   0.00073   1.88244
   A25        1.92143  -0.00083   0.00000  -0.00720  -0.00743   1.91400
   A26        1.91795   0.00061   0.00000   0.00142   0.00148   1.91943
   A27        1.93169  -0.00017   0.00000   0.00056   0.00062   1.93230
   A28        1.90301   0.00041   0.00000  -0.00054  -0.00048   1.90253
   A29        1.92546  -0.00004   0.00000   0.00131   0.00137   1.92683
   A30        1.86330   0.00007   0.00000   0.00484   0.00480   1.86810
   A31        1.91811   0.00128   0.00000  -0.00278  -0.00282   1.91529
   A32        1.91893  -0.00061   0.00000  -0.00301  -0.00298   1.91595
   A33        1.89706  -0.00108   0.00000  -0.00759  -0.00759   1.88948
   A34        1.93593   0.00011   0.00000   0.00582   0.00583   1.94176
   A35        1.91579  -0.00016   0.00000   0.00339   0.00336   1.91915
   A36        1.87721   0.00040   0.00000   0.00405   0.00401   1.88122
   A37        1.93135   0.00192   0.00000   0.00902   0.00904   1.94039
   A38        1.94031  -0.00060   0.00000  -0.00592  -0.00597   1.93434
   A39        1.91314  -0.00242   0.00000  -0.01631  -0.01637   1.89676
   A40        1.86629  -0.00090   0.00000   0.00069   0.00070   1.86698
   A41        1.91646   0.00133   0.00000   0.01245   0.01251   1.92896
   A42        1.89548   0.00074   0.00000   0.00071   0.00058   1.89606
   A43        1.93700   0.00192   0.00000   0.00875   0.00875   1.94575
   A44        1.90153   0.00067   0.00000   0.00676   0.00680   1.90832
   A45        1.85562  -0.00121   0.00000  -0.00377  -0.00377   1.85186
   A46        1.93056  -0.00160   0.00000  -0.00957  -0.00960   1.92097
   A47        1.94460  -0.00032   0.00000  -0.00305  -0.00306   1.94154
   A48        1.89225   0.00057   0.00000   0.00126   0.00122   1.89347
   A49        1.97594  -0.00464   0.00000  -0.02774  -0.02765   1.94829
   A50        1.92984  -0.00080   0.00000  -0.00581  -0.00587   1.92397
   A51        1.92789  -0.00041   0.00000  -0.00010  -0.00009   1.92780
   A52        1.91892   0.00076   0.00000   0.00113   0.00113   1.92005
   A53        1.90797   0.00071   0.00000   0.00495   0.00497   1.91294
   A54        1.90360  -0.00024   0.00000  -0.00292  -0.00292   1.90068
   A55        1.87463  -0.00000   0.00000   0.00300   0.00300   1.87763
   A56        2.03505  -0.01037   0.00000  -0.04102  -0.04102   1.99403
   A57        1.91607   0.00022   0.00000  -0.00542  -0.00554   1.91053
   A58        1.90793  -0.00049   0.00000  -0.00912  -0.00908   1.89885
   A59        1.89596  -0.00025   0.00000   0.00355   0.00359   1.89955
   A60        1.92115   0.00006   0.00000   0.00262   0.00252   1.92368
   A61        1.94915   0.00028   0.00000   0.00509   0.00519   1.95434
   A62        1.87266   0.00016   0.00000   0.00316   0.00313   1.87579
   A63        2.00796  -0.00551   0.00000  -0.03437  -0.03449   1.97348
    D1        0.91533  -0.00038   0.00000   0.00478   0.00477   0.92010
    D2        3.05106   0.00020   0.00000   0.00825   0.00824   3.05930
    D3       -1.18158  -0.00029   0.00000   0.00698   0.00698  -1.17460
    D4        3.00911  -0.00025   0.00000   0.00648   0.00647   3.01558
    D5       -1.13835   0.00033   0.00000   0.00995   0.00994  -1.12840
    D6        0.91220  -0.00016   0.00000   0.00868   0.00868   0.92089
    D7       -1.17925  -0.00015   0.00000   0.01000   0.00999  -1.16926
    D8        0.95648   0.00043   0.00000   0.01347   0.01346   0.96994
    D9        3.00703  -0.00006   0.00000   0.01220   0.01220   3.01923
   D10       -0.98758  -0.00125   0.00000  -0.01576  -0.01576  -1.00334
[...]
 ,0.00093786,-0.01335553,0.00807183,-0.01858766,-0.00037116,0.00006130,
 0.00011119,0.00143790,-0.00051203,0.00143908,0.00002573,0.00005544,-0.
 00000772,-0.00002259,0.00012151,0.00001866,-0.00037761,0.00010737,0.00
 077497,0.00000480,0.00000217,-0.00000212,0.00000507,-0.00000057,0.0000
 0296,-0.00010370,0.00004178,0.00003688,0.00000879,0.00000982,-0.000000
 22,0.00000536,-0.00000354,0.00000340,-0.00000091,0.00000040,-0.0000036
 7,0.00001644,0.00000167,-0.00000450,0.00006929,0.00003803,0.00015961,-
 0.00041055,0.00032795,0.00020092,0.00407144,0.00539186,-0.01400537,-0.
 03736633,-0.08259215,0.29037233,-0.00031258,0.00011487,-0.00022865,0.0
 0000118,0.00000058,-0.00000005,0.00004107,-0.00000442,-0.00005026,0.00
 000280,0.00000135,0.00000138,-0.00000114,0.00000269,-0.00000169,0.0007
 7038,0.00043469,0.00124148,0.00226870,-0.00169066,0.00431094,-0.060661
 08,-0.01534281,0.03017526,-0.00915487,0.00371959,0.02311220,-0.0021208
 6,-0.00785469,0.01452907,-0.00022166,-0.00009535,-0.00013540,-0.000005
 77,0.00000148,0.00000448,-0.00000509,-0.00000861,0.00000713,0.00008119
 ,0.00009119,-0.00007275,-0.00000027,-0.00000008,0.00000018,-0.00000030
 ,-0.00000011,-0.00000013,0.00000557,0.00000350,0.00000504,-0.00000021,
 -0.00000048,0.00000028,0.00000033,0.00000013,0.00000038,-0.00000018,-0
 .00000010,0.00000032,-0.00000153,-0.00000023,0.00000028,0.00017804,0.0
 0009129,-0.00022959,-0.00014907,-0.00005949,-0.00034182,0.00010258,0.0
 0007280,-0.00026658,0.00023042,0.00009322,-0.00078960,0.06242282,0.000
 19625,-0.00048529,0.00019087,-0.00000006,0.00000005,0.00000007,-0.0000
 4136,0.00003038,0.00001481,-0.00000087,-0.00000019,-0.00000174,-0.0000
 0111,0.00000023,-0.00000154,0.00128750,0.00108701,0.00048335,-0.002974
 46,0.00174213,-0.00338145,-0.01534370,-0.08224542,0.08655724,0.0136222
 2,0.00223697,-0.02992943,-0.00526269,-0.01185560,0.02869308,0.00009432
 ,0.00024474,0.00013084,-0.00000509,-0.00000057,0.00000654,0.00000636,0
 .00000610,-0.00000712,0.00004239,-0.00012152,0.00000934,0.00000017,0.0
 0000004,0.00000002,-0.00000007,0.,0.,-0.00000886,-0.00000031,0.0000009
 4,0.00000068,0.00000029,-0.00000106,-0.00000006,-0.00000144,0.00000032
 ,0.00000026,-0.00000023,-0.00000007,-0.00000045,0.00000009,0.00000003,
 0.00023822,0.00002786,-0.00038692,-0.00043232,0.00026499,-0.00065422,-
 0.00016433,-0.00005258,0.00006493,-0.00074326,-0.00001569,0.00104369,0
 .01340387,0.09295528,-0.00022425,-0.00048988,0.00005680,-0.00000020,0.
 00000261,0.00000348,-0.00027218,0.00001712,0.00025185,-0.00003638,-0.0
 0003467,-0.00003024,0.00000402,-0.00001267,0.00001835,0.00012425,-0.00
 053774,0.00067492,-0.00338902,0.00111547,0.00064386,0.03373163,0.08418
 385,-0.25473056,0.01357920,-0.00779169,-0.02288756,-0.00163012,0.00053
 998,0.00129178,0.00067536,0.00006441,0.00002471,0.00002759,0.00000841,
 -0.00003418,0.00011723,0.00008931,-0.00005326,-0.00007584,0.00007497,-
 0.00013586,0.00000369,0.00000213,-0.00000203,0.00000567,-0.00000082,0.
 00000278,-0.00000711,-0.00000880,-0.00001378,0.00000605,0.00000722,-0.
 00000022,-0.00000039,-0.00000297,0.00000417,-0.00000006,0.00000039,-0.
 00000265,0.00001264,0.00000061,-0.00000312,0.00009067,0.00005572,0.000
 15486,0.00054042,-0.00003784,0.00001031,0.00011578,-0.00029201,0.00047
 761,0.00128261,-0.00020345,0.00081282,-0.04635597,-0.08357422,0.284992
 38,0.00081708,0.00029954,-0.00007430,0.00000034,-0.00000386,-0.0000047
 1,0.00036199,0.00001503,-0.00027978,0.00005264,0.00004406,0.00003846,-
 0.00000462,0.00001534,-0.00002413,0.00013844,-0.00305168,0.00050467,0.
 00118568,0.00150900,0.00382397,-0.24732598,0.01691059,-0.11433180,-0.0
 2201294,0.00886597,-0.00641872,-0.01176482,0.00023362,-0.00810545,-0.0
 0062176,-0.00002501,-0.00003765,-0.00003327,-0.00001735,0.00004105,-0.
 00015883,-0.00012236,0.00006305,-0.00004029,0.00000252,0.00001638,-0.0
 0000542,-0.00000245,0.00000300,-0.00000734,0.00000095,-0.00000341,0.00
 000749,0.00000005,0.00000366,-0.00000950,-0.00001086,-0.00000021,0.000
 00088,0.00000330,-0.00000413,0.00000024,-0.00000017,0.00000383,-0.0000
 1656,-0.00000091,0.00000374,-0.00078158,0.00023196,-0.00037369,0.00004
 111,0.00008151,-0.00011752,-0.00100084,0.00014468,-0.00043165,0.000028
 06,0.00001522,-0.00027110,0.00662982,-0.00079962,0.00184344,0.27394909
 ,0.00043132,-0.00123203,-0.00025376,-0.00000055,0.00000020,0.00000037,
 -0.00003822,0.00004480,-0.00002150,0.00000154,0.00000338,-0.00000621,-
 0.00000443,0.00000194,-0.00000339,-0.00191043,-0.00577902,0.00087391,0
 .00099764,-0.00248554,-0.00376946,0.01178205,-0.04970025,0.00903275,0.
 02901252,-0.00785209,0.01077714,-0.02666551,0.00414742,-0.01536299,0.0
 0009382,0.00051923,0.00018676,-0.00001549,0.00000050,0.00001769,0.0000
 1260,0.00001764,-0.00000435,-0.00003132,0.00009957,0.00003878,-0.00000
 022,0.00000032,0.00000008,0.00000023,-0.00000005,0.00000019,-0.0000459
 3,0.00000465,0.00003005,0.00000190,0.00000018,0.00000071,0.00000334,-0
 .00000115,0.00000160,-0.00000011,-0.00000010,0.,-0.00000143,-0.0000003
 1,0.00000052,-0.00189373,0.00026499,-0.00060642,0.00021257,0.00002080,
 -0.00008630,0.00146404,-0.00009329,0.00029266,-0.00022859,0.00003217,-
 0.00004972,0.00952555,-0.00002218,0.00639799,-0.02451974,0.05989150,0.
 00010491,-0.00051358,-0.00014912,-0.00000042,0.00000009,0.00000010,-0.
 00002142,0.00001509,0.00000914,-0.00000332,0.00000002,-0.00000312,-0.0
 0000169,-0.00000021,-0.00000181,0.00013484,-0.00085377,0.00101338,0.00
 167852,-0.00173138,-0.00147975,-0.12423066,0.01402779,-0.12377758,0.02
 125620,-0.00517941,0.00975970,0.00090672,0.00133142,-0.00006029,0.0000
 8287,0.00025175,0.00012746,-0.00000462,-0.00000025,0.00000590,0.000012
 40,0.00001195,-0.00000964,-0.00000050,0.00000645,0.00000890,0.,0.00000
 010,-0.00000006,0.00000015,0.00000009,0.,-0.00001564,-0.00000082,0.000
 01139,0.00000123,0.00000068,-0.00000051,-0.00000008,-0.00000054,0.0000
 0091,-0.00000005,0.00000029,-0.00000026,-0.00000015,-0.00000003,0.0000
 0011,-0.00039511,0.00011073,0.00015981,0.00038521,-0.00003724,0.000317
 12,0.00062708,-0.00024424,0.00048924,0.00019937,-0.00021574,0.00047566
 ,-0.02470477,0.00170059,-0.01292567,0.12386220,-0.00792700,0.12531622,
 -0.00270933,-0.00240498,-0.00457505,0.00000547,-0.00000562,-0.00000965
 ,0.00065823,0.00037459,-0.00114321,0.00010999,0.00010687,0.00007962,-0
 .00003729,0.00006622,-0.00009797,-0.01665948,0.02097691,0.01675522,-0.
 00112671,-0.00048365,-0.00039179,0.00973719,-0.00806931,-0.00914920,0.
 00032906,-0.00538245,-0.00090085,-0.12405447,0.09328634,0.07818291,-0.
 00268780,0.00211415,0.00102693,-0.00020213,-0.00004603,0.00024461,-0.0
 0028558,-0.00031201,0.00017654,0.00011865,-0.00026094,-0.00001227,-0.0
 0001171,-0.00000874,0.00000686,-0.00001668,0.00000102,-0.00000822,-0.0
 0005769,0.00003585,0.00009085,-0.00001797,-0.00002411,-0.00000060,-0.0
 0000069,0.00000505,-0.00001066,0.00000118,-0.00000098,0.00000925,-0.00
 005605,-0.00000728,0.00001633,0.00100939,-0.00066815,0.00057046,0.0014
 2482,-0.00021193,-0.00011939,0.00021065,0.00010084,0.00013410,0.000199
 53,0.00003448,0.00001710,0.00051270,0.00066710,0.00035556,0.00017161,0
 .00108393,-0.00014205,0.13556507,-0.00040645,0.00134632,0.00071283,-0.
 00000110,0.00000255,0.00000255,-0.00023742,-0.00005567,0.00024811,-0.0
 0003546,-0.00002944,-0.00002575,0.00000389,-0.00001377,0.00002191,0.00
 156610,-0.00196785,-0.00046075,-0.00187353,0.00085823,-0.00072945,0.01
 854780,-0.01448856,-0.01509943,-0.00174405,-0.00848181,-0.00135651,0.0
 9249886,-0.16257826,-0.09253285,0.00044736,-0.00001601,-0.00028717,0.0
 0002692,0.00001346,-0.00004468,0.00009732,0.00008500,-0.00004369,0.000
 06761,-0.00012772,-0.00019312,0.00000373,0.00000174,-0.00000193,0.0000
 0511,-0.00000055,0.00000235,0.00000037,-0.00000350,-0.00001419,0.00000
 610,0.00000735,0.00000039,0.00000037,-0.00000172,0.00000296,-0.0000007
 2,0.00000013,-0.00000265,0.00001259,0.00000131,-0.00000394,0.00019426,
 0.00033799,0.00036311,0.00000338,0.00003811,-0.00000525,0.00022781,-0.
 00003209,0.00006084,0.00018204,-0.00003214,0.00016497,0.00022216,0.000
 93323,0.00083402,-0.00035387,0.00086303,-0.00016382,-0.10241654,0.1747
 4786,-0.00219313,-0.00058425,-0.00126368,0.00000215,0.00000101,-0.0000
 0100,0.00000311,0.00016649,-0.00031070,0.00001950,0.00001476,0.0000128
 8,-0.00001619,0.00001674,-0.00002843,-0.00908726,0.01197808,0.00805897
 ,-0.00040397,0.00008402,-0.00035593,0.00047142,0.00116240,-0.00213478,
 -0.00011635,-0.00114139,0.00147145,0.07875850,-0.09466485,-0.12455020,
 -0.00097777,0.00058682,0.00056450,-0.00006770,-0.00001099,0.00007301,-
 0.00003252,-0.00006608,0.00003626,-0.00012646,0.00017813,0.00033091,-0
 .00000222,-0.00000208,0.00000118,-0.00000242,-0.00000024,-0.00000151,-
 0.00000182,0.00000837,0.00001922,-0.00000330,-0.00000480,-0.00000027,-
 0.00000081,0.00000093,-0.00000134,0.00000074,-0.00000003,0.00000157,-0
 .00001554,-0.00000239,0.00000472,0.00081191,-0.00030760,0.00026539,0.0
 0078550,0.00007369,0.00073495,0.00005576,-0.00000481,-0.00000709,0.000
 13555,-0.00003139,0.00002947,-0.00028803,-0.00032679,0.00021130,-0.000
 12945,-0.00000014,0.00003319,-0.08270551,0.10262925,0.13195230,0.00139
 649,-0.00030454,-0.00115146,0.00000005,-0.00000091,0.00000086,0.000052
 29,0.00000507,0.00002555,0.00000499,0.00000305,0.00000202,0.00000121,0
 .00000016,-0.00000252,0.00207384,0.01126144,-0.02998491,-0.00053232,0.
 00009901,-0.00028295,-0.00411210,-0.00664230,0.01813479,0.00111167,0.0
 0135351,-0.00116521,-0.05044159,-0.00856211,0.02447023,-0.00022613,-0.
 00018479,0.00041559,0.00001138,-0.00000009,0.00000100,-0.00001883,-0.0
 0002846,0.00002759,-0.00021844,0.00009424,0.00044032,-0.00000090,0.000
 00006,0.00000027,-0.00000027,0.00000013,-0.00000030,-0.00001957,0.0000
 1007,0.00002040,-0.00000181,-0.00000166,0.00000009,0.00000094,0.000001
 50,0.00000013,0.00000032,0.00000003,0.00000024,-0.00000187,-0.00000035
 ,0.00000008,0.00132681,-0.00051922,0.00062078,-0.00529635,0.00134691,-
 0.00223247,0.00009873,0.00006368,0.00001455,-0.00013458,-0.00003659,0.
 00014210,-0.00061095,-0.00378249,-0.00052802,0.00040508,0.00072872,0.0
 0026614,-0.00213722,-0.00704672,0.01512301,0.05727034,-0.00018297,-0.0
 0013520,0.00080666,-0.00000113,-0.00000104,-0.00000131,0.00004812,-0.0
 0003126,-0.00002455,0.00000513,0.00001006,0.00000691,0.00000003,0.0000
 0072,-0.00000079,-0.00044915,-0.00169173,0.00250206,0.00009249,-0.0001
 8243,0.00000293,-0.00512390,-0.01346974,0.02920222,0.00063960,0.003216
 63,-0.00049657,-0.00718072,-0.08191812,0.08535152,0.00006496,0.0000754
 7,-0.00016300,-0.00000469,-0.00000207,0.00000042,-0.00002300,-0.000008
 00,-0.00000178,0.00026589,-0.00011496,-0.00001778,-0.00000024,-0.00000
 028,0.00000033,-0.00000139,0.00000048,-0.00000056,0.00000350,-0.000004
 55,-0.00000163,-0.00000061,-0.00000084,0.00000015,0.00000012,0.0000000
 3,-0.00000177,-0.00000006,-0.00000019,0.00000018,-0.00000109,0.0000002
 4,-0.00000010,0.00023249,0.00034554,-0.00034495,0.00029996,0.00082006,
 0.00018651,0.00002034,-0.00000451,-0.00002168,-0.00009294,0.00010272,-
 0.00003401,-0.00272353,-0.00472733,-0.00040325,0.00052771,0.00125686,-
 0.00058581,0.00144463,0.00859594,-0.01975252,0.01214240,0.08786662,0.0
 0091825,-0.00051518,-0.00010298,0.00000026,-0.00000153,-0.00000149,0.0
 0013427,0.00009456,-0.00015892,0.00002057,0.00001855,0.00001367,-0.000
 00512,0.00000865,-0.00001556,0.00020109,0.00438968,-0.01330659,0.00010
 257,-0.00003307,0.00014835,0.00049933,-0.00175297,0.00089287,-0.001221
 97,0.00076584,0.00129694,0.02510900,0.08718713,-0.27384119,-0.00036906
 ,-0.00007135,0.00043439,-0.00002322,-0.00000738,0.00002793,-0.00005988
 ,-0.00006632,0.00003226,-0.00025195,0.00044054,0.00045728,-0.00000266,
 -0.00000131,0.00000151,-0.00000279,0.00000047,-0.00000159,-0.00001702,
 0.00000770,0.00001679,-0.00000452,-0.00000560,0.00000080,0.00000166,0.
 00000220,-0.00000145,0.00000054,0.00000016,0.00000189,-0.00000907,-0.0
 0000118,0.00000257,-0.00000522,-0.00031637,0.00045751,-0.00278157,0.00
 033012,0.00020577,0.00000793,0.00008788,-0.00000233,0.00005088,-0.0000
 8586,-0.00016160,0.00007472,-0.00063029,0.00119009,0.00039774,0.000439
 01,0.00068031,0.00159375,0.00592200,-0.01514571,-0.02435576,-0.0962084
 2,0.29687882,0.00007044,0.00000251,-0.00020941,0.00146198,0.00117861,-
 0.00032894,-0.00304202,-0.01372285,-0.02350698,0.00044969,-0.00054766,
 -0.00032757,-0.00220670,0.01343234,0.02947700,0.00004709,-0.00000513,0
 .00015042,0.00004637,-0.00009467,-0.00001977,-0.00001388,-0.00000684,-
 0.00000814,0.00002263,0.00005509,0.00004589,0.00002433,-0.00003041,-0.
 00002360,0.00173674,-0.00068388,-0.00031808,-0.04600233,0.00479327,0.0
 0971433,0.00024406,0.00131401,0.00044242,0.00001233,-0.00003358,0.0001
 8020,0.00009058,0.00020242,-0.00026740,-0.00001700,-0.00015207,-0.0003
 5480,-0.00325082,0.00232503,-0.00197773,0.00000310,0.00005363,-0.00001
 761,0.00033202,-0.00004176,0.00030138,-0.00537815,-0.00157907,0.002693
 33,0.00117433,0.00040057,-0.00089478,0.00000067,0.00000397,-0.00000134
 ,-0.00002558,0.00003061,0.00001338,0.00004801,0.00007320,0.00001082,-0
 .00001982,0.00000104,0.00001663,-0.00000116,0.00000048,-0.00000038,-0.
 00000158,0.00000416,0.00000273,0.00001360,-0.00000154,0.00000336,0.000
 00086,-0.00000143,-0.00000011,0.05455083,0.00004274,0.00009590,0.00031
 001,0.00051086,0.00059651,0.00079548,-0.00047325,0.00550335,0.01136283
 ,0.00001784,-0.00071662,0.00071537,-0.00016944,0.00239137,0.00613757,-
 0.00006951,0.00000285,-0.00011115,0.00003922,0.00001989,0.00002310,0.0
 0001251,0.00000546,-0.00000455,-0.00002365,-0.00001906,-0.00002072,-0.
 00001508,0.00002578,0.00003026,-0.00117208,0.00044245,0.00018036,0.004
 23311,-0.10043750,-0.10428701,0.00030267,-0.00062609,-0.00055098,0.000
 03672,-0.00000753,-0.00003729,0.00006008,0.00008727,-0.00015885,0.0000
 4782,0.00022835,-0.00047548,0.00124489,0.00019406,0.00063662,-0.000050
 92,0.00013870,0.00006900,-0.00005711,-0.00107262,0.00066885,-0.0011749
 3,0.00066677,0.00110179,0.00037379,0.00001813,-0.00030711,-0.00000192,
 -0.00000333,0.00000022,0.00000771,-0.00001423,-0.00000206,0.00000176,-
 0.00002569,-0.00000348,-0.00000016,0.00000219,-0.00000169,0.00000004,-
 0.00000069,0.00000229,-0.00000120,-0.00000271,-0.00000171,-0.00001519,
 0.00000264,-0.00000471,-0.00000016,0.00000024,-0.00000110,-0.00505870,
 0.10555614,0.00005996,0.00025003,0.00037496,0.00020699,-0.00034410,0.0
 0060337,-0.00030489,-0.01155851,-0.01956831,-0.00017382,-0.00096744,-0
 .00092661,0.00204196,-0.00493601,-0.01217563,-0.00004002,0.00000017,0.
 00002478,0.00010061,-0.00017203,0.00005789,-0.00001838,0.00000483,0.00
 000534,0.00007565,0.00007523,0.00002197,-0.00000335,-0.00000540,-0.000
 01480,0.00276050,-0.00015366,0.00167727,0.00606174,-0.10184582,-0.2589
 4797,-0.00041007,0.00199578,0.00020897,0.00022161,-0.00009576,0.000096
 23,-0.00010340,0.00002611,0.00017711,0.00025246,0.00046052,-0.00031098
 ,-0.00210330,0.00181891,-0.00101181,-0.00003269,0.00013701,0.00040862,
 -0.00032306,0.00054250,0.00047910,0.00241560,0.00045011,0.00019617,0.0
 0013641,0.00012572,0.00055700,-0.00000039,-0.00000232,-0.00000810,-0.0
 0001003,0.00000362,-0.00000657,0.00002862,0.00006032,0.00001708,-0.000
 01586,0.00001183,0.00000488,0.00000139,-0.00000116,-0.00000243,0.00000
 157,0.00000174,0.00000002,0.00000685,0.00000017,-0.00000101,-0.0000018
 9,0.00000062,-0.00000027,-0.01027927,0.11251390,0.28331336,-0.00017124
 ,-0.00060230,0.00021102,-0.00520097,0.00017909,0.00395805,0.00488694,0
 .02403102,-0.00078859,-0.00169396,-0.00010571,-0.00038460,-0.00356171,
 -0.03074209,0.00154979,0.00002646,-0.00001300,-0.00001285,-0.00004392,
 0.00017806,-0.00002643,0.00002434,-0.00001226,-0.00001389,-0.00010966,
 -0.00006005,-0.00003077,0.00000794,0.00000935,0.00000400,-0.00072612,-
 0.00053315,-0.00029104,-0.05355782,-0.04102811,0.00503102,-0.00154392,
 0.00374702,-0.00387875,0.00004937,0.00001400,-0.00002959,-0.00039123,-
 0.00190226,0.00017216,-0.00005225,-0.00019189,-0.00016596,0.00098773,-
 0.00018537,0.00018005,0.00018539,0.00000698,0.00003886,0.00017738,0.00
 012632,-0.00011403,0.00125503,0.00065988,-0.00008733,0.00117627,0.0003
 9418,-0.00093004,0.00000163,0.00000663,0.00000648,-0.00000024,0.000001
 55,0.00000102,0.00002252,-0.00002827,-0.00001790,-0.00000126,-0.000003
 90,0.00001397,-0.00000089,0.00000097,0.00000412,-0.00000425,-0.0000002
 2,-0.00000007,-0.00000632,0.00000360,-0.00000006,-0.00000209,-0.000000
 48,-0.00000262,-0.00037062,0.00135156,-0.00055150,0.05863749,0.0000322
 3,0.00024325,-0.00015402,-0.00040245,0.00118406,0.00074936,-0.00493305
 ,-0.01095833,-0.00081048,0.00024435,0.00087579,0.00002589,-0.00018110,
 -0.00224703,-0.00010320,0.00005602,0.00001810,0.00005483,0.00003972,-0
 .00010953,0.00005744,-0.00002504,0.00001184,0.00002746,0.00010502,0.00
 003773,0.00000526,-0.00000121,-0.00002627,-0.00003458,0.00133057,0.000
 29882,0.00027761,-0.03973541,-0.31086046,0.03278918,0.00139396,-0.0006
 8958,0.00147500,-0.00000385,-0.00000529,-0.00000703,-0.00001612,-0.000
 38358,-0.00004921,-0.00004504,0.00005974,-0.00007126,0.00005675,0.0012
 3736,-0.00002468,-0.00002249,-0.00005087,0.00012912,-0.00012096,0.0001
 3388,0.00007642,-0.00021544,0.00023394,0.00030583,-0.00040603,0.000347
 44,-0.00004481,-0.00000497,-0.00000436,-0.00000320,0.00000112,-0.00000
 081,-0.00000783,0.00002387,-0.00002019,0.00000241,0.00001218,0.0000048
 5,-0.00001218,0.00000154,-0.00000037,-0.00000651,0.00000803,-0.0000004
 5,-0.00000150,0.00001989,-0.00000580,0.00000437,0.00000041,0.00000066,
 0.00000347,-0.00191134,-0.01305197,0.00160310,0.04469886,0.33372744,-0
 .00006854,0.00000665,0.00005949,0.00225682,-0.00019202,-0.00035688,0.0
 0424412,0.01918559,-0.00378609,-0.00051674,-0.00145501,-0.00082113,0.0
 0145105,0.01351541,-0.00200999,-0.00001688,0.00000587,-0.00000594,-0.0
 0001234,-0.00000508,0.00004041,0.00000111,0.00000365,0.00000364,0.0000
 2078,-0.00000372,-0.00000718,0.00000141,0.00000547,-0.00000139,-0.0000
 3298,-0.00036058,-0.00002299,0.00425573,0.02937701,-0.05096171,-0.0030
 1082,0.00402311,-0.00319583,0.00003395,0.00001590,0.00000931,0.0001241
 5,0.00061445,0.00012849,0.00020941,0.00030036,-0.00007970,0.00069402,0
 .00002674,0.00040517,0.00001216,0.00011108,0.00023708,-0.00014814,0.00
 013836,0.00036948,-0.00072966,0.00001816,0.00030145,-0.00039847,-0.000
 47815,0.00045350,0.00000004,-0.00000107,-0.00000136,0.00000190,-0.0000
 0235,-0.00000080,-0.00001177,-0.00001069,0.00000033,-0.00000078,-0.000
 00148,-0.00000556,0.00000079,-0.00000064,-0.00000049,0.00000092,-0.000
 00071,-0.00000079,-0.00000053,-0.00000028,0.00000036,-0.00000023,-0.00
 000003,-0.00000005,-0.00451598,-0.02857977,0.00475039,-0.00384450,-0.0
 3625627,0.05449879\\0.00006802,0.00007046,-0.00010887,-0.00000163,0.00
 000060,-0.00000219,-0.00002766,-0.00015557,0.00001342,0.00000256,-0.00
 000339,-0.00000286,0.00000232,-0.00000223,0.00000427,-0.00006121,-0.00
 009233,0.00007503,-0.00000134,0.00000152,0.00000700,-0.00000391,0.0000
 0262,0.00000620,0.00000409,-0.00000453,0.00000128,0.00000313,-0.000002
 65,-0.00000062,0.00001912,0.00016816,0.00002131,-0.00000496,0.00000056
 ,-0.00000346,0.00000422,0.00001547,-0.00000414,0.00000058,-0.00000074,
 0.00000314,0.00000065,-0.00000038,-0.00000082,-0.00000239,0.00000225,-
 0.00000111,0.00000340,-0.00000050,0.00000504,-0.00000102,-0.00000123,-
 0.00000396,-0.00000202,0.00000222,-0.00000428,-0.00000002,-0.00000012,
 -0.00000009,0.00000049,0.00000239,-0.00000136,-0.00000016,-0.00000034,
 -0.00000161,-0.00000132,0.00000250,-0.00000109,-0.00000115,-0.00000049
 ,0.00000235,-0.00000187,-0.00000088,0.00000095,0.00000156,-0.00000222,
 -0.00000151,0.00000140,-0.00000375,-0.00000019,-0.00000027,-0.00000143
 ,-0.00000494,0.00000116,-0.00000163,-0.00000318,0.00000020,0.00000333,
 0.00000001,-0.00000196,0.00000232,0.00000628\\\@


 SIGN SEEN IN A RESTAURANT-
 WE RESERVE THE RIGHT TO SERVE REFUSE TO ANYONE.
 Job cpu time:       0 days 13 hours 54 minutes 22.1 seconds.
 Elapsed time:       0 days  0 hours 52 minutes 10.7 seconds.
 File lengths (MBytes):  RWF=    690 Int=      0 D2E=      0 Chk=     33 Scr=      1
 Normal termination of Gaussian 16 at Mon Nov  5 02:21:33 2018.
