 Entering Gaussian System, Link 0=g16
 Initial command:
 /apps/gaussian/g16a03/g16/l1.exe "/jobfs/local/2012074.r-man2/Gau-2289.inp" -scrdir="/jobfs/local/2012074.r-man2/"
 Entering Link 1 = /apps/gaussian/g16a03/g16/l1.exe PID=      2290.
  
 Copyright (c) 1988,1990,1992,1993,1995,1998,2003,2009,2016,
            Gaussian, Inc.  All Rights Reserved.
  
 This is part of the Gaussian(R) 16 program.  It is based on
 the Gaussian(R) 09 system (copyright 2009, Gaussian, Inc.),
 the Gaussian(R) 03 system (copyright 2003, Gaussian, Inc.),
 the Gaussian(R) 98 system (copyright 1998, Gaussian, Inc.),
 the Gaussian(R) 94 system (copyright 1995, Gaussian, Inc.),
 the Gaussian 92(TM) system (copyright 1992, Gaussian, Inc.),
 the Gaussian 90(TM) system (copyright 1990, Gaussian, Inc.),
 the Gaussian 88(TM) system (copyright 1988, Gaussian, Inc.),
 the Gaussian 86(TM) system (copyright 1986, Carnegie Mellon
 University), and the Gaussian 82(TM) system (copyright 1983,
 Carnegie Mellon University). Gaussian is a federally registered
 trademark of Gaussian, Inc.
  
 This software contains proprietary and confidential information,
 including trade secrets, belonging to Gaussian, Inc.
  
 This software is provided under written license and may be
 used, copied, transmitted, or stored only in accord with that
 written license.
  
 The following legend is applicable only to US Government
 contracts under FAR:
  
                    RESTRICTED RIGHTS LEGEND
  
 Use, reproduction and disclosure by the US Government is
 subject to restrictions as set forth in subparagraphs (a)
 and (c) of the Commercial Computer Software - Restricted
 Rights clause in FAR 52.227-19.
  
 Gaussian, Inc.
 340 Quinnipiac St., Bldg. 40, Wallingford CT 06492
  
  
 ---------------------------------------------------------------
 Warning -- This program may not be used in any manner that
 competes with the business of Gaussian, Inc. or will provide
 assistance to any competitor of Gaussian, Inc.  The licensee
 of this program is prohibited from giving any competitor of
 Gaussian, Inc. access to this program.  By using this program,
 the user acknowledges that Gaussian, Inc. is engaged in the
 business of creating and licensing software in the field of
 computational chemistry and represents and warrants to the
 licensee that it is not a competitor of Gaussian, Inc. and that
 it will not use this program in any manner prohibited above.
 ---------------------------------------------------------------
  

 Cite this work as:
 Gaussian 16, Revision A.03,
 M. J. Frisch, G. W. Trucks, H. B. Schlegel, G. E. Scuseria, 
 M. A. Robb, J. R. Cheeseman, G. Scalmani, V. Barone, 
 G. A. Petersson, H. Nakatsuji, X. Li, M. Caricato, A. V. Marenich, 
 J. Bloino, B. G. Janesko, R. Gomperts, B. Mennucci, H. P. Hratchian, 
 J. V. Ortiz, A. F. Izmaylov, J. L. Sonnenberg, D. Williams-Young, 
 F. Ding, F. Lipparini, F. Egidi, J. Goings, B. Peng, A. Petrone, 
 T. Henderson, D. Ranasinghe, V. G. Zakrzewski, J. Gao, N. Rega, 
 G. Zheng, W. Liang, M. Hada, M. Ehara, K. Toyota, R. Fukuda, 
 J. Hasegawa, M. Ishida, T. Nakajima, Y. Honda, O. Kitao, H. Nakai, 
 T. Vreven, K. Throssell, J. A. Montgomery, Jr., J. E. Peralta, 
 F. Ogliaro, M. J. Bearpark, J. J. Heyd, E. N. Brothers, K. N. Kudin, 
 V. N. Staroverov, T. A. Keith, R. Kobayashi, J. Normand, 
 K. Raghavachari, A. P. Rendell, J. C. Burant, S. S. Iyengar, 
 J. Tomasi, M. Cossi, J. M. Millam, M. Klene, C. Adamo, R. Cammi, 
 J. W. Ochterski, R. L. Martin, K. Morokuma, O. Farkas, 
 J. B. Foresman, and D. J. Fox, Gaussian, Inc., Wallingford CT, 2016.
 
 ******************************************
 Gaussian 16:  ES64L-G16RevA.03 25-Dec-2016
                 4-Nov-2018 
 ******************************************
 %mem=6000mb
 %nproc=24
 Will use up to   24 processors via shared memory.
 %chk=L_a1-e4_D_PSI.inp_extract_1.chk
 ----------------------------------------------------------------------
 #M062X/6-311++G(2d,2p) opt=ModRedundant freq=noraman SCRF=(Solvent=Wat
 er)
 ----------------------------------------------------------------------
 1/18=120,19=15,26=3,38=1/1,3;
 2/9=110,12=2,17=6,18=5,40=1/2;
 3/5=4,6=6,7=1212,11=2,25=1,30=1,70=2201,71=1,72=1,74=-55/1,2,3;
 4//1;
 5/5=2,38=5,53=1/2;
 6/7=2,8=2,9=2,10=2,28=1/1;
 7//1,2,3,16;
 1/18=20,19=15,26=3/3(2);
 2/9=110/2;
 99//99;
 2/9=110/2;
 3/5=4,6=6,7=1212,11=2,25=1,30=1,70=2205,71=1,72=1,74=-55/1,2,3;
 4/5=5,16=3,69=1/1;
 5/5=2,38=5,53=1/2;
 7//1,2,3,16;
 1/18=20,19=15,26=3/3(-5);
 2/9=110/2;
 6/7=2,8=2,9=2,10=2,19=2,28=1/1;
 99/9=1/99;
 ---------------------------
 L_a1-e4_D_PSI.inp_extract_1
 ---------------------------
 Symbolic Z-matrix:
 Charge =  0 Multiplicity = 1
 C                    -2.42183   1.16648  -0.87052 
 O                    -1.69013   0.03281  -1.31915 
 C                    -3.17583  -0.13834   1.12482 
 O                     3.1426   -0.90988  -0.67154 
 C                    -1.21737  -0.82848  -0.316 
 C                    -2.34585  -1.30442   0.58551 
 C                     3.1454    1.32339   0.25411 
 O                    -0.25223  -0.19612   0.47623 
 C                     1.71292   1.11052   0.7478 
 C                     3.87062  -0.00738   0.14143 
 C                     1.00817   0.07051  -0.11189 
 C                     1.8547   -1.20071  -0.17269 
 C                    -3.62104   0.75575  -0.03259 
 H                    -1.7643    1.8188   -0.30598 
 H                    -2.72512   1.6887   -1.76736 
 H                    -2.58951   0.44279   1.83142 
 H                    -4.03657  -0.51968   1.66552 
 H                    -0.77821  -1.65744  -0.84935 
 H                    -2.98042  -1.95678  -0.00798 
 H                    -1.92664  -1.90054   1.38887 
 H                     3.6877    1.97361   0.93393 
 H                     3.13494   1.80649  -0.71963 
 H                     1.72688   0.75682   1.77616 
 H                     1.15644   2.04226   0.73008 
 H                     4.83978   0.1076   -0.32431 
 H                     4.01201  -0.45171   1.12407 
 H                     0.86818   0.45518  -1.11588 
 H                     1.42999  -1.93818  -0.83781 
 H                     1.933    -1.63446   0.82182 
 H                    -4.12059   1.64846   0.33291 
 H                    -4.32878   0.21965  -0.66072 
 
 The following ModRedundant input section has been read:
 D       5       8      11       9 F                                           
 

 GradGradGradGradGradGradGradGradGradGradGradGradGradGradGradGradGradGrad
 Berny optimization.
 Initialization pass.
                           ----------------------------
                           !    Initial Parameters    !
                           ! (Angstroms and Degrees)  !
 --------------------------                            --------------------------
 ! Name  Definition              Value          Derivative Info.                !
 --------------------------------------------------------------------------------
 ! R1    R(1,2)                  1.4219         estimate D2E/DX2                !
 ! R2    R(1,13)                 1.5195         estimate D2E/DX2                !
 ! R3    R(1,14)                 1.0847         estimate D2E/DX2                !
 ! R4    R(1,15)                 1.0812         estimate D2E/DX2                !
 ! R5    R(2,5)                  1.4041         estimate D2E/DX2                !
 ! R6    R(3,6)                  1.5295         estimate D2E/DX2                !
 ! R7    R(3,13)                 1.5288         estimate D2E/DX2                !
 ! R8    R(3,16)                 1.0866         estimate D2E/DX2                !
 ! R9    R(3,17)                 1.0857         estimate D2E/DX2                !
 ! R10   R(4,10)                 1.4161         estimate D2E/DX2                !
 ! R11   R(4,12)                 1.4114         estimate D2E/DX2                !
 ! R12   R(5,6)                  1.5208         estimate D2E/DX2                !
 ! R13   R(5,8)                  1.3996         estimate D2E/DX2                !
 ! R14   R(5,18)                 1.0791         estimate D2E/DX2                !
 ! R15   R(6,19)                 1.0865         estimate D2E/DX2                !
 ! R16   R(6,20)                 1.0847         estimate D2E/DX2                !
 ! R17   R(7,9)                  1.53           estimate D2E/DX2                !
 ! R18   R(7,10)                 1.5197         estimate D2E/DX2                !
 ! R19   R(7,21)                 1.0858         estimate D2E/DX2                !
 ! R20   R(7,22)                 1.087          estimate D2E/DX2                !
 ! R21   R(8,11)                 1.4162         estimate D2E/DX2                !
 ! R22   R(9,11)                 1.5223         estimate D2E/DX2                !
 ! R23   R(9,23)                 1.0876         estimate D2E/DX2                !
 ! R24   R(9,24)                 1.0854         estimate D2E/DX2                !
 ! R25   R(10,25)                1.0814         estimate D2E/DX2                !
 ! R26   R(10,26)                1.0877         estimate D2E/DX2                !
 ! R27   R(11,12)                1.5285         estimate D2E/DX2                !
 ! R28   R(11,27)                1.0842         estimate D2E/DX2                !
 ! R29   R(12,28)                1.0801         estimate D2E/DX2                !
 ! R30   R(12,29)                1.0878         estimate D2E/DX2                !
 ! R31   R(13,30)                1.0863         estimate D2E/DX2                !
 ! R32   R(13,31)                1.0876         estimate D2E/DX2                !
 ! A1    A(2,1,13)             111.3826         estimate D2E/DX2                !
 ! A2    A(2,1,14)             109.3746         estimate D2E/DX2                !
 ! A3    A(2,1,15)             105.5289         estimate D2E/DX2                !
 ! A4    A(13,1,14)            110.7293         estimate D2E/DX2                !
 ! A5    A(13,1,15)            111.5057         estimate D2E/DX2                !
 ! A6    A(14,1,15)            108.1363         estimate D2E/DX2                !
 ! A7    A(1,2,5)              115.9059         estimate D2E/DX2                !
 ! A8    A(6,3,13)             109.691          estimate D2E/DX2                !
 ! A9    A(6,3,16)             110.1331         estimate D2E/DX2                !
 ! A10   A(6,3,17)             109.7579         estimate D2E/DX2                !
 ! A11   A(13,3,16)            109.6737         estimate D2E/DX2                !
 ! A12   A(13,3,17)            110.5847         estimate D2E/DX2                !
 ! A13   A(16,3,17)            106.9648         estimate D2E/DX2                !
 ! A14   A(10,4,12)            113.4231         estimate D2E/DX2                !
 ! A15   A(2,5,6)              111.4469         estimate D2E/DX2                !
 ! A16   A(2,5,8)              111.0643         estimate D2E/DX2                !
 ! A17   A(2,5,18)             104.7806         estimate D2E/DX2                !
 ! A18   A(6,5,8)              108.5146         estimate D2E/DX2                !
 ! A19   A(6,5,18)             110.7665         estimate D2E/DX2                !
 ! A20   A(8,5,18)             110.2547         estimate D2E/DX2                !
 ! A21   A(3,6,5)              111.9064         estimate D2E/DX2                !
 ! A22   A(3,6,19)             109.477          estimate D2E/DX2                !
 ! A23   A(3,6,20)             111.5657         estimate D2E/DX2                !
 ! A24   A(5,6,19)             107.3067         estimate D2E/DX2                !
 ! A25   A(5,6,20)             108.9212         estimate D2E/DX2                !
 ! A26   A(19,6,20)            107.4768         estimate D2E/DX2                !
 ! A27   A(9,7,10)             110.4184         estimate D2E/DX2                !
 ! A28   A(9,7,21)             110.4193         estimate D2E/DX2                !
 ! A29   A(9,7,22)             109.9899         estimate D2E/DX2                !
 ! A30   A(10,7,21)            109.4176         estimate D2E/DX2                !
 ! A31   A(10,7,22)            109.1068         estimate D2E/DX2                !
 ! A32   A(21,7,22)            107.4276         estimate D2E/DX2                !
 ! A33   A(5,8,11)             117.6267         estimate D2E/DX2                !
 ! A34   A(7,9,11)             110.259          estimate D2E/DX2                !
 ! A35   A(7,9,23)             109.7751         estimate D2E/DX2                !
 ! A36   A(7,9,24)             110.812          estimate D2E/DX2                !
 ! A37   A(11,9,23)            108.5265         estimate D2E/DX2                !
 ! A38   A(11,9,24)            109.8698         estimate D2E/DX2                !
 ! A39   A(23,9,24)            107.5292         estimate D2E/DX2                !
 ! A40   A(4,10,7)             110.8114         estimate D2E/DX2                !
 ! A41   A(4,10,25)            106.335          estimate D2E/DX2                !
 ! A42   A(4,10,26)            108.9732         estimate D2E/DX2                !
 ! A43   A(7,10,25)            111.5004         estimate D2E/DX2                !
 ! A44   A(7,10,26)            110.6567         estimate D2E/DX2                !
 ! A45   A(25,10,26)           108.4234         estimate D2E/DX2                !
 ! A46   A(8,11,9)             107.8261         estimate D2E/DX2                !
 ! A47   A(8,11,12)            110.6613         estimate D2E/DX2                !
 ! A48   A(8,11,27)            109.6595         estimate D2E/DX2                !
 ! A49   A(9,11,12)            109.5272         estimate D2E/DX2                !
 ! A50   A(9,11,27)            109.897          estimate D2E/DX2                !
 ! A51   A(12,11,27)           109.2534         estimate D2E/DX2                !
 ! A52   A(4,12,11)            110.368          estimate D2E/DX2                !
 ! A53   A(4,12,28)            106.3702         estimate D2E/DX2                !
 ! A54   A(4,12,29)            109.853          estimate D2E/DX2                !
 ! A55   A(11,12,28)           111.998          estimate D2E/DX2                !
 ! A56   A(11,12,29)           109.5798         estimate D2E/DX2                !
 ! A57   A(28,12,29)           108.6044         estimate D2E/DX2                !
 ! A58   A(1,13,3)             110.2274         estimate D2E/DX2                !
 ! A59   A(1,13,30)            109.0465         estimate D2E/DX2                !
 ! A60   A(1,13,31)            109.1666         estimate D2E/DX2                !
 ! A61   A(3,13,30)            111.0881         estimate D2E/DX2                !
 ! A62   A(3,13,31)            109.7837         estimate D2E/DX2                !
 ! A63   A(30,13,31)           107.466          estimate D2E/DX2                !
 ! D1    D(13,1,2,5)           -57.2317         estimate D2E/DX2                !
 ! D2    D(14,1,2,5)            65.4945         estimate D2E/DX2                !
 ! D3    D(15,1,2,5)          -178.3901         estimate D2E/DX2                !
 ! D4    D(2,1,13,3)            54.8259         estimate D2E/DX2                !
 ! D5    D(2,1,13,30)          177.0254         estimate D2E/DX2                !
 ! D6    D(2,1,13,31)          -65.8354         estimate D2E/DX2                !
 ! D7    D(14,1,13,3)          -67.1192         estimate D2E/DX2                !
 ! D8    D(14,1,13,30)          55.0803         estimate D2E/DX2                !
 ! D9    D(14,1,13,31)         172.2195         estimate D2E/DX2                !
 ! D10   D(15,1,13,3)          172.4266         estimate D2E/DX2                !
 ! D11   D(15,1,13,30)         -65.3739         estimate D2E/DX2                !
 ! D12   D(15,1,13,31)          51.7654         estimate D2E/DX2                !
 ! D13   D(1,2,5,6)             55.0921         estimate D2E/DX2                !
 ! D14   D(1,2,5,8)            -66.0327         estimate D2E/DX2                !
 ! D15   D(1,2,5,18)           174.9351         estimate D2E/DX2                !
 ! D16   D(13,3,6,5)            51.6964         estimate D2E/DX2                !
 ! D17   D(13,3,6,19)          -67.1407         estimate D2E/DX2                !
 ! D18   D(13,3,6,20)          174.0231         estimate D2E/DX2                !
 ! D19   D(16,3,6,5)           -69.1035         estimate D2E/DX2                !
 ! D20   D(16,3,6,19)          172.0594         estimate D2E/DX2                !
 ! D21   D(16,3,6,20)           53.2232         estimate D2E/DX2                !
 ! D22   D(17,3,6,5)           173.387          estimate D2E/DX2                !
 ! D23   D(17,3,6,19)           54.55           estimate D2E/DX2                !
 ! D24   D(17,3,6,20)          -64.2862         estimate D2E/DX2                !
 ! D25   D(6,3,13,1)           -52.883          estimate D2E/DX2                !
 ! D26   D(6,3,13,30)         -173.8698         estimate D2E/DX2                !
 ! D27   D(6,3,13,31)           67.4074         estimate D2E/DX2                !
 ! D28   D(16,3,13,1)           68.1944         estimate D2E/DX2                !
 ! D29   D(16,3,13,30)         -52.7923         estimate D2E/DX2                !
 ! D30   D(16,3,13,31)        -171.5152         estimate D2E/DX2                !
 ! D31   D(17,3,13,1)         -174.0769         estimate D2E/DX2                !
 ! D32   D(17,3,13,30)          64.9363         estimate D2E/DX2                !
 ! D33   D(17,3,13,31)         -53.7865         estimate D2E/DX2                !
 ! D34   D(12,4,10,7)          -60.4933         estimate D2E/DX2                !
 ! D35   D(12,4,10,25)         178.1756         estimate D2E/DX2                !
 ! D36   D(12,4,10,26)          61.4952         estimate D2E/DX2                !
 ! D37   D(10,4,12,11)          61.8002         estimate D2E/DX2                !
 ! D38   D(10,4,12,28)        -176.4981         estimate D2E/DX2                !
 ! D39   D(10,4,12,29)         -59.1377         estimate D2E/DX2                !
 ! D40   D(2,5,6,3)            -51.7307         estimate D2E/DX2                !
 ! D41   D(2,5,6,19)            68.3832         estimate D2E/DX2                !
 ! D42   D(2,5,6,20)          -175.555          estimate D2E/DX2                !
 ! D43   D(8,5,6,3)             70.8702         estimate D2E/DX2                !
 ! D44   D(8,5,6,19)          -169.0159         estimate D2E/DX2                !
 ! D45   D(8,5,6,20)           -52.9541         estimate D2E/DX2                !
 ! D46   D(18,5,6,3)          -167.969          estimate D2E/DX2                !
 ! D47   D(18,5,6,19)          -47.8552         estimate D2E/DX2                !
 ! D48   D(18,5,6,20)           68.2067         estimate D2E/DX2                !
 ! D49   D(2,5,8,11)           -70.2647         estimate D2E/DX2                !
 ! D50   D(6,5,8,11)           166.9026         estimate D2E/DX2                !
 ! D51   D(18,5,8,11)           45.4272         estimate D2E/DX2                !
 ! D52   D(10,7,9,11)          -52.1072         estimate D2E/DX2                !
 ! D53   D(10,7,9,23)           67.4059         estimate D2E/DX2                !
 ! D54   D(10,7,9,24)         -173.9696         estimate D2E/DX2                !
 ! D55   D(21,7,9,11)         -173.2458         estimate D2E/DX2                !
 ! D56   D(21,7,9,23)          -53.7327         estimate D2E/DX2                !
 ! D57   D(21,7,9,24)           64.8918         estimate D2E/DX2                !
 ! D58   D(22,7,9,11)           68.3626         estimate D2E/DX2                !
 ! D59   D(22,7,9,23)         -172.1243         estimate D2E/DX2                !
 ! D60   D(22,7,9,24)          -53.4998         estimate D2E/DX2                !
 ! D61   D(9,7,10,4)            54.5013         estimate D2E/DX2                !
 ! D62   D(9,7,10,25)          172.7379         estimate D2E/DX2                !
 ! D63   D(9,7,10,26)          -66.497          estimate D2E/DX2                !
 ! D64   D(21,7,10,4)          176.2338         estimate D2E/DX2                !
 ! D65   D(21,7,10,25)         -65.5297         estimate D2E/DX2                !
 ! D66   D(21,7,10,26)          55.2354         estimate D2E/DX2                !
 ! D67   D(22,7,10,4)          -66.4959         estimate D2E/DX2                !
 ! D68   D(22,7,10,25)          51.7407         estimate D2E/DX2                !
 ! D69   D(22,7,10,26)         172.5058         estimate D2E/DX2                !
 ! D70   D(5,8,11,9)           162.7699         Frozen                          !
 ! D71   D(5,8,11,12)          -77.4608         estimate D2E/DX2                !
 ! D72   D(5,8,11,27)           43.1328         estimate D2E/DX2                !
 ! D73   D(7,9,11,8)           173.5436         estimate D2E/DX2                !
 ! D74   D(7,9,11,12)           53.0593         estimate D2E/DX2                !
 ! D75   D(7,9,11,27)          -66.97           estimate D2E/DX2                !
 ! D76   D(23,9,11,8)           53.2761         estimate D2E/DX2                !
 ! D77   D(23,9,11,12)         -67.2082         estimate D2E/DX2                !
 ! D78   D(23,9,11,27)         172.7625         estimate D2E/DX2                !
 ! D79   D(24,9,11,8)          -64.0381         estimate D2E/DX2                !
 ! D80   D(24,9,11,12)         175.4777         estimate D2E/DX2                !
 ! D81   D(24,9,11,27)          55.4484         estimate D2E/DX2                !
 ! D82   D(8,11,12,4)         -175.8407         estimate D2E/DX2                !
 ! D83   D(8,11,12,28)          65.8501         estimate D2E/DX2                !
 ! D84   D(8,11,12,29)         -54.74           estimate D2E/DX2                !
 ! D85   D(9,11,12,4)          -57.0979         estimate D2E/DX2                !
 ! D86   D(9,11,12,28)        -175.4072         estimate D2E/DX2                !
 ! D87   D(9,11,12,29)          64.0028         estimate D2E/DX2                !
 ! D88   D(27,11,12,4)          63.3242         estimate D2E/DX2                !
 ! D89   D(27,11,12,28)        -54.985          estimate D2E/DX2                !
 ! D90   D(27,11,12,29)       -175.5751         estimate D2E/DX2                !
 --------------------------------------------------------------------------------
 Trust Radius=3.00D-01 FncErr=1.00D-07 GrdErr=1.00D-06 EigMax=2.50D+02 EigMin=1.00D-04
 Number of steps in this run=    186 maximum allowed number of steps=    186.
 GradGradGradGradGradGradGradGradGradGradGradGradGradGradGradGradGradGrad

                          Input orientation:                          
 ---------------------------------------------------------------------
 Center     Atomic      Atomic             Coordinates (Angstroms)
 Number     Number       Type             X           Y           Z
 ---------------------------------------------------------------------
      1          6           0       -2.421834    1.166478   -0.870524
      2          8           0       -1.690130    0.032812   -1.319149
      3          6           0       -3.175834   -0.138344    1.124819
      4          8           0        3.142602   -0.909876   -0.671537
      5          6           0       -1.217372   -0.828476   -0.316001
      6          6           0       -2.345853   -1.304418    0.585511
      7          6           0        3.145395    1.323386    0.254113
      8          8           0       -0.252231   -0.196118    0.476229
      9          6           0        1.712924    1.110516    0.747801
     10          6           0        3.870622   -0.007382    0.141427
     11          6           0        1.008172    0.070512   -0.111890
     12          6           0        1.854700   -1.200706   -0.172688
     13          6           0       -3.621036    0.755748   -0.032585
     14          1           0       -1.764301    1.818804   -0.305983
     15          1           0       -2.725123    1.688698   -1.767360
     16          1           0       -2.589507    0.442787    1.831424
     17          1           0       -4.036573   -0.519676    1.665515
     18          1           0       -0.778211   -1.657443   -0.849351
     19          1           0       -2.980415   -1.956778   -0.007980
     20          1           0       -1.926638   -1.900539    1.388874
     21          1           0        3.687702    1.973608    0.933933
     22          1           0        3.134935    1.806490   -0.719631
     23          1           0        1.726880    0.756816    1.776157
     24          1           0        1.156436    2.042261    0.730079
     25          1           0        4.839780    0.107599   -0.324312
     26          1           0        4.012010   -0.451711    1.124066
     27          1           0        0.868178    0.455184   -1.115876
     28          1           0        1.429990   -1.938183   -0.837813
     29          1           0        1.932996   -1.634455    0.821822
     30          1           0       -4.120590    1.648455    0.332912
     31          1           0       -4.328777    0.219652   -0.660718
 ---------------------------------------------------------------------
                    Distance matrix (angstroms):
                    1          2          3          4          5
     1  C    0.000000
     2  O    1.421919   0.000000
     3  C    2.500494   2.865238   0.000000
     4  O    5.942541   4.966222   6.613984   0.000000
     5  C    2.395426   1.404145   2.527413   4.375203   0.000000
     6  C    2.868996   2.417827   1.529526   5.644375   1.520761
     7  C    5.681854   5.246240   6.546199   2.417498   4.897885
     8  O    2.894406   2.311568   2.995240   3.653999   1.399644
     9  C    4.440533   4.124864   5.059817   2.853153   3.671239
    10  C    6.480509   5.749510   7.115951   1.416128   5.174081
    11  C    3.679892   2.956303   4.367949   2.414572   2.408918
    12  C    4.937538   3.924508   5.302679   1.411426   3.097857
    13  C    1.519515   2.430284   1.528787   6.994953   2.892696
    14  H    1.084705   2.054696   2.805361   5.626457   2.703206
    15  H    1.081209   2.003512   3.450496   6.510270   3.273518
    16  H    2.802207   3.301980   1.086638   6.399343   2.847859
    17  H    3.447026   3.836568   1.085651   7.560068   3.459719
    18  H    3.267488   1.977187   3.457399   3.995403   1.079125
    19  H    3.287966   2.709699   2.151308   6.247211   2.115718
    20  H    3.841444   3.335741   2.176131   5.560926   2.135176
    21  H    6.421367   6.145254   7.183655   3.345018   5.785651
    22  H    5.595540   5.175578   6.856397   2.716803   5.103777
    23  H    4.938074   4.667018   5.026147   3.282276   3.944477
    24  H    4.016583   4.042296   4.866151   3.824199   3.869157
    25  H    7.358710   6.605681   8.149266   2.009038   6.129062
    26  H    6.927573   6.222416   7.194672   2.046943   5.437111
    27  H    3.374954   2.600896   4.661225   2.689578   2.576257
    28  H    4.947377   3.721781   5.320241   2.004521   2.917578
    29  H    5.447367   4.526652   5.332007   2.053846   3.445150
    30  H    2.136898   3.353617   2.170790   7.765818   3.871040
    31  H    2.139376   2.725967   2.155361   7.556286   3.301249
                    6          7          8          9         10
     6  C    0.000000
     7  C    6.096637   0.000000
     8  O    2.371397   3.728551   0.000000
     9  C    4.725666   1.530037   2.375474   0.000000
    10  C    6.365852   1.519735   4.140728   2.504605   0.000000
    11  C    3.691380   2.504271   1.416189   1.522285   2.874693
    12  C    4.269692   2.866896   2.422694   2.491816   2.363606
    13  C    2.500484   6.796249   3.537483   5.402406   7.532436
    14  H    3.299618   4.966313   2.637825   3.701787   5.940327
    15  H    3.826041   6.219549   3.834243   5.133867   7.072765
    16  H    2.159720   6.012692   2.776259   4.486760   6.692683
    17  H    2.154243   7.547821   3.979992   6.046192   8.069016
    18  H    2.154288   5.049521   2.041883   4.051943   5.031500
    19  H    1.086496   6.953684   3.282890   5.657467   7.124547
    20  H    1.084663   6.116118   2.557657   4.766953   6.224821
    21  H    6.875365   1.085836   4.521092   2.163174   2.141459
    22  H    6.435851   1.087049   4.112592   2.158669   2.138408
    23  H    4.717359   2.156340   2.552406   1.087573   2.802137
    24  H    4.846358   2.167783   2.656901   1.085422   3.451717
    25  H    7.379356   2.164175   5.163496   3.454345   1.081388
    26  H    6.437358   2.158427   4.320737   2.804982   1.087657
    27  H    4.039915   2.795776   2.052878   2.148569   3.287773
    28  H    4.084666   3.843533   2.755243   3.448012   3.262451
    29  H    4.298060   3.246695   2.638838   2.754773   2.620057
    30  H    3.454411   7.273680   4.288029   5.872938   8.163206
    31  H    2.794255   7.610413   4.252498   6.267353   8.241670
                   11         12         13         14         15
    11  C    0.000000
    12  C    1.528496   0.000000
    13  C    4.680321   5.816444   0.000000
    14  H    3.283413   4.715122   2.156919   0.000000
    15  H    4.392789   5.645034   2.163909   1.753776   0.000000
    16  H    4.105892   5.144756   2.153259   2.672620   3.810765
    17  H    5.381166   6.208856   2.164006   3.810317   4.287359
    18  H    2.592459   2.756574   3.817362   3.654027   3.978676
    19  H    4.475436   4.896643   2.787256   3.977783   4.055871
    20  H    3.840631   4.150513   3.456500   4.090526   4.845824
    21  H    3.448971   3.828939   7.472282   5.593361   6.964372
    22  H    2.811777   3.313816   6.871625   4.916683   5.954149
    23  H    2.133606   2.765181   5.645507   4.201365   5.765869
    24  H    2.149113   3.437935   5.006097   3.107099   4.629115
    25  H    3.837671   3.262722   8.490619   6.822202   7.861935
    26  H    3.289886   2.626128   7.814038   6.369148   7.637451
    27  H    1.084232   2.145880   4.627840   3.073326   3.854582
    28  H    2.177097   1.080112   5.780875   4.959969   5.593146
    29  H    2.152680   1.087804   6.106583   5.183334   6.280548
    30  H    5.384418   6.639084   1.086309   2.447305   2.521922
    31  H    5.367167   6.363252   1.087588   3.042969   2.440176
                   16         17         18         19         20
    16  H    0.000000
    17  H    1.745812   0.000000
    18  H    3.857242   4.270362   0.000000
    19  H    3.048627   2.445673   2.376386   0.000000
    20  H    2.475161   2.536757   2.527376   1.750660   0.000000
    21  H    6.523209   8.149607   6.025696   7.797366   6.836432
    22  H    6.413798   7.907623   5.227654   7.215687   6.618714
    23  H    4.328148   5.904156   4.358603   5.718860   4.534282
    24  H    4.219404   5.865655   4.463773   5.800912   5.048270
    25  H    7.742987   9.118252   5.912095   8.094268   7.263060
    26  H    6.699292   8.067061   5.319246   7.241599   6.118559
    27  H    4.543382   5.722156   2.691621   4.675111   4.431050
    28  H    5.380539   6.177550   2.226005   4.487833   4.028213
    29  H    5.078116   6.131093   3.184963   4.993403   3.910131
    30  H    2.458330   2.546307   4.847495   3.796566   4.303933
    31  H    3.047232   2.458322   4.020645   2.642157   3.803460
                   21         22         23         24         25
    21  H    0.000000
    22  H    1.751500   0.000000
    23  H    2.456572   3.051785   0.000000
    24  H    2.540389   2.464083   1.752728   0.000000
    25  H    2.528330   2.439058   3.810984   4.292049   0.000000
    26  H    2.454282   3.044331   2.666004   3.811748   1.759497
    27  H    3.802242   2.668562   3.031865   2.451419   4.064605
    28  H    4.851645   4.116234   3.766165   4.286846   4.009436
    29  H    4.013687   3.957378   2.582908   3.758950   3.577397
    30  H    7.838136   7.333176   6.088586   5.306583   9.115614
    31  H    8.359618   7.630762   6.549648   5.945064   9.175411
                   26         27         28         29         30
    26  H    0.000000
    27  H    3.965284   0.000000
    28  H    3.567267   2.474097   0.000000
    29  H    2.410920   3.042220   1.760583   0.000000
    30  H    8.436575   5.330168   6.711446   6.903799   0.000000
    31  H    8.555987   5.222163   6.152318   6.696674   1.752747
                   31
    31  H    0.000000
 Stoichiometry    C10H18O3
 Framework group  C1[X(C10H18O3)]
 Deg. of freedom    87
 Full point group                 C1      NOp   1
 Largest Abelian subgroup         C1      NOp   1
 Largest concise Abelian subgroup C1      NOp   1
                         Standard orientation:                         
 ---------------------------------------------------------------------
 Center     Atomic      Atomic             Coordinates (Angstroms)
 Number     Number       Type             X           Y           Z
 ---------------------------------------------------------------------
      1          6           0       -2.421834    1.166478   -0.870524
      2          8           0       -1.690130    0.032812   -1.319149
      3          6           0       -3.175834   -0.138344    1.124819
      4          8           0        3.142602   -0.909876   -0.671537
      5          6           0       -1.217372   -0.828476   -0.316001
      6          6           0       -2.345853   -1.304418    0.585511
      7          6           0        3.145395    1.323386    0.254113
      8          8           0       -0.252231   -0.196118    0.476229
      9          6           0        1.712924    1.110516    0.747801
     10          6           0        3.870622   -0.007382    0.141427
     11          6           0        1.008172    0.070512   -0.111890
     12          6           0        1.854700   -1.200706   -0.172688
     13          6           0       -3.621036    0.755748   -0.032585
     14          1           0       -1.764301    1.818804   -0.305983
     15          1           0       -2.725123    1.688698   -1.767360
     16          1           0       -2.589507    0.442787    1.831424
     17          1           0       -4.036573   -0.519676    1.665515
     18          1           0       -0.778211   -1.657443   -0.849351
     19          1           0       -2.980415   -1.956778   -0.007980
     20          1           0       -1.926638   -1.900539    1.388874
     21          1           0        3.687702    1.973608    0.933933
     22          1           0        3.134935    1.806490   -0.719631
     23          1           0        1.726880    0.756816    1.776157
     24          1           0        1.156436    2.042261    0.730079
     25          1           0        4.839780    0.107599   -0.324312
     26          1           0        4.012010   -0.451711    1.124066
     27          1           0        0.868178    0.455184   -1.115876
     28          1           0        1.429990   -1.938183   -0.837813
     29          1           0        1.932996   -1.634455    0.821822
     30          1           0       -4.120590    1.648455    0.332912
     31          1           0       -4.328777    0.219652   -0.660718
 ---------------------------------------------------------------------
 Rotational constants (GHZ):           1.9750979           0.3948040           0.3772496
 Standard basis: 6-311++G(2d,2p) (5D, 7F)
 There are   557 symmetry adapted cartesian basis functions of A   symmetry.
 There are   531 symmetry adapted basis functions of A   symmetry.
   531 basis functions,   762 primitive gaussians,   557 cartesian basis functions
    51 alpha electrons       51 beta electrons
       nuclear repulsion energy       890.9295334158 Hartrees.
 NAtoms=   31 NActive=   31 NUniq=   31 SFac= 1.00D+00 NAtFMM=   60 NAOKFM=F Big=F
 Integral buffers will be    131072 words long.
 Raffenetti 2 integral format.
 Two-electron integral symmetry is turned on.
 ------------------------------------------------------------------------------
 Polarizable Continuum Model (PCM)
 =================================
 Model                : PCM.
 Atomic radii         : UFF (Universal Force Field).
 Polarization charges : Total charges.
 Charge compensation  : None.
 Solution method      : On-the-fly selection.
 Cavity type          : Scaled VdW (van der Waals Surface) (Alpha=1.100).
 Cavity algorithm     : GePol (No added spheres)
                        Default sphere list used, NSphG=   31.
                        Lebedev-Laikov grids with approx.  5.0 points / Ang**2.
                        Smoothing algorithm: York/Karplus (Gamma=1.0000).
                        Polarization charges: spherical gaussians, with
                                              point-specific exponents (IZeta= 3).
                        Self-potential: point-specific (ISelfS= 7).
                        Self-field    : sphere-specific E.n sum rule (ISelfD= 2).
 1st derivatives      : Analytical E(r).r(x)/FMM algorithm (CHGder, D1EAlg=3).
                        Cavity 1st derivative terms included.
 Solvent              : Water, Eps=  78.355300 Eps(inf)=   1.777849
 ------------------------------------------------------------------------------
 One-electron integrals computed using PRISM.
 NBasis=   531 RedAO= T EigKep=  5.19D-06  NBF=   531
 NBsUse=   531 1.00D-06 EigRej= -1.00D+00 NBFU=   531
 ExpMin= 3.60D-02 ExpMax= 8.59D+03 ExpMxC= 1.30D+03 IAcc=3 IRadAn=         5 AccDes= 0.00D+00
 Harris functional with IExCor= 1009 and IRadAn=       5 diagonalized for initial guess.
 HarFok:  IExCor= 1009 AccDes= 0.00D+00 IRadAn=         5 IDoV= 1 UseB2=F ITyADJ=14
 ICtDFT=  3500011 ScaDFX=  1.000000  1.000000  1.000000  1.000000
 FoFCou: FMM=F IPFlag=           0 FMFlag=      100000 FMFlg1=           0
         NFxFlg=           0 DoJE=T BraDBF=F KetDBF=T FulRan=T
         wScrn=  0.000000 ICntrl=       500 IOpCl=  0 I1Cent=   200000004 NGrid=           0
         NMat0=    1 NMatS0=      1 NMatT0=    0 NMatD0=    1 NMtDS0=    0 NMtDT0=    0
 Petite list used in FoFCou.
 Requested convergence on RMS density matrix=1.00D-08 within 128 cycles.
 Requested convergence on MAX density matrix=1.00D-06.
 Requested convergence on             energy=1.00D-06.
 No special actions if energy rises.
 Inv3:  Mode=1 IEnd=    13029168.
 Iteration    1 A*A^-1 deviation from unit magnitude is 5.11D-15 for   2082.
 Iteration    1 A*A^-1 deviation from orthogonality  is 2.08D-15 for   2062    892.
 Iteration    1 A^-1*A deviation from unit magnitude is 4.88D-15 for   2082.
 Iteration    1 A^-1*A deviation from orthogonality  is 1.32D-15 for   1790   1005.
 Error on total polarization charges =  0.01495
 SCF Done:  E(RM062X) =  -617.502415334     A.U. after   12 cycles
            NFock= 12  Conv=0.46D-08     -V/T= 2.0035

 **********************************************************************

            Population analysis using the SCF density.

 **********************************************************************

 Orbital symmetries:
       Occupied  (A) (A) (A) (A) (A) (A) (A) (A) (A) (A) (A) (A)
                 (A) (A) (A) (A) (A) (A) (A) (A) (A) (A) (A) (A)
                 (A) (A) (A) (A) (A) (A) (A) (A) (A) (A) (A) (A)
                 (A) (A) (A) (A) (A) (A) (A) (A) (A) (A) (A) (A)
                 (A) (A) (A)
       Virtual   (A) (A) (A) (A) (A) (A) (A) (A) (A) (A) (A) (A)
                 (A) (A) (A) (A) (A) (A) (A) (A) (A) (A) (A) (A)
                 (A) (A) (A) (A) (A) (A) (A) (A) (A) (A) (A) (A)
                 (A) (A) (A) (A) (A) (A) (A) (A) (A) (A) (A) (A)
                 (A) (A) (A) (A) (A) (A) (A) (A) (A) (A) (A) (A)
                 (A) (A) (A) (A) (A) (A) (A) (A) (A) (A) (A) (A)
                 (A) (A) (A) (A) (A) (A) (A) (A) (A) (A) (A) (A)
                 (A) (A) (A) (A) (A) (A) (A) (A) (A) (A) (A) (A)
                 (A) (A) (A) (A) (A) (A) (A) (A) (A) (A) (A) (A)
                 (A) (A) (A) (A) (A) (A) (A) (A) (A) (A) (A) (A)
                 (A) (A) (A) (A) (A) (A) (A) (A) (A) (A) (A) (A)
                 (A) (A) (A) (A) (A) (A) (A) (A) (A) (A) (A) (A)
                 (A) (A) (A) (A) (A) (A) (A) (A) (A) (A) (A) (A)
                 (A) (A) (A) (A) (A) (A) (A) (A) (A) (A) (A) (A)
                 (A) (A) (A) (A) (A) (A) (A) (A) (A) (A) (A) (A)
                 (A) (A) (A) (A) (A) (A) (A) (A) (A) (A) (A) (A)
                 (A) (A) (A) (A) (A) (A) (A) (A) (A) (A) (A) (A)
                 (A) (A) (A) (A) (A) (A) (A) (A) (A) (A) (A) (A)
                 (A) (A) (A) (A) (A) (A) (A) (A) (A) (A) (A) (A)
                 (A) (A) (A) (A) (A) (A) (A) (A) (A) (A) (A) (A)
                 (A) (A) (A) (A) (A) (A) (A) (A) (A) (A) (A) (A)
                 (A) (A) (A) (A) (A) (A) (A) (A) (A) (A) (A) (A)
                 (A) (A) (A) (A) (A) (A) (A) (A) (A) (A) (A) (A)
                 (A) (A) (A) (A) (A) (A) (A) (A) (A) (A) (A) (A)
                 (A) (A) (A) (A) (A) (A) (A) (A) (A) (A) (A) (A)
                 (A) (A) (A) (A) (A) (A) (A) (A) (A) (A) (A) (A)
                 (A) (A) (A) (A) (A) (A) (A) (A) (A) (A) (A) (A)
                 (A) (A) (A) (A) (A) (A) (A) (A) (A) (A) (A) (A)
                 (A) (A) (A) (A) (A) (A) (A) (A) (A) (A) (A) (A)
                 (A) (A) (A) (A) (A) (A) (A) (A) (A) (A) (A) (A)
                 (A) (A) (A) (A) (A) (A) (A) (A) (A) (A) (A) (A)
                 (A) (A) (A) (A) (A) (A) (A) (A) (A) (A) (A) (A)
                 (A) (A) (A) (A) (A) (A) (A) (A) (A) (A) (A) (A)
                 (A) (A) (A) (A) (A) (A) (A) (A) (A) (A) (A) (A)
                 (A) (A) (A) (A) (A) (A) (A) (A) (A) (A) (A) (A)
                 (A) (A) (A) (A) (A) (A) (A) (A) (A) (A) (A) (A)
                 (A) (A) (A) (A) (A) (A) (A) (A) (A) (A) (A) (A)
                 (A) (A) (A) (A) (A) (A) (A) (A) (A) (A) (A) (A)
                 (A) (A) (A) (A) (A) (A) (A) (A) (A) (A) (A) (A)
                 (A) (A) (A) (A) (A) (A) (A) (A) (A) (A) (A) (A)
 The electronic state is 1-A.
 Alpha  occ. eigenvalues --  -19.63161 -19.62964 -19.62731 -10.63414 -10.58632
 Alpha  occ. eigenvalues --  -10.57880 -10.57866 -10.57606 -10.53198 -10.53136
 Alpha  occ. eigenvalues --  -10.52997 -10.52952 -10.52751  -1.20296  -1.16792
 Alpha  occ. eigenvalues --   -1.13612  -0.91064  -0.89775  -0.87386  -0.84791
 Alpha  occ. eigenvalues --   -0.75120  -0.74128  -0.73213  -0.70989  -0.65812
 Alpha  occ. eigenvalues --   -0.64132  -0.60219  -0.58833  -0.57606  -0.56339
 Alpha  occ. eigenvalues --   -0.54129  -0.53357  -0.52354  -0.51423  -0.49875
 Alpha  occ. eigenvalues --   -0.48096  -0.46836  -0.46061  -0.45419  -0.45360
 Alpha  occ. eigenvalues --   -0.44205  -0.42812  -0.40708  -0.40277  -0.39279
 Alpha  occ. eigenvalues --   -0.38480  -0.38139  -0.35942  -0.35583  -0.33342
 Alpha  occ. eigenvalues --   -0.31817
 Alpha virt. eigenvalues --   -0.00063   0.00752   0.00944   0.01007   0.02151
 Alpha virt. eigenvalues --    0.02458   0.02600   0.03370   0.03693   0.04343
 Alpha virt. eigenvalues --    0.04561   0.04728   0.05375   0.05980   0.06887
 Alpha virt. eigenvalues --    0.07432   0.07758   0.07964   0.08772   0.09773
 Alpha virt. eigenvalues --    0.10150   0.10705   0.11084   0.11452   0.11729
 Alpha virt. eigenvalues --    0.12203   0.12565   0.12732   0.13126   0.13462
 Alpha virt. eigenvalues --    0.13658   0.14065   0.14310   0.14615   0.15031
 Alpha virt. eigenvalues --    0.15194   0.15296   0.15557   0.16139   0.16341
 Alpha virt. eigenvalues --    0.16393   0.16964   0.17050   0.17644   0.18043
 Alpha virt. eigenvalues --    0.18077   0.18372   0.18814   0.18966   0.19493
 Alpha virt. eigenvalues --    0.19760   0.20282   0.20652   0.20995   0.21306
 Alpha virt. eigenvalues --    0.22446   0.22849   0.22932   0.23298   0.24119
 Alpha virt. eigenvalues --    0.24442   0.25254   0.25803   0.26382   0.26479
 Alpha virt. eigenvalues --    0.27271   0.28321   0.28554   0.28844   0.29181
 Alpha virt. eigenvalues --    0.29590   0.30286   0.30779   0.31232   0.31718
 Alpha virt. eigenvalues --    0.32180   0.32899   0.33696   0.34198   0.34490
 Alpha virt. eigenvalues --    0.34715   0.35238   0.35747   0.35920   0.36627
 Alpha virt. eigenvalues --    0.36973   0.37232   0.37371   0.37799   0.38123
 Alpha virt. eigenvalues --    0.38336   0.38957   0.39541   0.40116   0.40374
 Alpha virt. eigenvalues --    0.41536   0.42277   0.43097   0.43851   0.44509
 Alpha virt. eigenvalues --    0.46230   0.47003   0.48647   0.50051   0.50660
 Alpha virt. eigenvalues --    0.52102   0.52565   0.53076   0.53864   0.54170
 Alpha virt. eigenvalues --    0.55455   0.56908   0.57614   0.57913   0.59430
 Alpha virt. eigenvalues --    0.59767   0.60672   0.60904   0.61175   0.61661
 Alpha virt. eigenvalues --    0.62340   0.62999   0.63481   0.63606   0.63874
 Alpha virt. eigenvalues --    0.64836   0.65207   0.66178   0.66824   0.67002
 Alpha virt. eigenvalues --    0.67546   0.67837   0.68933   0.69361   0.70517
 Alpha virt. eigenvalues --    0.70884   0.71315   0.71472   0.72579   0.73478
 Alpha virt. eigenvalues --    0.73751   0.74063   0.74243   0.74609   0.75402
 Alpha virt. eigenvalues --    0.75945   0.77067   0.77496   0.77770   0.78327
 Alpha virt. eigenvalues --    0.80991   0.82206   0.83260   0.85065   0.85600
 Alpha virt. eigenvalues --    0.86527   0.87628   0.87836   0.88641   0.88697
 Alpha virt. eigenvalues --    0.90626   0.91895   0.92271   0.93493   0.95175
 Alpha virt. eigenvalues --    0.96431   0.97840   0.99642   1.00902   1.01461
 Alpha virt. eigenvalues --    1.02879   1.04062   1.05104   1.05859   1.06684
 Alpha virt. eigenvalues --    1.08063   1.08525   1.10208   1.11144   1.11671
 Alpha virt. eigenvalues --    1.13004   1.13315   1.14321   1.16017   1.16442
 Alpha virt. eigenvalues --    1.16706   1.17665   1.18658   1.19250   1.20499
 Alpha virt. eigenvalues --    1.21101   1.21532   1.22551   1.24023   1.24426
 Alpha virt. eigenvalues --    1.25364   1.25661   1.26303   1.27014   1.27806
 Alpha virt. eigenvalues --    1.28286   1.28462   1.29708   1.29850   1.30180
 Alpha virt. eigenvalues --    1.31806   1.32590   1.33400   1.33590   1.34685
 Alpha virt. eigenvalues --    1.34813   1.35523   1.35766   1.36205   1.37809
 Alpha virt. eigenvalues --    1.38192   1.38639   1.39787   1.40304   1.41112
 Alpha virt. eigenvalues --    1.41985   1.42587   1.43593   1.43907   1.45021
 Alpha virt. eigenvalues --    1.45834   1.46130   1.46733   1.47612   1.48343
 Alpha virt. eigenvalues --    1.48755   1.49369   1.50636   1.51702   1.52160
 Alpha virt. eigenvalues --    1.53018   1.53314   1.53657   1.54871   1.55527
 Alpha virt. eigenvalues --    1.56293   1.57172   1.57676   1.58235   1.58508
 Alpha virt. eigenvalues --    1.59146   1.60053   1.60848   1.61215   1.62002
 Alpha virt. eigenvalues --    1.63261   1.63347   1.64243   1.65830   1.67020
 Alpha virt. eigenvalues --    1.67810   1.68446   1.69452   1.70244   1.73132
 Alpha virt. eigenvalues --    1.74033   1.74683   1.75566   1.76395   1.77295
 Alpha virt. eigenvalues --    1.78066   1.79213   1.80906   1.81889   1.84491
 Alpha virt. eigenvalues --    1.85905   1.88827   1.91990   1.93817   1.99527
 Alpha virt. eigenvalues --    2.03612   2.07255   2.11237   2.15356   2.20088
 Alpha virt. eigenvalues --    2.23968   2.25672   2.30103   2.34514   2.37923
 Alpha virt. eigenvalues --    2.41116   2.42504   2.46310   2.47704   2.53604
 Alpha virt. eigenvalues --    2.58678   2.75074   2.76689   2.79380   2.80982
 Alpha virt. eigenvalues --    2.83247   2.89819   2.92434   2.93054   2.93916
 Alpha virt. eigenvalues --    2.95362   2.97900   3.00585   3.02036   3.03314
 Alpha virt. eigenvalues --    3.06521   3.07083   3.07658   3.09432   3.10001
 Alpha virt. eigenvalues --    3.13186   3.14479   3.17644   3.19397   3.21820
 Alpha virt. eigenvalues --    3.23326   3.29234   3.31452   3.33229   3.34080
 Alpha virt. eigenvalues --    3.35333   3.35543   3.37266   3.39303   3.41654
 Alpha virt. eigenvalues --    3.43354   3.43618   3.44337   3.44939   3.46043
 Alpha virt. eigenvalues --    3.47414   3.48352   3.49503   3.50628   3.51914
 Alpha virt. eigenvalues --    3.53333   3.53755   3.54695   3.55420   3.56326
 Alpha virt. eigenvalues --    3.56408   3.57797   3.58233   3.58821   3.59489
 Alpha virt. eigenvalues --    3.60412   3.61493   3.62729   3.63825   3.64740
 Alpha virt. eigenvalues --    3.66277   3.67097   3.67788   3.68576   3.69731
 Alpha virt. eigenvalues --    3.69865   3.71013   3.72147   3.72912   3.73729
 Alpha virt. eigenvalues --    3.74193   3.74811   3.76191   3.76525   3.77266
 Alpha virt. eigenvalues --    3.78157   3.79343   3.80306   3.82004   3.85046
 Alpha virt. eigenvalues --    3.86895   3.87784   3.89682   3.90105   3.92493
 Alpha virt. eigenvalues --    3.93001   3.93461   3.94284   3.96549   3.97316
 Alpha virt. eigenvalues --    4.00115   4.00768   4.01968   4.03169   4.03467
 Alpha virt. eigenvalues --    4.04774   4.05161   4.06114   4.07179   4.07615
 Alpha virt. eigenvalues --    4.08114   4.08646   4.08963   4.10212   4.11465
 Alpha virt. eigenvalues --    4.11824   4.13402   4.13903   4.14267   4.15125
 Alpha virt. eigenvalues --    4.16653   4.16995   4.17797   4.19400   4.19873
 Alpha virt. eigenvalues --    4.21765   4.23273   4.25585   4.26019   4.27144
 Alpha virt. eigenvalues --    4.27531   4.29428   4.30018   4.31732   4.32618
 Alpha virt. eigenvalues --    4.33149   4.33455   4.34511   4.38119   4.38490
 Alpha virt. eigenvalues --    4.40236   4.42534   4.44811   4.46657   4.50771
 Alpha virt. eigenvalues --    4.58006   4.61649   4.75280   4.76919   4.82802
 Alpha virt. eigenvalues --    4.85169   4.92697   4.95286   4.99194   5.01067
 Alpha virt. eigenvalues --    5.06598   5.06801   5.07802   5.08718   5.11991
 Alpha virt. eigenvalues --    5.12281   5.13844   5.14817   5.30344   5.37038
 Alpha virt. eigenvalues --    5.39366   5.57987   5.58645   5.63675   5.85583
 Alpha virt. eigenvalues --    5.88515   6.05765   7.03667   7.05481   7.05984
 Alpha virt. eigenvalues --    7.06493   7.10845   7.12360   7.13374   7.20024
 Alpha virt. eigenvalues --    7.25900   7.36815   7.38273   7.47472   7.52961
 Alpha virt. eigenvalues --    7.55447   7.65441  23.95717  23.96694  24.06306
 Alpha virt. eigenvalues --   24.07646  24.11222  24.11946  24.14060  24.15449
 Alpha virt. eigenvalues --   24.15649  24.20624  50.17436  50.18011  50.25303
          Condensed to atoms (all electrons):
               1          2          3          4          5          6
     1  C    5.513516   0.114159   0.005960   0.000864  -0.505526   0.223297
     2  O    0.114159   8.191811   0.000602   0.000181   0.287711  -0.044945
     3  C    0.005960   0.000602   5.749766   0.000263  -0.173458  -0.037622
     4  O    0.000864   0.000181   0.000263   8.313534   0.001443  -0.000448
     5  C   -0.505526   0.287711  -0.173458   0.001443   7.228033  -0.892979
     6  C    0.223297  -0.044945  -0.037622  -0.000448  -0.892979   6.492012
     7  C    0.001272   0.002511  -0.006578  -0.036340  -0.080391   0.007045
     8  O   -0.010240  -0.051690  -0.026026   0.005230   0.335090  -0.078140
     9  C    0.014595  -0.025598  -0.011025  -0.023604   0.195078  -0.123983
    10  C    0.000511   0.000836   0.001068   0.096905  -0.028141   0.010006
    11  C    0.110888   0.048939   0.055097   0.046367  -0.988273   0.214257
    12  C   -0.031417  -0.015118  -0.012460   0.145773   0.193478  -0.037246
    13  C   -0.084823  -0.058156  -0.067792   0.000187   0.242940  -0.142662
    14  H    0.484969  -0.037618   0.009079  -0.000465   0.010614   0.015262
    15  H    0.438891  -0.073876   0.007420   0.000043  -0.016769   0.003078
    16  H    0.001360   0.001757   0.523430  -0.000024  -0.010485  -0.050949
    17  H    0.007120  -0.003612   0.423844   0.000008   0.023495  -0.062518
    18  H   -0.034975  -0.063599  -0.031616   0.002970   0.512215  -0.113208
    19  H    0.015866  -0.007112   0.004225  -0.000006  -0.154771   0.539278
    20  H    0.006432   0.006934  -0.045507   0.000150  -0.028223   0.437288
    21  H    0.000365   0.000183  -0.000189   0.007076  -0.002607  -0.000142
    22  H    0.000491  -0.000544   0.001244  -0.001995   0.003525  -0.000170
    23  H    0.004659  -0.000378   0.003327   0.000141  -0.003348  -0.000308
    24  H   -0.007133   0.000433  -0.001879  -0.001212   0.005762   0.000463
    25  H    0.000053   0.000096  -0.000101  -0.072145  -0.002832   0.000207
    26  H   -0.000104  -0.000062   0.000194  -0.041926   0.000847   0.001087
    27  H    0.014916   0.002186  -0.005357  -0.014197  -0.062220   0.003811
    28  H    0.005618   0.000643   0.006709  -0.083293   0.002444   0.006536
    29  H   -0.002035  -0.000221   0.000792  -0.027167  -0.007396   0.000689
    30  H   -0.033010   0.010281  -0.044590   0.000012   0.001625   0.000886
    31  H   -0.091083  -0.003390  -0.019667  -0.000014   0.003885  -0.013151
               7          8          9         10         11         12
     1  C    0.001272  -0.010240   0.014595   0.000511   0.110888  -0.031417
     2  O    0.002511  -0.051690  -0.025598   0.000836   0.048939  -0.015118
     3  C   -0.006578  -0.026026  -0.011025   0.001068   0.055097  -0.012460
     4  O   -0.036340   0.005230  -0.023604   0.096905   0.046367   0.145773
     5  C   -0.080391   0.335090   0.195078  -0.028141  -0.988273   0.193478
     6  C    0.007045  -0.078140  -0.123983   0.010006   0.214257  -0.037246
     7  C    5.556297  -0.003904   0.009973   0.115505  -0.043595   0.063181
     8  O   -0.003904   8.297546  -0.193118   0.018299   0.130251  -0.142651
     9  C    0.009973  -0.193118   6.762957  -0.221683  -1.275962   0.215986
    10  C    0.115505   0.018299  -0.221683   5.405791   0.231476  -0.224364
    11  C   -0.043595   0.130251  -1.275962   0.231476   7.979776  -0.598905
    12  C    0.063181  -0.142651   0.215986  -0.224364  -0.598905   6.027284
    13  C    0.005167  -0.009778  -0.025642  -0.000036   0.036345   0.004083
    14  H   -0.004459   0.015425  -0.010419   0.001228  -0.022872   0.008235
    15  H    0.000093   0.001053  -0.000384   0.000068   0.012729  -0.000587
    16  H   -0.000890  -0.007377   0.001701  -0.000688  -0.011132   0.003081
    17  H   -0.000167   0.001002  -0.001716   0.000186   0.007011  -0.001304
    18  H   -0.008435  -0.023447   0.009658  -0.001013   0.014476   0.007630
    19  H    0.000657   0.008617  -0.003820   0.000252   0.008667  -0.002239
    20  H   -0.001211  -0.001904   0.005715  -0.000885  -0.012401   0.006988
    21  H    0.442227  -0.002682  -0.045904  -0.037555   0.001926  -0.001411
    22  H    0.480631   0.000057   0.016354  -0.084696  -0.048231   0.006122
    23  H   -0.070312  -0.006600   0.516730  -0.014755  -0.019148  -0.041009
    24  H    0.002205   0.005669   0.396687  -0.004427  -0.025984   0.013107
    25  H   -0.040006   0.001133   0.005120   0.433559   0.000468   0.013108
    26  H   -0.047172  -0.000595  -0.025678   0.466138   0.044466  -0.037420
    27  H   -0.003697  -0.030026   0.003573   0.010384   0.505040  -0.102349
    28  H    0.019110  -0.007645   0.023111   0.006376  -0.091924   0.451545
    29  H   -0.000526   0.015796  -0.024860   0.005314  -0.005299   0.387436
    30  H   -0.000117   0.000853   0.001045   0.000015   0.001947  -0.000229
    31  H    0.000011  -0.000868  -0.000498  -0.000097  -0.004077   0.000566
              13         14         15         16         17         18
     1  C   -0.084823   0.484969   0.438891   0.001360   0.007120  -0.034975
     2  O   -0.058156  -0.037618  -0.073876   0.001757  -0.003612  -0.063599
     3  C   -0.067792   0.009079   0.007420   0.523430   0.423844  -0.031616
     4  O    0.000187  -0.000465   0.000043  -0.000024   0.000008   0.002970
     5  C    0.242940   0.010614  -0.016769  -0.010485   0.023495   0.512215
     6  C   -0.142662   0.015262   0.003078  -0.050949  -0.062518  -0.113208
     7  C    0.005167  -0.004459   0.000093  -0.000890  -0.000167  -0.008435
     8  O   -0.009778   0.015425   0.001053  -0.007377   0.001002  -0.023447
     9  C   -0.025642  -0.010419  -0.000384   0.001701  -0.001716   0.009658
    10  C   -0.000036   0.001228   0.000068  -0.000688   0.000186  -0.001013
    11  C    0.036345  -0.022872   0.012729  -0.011132   0.007011   0.014476
    12  C    0.004083   0.008235  -0.000587   0.003081  -0.001304   0.007630
    13  C    5.734484  -0.104715  -0.020949  -0.067074  -0.018967   0.029862
    14  H   -0.104715   0.534223  -0.020518  -0.002113  -0.001723  -0.001684
    15  H   -0.020949  -0.020518   0.480756  -0.002261   0.001810   0.000156
    16  H   -0.067074  -0.002113  -0.002261   0.456573  -0.006721  -0.003272
    17  H   -0.018967  -0.001723   0.001810  -0.006721   0.469914   0.003335
    18  H    0.029862  -0.001684   0.000156  -0.003272   0.003335   0.475815
    19  H   -0.019814  -0.001564   0.000086   0.001881  -0.003352  -0.018434
    20  H   -0.006102   0.000824   0.001085  -0.002744  -0.008689  -0.007494
    21  H   -0.000097  -0.000023  -0.000027  -0.000013  -0.000008  -0.000193
    22  H   -0.000618  -0.000074   0.000033   0.000068   0.000015  -0.000305
    23  H   -0.003821   0.000356  -0.000013   0.000062   0.000020  -0.001158
    24  H    0.007132  -0.005509   0.001006   0.000198   0.000008   0.001710
    25  H    0.000023  -0.000108   0.000007  -0.000030   0.000004  -0.000037
    26  H    0.000114  -0.000083   0.000006   0.000086   0.000008  -0.000056
    27  H   -0.002631  -0.003639  -0.000415  -0.000694   0.000113  -0.000705
    28  H   -0.004359   0.000338   0.000225  -0.000085  -0.000153  -0.019977
    29  H    0.002166  -0.000707  -0.000004   0.000031   0.000287   0.003086
    30  H    0.432718   0.000280  -0.008649  -0.005009  -0.005909   0.001489
    31  H    0.496843   0.003725  -0.006926   0.001817  -0.003460   0.000552
              19         20         21         22         23         24
     1  C    0.015866   0.006432   0.000365   0.000491   0.004659  -0.007133
     2  O   -0.007112   0.006934   0.000183  -0.000544  -0.000378   0.000433
     3  C    0.004225  -0.045507  -0.000189   0.001244   0.003327  -0.001879
     4  O   -0.000006   0.000150   0.007076  -0.001995   0.000141  -0.001212
     5  C   -0.154771  -0.028223  -0.002607   0.003525  -0.003348   0.005762
     6  C    0.539278   0.437288  -0.000142  -0.000170  -0.000308   0.000463
     7  C    0.000657  -0.001211   0.442227   0.480631  -0.070312   0.002205
     8  O    0.008617  -0.001904  -0.002682   0.000057  -0.006600   0.005669
     9  C   -0.003820   0.005715  -0.045904   0.016354   0.516730   0.396687
    10  C    0.000252  -0.000885  -0.037555  -0.084696  -0.014755  -0.004427
    11  C    0.008667  -0.012401   0.001926  -0.048231  -0.019148  -0.025984
    12  C   -0.002239   0.006988  -0.001411   0.006122  -0.041009   0.013107
    13  C   -0.019814  -0.006102  -0.000097  -0.000618  -0.003821   0.007132
    14  H   -0.001564   0.000824  -0.000023  -0.000074   0.000356  -0.005509
    15  H    0.000086   0.001085  -0.000027   0.000033  -0.000013   0.001006
    16  H    0.001881  -0.002744  -0.000013   0.000068   0.000062   0.000198
    17  H   -0.003352  -0.008689  -0.000008   0.000015   0.000020   0.000008
    18  H   -0.018434  -0.007494  -0.000193  -0.000305  -0.001158   0.001710
    19  H    0.448835  -0.004121  -0.000005  -0.000064  -0.000158   0.000029
    20  H   -0.004121   0.475563  -0.000010   0.000099   0.000788  -0.000283
    21  H   -0.000005  -0.000010   0.482839  -0.006802  -0.003967  -0.014156
    22  H   -0.000064   0.000099  -0.006802   0.474780   0.002699  -0.000853
    23  H   -0.000158   0.000788  -0.003967   0.002699   0.450546  -0.017060
    24  H    0.000029  -0.000283  -0.014156  -0.000853  -0.017060   0.499121
    25  H    0.000017  -0.000036  -0.008114  -0.004624  -0.001416   0.000831
    26  H    0.000015  -0.000140   0.002558   0.002775  -0.004410   0.000820
    27  H    0.000175  -0.000114   0.000336  -0.006876   0.005633  -0.008592
    28  H    0.001396   0.001570   0.002747  -0.001611  -0.000488  -0.001906
    29  H    0.000094  -0.003722  -0.002558   0.001716  -0.005758   0.000042
    30  H   -0.002654   0.001255  -0.000016   0.000035   0.000081  -0.000033
    31  H   -0.002055  -0.001550   0.000004  -0.000012  -0.000002   0.000265
              25         26         27         28         29         30
     1  C    0.000053  -0.000104   0.014916   0.005618  -0.002035  -0.033010
     2  O    0.000096  -0.000062   0.002186   0.000643  -0.000221   0.010281
     3  C   -0.000101   0.000194  -0.005357   0.006709   0.000792  -0.044590
     4  O   -0.072145  -0.041926  -0.014197  -0.083293  -0.027167   0.000012
     5  C   -0.002832   0.000847  -0.062220   0.002444  -0.007396   0.001625
     6  C    0.000207   0.001087   0.003811   0.006536   0.000689   0.000886
     7  C   -0.040006  -0.047172  -0.003697   0.019110  -0.000526  -0.000117
     8  O    0.001133  -0.000595  -0.030026  -0.007645   0.015796   0.000853
     9  C    0.005120  -0.025678   0.003573   0.023111  -0.024860   0.001045
    10  C    0.433559   0.466138   0.010384   0.006376   0.005314   0.000015
    11  C    0.000468   0.044466   0.505040  -0.091924  -0.005299   0.001947
    12  C    0.013108  -0.037420  -0.102349   0.451545   0.387436  -0.000229
    13  C    0.000023   0.000114  -0.002631  -0.004359   0.002166   0.432718
    14  H   -0.000108  -0.000083  -0.003639   0.000338  -0.000707   0.000280
    15  H    0.000007   0.000006  -0.000415   0.000225  -0.000004  -0.008649
    16  H   -0.000030   0.000086  -0.000694  -0.000085   0.000031  -0.005009
    17  H    0.000004   0.000008   0.000113  -0.000153   0.000287  -0.005909
    18  H   -0.000037  -0.000056  -0.000705  -0.019977   0.003086   0.001489
    19  H    0.000017   0.000015   0.000175   0.001396   0.000094  -0.002654
    20  H   -0.000036  -0.000140  -0.000114   0.001570  -0.003722   0.001255
    21  H   -0.008114   0.002558   0.000336   0.002747  -0.002558  -0.000016
    22  H   -0.004624   0.002775  -0.006876  -0.001611   0.001716   0.000035
    23  H   -0.001416  -0.004410   0.005633  -0.000488  -0.005758   0.000081
    24  H    0.000831   0.000820  -0.008592  -0.001906   0.000042  -0.000033
    25  H    0.471954  -0.005730   0.000039   0.002994  -0.001842   0.000000
    26  H   -0.005730   0.497065  -0.001232  -0.004778   0.008749   0.000002
    27  H    0.000039  -0.001232   0.420158  -0.001175  -0.003827  -0.000084
    28  H    0.002994  -0.004778  -0.001175   0.503096  -0.024715   0.000067
    29  H   -0.001842   0.008749  -0.003827  -0.024715   0.485499   0.000020
    30  H    0.000000   0.000002  -0.000084   0.000067   0.000020   0.490728
    31  H   -0.000003  -0.000001  -0.000077  -0.000266  -0.000060  -0.012901
              31
     1  C   -0.091083
     2  O   -0.003390
     3  C   -0.019667
     4  O   -0.000014
     5  C    0.003885
     6  C   -0.013151
     7  C    0.000011
     8  O   -0.000868
     9  C   -0.000498
    10  C   -0.000097
    11  C   -0.004077
    12  C    0.000566
    13  C    0.496843
    14  H    0.003725
    15  H   -0.006926
    16  H    0.001817
    17  H   -0.003460
    18  H    0.000552
    19  H   -0.002055
    20  H   -0.001550
    21  H    0.000004
    22  H   -0.000012
    23  H   -0.000002
    24  H    0.000265
    25  H   -0.000003
    26  H   -0.000001
    27  H   -0.000077
    28  H   -0.000266
    29  H   -0.000060
    30  H   -0.012901
    31  H    0.485244
 Mulliken charges:
               1
     1  C   -0.165455
     2  O   -0.283345
     3  C   -0.309154
     4  O   -0.318311
     5  C   -0.090770
     6  C   -0.356733
     7  C   -0.358085
     8  O   -0.239332
     9  C   -0.164388
    10  C   -0.185580
    11  C   -0.302322
    12  C   -0.298894
    13  C   -0.354027
    14  H    0.133738
    15  H    0.202832
    16  H    0.179516
    17  H    0.180118
    18  H    0.266655
    19  H    0.190084
    20  H    0.180444
    21  H    0.186219
    22  H    0.166831
    23  H    0.209069
    24  H    0.153539
    25  H    0.207412
    26  H    0.144458
    27  H    0.281542
    28  H    0.207850
    29  H    0.198981
    30  H    0.169861
    31  H    0.167246
 Sum of Mulliken charges =  -0.00000
 Mulliken charges with hydrogens summed into heavy atoms:
               1
     1  C    0.171115
     2  O   -0.283345
     3  C    0.050480
     4  O   -0.318311
     5  C    0.175885
     6  C    0.013795
     7  C   -0.005034
     8  O   -0.239332
     9  C    0.198219
    10  C    0.166291
    11  C   -0.020780
    12  C    0.107937
    13  C   -0.016919
 Electronic spatial extent (au):  <R**2>=           3125.6992
 Charge=             -0.0000 electrons
 Dipole moment (field-independent basis, Debye):
    X=             -0.8102    Y=              1.1037    Z=              1.9339  Tot=              2.3695
 Quadrupole moment (field-independent basis, Debye-Ang):
   XX=            -74.2874   YY=            -76.3668   ZZ=            -84.7510
   XY=              4.2429   XZ=              3.3252   YZ=             -1.6767
 Traceless Quadrupole moment (field-independent basis, Debye-Ang):
   XX=              4.1810   YY=              2.1016   ZZ=             -6.2826
   XY=              4.2429   XZ=              3.3252   YZ=             -1.6767
 Octapole moment (field-independent basis, Debye-Ang**2):
  XXX=             -6.2484  YYY=             -2.5296  ZZZ=              2.0256  XYY=             -7.5546
  XXY=             22.3092  XXZ=             19.7626  XZZ=              2.5351  YZZ=              1.3649
  YYZ=             -2.6022  XYZ=             -1.4758
 Hexadecapole moment (field-independent basis, Debye-Ang**3):
 XXXX=          -3132.0739 YYYY=           -541.2178 ZZZZ=           -371.0818 XXXY=             55.6399
 XXXZ=             47.9870 YYYX=             -5.1478 YYYZ=              2.9429 ZZZX=              2.9180
 ZZZY=             -6.0100 XXYY=           -635.6524 XXZZ=           -617.5156 YYZZ=           -145.0222
 XXYZ=            -24.0669 YYXZ=             11.0860 ZZXY=             -2.0368
 N-N= 8.909295334158D+02 E-N=-3.223671527410D+03  KE= 6.153477710207D+02
 D1PCM: PCM CHGder 1st derivatives, ID1Alg=3 FixD1E=F DoIter=F DoCFld=F I1PDM=0.
 Calling FoFJK, ICntrl=      2127 FMM=F ISym2X=0 I1Cent= 0 IOpClX= 0 NMat=1 NMatS=1 NMatT=0.
 ***** Axes restored to original set *****
 -------------------------------------------------------------------
 Center     Atomic                   Forces (Hartrees/Bohr)
 Number     Number              X              Y              Z
 -------------------------------------------------------------------
      1        6          -0.001949893   -0.004938825    0.004104764
      2        8           0.001687415   -0.002411931   -0.010855808
      3        6           0.001308713   -0.000421144   -0.003716647
      4        8           0.003266868   -0.003914827   -0.008115164
      5        6          -0.004365159    0.006917491    0.002545583
      6        6           0.000746242    0.002452310    0.001099427
      7        6          -0.000913755   -0.001839110    0.001992943
      8        8          -0.001541416    0.001393217    0.012892854
      9        6           0.001765292   -0.001031970   -0.004576333
     10        6          -0.006467324    0.002435662   -0.000873815
     11        6           0.000210512   -0.002933249    0.004007471
     12        6           0.002889062    0.007261375   -0.000043759
     13        6           0.002362933    0.000304748    0.001437472
     14        1           0.003497082    0.003356625    0.004281802
     15        1          -0.001357636    0.002012933   -0.003683174
     16        1           0.002775325    0.001787916    0.001529022
     17        1          -0.002065257   -0.000976138    0.001190973
     18        1           0.002772966   -0.006099774   -0.004819914
     19        1          -0.001965982   -0.001579856   -0.002280317
     20        1           0.001426170   -0.001468741    0.002453568
     21        1           0.001230364    0.002028842    0.001829897
     22        1          -0.000149315    0.000788084   -0.003106522
     23        1          -0.000264595   -0.002240483    0.003289089
     24        1          -0.002130268    0.002354754   -0.000199739
     25        1           0.003827802    0.000515892   -0.001993151
     26        1           0.000400823   -0.001469327    0.005983201
     27        1          -0.000088102    0.002395603   -0.006443857
     28        1          -0.002661733   -0.003425197   -0.003298186
     29        1          -0.001155986   -0.001390746    0.006331794
     30        1          -0.001489926    0.002133521    0.001171247
     31        1          -0.001601221   -0.001997654   -0.002134721
 -------------------------------------------------------------------
 Cartesian Forces:  Max     0.012892854 RMS     0.003468978

 GradGradGradGradGradGradGradGradGradGradGradGradGradGradGradGradGradGrad
 Berny optimization.
 FormGI is forming the generalized inverse of G from B-inverse, IUseBI=4.
 Internal  Forces:  Max     0.012207029 RMS     0.002065556
 Search for a local minimum.
 Step number   1 out of a maximum of  186
 All quantities printed in internal units (Hartrees-Bohrs-Radians)
 Mixed Optimization -- RFO/linear search
 Second derivative matrix not updated -- first step.
 ITU=  0
     Eigenvalues ---    0.00623   0.00654   0.00724   0.00727   0.01413
     Eigenvalues ---    0.01438   0.01696   0.02702   0.02793   0.03075
     Eigenvalues ---    0.03150   0.04092   0.04278   0.04656   0.04750
     Eigenvalues ---    0.04871   0.04889   0.05103   0.05141   0.05163
     Eigenvalues ---    0.05254   0.05683   0.05719   0.06124   0.06169
     Eigenvalues ---    0.06276   0.06503   0.07013   0.07607   0.07859
     Eigenvalues ---    0.07932   0.07967   0.07987   0.08088   0.08232
     Eigenvalues ---    0.08829   0.09244   0.09264   0.10849   0.11601
     Eigenvalues ---    0.11619   0.11699   0.11763   0.12399   0.12486
     Eigenvalues ---    0.14524   0.14737   0.16285   0.16480   0.17329
     Eigenvalues ---    0.19160   0.21156   0.21945   0.25000   0.28261
     Eigenvalues ---    0.28655   0.28748   0.28865   0.28942   0.29325
     Eigenvalues ---    0.30075   0.30353   0.35068   0.35085   0.35093
     Eigenvalues ---    0.35095   0.35156   0.35204   0.35221   0.35243
     Eigenvalues ---    0.35298   0.35320   0.35347   0.35432   0.35437
     Eigenvalues ---    0.35488   0.35827   0.35849   0.35981   0.36100
     Eigenvalues ---    0.40805   0.41463   0.42234   0.43039   0.43411
     Eigenvalues ---    0.456801000.000001000.000001000.000001000.00000
     Eigenvalues --- 1000.000001000.000001000.000001000.000001000.00000
     Eigenvalues --- 1000.000001000.000001000.000001000.000001000.00000
     Eigenvalues --- 1000.000001000.000001000.000001000.000001000.00000
     Eigenvalues --- 1000.000001000.000001000.000001000.000001000.00000
     Eigenvalues --- 1000.000001000.000001000.000001000.000001000.00000
     Eigenvalues --- 1000.000001000.000001000.000001000.000001000.00000
     Eigenvalues --- 1000.000001000.000001000.000001000.000001000.00000
     Eigenvalues --- 1000.000001000.000001000.000001000.000001000.00000
     Eigenvalues --- 1000.000001000.000001000.000001000.000001000.00000
     Eigenvalues --- 1000.000001000.000001000.000001000.000001000.00000
     Eigenvalues --- 1000.000001000.000001000.000001000.000001000.00000
     Eigenvalues --- 1000.000001000.000001000.000001000.000001000.00000
     Eigenvalues --- 1000.000001000.000001000.000001000.000001000.00000
     Eigenvalues --- 1000.000001000.000001000.000001000.000001000.00000
     Eigenvalues --- 1000.000001000.000001000.000001000.000001000.00000
     Eigenvalues --- 1000.000001000.000001000.000001000.000001000.00000
     Eigenvalues --- 1000.000001000.000001000.000001000.000001000.00000
     Eigenvalues --- 1000.000001000.000001000.000001000.000001000.00000
     Eigenvalues --- 1000.000001000.000001000.000001000.000001000.00000
 RFO step:  Lambda=-3.23518130D-03 EMin= 6.23358392D-03
 Linear search not attempted -- first point.
 Iteration  1 RMS(Cart)=  0.04500117 RMS(Int)=  0.00045902
 Iteration  2 RMS(Cart)=  0.00152520 RMS(Int)=  0.00004665
 Iteration  3 RMS(Cart)=  0.00000068 RMS(Int)=  0.00004664
 Iteration  1 RMS(Cart)=  0.00000429 RMS(Int)=  0.00000100
 Iteration  2 RMS(Cart)=  0.00000237 RMS(Int)=  0.00000112
 Iteration  3 RMS(Cart)=  0.00000131 RMS(Int)=  0.00000127
 Iteration  4 RMS(Cart)=  0.00000073 RMS(Int)=  0.00000137
 Variable       Old X    -DE/DX   Delta X   Delta X   Delta X     New X
                                 (Linear)    (Quad)   (Total)
    R1        2.68704   0.00301   0.00000   0.00698   0.00699   2.69402
    R2        2.87147   0.00014   0.00000   0.00081   0.00084   2.87230
    R3        2.04980   0.00637   0.00000   0.01780   0.01780   2.06760
    R4        2.04319   0.00441   0.00000   0.01219   0.01219   2.05538
    R5        2.65345   0.00351   0.00000   0.00740   0.00742   2.66087
    R6        2.89039  -0.00151   0.00000  -0.00493  -0.00494   2.88544
    R7        2.88899  -0.00077   0.00000  -0.00205  -0.00207   2.88692
    R8        2.05345   0.00345   0.00000   0.00971   0.00971   2.06316
    R9        2.05158   0.00257   0.00000   0.00722   0.00722   2.05880
   R10        2.67609   0.00343   0.00000   0.00791   0.00793   2.68403
   R11        2.66721   0.00301   0.00000   0.00684   0.00686   2.67407
   R12        2.87382  -0.00081   0.00000  -0.00303  -0.00305   2.87077
   R13        2.64494   0.00354   0.00000   0.00769   0.00769   2.65264
   R14        2.03925   0.00820   0.00000   0.02250   0.02250   2.06175
   R15        2.05318   0.00334   0.00000   0.00940   0.00940   2.06258
   R16        2.04972   0.00318   0.00000   0.00888   0.00888   2.05860
   R17        2.89135  -0.00073   0.00000  -0.00251  -0.00253   2.88882
   R18        2.87188   0.00053   0.00000   0.00149   0.00149   2.87338
   R19        2.05193   0.00297   0.00000   0.00835   0.00835   2.06028
   R20        2.05423   0.00313   0.00000   0.00883   0.00883   2.06306
   R21        2.67621   0.00186   0.00000   0.00428   0.00428   2.68049
   R22        2.87670  -0.00244   0.00000  -0.00800  -0.00803   2.86868
   R23        2.05521   0.00383   0.00000   0.01083   0.01083   2.06604
   R24        2.05115   0.00312   0.00000   0.00874   0.00874   2.05989
   R25        2.04353   0.00434   0.00000   0.01201   0.01201   2.05554
   R26        2.05537   0.00606   0.00000   0.01712   0.01712   2.07249
   R27        2.88844  -0.00023   0.00000  -0.00054  -0.00054   2.88790
   R28        2.04890   0.00683   0.00000   0.01906   0.01906   2.06797
   R29        2.04112   0.00542   0.00000   0.01492   0.01492   2.05603
   R30        2.05565   0.00626   0.00000   0.01770   0.01770   2.07335
   R31        2.05283   0.00283   0.00000   0.00796   0.00796   2.06079
   R32        2.05524   0.00326   0.00000   0.00921   0.00921   2.06445
    A1        1.94399   0.00228   0.00000   0.00589   0.00585   1.94984
    A2        1.90895   0.00018   0.00000   0.00163   0.00169   1.91064
    A3        1.84183  -0.00132   0.00000  -0.00215  -0.00217   1.83966
    A4        1.93259  -0.00164   0.00000  -0.00758  -0.00762   1.92497
    A5        1.94614  -0.00024   0.00000  -0.00175  -0.00169   1.94445
    A6        1.88733   0.00074   0.00000   0.00432   0.00431   1.89165
    A7        2.02294  -0.00568   0.00000  -0.03647  -0.03637   1.98657
    A8        1.91447   0.00189   0.00000  -0.00167  -0.00167   1.91279
    A9        1.92219  -0.00095   0.00000  -0.00614  -0.00615   1.91604
   A10        1.91564  -0.00055   0.00000   0.00159   0.00158   1.91722
   A11        1.91417  -0.00083   0.00000  -0.00169  -0.00178   1.91238
   A12        1.93007  -0.00026   0.00000   0.00205   0.00212   1.93218
   A13        1.86689   0.00063   0.00000   0.00597   0.00597   1.87286
   A14        1.97961  -0.00461   0.00000  -0.02805  -0.02796   1.95165
   A15        1.94512   0.00340   0.00000   0.01251   0.01231   1.95743
   A16        1.93844   0.00040   0.00000  -0.00181  -0.00166   1.93678
   A17        1.82877  -0.00227   0.00000  -0.01036  -0.01037   1.81839
   A18        1.89394  -0.00340   0.00000  -0.01663  -0.01655   1.87739
   A19        1.93324   0.00009   0.00000   0.00371   0.00379   1.93703
   A20        1.92431   0.00194   0.00000   0.01352   0.01351   1.93782
   A21        1.95314  -0.00166   0.00000  -0.01522  -0.01536   1.93778
   A22        1.91073   0.00120   0.00000   0.00750   0.00758   1.91832
   A23        1.94719  -0.00029   0.00000  -0.00151  -0.00160   1.94559
   A24        1.87286   0.00007   0.00000   0.00371   0.00371   1.87656
   A25        1.90103   0.00076   0.00000  -0.00037  -0.00035   1.90069
   A26        1.87582  -0.00000   0.00000   0.00697   0.00695   1.88277
   A27        1.92716  -0.00078   0.00000  -0.00554  -0.00559   1.92157
   A28        1.92718  -0.00047   0.00000  -0.00040  -0.00039   1.92679
   A29        1.91969   0.00081   0.00000   0.00126   0.00126   1.92095
   A30        1.90970   0.00076   0.00000   0.00462   0.00464   1.91434
   A31        1.90427  -0.00031   0.00000  -0.00284  -0.00284   1.90144
   A32        1.87497   0.00001   0.00000   0.00314   0.00313   1.87810
   A33        2.05297  -0.01221   0.00000  -0.04820  -0.04820   2.00477
   A34        1.92438   0.00106   0.00000  -0.00348  -0.00353   1.92086
   A35        1.91594  -0.00008   0.00000   0.00385   0.00382   1.91976
   A36        1.93403   0.00018   0.00000   0.00583   0.00584   1.93987
   A37        1.89414  -0.00110   0.00000  -0.00745  -0.00744   1.88670
   A38        1.91759  -0.00048   0.00000  -0.00301  -0.00298   1.91461
   A39        1.87674   0.00037   0.00000   0.00419   0.00414   1.88088
   A40        1.93402   0.00190   0.00000   0.00952   0.00954   1.94356
   A41        1.85590  -0.00128   0.00000  -0.00416  -0.00416   1.85174
   A42        1.90194   0.00072   0.00000   0.00647   0.00650   1.90844
   A43        1.94605  -0.00030   0.00000  -0.00283  -0.00285   1.94320
   A44        1.93132  -0.00160   0.00000  -0.00995  -0.00998   1.92135
   A45        1.89234   0.00058   0.00000   0.00132   0.00129   1.89364
   A46        1.88192  -0.00077   0.00000  -0.00131  -0.00130   1.88062
   A47        1.93140   0.00047   0.00000   0.00144   0.00146   1.93286
   A48        1.91392   0.00021   0.00000   0.00513   0.00513   1.91905
   A49        1.91161   0.00027   0.00000  -0.00293  -0.00297   1.90865
   A50        1.91806   0.00007   0.00000  -0.00035  -0.00034   1.91772
   A51        1.90683  -0.00026   0.00000  -0.00198  -0.00198   1.90485
   A52        1.92628   0.00173   0.00000   0.00936   0.00939   1.93568
   A53        1.85651  -0.00088   0.00000   0.00075   0.00076   1.85727
   A54        1.91730   0.00142   0.00000   0.01223   0.01229   1.92959
   A55        1.95473  -0.00048   0.00000  -0.00627  -0.00633   1.94841
   A56        1.91253  -0.00249   0.00000  -0.01638  -0.01645   1.89608
   A57        1.89550   0.00079   0.00000   0.00123   0.00110   1.89660
   A58        1.92383  -0.00103   0.00000  -0.00538  -0.00558   1.91825
   A59        1.90322   0.00060   0.00000   0.00359   0.00364   1.90686
   A60        1.90532   0.00006   0.00000  -0.00150  -0.00144   1.90388
   A61        1.93885  -0.00048   0.00000  -0.00148  -0.00145   1.93741
   A62        1.91609   0.00091   0.00000   0.00147   0.00155   1.91764
   A63        1.87564  -0.00001   0.00000   0.00352   0.00348   1.87912
    D1       -0.99888   0.00049   0.00000  -0.01562  -0.01550  -1.01438
    D2        1.14310   0.00007   0.00000  -0.02014  -0.02006   1.12304
    D3       -3.11349   0.00033   0.00000  -0.01545  -0.01537  -3.12886
    D4        0.95689   0.00132   0.00000   0.01901   0.01906   0.97596
    D5        3.08968   0.00045   0.00000   0.01608   0.01607   3.10574
    D6       -1.14904   0.00081   0.00000   0.02149   0.02151  -1.12753
    D7       -1.17145   0.00065   0.00000   0.01815   0.01821  -1.15324
    D8        0.96133  -0.00022   0.00000   0.01521   0.01522   0.97655
    D9        3.00580   0.00014   0.00000   0.02063   0.02066   3.02646
   D10        3.00941   0.00098   0.00000   0.01900   0.01904   3.02845
[...]
 172054,-0.00184196,-0.00227162,0.00000159,0.00000181,0.00000343,-0.000
 00507,0.00000328,0.00000105,-0.00000012,0.00000259,0.00000020,-0.00000
 034,-0.00000097,-0.00000046,-0.00000278,0.00000218,0.00000028,0.000020
 25,0.00002790,0.00002117,0.00000082,-0.00000041,-0.00000131,-0.0000005
 6,-0.00000095,0.00000033,0.00000604,-0.00005072,0.00002904,-0.00034535
 ,-0.00053348,0.00065488,-0.00042593,-0.00009468,0.00029789,0.00060444,
 0.00013749,0.00013283,-0.11569447,-0.01758263,0.11638786,0.00000196,-0
 .00000378,-0.00000140,-0.00000266,0.00000695,-0.00000294,0.00000027,-0
 .00000031,0.00000031,-0.00793422,-0.00113538,-0.02228107,0.00002921,0.
 00001916,0.00003640,-0.00000402,-0.00000296,-0.00000414,-0.00229434,0.
 01000196,-0.01424827,-0.00019233,0.00006266,0.00013513,0.00088875,-0.0
 0027383,-0.00132916,-0.06008245,0.01738526,-0.02614197,-0.00033724,-0.
 00011843,0.00019469,0.00218574,0.00219708,-0.00391255,0.00000016,0.000
 00023,0.00000049,-0.00000008,0.00000086,0.00000070,0.00000026,0.000000
 27,-0.00000020,-0.00000078,-0.00000049,-0.00000073,-0.00000165,-0.0000
 0024,-0.00000062,0.00000530,-0.00000356,-0.00000476,-0.00000233,-0.000
 00096,0.00000117,-0.00000010,-0.00000044,-0.00000042,0.00055213,-0.000
 29608,0.00027306,-0.00081982,0.00283247,0.00025453,-0.00005827,-0.0000
 0473,0.00028793,0.00018816,-0.00012024,0.00023565,0.00633887,-0.012499
 20,0.02372738,0.06115363,-0.00000617,0.00000260,0.00000054,0.00000976,
 -0.00000241,0.00000574,0.00000025,0.00000026,0.00000123,-0.01152976,0.
 00615583,-0.02718312,0.00001652,0.00001320,-0.00002198,0.00000611,0.00
 000679,0.00001011,0.00469687,-0.01492709,0.02643577,-0.00002189,0.0002
 3661,0.00015376,-0.00131344,0.00106241,0.00048379,0.01778372,-0.104769
 67,0.10489599,-0.00023681,-0.00044583,0.00013200,0.00263605,0.00212471
 ,-0.00323619,-0.00000011,0.00000023,0.00000064,-0.00000246,0.00000057,
 0.00000025,0.00000097,-0.00000012,-0.00000033,-0.00000103,-0.00000042,
 -0.00000029,-0.00000022,0.00000001,-0.00000105,0.00000940,0.00000500,0
 .00000285,0.00000435,0.00000048,-0.00000234,-0.00000047,0.00000003,-0.
 00000040,-0.00062737,0.00085494,-0.00025889,0.00384583,-0.00436965,-0.
 00122502,0.00052638,0.00036398,-0.00059280,-0.00021552,0.00006312,-0.0
 0039972,0.00110376,-0.00145607,0.00374620,-0.01769307,0.11533797,0.000
 04291,-0.00004214,-0.00001270,-0.00011554,0.00005956,-0.00007254,-0.00
 000454,-0.00001504,0.00000480,-0.01452812,-0.00451917,-0.02804433,0.00
 025263,0.00008625,0.00023818,-0.00001981,0.00000391,-0.00003420,0.0021
 2298,-0.00121491,0.00435584,-0.00066442,0.00003758,0.00006088,-0.00025
 331,-0.00051046,0.00062661,-0.02963852,0.10242043,-0.23269310,0.000199
 80,-0.00054630,0.00003302,0.00369579,0.00142012,0.00039292,0.00000293,
 0.00000408,0.00000474,0.00000456,-0.00000576,0.00000233,-0.00000835,0.
 00000571,-0.00000474,0.00000147,-0.00000240,-0.00000583,-0.00001071,0.
 00000448,0.00000339,0.00001600,0.00000245,-0.00001221,-0.00002216,-0.0
 0000546,0.00000657,0.00000096,0.00000072,0.00000197,-0.00044225,0.0008
 7631,0.00029176,0.00096379,-0.00100382,0.00100747,-0.00053306,0.000000
 03,-0.00003490,-0.00012304,0.00003487,0.00011963,-0.00145805,0.0075114
 1,-0.01118490,0.04177859,-0.10391615,0.26379463,-0.00040581,0.00022913
 ,-0.00008994,-0.00179748,0.00043581,-0.00117971,0.00008665,-0.00004137
 ,0.00003279,0.00179976,-0.00083438,0.00026241,0.00316047,-0.00022204,0
 .00344603,-0.00012467,0.00004569,-0.00032482,0.00072011,0.00056545,-0.
 00050140,-0.00696112,-0.01745003,0.03541532,-0.00248265,0.00592053,-0.
 01296338,-0.00016887,-0.00007577,-0.00008708,-0.06138094,0.02393927,-0
 .05448941,-0.00326492,0.00847506,-0.01663293,0.00002078,-0.00004721,0.
 00010919,0.00002799,0.00011076,0.00014852,0.00002388,-0.00000624,-0.00
 002386,0.00002747,-0.00005585,-0.00005318,-0.00003844,0.00001194,-0.00
 002677,-0.00028998,-0.00019132,-0.00035321,-0.00017895,0.00002591,-0.0
 0004202,0.00008358,0.00010546,-0.00015766,0.00011112,-0.00007360,0.000
 11309,-0.00022506,-0.00030077,0.00017224,-0.00086263,-0.00212129,-0.00
 156469,0.00060546,-0.00019359,0.00076111,-0.00003742,0.00002458,0.0000
 0027,0.00007738,-0.00004726,0.00007723,0.07255243,-0.00008842,0.000553
 73,0.00011404,0.00080121,0.00046917,-0.00092713,0.00005493,-0.00000046
 ,0.00000495,-0.00096683,0.00224391,-0.00140819,0.00097815,0.00018702,0
 .00294389,-0.00005472,-0.00016400,-0.00012588,0.00103328,0.00080005,0.
 00007249,-0.00668606,-0.00351643,0.00890942,-0.00524142,0.00891301,-0.
 02214953,-0.00019499,-0.00033335,-0.00032848,0.02289589,-0.09181249,0.
 08763682,0.00772247,-0.01356072,0.02671389,0.00002764,-0.00012850,-0.0
 0005614,-0.00004927,-0.00015255,-0.00016334,-0.00001403,-0.00003986,0.
 00002200,0.00000824,-0.00002189,-0.00002123,-0.00000767,-0.00000925,-0
 .00000728,-0.00011765,-0.00024307,-0.00015596,-0.00008705,0.00000641,0
 .00000148,-0.00002067,0.00003222,-0.00007450,0.00025863,-0.00010780,0.
 00013861,-0.00004742,-0.00015582,0.00035151,-0.00265183,-0.00243822,-0
 .00313362,0.00064588,0.00103465,0.00061139,0.00001122,0.00010403,0.000
 02208,-0.00010167,-0.00013138,0.00008701,-0.02052861,0.10125636,0.0004
 3886,-0.00030669,0.00003628,-0.00264449,-0.00152774,0.00162385,-0.0000
 3688,0.00007317,-0.00003513,-0.00147228,-0.00041763,0.00065936,-0.0029
 7720,-0.00097853,-0.00325748,0.00015845,0.00013988,0.00010321,0.000442
 98,0.00047268,0.00030997,0.01009754,0.00999045,-0.01543619,-0.00517845
 ,0.00622274,-0.01761276,-0.00008827,-0.00002450,0.00003603,-0.04728713
 ,0.09002551,-0.25210986,0.00131484,-0.00213733,0.00399941,-0.00006911,
 0.00000050,-0.00004556,0.00037145,-0.00010896,-0.00011785,0.00000068,-
 0.00002418,-0.00005775,-0.00001549,0.00003091,0.00004162,0.00004389,-0
 .00002240,0.00000873,0.00020637,0.00021439,0.00030179,0.00016746,0.000
 01760,-0.00001198,0.00004331,-0.00005305,0.00009797,0.00005773,-0.0002
 5125,0.00034055,-0.00049199,-0.00014433,0.00050003,-0.00141743,-0.0022
 2920,-0.00108693,0.00052446,0.00014304,0.00070440,-0.00000834,0.000045
 63,0.00001300,0.00007020,0.00000855,-0.00011502,0.04684893,-0.09859772
 ,0.27977842,-0.00002627,0.00014207,0.00002408,0.00014293,-0.00012492,0
 .00000243,0.00005226,0.00004671,-0.00001202,-0.02518526,-0.02730587,-0
 .02014715,-0.00136091,0.00003992,-0.00023009,0.00000561,-0.00019389,0.
 00001425,-0.00074058,-0.00032371,-0.00027225,0.00149644,-0.00206882,-0
 .00111936,-0.00293329,0.00340023,0.00021149,-0.00341460,0.00039174,0.0
 0523881,0.01115099,0.01270990,0.01299475,-0.08571488,-0.06354628,-0.06
 288285,-0.00000165,-0.00002900,-0.00001760,0.00000439,-0.00000892,-0.0
 0000918,0.00001216,-0.00001177,0.00000749,-0.00000113,0.00000513,0.000
 00555,0.00002180,-0.00001909,-0.00001098,-0.00292577,0.00061348,0.0003
 5221,0.00000568,0.00001563,0.00000170,-0.00000545,0.00000746,0.0000065
 4,0.00023429,-0.00020680,-0.00007647,0.00010330,-0.00001626,-0.0000141
 5,-0.00007526,-0.00009270,-0.00004971,0.00057123,0.00109446,0.00073642
 ,-0.00094409,-0.00139064,-0.00082435,0.00009788,0.00019048,-0.00007334
 ,0.00070429,-0.00086764,-0.00037658,0.10925333,-0.00000002,-0.00008556
 ,-0.00008343,0.00004050,0.00024341,0.00011562,-0.00011050,-0.00010314,
 0.00006398,-0.00928164,-0.00599063,-0.00365124,-0.00020443,-0.00089473
 ,-0.00060192,0.00002955,0.00045412,0.00016314,0.00024662,0.00032769,-0
 .00014860,0.00056560,0.00129199,0.00063627,0.00435480,-0.00295515,0.00
 082362,0.00021339,0.00133158,0.00229259,-0.01216345,-0.01787944,-0.018
 03445,-0.06845374,-0.16916968,-0.11226835,0.00001405,0.00001324,0.0000
 2420,-0.00002038,0.00003781,0.00001450,-0.00000929,0.00003711,0.000007
 34,0.00000427,0.00000979,0.00000912,-0.00003367,0.00004684,0.00001964,
 0.00011950,0.00090150,0.00035679,0.00003942,0.00000137,-0.00002556,-0.
 00000691,-0.00001715,0.00001839,-0.00007830,-0.00004402,-0.00001521,-0
 .00006081,-0.00001339,0.00008342,-0.00001190,0.00009933,-0.00016219,-0
 .00073478,-0.00108328,-0.00101643,-0.00022315,-0.00015143,-0.00035001,
 -0.00008904,-0.00000996,-0.00035815,-0.00043836,0.00111935,0.00041960,
 0.08021610,0.18202034,0.00001853,0.00000293,-0.00008395,0.00006502,0.0
 0027542,0.00005095,-0.00006103,-0.00006663,0.00005530,0.00965188,0.012
 44544,0.01152240,-0.00027445,-0.00131295,-0.00060576,0.00002315,0.0002
 9138,0.00007995,0.00034011,0.00031378,0.00001920,0.00059331,0.00027135
 ,0.00010976,0.00090973,-0.00090289,0.00079051,0.00204259,0.00086786,-0
 .00057961,-0.00155906,0.00040986,-0.00078877,-0.07249247,-0.11781542,-
 0.16574088,0.00001379,-0.00000377,0.00001087,-0.00001483,0.00002058,0.
 00000878,-0.00001088,0.00002878,0.00000741,0.00000138,0.00001271,0.000
 00749,-0.00001948,0.00003287,0.00001578,-0.00019838,0.00047957,0.00064
 736,0.00001641,0.00000474,-0.00001477,-0.00000655,-0.00000933,0.000007
 60,-0.00013858,0.00005379,-0.00000661,-0.00001619,-0.00002444,0.000003
 87,0.00013795,0.00026286,0.00042244,-0.00032216,-0.00039903,0.00005539
 ,0.00036190,0.00018717,0.00046690,0.00024111,0.00001207,0.00044558,0.0
 0055330,-0.00016065,0.00052748,0.07069958,0.12339425,0.16850924,0.0001
 2534,-0.00010156,0.00000141,-0.00029044,-0.00008455,0.00006631,-0.0000
 1669,-0.00002190,0.00000196,-0.00978957,-0.02028761,0.03528953,0.00001
 520,-0.00012271,-0.00011741,-0.00003410,0.00006294,-0.00004279,-0.0003
 9571,-0.00019673,-0.00046507,0.00193824,-0.00069257,-0.00023257,0.0003
 3726,-0.00128346,-0.00030356,0.00360847,0.00170563,0.00525405,-0.00333
 061,0.00992080,-0.01833218,-0.05606490,0.01730734,-0.04342605,-0.00001
 133,0.00000845,-0.00000770,0.00003665,-0.00002780,-0.00001474,-0.00001
 523,0.00000814,-0.00000940,0.00000344,0.00000334,-0.00000218,-0.000012
 74,0.00000917,0.00001038,0.00010761,0.00003051,0.00001268,-0.00002132,
 -0.00000411,0.00000589,0.00000915,-0.00000757,0.00001010,0.00020682,-0
 .00016105,-0.00014754,-0.00013528,0.00009228,-0.00003720,0.00030216,-0
 .00003706,0.00053506,-0.00007894,-0.00019814,0.00021143,0.00002279,0.0
 0025552,-0.00017286,0.00021041,0.00086447,-0.00125554,-0.00184818,0.00
 327747,0.00129688,-0.00054084,0.00608784,-0.01054959,0.06568300,-0.000
 12485,0.00011150,-0.00001043,0.00030126,0.00010958,-0.00012058,0.00000
 038,-0.00000147,0.00001691,-0.00728085,-0.00261281,0.00901338,-0.00008
 094,-0.00032364,0.00006697,0.00002675,0.00006497,0.00004547,-0.0001318
 7,-0.00026321,-0.00022573,-0.00150732,0.00212631,-0.00122607,-0.000063
 83,0.00133598,0.00150491,0.00103644,0.00034323,0.00235425,0.00705202,-
 0.01449273,0.02686647,0.01741310,-0.09535552,0.08696517,0.00001010,-0.
 00000704,0.00000763,-0.00006442,0.00003016,0.00000739,0.00000980,-0.00
 000363,0.00000929,-0.00000503,0.00000179,0.00000143,0.00000409,0.00000
 270,-0.00000350,0.00007037,-0.00003055,0.00006653,0.00001910,0.0000021
 1,-0.00000717,0.00000964,-0.00000260,-0.00000261,-0.00002533,-0.000053
 68,-0.00004792,0.00004906,0.00011780,-0.00005311,-0.00016624,-0.000266
 14,-0.00079996,0.00002159,0.00038651,-0.00037646,-0.00003715,0.0000830
 2,-0.00026519,-0.00016262,-0.00011600,-0.00041634,0.00268525,-0.003903
 90,-0.00096751,-0.00266486,0.01045802,-0.01867575,-0.01640741,0.102258
 49,0.00004836,-0.00005355,-0.00001217,-0.00002638,0.00006969,-0.000059
 92,-0.00003212,-0.00004115,0.00002403,0.01242981,0.00982320,-0.0151879
 3,0.00007326,-0.00004551,0.00012848,-0.00002364,0.00011880,-0.00001443
 ,0.00033665,0.00002302,0.00010277,-0.00160464,-0.00067636,0.00109717,0
 .00028322,-0.00047535,0.00087515,-0.00191981,-0.00264713,0.00100048,0.
 00100754,-0.00154091,0.00038749,-0.04041612,0.08964732,-0.24457060,0.0
 0000898,0.00000580,0.00001272,-0.00000362,0.00000936,0.00001220,-0.000
 00715,0.00001250,-0.00000202,0.00000197,-0.00000121,-0.00000596,-0.000
 01977,0.00001560,0.00000775,0.00000365,0.00016537,-0.00001927,-0.00001
 828,-0.00001026,0.00000569,-0.00001893,-0.00000028,0.00000843,-0.00001
 954,0.00014961,0.00003698,-0.00013987,-0.00000029,-0.00017828,0.000350
 94,0.00027879,0.00023982,-0.00007463,0.00004667,0.00013766,0.00025319,
 -0.00008848,0.00042975,0.00069094,0.00094938,0.00082312,0.00061695,-0.
 00029874,0.00073269,-0.00417832,0.00827659,-0.01593646,0.03240708,-0.1
 0371468,0.26992678,-0.00844899,0.02478258,0.00559015,-0.00658933,0.001
 04106,0.00421467,-0.00376436,0.00565187,0.00141260,-0.00008795,0.00000
 178,0.00000394,0.00111941,-0.00131442,0.00155387,0.00083322,0.00015625
 ,-0.00154695,0.00000418,-0.00001425,-0.00002918,-0.00054605,-0.0000995
 3,-0.00034100,-0.00003801,0.00003347,0.00002164,0.00002063,0.00000970,
 0.00002747,0.00024666,0.00004445,-0.00010218,0.00004802,-0.00004299,0.
 00001129,-0.09372766,0.09159753,0.03377600,0.00074198,-0.00026115,-0.0
 0108265,0.00086264,-0.00030811,0.00008347,0.00007208,-0.00007053,0.000
 29487,0.00028223,-0.00027626,-0.00027371,-0.00000630,0.00013521,-0.000
 17204,-0.00007169,0.00032319,0.00017915,0.00008029,0.00031935,0.000250
 18,-0.00001650,-0.00000550,0.00000169,-0.00000087,0.00000080,0.0000037
 7,-0.00000785,-0.00000613,-0.00001229,0.00000283,-0.00000521,-0.000001
 05,-0.00000789,-0.00000123,-0.00000102,0.00000031,0.00000002,-0.000005
 76,0.00002822,0.00002787,-0.00000553,0.00001321,-0.00001115,-0.0000047
 7,-0.00001074,0.00000757,-0.00000780,0.09909119,-0.00279062,0.00592215
 ,0.00173145,-0.00172080,0.00169590,0.00138744,0.00690066,-0.01522972,-
 0.00646253,0.00005823,-0.00000256,-0.00000432,-0.00092794,-0.00027604,
 0.00055280,0.00067331,-0.00074879,0.00453193,-0.00000018,0.00001030,0.
 00002225,0.00032672,0.00011349,-0.00012325,0.00003178,-0.00000672,-0.0
 0003559,-0.00001269,-0.00000540,-0.00001707,-0.00015021,-0.00003626,0.
 00008034,-0.00002093,0.00002679,-0.00000252,0.09358702,-0.24431314,-0.
 07157078,0.00052943,0.00037798,-0.00043677,0.00071697,0.00013520,-0.00
 029692,0.00001985,0.00092020,0.00003901,-0.00054289,0.00029238,-0.0002
 9777,0.00005947,0.00008747,-0.00018642,-0.00024195,0.00032096,0.000062
 58,0.00094708,-0.00090428,-0.00053105,0.00001147,0.00000395,-0.0000011
 8,0.00000042,-0.00000014,-0.00000242,0.00000037,-0.00000140,0.00000341
 ,-0.00000494,0.00000065,-0.00000012,0.00000509,0.00000035,0.00000053,0
 .00000020,-0.00000044,0.00000357,0.00001034,0.00000604,-0.00001058,-0.
 00000425,0.00000654,0.00000529,0.00000548,-0.00000212,0.00000420,-0.10
 333017,0.26405242,0.00320879,-0.01618710,-0.00490107,0.00597726,-0.000
 94164,-0.00155035,-0.01242954,0.02414862,0.00950118,0.00002367,-0.0000
 0167,-0.00000198,-0.00018884,0.00112520,-0.00188204,-0.00106294,0.0028
 5068,-0.00477939,-0.00000472,-0.00000042,0.00000561,0.00022615,-0.0000
 8239,0.00040792,-0.00000254,-0.00002175,0.00001791,-0.00000710,-0.0000
 0095,-0.00000834,-0.00007662,0.00001114,-0.00001989,-0.00002598,0.0000
 1324,0.00000749,0.03500686,-0.07186314,-0.07271800,-0.00014818,0.00027
 010,0.00066904,-0.00084341,0.00017811,0.00008318,0.00018654,-0.0008936
 9,0.00118517,0.00062699,-0.00082250,0.00105604,-0.00006643,-0.00023182
 ,0.00022243,0.00011538,0.00008634,0.00003872,-0.00090608,0.00137265,0.
 00049580,0.00000426,0.00000188,0.00000025,0.00000028,-0.00000055,-0.00
 000166,0.00000835,0.00000790,0.00000881,-0.00000133,-0.00000013,-0.000
 00148,0.00000271,-0.00000048,-0.00000014,-0.00000002,-0.00000032,0.000
 00201,-0.00003415,-0.00002948,0.00003485,-0.00000420,0.00000180,-0.000
 00355,0.00000764,-0.00000785,0.00000250,-0.03775547,0.07584905,0.07821
 128,-0.02128752,-0.01584421,-0.01597124,0.00286141,0.00076039,-0.00052
 175,-0.00468952,-0.00301429,-0.00424689,-0.00004341,0.00000453,0.00000
 699,-0.00026496,-0.00011559,-0.00004193,-0.00007623,-0.00049342,0.0000
 1680,0.00000151,0.00000710,-0.00001711,-0.00005902,0.00022742,-0.00000
 931,0.00000842,-0.00001366,0.00001766,0.00000701,-0.00000244,0.0000139
 3,0.00021519,-0.00000100,-0.00000555,0.00002254,-0.00001649,-0.0000160
 8,-0.16038808,-0.07878897,-0.09925007,-0.00383907,-0.00093010,0.003475
 76,0.00135415,0.00047561,0.00009999,0.00075616,0.00081922,-0.00097003,
 0.00057683,0.00037337,0.00011953,-0.00007733,0.00003579,-0.00001585,-0
 .00021065,0.00036655,0.00001423,0.00012198,0.00014058,0.00009316,-0.00
 000906,-0.00000336,0.00000024,-0.00000002,-0.00000007,0.00000238,-0.00
 000746,0.00000774,-0.00000589,0.00001435,0.00002276,0.00001636,-0.0000
 0539,0.00000207,0.00000070,-0.00000011,0.00000064,-0.00000310,0.000037
 52,-0.00001694,-0.00001486,0.00000018,-0.00000010,-0.00000132,-0.00000
 995,0.00000619,-0.00000192,0.00987710,0.00586367,0.00816266,0.17511346
 ,-0.00505505,-0.00626662,-0.00492238,0.00060225,0.00184187,0.00051636,
 0.01372186,0.00889576,0.01203278,-0.00003066,-0.00000087,0.00000301,0.
 00019912,-0.00032439,0.00048390,0.00015409,0.00146217,0.00020042,0.000
 00107,-0.00000413,-0.00001412,-0.00028210,0.00008631,-0.00016508,-0.00
 000836,-0.00000138,0.00001547,0.00000693,0.00000020,0.00001041,0.00015
 800,-0.00002243,-0.00009062,0.00001885,-0.00000600,-0.00000596,-0.0805
 3026,-0.10811808,-0.07262626,-0.00130196,0.00090419,0.00147720,0.00016
 098,0.00001733,-0.00005760,0.00142588,-0.00161263,0.00330143,-0.000373
 89,0.00078594,-0.00084513,-0.00002885,0.00004521,-0.00007381,-0.000318
 77,-0.00017806,-0.00013911,-0.00028963,0.00009679,-0.00006314,-0.00000
 731,-0.00000268,0.00000075,-0.00000066,0.00000003,0.00000160,-0.000006
 15,0.00000503,-0.00000281,0.00000793,0.00000822,0.00000915,-0.00000363
 ,0.00000061,0.00000035,-0.00000009,0.00000031,-0.00000239,0.00004252,-
 0.00000627,-0.00000305,0.00000211,-0.00000250,-0.00000185,-0.00000516,
 0.00000287,-0.00000198,-0.01838607,-0.01244575,-0.01483083,0.09012697,
 0.11483894,0.01454214,0.01031581,0.01075736,-0.00206941,0.00059959,0.0
 0059185,-0.01796552,-0.01252438,-0.01832311,-0.00002594,0.00000455,0.0
 0000119,0.00010123,0.00019281,-0.00012112,0.00070506,-0.00115264,0.000
 89999,-0.00000050,-0.00000933,-0.00000332,-0.00017280,-0.00015695,0.00
 009519,-0.00001461,0.00000963,0.00000706,0.00000557,0.00000506,0.00000
 417,0.00003745,0.00009905,-0.00003884,-0.00000421,-0.00002116,0.000031
 07,-0.10058413,-0.07343683,-0.13578616,0.00376793,0.00038205,-0.001284
 74,-0.00090142,-0.00010792,0.00109329,-0.00114189,0.00405831,-0.003428
 80,0.00063007,-0.00047119,0.00086887,-0.00010303,-0.00003883,0.0000676
 7,-0.00011797,0.00060494,0.00046955,0.00037491,0.00016926,0.00011211,-
 0.00000160,-0.00000096,0.00000071,-0.00000107,-0.00000006,0.00000078,0
 .00000577,-0.00000336,0.00000296,-0.00001056,-0.00001236,-0.00001390,-
 0.00000073,-0.00000159,-0.00000055,-0.00000001,-0.00000027,-0.00000099
 ,-0.00003317,0.00000828,0.00003687,0.00000332,-0.00000530,-0.00000389,
 0.00000600,-0.00000497,-0.00000460,-0.00608336,-0.00429455,-0.00608230
 ,0.10905250,0.07579332,0.15005165\\-0.00000220,-0.00000155,0.00000627,
 -0.00000310,0.00000223,-0.00001485,-0.00000134,0.00000744,-0.00000344,
 0.00000060,-0.00000424,-0.00000305,0.00036713,-0.00079380,0.00025164,0
 .00000003,0.00000687,-0.00000358,0.00000109,-0.00000289,-0.00000314,-0
 .00039173,0.00093634,-0.00019699,0.00036390,-0.00058649,0.00038287,-0.
 00000104,-0.00000147,0.00000493,-0.00033123,0.00043541,-0.00041651,-0.
 00000184,0.00000041,0.00000804,0.00000332,0.00000082,-0.00000247,0.000
 00243,0.00000080,-0.00000236,0.00000106,-0.00000383,-0.00000365,0.0000
 0010,0.00000668,0.00000057,-0.00000121,0.00000651,0.00000064,-0.000002
 36,-0.00000479,-0.00000134,0.00000012,-0.00000002,0.00000361,-0.000002
 41,0.00000393,0.00000518,-0.00000013,-0.00000071,-0.00000238,0.0000020
 8,-0.00000399,-0.00000296,0.00000017,0.00000206,-0.00000182,0.00000091
 ,0.00000158,-0.00000516,-0.00000082,-0.00000497,-0.00000050,-0.0000005
 3,-0.00000053,0.00000153,-0.00000147,-0.00000283,-0.00000042,-0.000001
 17,-0.00000131,0.00000262,-0.00000171,-0.00000064,0.00000351,0.0000019
 9,0.00000160,-0.00000372,-0.00000064,0.00000139,-0.00000308\\\@


 ... FOR AFTERWARDS A MAN FINDS PLEASURE IN HIS PAINS,
 WHEN HE HAS SUFFERED LONG AND WANDERED FAR.

                                    -- HOMER
 Job cpu time:       0 days 14 hours  5 minutes 34.4 seconds.
 Elapsed time:       0 days  0 hours 52 minutes 52.2 seconds.
 File lengths (MBytes):  RWF=    688 Int=      0 D2E=      0 Chk=     33 Scr=      1
 Normal termination of Gaussian 16 at Sun Nov  4 22:55:25 2018.
