 Entering Gaussian System, Link 0=g16
 Initial command:
 /apps/gaussian/g16a03/g16/l1.exe "/jobfs/local/2012073.r-man2/Gau-30972.inp" -scrdir="/jobfs/local/2012073.r-man2/"
 Entering Link 1 = /apps/gaussian/g16a03/g16/l1.exe PID=     30973.
  
 Copyright (c) 1988,1990,1992,1993,1995,1998,2003,2009,2016,
            Gaussian, Inc.  All Rights Reserved.
  
 This is part of the Gaussian(R) 16 program.  It is based on
 the Gaussian(R) 09 system (copyright 2009, Gaussian, Inc.),
 the Gaussian(R) 03 system (copyright 2003, Gaussian, Inc.),
 the Gaussian(R) 98 system (copyright 1998, Gaussian, Inc.),
 the Gaussian(R) 94 system (copyright 1995, Gaussian, Inc.),
 the Gaussian 92(TM) system (copyright 1992, Gaussian, Inc.),
 the Gaussian 90(TM) system (copyright 1990, Gaussian, Inc.),
 the Gaussian 88(TM) system (copyright 1988, Gaussian, Inc.),
 the Gaussian 86(TM) system (copyright 1986, Carnegie Mellon
 University), and the Gaussian 82(TM) system (copyright 1983,
 Carnegie Mellon University). Gaussian is a federally registered
 trademark of Gaussian, Inc.
  
 This software contains proprietary and confidential information,
 including trade secrets, belonging to Gaussian, Inc.
  
 This software is provided under written license and may be
 used, copied, transmitted, or stored only in accord with that
 written license.
  
 The following legend is applicable only to US Government
 contracts under FAR:
  
                    RESTRICTED RIGHTS LEGEND
  
 Use, reproduction and disclosure by the US Government is
 subject to restrictions as set forth in subparagraphs (a)
 and (c) of the Commercial Computer Software - Restricted
 Rights clause in FAR 52.227-19.
  
 Gaussian, Inc.
 340 Quinnipiac St., Bldg. 40, Wallingford CT 06492
  
  
 ---------------------------------------------------------------
 Warning -- This program may not be used in any manner that
 competes with the business of Gaussian, Inc. or will provide
 assistance to any competitor of Gaussian, Inc.  The licensee
 of this program is prohibited from giving any competitor of
 Gaussian, Inc. access to this program.  By using this program,
 the user acknowledges that Gaussian, Inc. is engaged in the
 business of creating and licensing software in the field of
 computational chemistry and represents and warrants to the
 licensee that it is not a competitor of Gaussian, Inc. and that
 it will not use this program in any manner prohibited above.
 ---------------------------------------------------------------
  

 Cite this work as:
 Gaussian 16, Revision A.03,
 M. J. Frisch, G. W. Trucks, H. B. Schlegel, G. E. Scuseria, 
 M. A. Robb, J. R. Cheeseman, G. Scalmani, V. Barone, 
 G. A. Petersson, H. Nakatsuji, X. Li, M. Caricato, A. V. Marenich, 
 J. Bloino, B. G. Janesko, R. Gomperts, B. Mennucci, H. P. Hratchian, 
 J. V. Ortiz, A. F. Izmaylov, J. L. Sonnenberg, D. Williams-Young, 
 F. Ding, F. Lipparini, F. Egidi, J. Goings, B. Peng, A. Petrone, 
 T. Henderson, D. Ranasinghe, V. G. Zakrzewski, J. Gao, N. Rega, 
 G. Zheng, W. Liang, M. Hada, M. Ehara, K. Toyota, R. Fukuda, 
 J. Hasegawa, M. Ishida, T. Nakajima, Y. Honda, O. Kitao, H. Nakai, 
 T. Vreven, K. Throssell, J. A. Montgomery, Jr., J. E. Peralta, 
 F. Ogliaro, M. J. Bearpark, J. J. Heyd, E. N. Brothers, K. N. Kudin, 
 V. N. Staroverov, T. A. Keith, R. Kobayashi, J. Normand, 
 K. Raghavachari, A. P. Rendell, J. C. Burant, S. S. Iyengar, 
 J. Tomasi, M. Cossi, J. M. Millam, M. Klene, C. Adamo, R. Cammi, 
 J. W. Ochterski, R. L. Martin, K. Morokuma, O. Farkas, 
 J. B. Foresman, and D. J. Fox, Gaussian, Inc., Wallingford CT, 2016.
 
 ******************************************
 Gaussian 16:  ES64L-G16RevA.03 25-Dec-2016
                 4-Nov-2018 
 ******************************************
 %mem=6000mb
 %nproc=24
 Will use up to   24 processors via shared memory.
 %chk=L_a1-e4_D_PSI.inp_extract_19.chk
 ----------------------------------------------------------------------
 #M062X/6-311++G(2d,2p) opt=ModRedundant freq=noraman SCRF=(Solvent=Wat
 er)
 ----------------------------------------------------------------------
 1/18=120,19=15,26=3,38=1/1,3;
 2/9=110,12=2,17=6,18=5,40=1/2;
 3/5=4,6=6,7=1212,11=2,25=1,30=1,70=2201,71=1,72=1,74=-55/1,2,3;
 4//1;
 5/5=2,38=5,53=1/2;
 6/7=2,8=2,9=2,10=2,28=1/1;
 7//1,2,3,16;
 1/18=20,19=15,26=3/3(2);
 2/9=110/2;
 99//99;
 2/9=110/2;
 3/5=4,6=6,7=1212,11=2,25=1,30=1,70=2205,71=1,72=1,74=-55/1,2,3;
 4/5=5,16=3,69=1/1;
 5/5=2,38=5,53=1/2;
 7//1,2,3,16;
 1/18=20,19=15,26=3/3(-5);
 2/9=110/2;
 6/7=2,8=2,9=2,10=2,19=2,28=1/1;
 99/9=1/99;
 ----------------------------
 L_a1-e4_D_PSI.inp_extract_19
 ----------------------------
 Symbolic Z-matrix:
 Charge =  0 Multiplicity = 1
 C                    -2.3       1.31462   0.68845 
 O                    -1.64208   1.16643  -0.56286 
 C                    -3.18756  -1.011     0.47127 
 O                     3.30592  -1.0997    0.25165 
 C                    -1.25095  -0.1387   -0.90131 
 C                    -2.43557  -1.09304  -0.85785 
 C                     3.03878   1.21668  -0.38346 
 O                    -0.25111  -0.6103   -0.0442 
 C                     1.52163   1.09619  -0.20979 
 C                     3.76282   0.2174    0.50264 
 C                     1.09748  -0.35803  -0.39336 
 C                     1.92872  -1.2695    0.50028 
 C                    -3.54357   0.44527   0.76955 
 H                    -1.61007   1.0708    1.48917 
 H                    -2.54517   2.36497   0.76422 
 H                    -2.57248  -1.40918   1.27402 
 H                    -4.08356  -1.62234   0.42555 
 H                    -0.8564   -0.06386  -1.90461 
 H                    -3.10415  -0.81628  -1.66859 
 H                    -2.08255  -2.09945  -1.0552 
 H                     3.36715   2.22182  -0.13664 
 H                     3.30962   1.0324   -1.42016 
 H                     1.23776   1.42016   0.78895 
 H                     1.01133   1.73642  -0.9196 
 H                     4.82643   0.21216   0.30761 
 H                     3.60741   0.45181   1.55336 
 H                     1.24906  -0.65316  -1.42819 
 H                     1.69783  -2.30719   0.30334 
 H                     1.71421  -1.05679   1.54506 
 H                    -3.98285   0.54655   1.75793 
 H                    -4.27619   0.80044   0.04847 
 
 The following ModRedundant input section has been read:
 D       5       8      11       9 F                                           
 

 GradGradGradGradGradGradGradGradGradGradGradGradGradGradGradGradGradGrad
 Berny optimization.
 Initialization pass.
                           ----------------------------
                           !    Initial Parameters    !
                           ! (Angstroms and Degrees)  !
 --------------------------                            --------------------------
 ! Name  Definition              Value          Derivative Info.                !
 --------------------------------------------------------------------------------
 ! R1    R(1,2)                  1.4215         estimate D2E/DX2                !
 ! R2    R(1,13)                 1.5195         estimate D2E/DX2                !
 ! R3    R(1,14)                 1.0847         estimate D2E/DX2                !
 ! R4    R(1,15)                 1.0812         estimate D2E/DX2                !
 ! R5    R(2,5)                  1.4039         estimate D2E/DX2                !
 ! R6    R(3,6)                  1.5293         estimate D2E/DX2                !
 ! R7    R(3,13)                 1.5285         estimate D2E/DX2                !
 ! R8    R(3,16)                 1.0869         estimate D2E/DX2                !
 ! R9    R(3,17)                 1.0857         estimate D2E/DX2                !
 ! R10   R(4,10)                 1.4165         estimate D2E/DX2                !
 ! R11   R(4,12)                 1.4097         estimate D2E/DX2                !
 ! R12   R(5,6)                  1.5218         estimate D2E/DX2                !
 ! R13   R(5,8)                  1.3988         estimate D2E/DX2                !
 ! R14   R(5,18)                 1.0807         estimate D2E/DX2                !
 ! R15   R(6,19)                 1.0867         estimate D2E/DX2                !
 ! R16   R(6,20)                 1.0846         estimate D2E/DX2                !
 ! R17   R(7,9)                  1.5318         estimate D2E/DX2                !
 ! R18   R(7,10)                 1.5192         estimate D2E/DX2                !
 ! R19   R(7,21)                 1.0858         estimate D2E/DX2                !
 ! R20   R(7,22)                 1.0872         estimate D2E/DX2                !
 ! R21   R(8,11)                 1.4157         estimate D2E/DX2                !
 ! R22   R(9,11)                 1.5259         estimate D2E/DX2                !
 ! R23   R(9,23)                 1.0877         estimate D2E/DX2                !
 ! R24   R(9,24)                 1.0836         estimate D2E/DX2                !
 ! R25   R(10,25)                1.0814         estimate D2E/DX2                !
 ! R26   R(10,26)                1.0877         estimate D2E/DX2                !
 ! R27   R(11,12)                1.5233         estimate D2E/DX2                !
 ! R28   R(11,27)                1.0867         estimate D2E/DX2                !
 ! R29   R(12,28)                1.0811         estimate D2E/DX2                !
 ! R30   R(12,29)                1.0876         estimate D2E/DX2                !
 ! R31   R(13,30)                1.0863         estimate D2E/DX2                !
 ! R32   R(13,31)                1.0876         estimate D2E/DX2                !
 ! A1    A(2,1,13)             111.4781         estimate D2E/DX2                !
 ! A2    A(2,1,14)             109.3894         estimate D2E/DX2                !
 ! A3    A(2,1,15)             105.5401         estimate D2E/DX2                !
 ! A4    A(13,1,14)            110.6435         estimate D2E/DX2                !
 ! A5    A(13,1,15)            111.4985         estimate D2E/DX2                !
 ! A6    A(14,1,15)            108.1098         estimate D2E/DX2                !
 ! A7    A(1,2,5)              115.9823         estimate D2E/DX2                !
 ! A8    A(6,3,13)             109.5864         estimate D2E/DX2                !
 ! A9    A(6,3,16)             110.1194         estimate D2E/DX2                !
 ! A10   A(6,3,17)             109.817          estimate D2E/DX2                !
 ! A11   A(13,3,16)            109.6766         estimate D2E/DX2                !
 ! A12   A(13,3,17)            110.6388         estimate D2E/DX2                !
 ! A13   A(16,3,17)            106.9703         estimate D2E/DX2                !
 ! A14   A(10,4,12)            113.3195         estimate D2E/DX2                !
 ! A15   A(2,5,6)              111.053          estimate D2E/DX2                !
 ! A16   A(2,5,8)              111.3978         estimate D2E/DX2                !
 ! A17   A(2,5,18)             105.1389         estimate D2E/DX2                !
 ! A18   A(6,5,8)              109.1152         estimate D2E/DX2                !
 ! A19   A(6,5,18)             110.7399         estimate D2E/DX2                !
 ! A20   A(8,5,18)             109.3448         estimate D2E/DX2                !
 ! A21   A(3,6,5)              111.9589         estimate D2E/DX2                !
 ! A22   A(3,6,19)             109.403          estimate D2E/DX2                !
 ! A23   A(3,6,20)             111.5889         estimate D2E/DX2                !
 ! A24   A(5,6,19)             107.3317         estimate D2E/DX2                !
 ! A25   A(5,6,20)             108.8642         estimate D2E/DX2                !
 ! A26   A(19,6,20)            107.5066         estimate D2E/DX2                !
 ! A27   A(9,7,10)             110.7428         estimate D2E/DX2                !
 ! A28   A(9,7,21)             110.2771         estimate D2E/DX2                !
 ! A29   A(9,7,22)             109.9683         estimate D2E/DX2                !
 ! A30   A(10,7,21)            109.4006         estimate D2E/DX2                !
 ! A31   A(10,7,22)            109.0231         estimate D2E/DX2                !
 ! A32   A(21,7,22)            107.3556         estimate D2E/DX2                !
 ! A33   A(5,8,11)             118.0138         estimate D2E/DX2                !
 ! A34   A(7,9,11)             109.6716         estimate D2E/DX2                !
 ! A35   A(7,9,23)             109.8264         estimate D2E/DX2                !
 ! A36   A(7,9,24)             110.2249         estimate D2E/DX2                !
 ! A37   A(11,9,23)            108.7704         estimate D2E/DX2                !
 ! A38   A(11,9,24)            110.6942         estimate D2E/DX2                !
 ! A39   A(23,9,24)            107.6144         estimate D2E/DX2                !
 ! A40   A(4,10,7)             110.7646         estimate D2E/DX2                !
 ! A41   A(4,10,25)            106.3077         estimate D2E/DX2                !
 ! A42   A(4,10,26)            108.9936         estimate D2E/DX2                !
 ! A43   A(7,10,25)            111.516          estimate D2E/DX2                !
 ! A44   A(7,10,26)            110.7066         estimate D2E/DX2                !
 ! A45   A(25,10,26)           108.4093         estimate D2E/DX2                !
 ! A46   A(8,11,9)             113.8872         estimate D2E/DX2                !
 ! A47   A(8,11,12)            105.5758         estimate D2E/DX2                !
 ! A48   A(8,11,27)            108.6223         estimate D2E/DX2                !
 ! A49   A(9,11,12)            110.3649         estimate D2E/DX2                !
 ! A50   A(9,11,27)            109.5485         estimate D2E/DX2                !
 ! A51   A(12,11,27)           108.6653         estimate D2E/DX2                !
 ! A52   A(4,12,11)            110.9505         estimate D2E/DX2                !
 ! A53   A(4,12,28)            106.9847         estimate D2E/DX2                !
 ! A54   A(4,12,29)            109.7892         estimate D2E/DX2                !
 ! A55   A(11,12,28)           110.5424         estimate D2E/DX2                !
 ! A56   A(11,12,29)           109.8107         estimate D2E/DX2                !
 ! A57   A(28,12,29)           108.6986         estimate D2E/DX2                !
 ! A58   A(1,13,3)             110.1241         estimate D2E/DX2                !
 ! A59   A(1,13,30)            109.0363         estimate D2E/DX2                !
 ! A60   A(1,13,31)            109.2126         estimate D2E/DX2                !
 ! A61   A(3,13,30)            111.1341         estimate D2E/DX2                !
 ! A62   A(3,13,31)            109.7939         estimate D2E/DX2                !
 ! A63   A(30,13,31)           107.4809         estimate D2E/DX2                !
 ! D1    D(13,1,2,5)           -57.3409         estimate D2E/DX2                !
 ! D2    D(14,1,2,5)            65.351          estimate D2E/DX2                !
 ! D3    D(15,1,2,5)          -178.5514         estimate D2E/DX2                !
 ! D4    D(2,1,13,3)            54.7019         estimate D2E/DX2                !
 ! D5    D(2,1,13,30)          176.8859         estimate D2E/DX2                !
 ! D6    D(2,1,13,31)          -65.9366         estimate D2E/DX2                !
 ! D7    D(14,1,13,3)          -67.2682         estimate D2E/DX2                !
 ! D8    D(14,1,13,30)          54.9158         estimate D2E/DX2                !
 ! D9    D(14,1,13,31)         172.0933         estimate D2E/DX2                !
 ! D10   D(15,1,13,3)          172.3742         estimate D2E/DX2                !
 ! D11   D(15,1,13,30)         -65.4418         estimate D2E/DX2                !
 ! D12   D(15,1,13,31)          51.7357         estimate D2E/DX2                !
 ! D13   D(1,2,5,6)             55.313          estimate D2E/DX2                !
 ! D14   D(1,2,5,8)            -66.5374         estimate D2E/DX2                !
 ! D15   D(1,2,5,18)           175.1305         estimate D2E/DX2                !
 ! D16   D(13,3,6,5)            52.1682         estimate D2E/DX2                !
 ! D17   D(13,3,6,19)          -66.6843         estimate D2E/DX2                !
 ! D18   D(13,3,6,20)          174.4758         estimate D2E/DX2                !
 ! D19   D(16,3,6,5)           -68.5599         estimate D2E/DX2                !
 ! D20   D(16,3,6,19)          172.5876         estimate D2E/DX2                !
 ! D21   D(16,3,6,20)           53.7478         estimate D2E/DX2                !
 ! D22   D(17,3,6,5)           173.8967         estimate D2E/DX2                !
 ! D23   D(17,3,6,19)           55.0441         estimate D2E/DX2                !
 ! D24   D(17,3,6,20)          -63.7957         estimate D2E/DX2                !
 ! D25   D(6,3,13,1)           -52.9113         estimate D2E/DX2                !
 ! D26   D(6,3,13,30)         -173.8464         estimate D2E/DX2                !
 ! D27   D(6,3,13,31)           67.3772         estimate D2E/DX2                !
 ! D28   D(16,3,13,1)           68.0849         estimate D2E/DX2                !
 ! D29   D(16,3,13,30)         -52.8502         estimate D2E/DX2                !
 ! D30   D(16,3,13,31)        -171.6265         estimate D2E/DX2                !
 ! D31   D(17,3,13,1)         -174.1453         estimate D2E/DX2                !
 ! D32   D(17,3,13,30)          64.9196         estimate D2E/DX2                !
 ! D33   D(17,3,13,31)         -53.8567         estimate D2E/DX2                !
 ! D34   D(12,4,10,7)          -60.4221         estimate D2E/DX2                !
 ! D35   D(12,4,10,25)         178.2717         estimate D2E/DX2                !
 ! D36   D(12,4,10,26)          61.6121         estimate D2E/DX2                !
 ! D37   D(10,4,12,11)          60.8336         estimate D2E/DX2                !
 ! D38   D(10,4,12,28)        -178.5145         estimate D2E/DX2                !
 ! D39   D(10,4,12,29)         -60.7298         estimate D2E/DX2                !
 ! D40   D(2,5,6,3)            -52.1813         estimate D2E/DX2                !
 ! D41   D(2,5,6,19)            67.8888         estimate D2E/DX2                !
 ! D42   D(2,5,6,20)          -176.0304         estimate D2E/DX2                !
 ! D43   D(8,5,6,3)             70.991          estimate D2E/DX2                !
 ! D44   D(8,5,6,19)          -168.939          estimate D2E/DX2                !
 ! D45   D(8,5,6,20)           -52.8582         estimate D2E/DX2                !
 ! D46   D(18,5,6,3)          -168.6038         estimate D2E/DX2                !
 ! D47   D(18,5,6,19)          -48.5338         estimate D2E/DX2                !
 ! D48   D(18,5,6,20)           67.5471         estimate D2E/DX2                !
 ! D49   D(2,5,8,11)           -89.1523         estimate D2E/DX2                !
 ! D50   D(6,5,8,11)           147.8811         estimate D2E/DX2                !
 ! D51   D(18,5,8,11)           26.6232         estimate D2E/DX2                !
 ! D52   D(10,7,9,11)          -51.8927         estimate D2E/DX2                !
 ! D53   D(10,7,9,23)           67.5889         estimate D2E/DX2                !
 ! D54   D(10,7,9,24)         -174.0097         estimate D2E/DX2                !
 ! D55   D(21,7,9,11)         -173.1299         estimate D2E/DX2                !
 ! D56   D(21,7,9,23)          -53.6483         estimate D2E/DX2                !
 ! D57   D(21,7,9,24)           64.753          estimate D2E/DX2                !
 ! D58   D(22,7,9,11)           68.6675         estimate D2E/DX2                !
 ! D59   D(22,7,9,23)         -171.8509         estimate D2E/DX2                !
 ! D60   D(22,7,9,24)          -53.4496         estimate D2E/DX2                !
 ! D61   D(9,7,10,4)            55.2777         estimate D2E/DX2                !
 ! D62   D(9,7,10,25)          173.4596         estimate D2E/DX2                !
 ! D63   D(9,7,10,26)          -65.7485         estimate D2E/DX2                !
 ! D64   D(21,7,10,4)          177.0311         estimate D2E/DX2                !
 ! D65   D(21,7,10,25)         -64.787          estimate D2E/DX2                !
 ! D66   D(21,7,10,26)          56.0049         estimate D2E/DX2                !
 ! D67   D(22,7,10,4)          -65.8429         estimate D2E/DX2                !
 ! D68   D(22,7,10,25)          52.339          estimate D2E/DX2                !
 ! D69   D(22,7,10,26)         173.1308         estimate D2E/DX2                !
 ! D70   D(5,8,11,9)            72.7699         Frozen                          !
 ! D71   D(5,8,11,12)         -165.9944         estimate D2E/DX2                !
 ! D72   D(5,8,11,27)          -49.6013         estimate D2E/DX2                !
 ! D73   D(7,9,11,8)           170.4857         estimate D2E/DX2                !
 ! D74   D(7,9,11,12)           51.9543         estimate D2E/DX2                !
 ! D75   D(7,9,11,27)          -67.6536         estimate D2E/DX2                !
 ! D76   D(23,9,11,8)           50.3585         estimate D2E/DX2                !
 ! D77   D(23,9,11,12)         -68.1729         estimate D2E/DX2                !
 ! D78   D(23,9,11,27)         172.2193         estimate D2E/DX2                !
 ! D79   D(24,9,11,8)          -67.6778         estimate D2E/DX2                !
 ! D80   D(24,9,11,12)         173.7908         estimate D2E/DX2                !
 ! D81   D(24,9,11,27)          54.183          estimate D2E/DX2                !
 ! D82   D(8,11,12,4)         -179.4974         estimate D2E/DX2                !
 ! D83   D(8,11,12,28)          61.9798         estimate D2E/DX2                !
 ! D84   D(8,11,12,29)         -57.9465         estimate D2E/DX2                !
 ! D85   D(9,11,12,4)          -56.0017         estimate D2E/DX2                !
 ! D86   D(9,11,12,28)        -174.5245         estimate D2E/DX2                !
 ! D87   D(9,11,12,29)          65.5492         estimate D2E/DX2                !
 ! D88   D(27,11,12,4)          64.1388         estimate D2E/DX2                !
 ! D89   D(27,11,12,28)        -54.3841         estimate D2E/DX2                !
 ! D90   D(27,11,12,29)       -174.3104         estimate D2E/DX2                !
 --------------------------------------------------------------------------------
 Trust Radius=3.00D-01 FncErr=1.00D-07 GrdErr=1.00D-06 EigMax=2.50D+02 EigMin=1.00D-04
 Number of steps in this run=    186 maximum allowed number of steps=    186.
 GradGradGradGradGradGradGradGradGradGradGradGradGradGradGradGradGradGrad

                          Input orientation:                          
 ---------------------------------------------------------------------
 Center     Atomic      Atomic             Coordinates (Angstroms)
 Number     Number       Type             X           Y           Z
 ---------------------------------------------------------------------
      1          6           0       -2.300001    1.314616    0.688446
      2          8           0       -1.642075    1.166426   -0.562855
      3          6           0       -3.187560   -1.011004    0.471271
      4          8           0        3.305919   -1.099698    0.251652
      5          6           0       -1.250947   -0.138697   -0.901309
      6          6           0       -2.435567   -1.093038   -0.857853
      7          6           0        3.038778    1.216676   -0.383456
      8          8           0       -0.251110   -0.610299   -0.044200
      9          6           0        1.521634    1.096194   -0.209794
     10          6           0        3.762818    0.217402    0.502641
     11          6           0        1.097483   -0.358034   -0.393359
     12          6           0        1.928724   -1.269503    0.500284
     13          6           0       -3.543569    0.445267    0.769553
     14          1           0       -1.610069    1.070803    1.489166
     15          1           0       -2.545169    2.364969    0.764221
     16          1           0       -2.572475   -1.409180    1.274016
     17          1           0       -4.083562   -1.622338    0.425551
     18          1           0       -0.856402   -0.063861   -1.904609
     19          1           0       -3.104153   -0.816275   -1.668593
     20          1           0       -2.082552   -2.099447   -1.055201
     21          1           0        3.367154    2.221821   -0.136639
     22          1           0        3.309620    1.032397   -1.420159
     23          1           0        1.237759    1.420159    0.788953
     24          1           0        1.011327    1.736418   -0.919604
     25          1           0        4.826429    0.212163    0.307607
     26          1           0        3.607410    0.451814    1.553357
     27          1           0        1.249055   -0.653158   -1.428186
     28          1           0        1.697832   -2.307185    0.303339
     29          1           0        1.714210   -1.056792    1.545061
     30          1           0       -3.982848    0.546549    1.757926
     31          1           0       -4.276189    0.800435    0.048474
 ---------------------------------------------------------------------
                    Distance matrix (angstroms):
                    1          2          3          4          5
     1  C    0.000000
     2  O    1.421471   0.000000
     3  C    2.498687   2.863414   0.000000
     4  O    6.119317   5.502852   6.497797   0.000000
     5  C    2.395820   1.403880   2.528906   4.797694   0.000000
     6  C    2.864649   2.412847   1.529311   5.847710   1.521834
     7  C    5.446203   4.684559   6.667863   2.416674   4.528460
     8  O    2.905172   2.315284   3.008158   3.602707   1.398827
     9  C    3.931849   3.184123   5.203906   2.866801   3.112933
    10  C    6.164104   5.590062   7.058167   1.416511   5.218785
    11  C    3.938395   3.139727   4.419904   2.417291   2.412726
    12  C    4.959354   4.451362   5.122892   1.409723   3.654243
    13  C    1.519476   2.431267   1.528542   7.040641   2.896361
    14  H    1.084714   2.054497   2.803303   5.514477   2.703004
    15  H    1.081245   2.003301   3.449011   6.819228   3.273736
    16  H    2.799321   3.297497   1.086864   5.974657   2.844750
    17  H    3.446143   3.836015   1.085651   7.409981   3.462002
    18  H    3.272325   1.982723   3.460662   4.800764   1.080684
    19  H    3.277650   2.700265   2.150324   6.697514   2.117123
    20  H    3.839715   3.332019   2.176205   5.634091   2.135367
    21  H    5.798313   5.136915   7.333825   3.344699   5.242482
    22  H    5.999476   5.027148   7.068688   2.709390   4.737028
    23  H    3.540761   3.191427   5.059143   3.303885   3.388315
    24  H    3.705217   2.737280   5.207064   3.831520   2.938414
    25  H    7.221250   6.596201   8.108449   2.008995   6.206374
    26  H    6.032413   5.704920   7.034370   2.047565   5.475191
    27  H    4.576906   3.523963   4.839374   2.692943   2.606200
    28  H    5.408181   4.896044   5.057207   2.011626   3.853416
    29  H    4.740386   4.544299   5.018214   2.051411   3.952187
    30  H    2.136747   3.354026   2.171160   7.622671   3.873548
    31  H    2.139922   2.728778   2.155268   7.819217   3.306984
                    6          7          8          9         10
     6  C    0.000000
     7  C    5.960561   0.000000
     8  O    2.380529   3.778399   0.000000
     9  C    4.568606   1.531796   2.466204   0.000000
    10  C    6.479828   1.519194   4.134700   2.510527   0.000000
    11  C    3.638465   2.499687   1.415716   1.525903   2.870183
    12  C    4.574135   2.862569   2.341514   2.503289   2.361100
    13  C    2.498500   6.726945   3.551999   5.199914   7.314811
    14  H    3.297295   5.013958   2.650299   3.562959   5.528964
    15  H    3.821119   5.815170   3.842977   4.370055   6.668671
    16  H    2.159527   6.413150   2.786510   5.023974   6.586101
    17  H    2.154802   7.709878   3.991563   6.261973   8.059545
    18  H    2.156076   4.373341   2.031279   3.142162   5.216431
    19  H    1.086694   6.596974   3.289519   5.213783   7.275853
    20  H    1.084631   6.138073   2.567852   4.890500   6.477886
    21  H    6.721608   1.085848   4.595790   2.162945   2.140777
    22  H    6.151491   1.087229   4.155780   2.160080   2.136999
    23  H    4.745677   2.158615   2.652100   1.087674   2.811498
    24  H    4.459901   2.160589   2.804846   1.083573   3.449767
    25  H    7.469835   2.163865   5.155736   3.459897   1.081358
    26  H    6.687157   2.158611   4.309112   2.806134   1.087706
    27  H    3.754359   2.791209   2.041507   2.149188   3.287092
    28  H    4.461783   3.832417   2.607409   3.446352   3.267633
    29  H    4.795410   3.262256   2.566630   2.784232   2.628118
    30  H    3.453205   7.371419   4.302537   5.871401   7.853625
    31  H    2.791874   7.339521   4.266148   5.811104   8.072907
                   11         12         13         14         15
    11  C    0.000000
    12  C    1.523265   0.000000
    13  C    4.851497   5.740987   0.000000
    14  H    3.593927   4.356372   2.155820   0.000000
    15  H    4.692936   5.770162   2.163813   1.753517   0.000000
    16  H    4.165770   4.569350   2.153249   2.668863   3.808522
    17  H    5.395582   6.023094   2.164468   3.808209   4.287186
    18  H    2.487585   3.872210   3.825078   3.656937   3.984194
    19  H    4.414743   5.499027   2.780131   3.970490   4.043682
    20  H    3.685536   4.381629   3.455411   4.092374   4.843069
    21  H    3.445717   3.829373   7.192734   5.361048   5.982274
    22  H    2.807342   3.300563   7.218432   5.715679   6.389508
    23  H    2.139979   2.791961   4.879743   2.953383   3.899208
    24  H    2.161269   3.448661   5.026669   3.621731   3.984847
    25  H    3.836863   3.260238   8.385976   6.600140   7.693083
    26  H    3.278001   2.624858   7.193809   5.254460   6.491312
    27  H    1.086710   2.135609   5.385707   4.433686   5.320890
    28  H    2.155225   1.081149   5.938487   4.874341   6.328072
    29  H    2.150834   1.087576   5.522847   3.947229   5.519100
    30  H    5.590712   6.310815   1.086327   2.444822   2.522107
    31  H    5.514854   6.556655   1.087580   3.042513   2.440592
                   16         17         18         19         20
    16  H    0.000000
    17  H    1.746056   0.000000
    18  H    3.854666   4.274700   0.000000
    19  H    3.048469   2.448350   2.382061   0.000000
    20  H    2.478254   2.534620   2.523598   1.751128   0.000000
    21  H    7.103049   8.402784   5.117469   7.311274   7.015441
    22  H    6.915122   8.069288   4.334999   6.679505   6.246372
    23  H    4.770569   6.140465   3.720632   5.467483   5.178127
    24  H    5.248847   6.248886   2.774824   4.900449   4.929943
    25  H    7.635868   9.097650   6.104478   8.237547   7.411802
    26  H    6.460055   8.045191   5.670015   7.552092   6.759377
    27  H    4.741050   5.728216   2.237677   4.362892   3.651092
    28  H    4.470363   5.823098   4.053597   5.400962   4.022448
    29  H    4.309676   5.931889   4.415222   5.796727   4.718463
    30  H    2.459308   2.547437   4.854011   3.790835   4.304196
    31  H    3.047457   2.459496   4.031933   2.633579   3.799929
                   21         22         23         24         25
    21  H    0.000000
    22  H    1.750846   0.000000
    23  H    2.456360   3.053382   0.000000
    24  H    2.529540   2.455270   1.752272   0.000000
    25  H    2.523007   2.441038   3.817002   4.287704   0.000000
    26  H    2.459011   3.044266   2.671563   3.808594   1.759356
    27  H    3.797360   2.662159   3.035536   2.454637   4.069320
    28  H    4.846866   4.089146   3.786896   4.279907   4.016871
    29  H    4.038520   3.962647   2.633247   3.790863   3.581542
    30  H    7.772930   7.969715   5.381156   5.790228   8.934126
    31  H    7.776586   7.730148   5.597856   5.456287   9.125287
                   26         27         28         29         30
    26  H    0.000000
    27  H    3.958838   0.000000
    28  H    3.580658   2.436265   0.000000
    29  H    2.420778   3.036361   1.762278   0.000000
    30  H    7.593605   6.242068   6.521483   5.922203   0.000000
    31  H    8.033514   5.900998   6.738782   6.447786   1.752921
                   31
    31  H    0.000000
 Stoichiometry    C10H18O3
 Framework group  C1[X(C10H18O3)]
 Deg. of freedom    87
 Full point group                 C1      NOp   1
 Largest Abelian subgroup         C1      NOp   1
 Largest concise Abelian subgroup C1      NOp   1
                         Standard orientation:                         
 ---------------------------------------------------------------------
 Center     Atomic      Atomic             Coordinates (Angstroms)
 Number     Number       Type             X           Y           Z
 ---------------------------------------------------------------------
      1          6           0        2.300001    1.314616   -0.688446
      2          8           0        1.642075    1.166426    0.562855
      3          6           0        3.187560   -1.011004   -0.471271
      4          8           0       -3.305919   -1.099698   -0.251652
      5          6           0        1.250947   -0.138697    0.901309
      6          6           0        2.435567   -1.093038    0.857853
      7          6           0       -3.038778    1.216676    0.383456
      8          8           0        0.251110   -0.610299    0.044200
      9          6           0       -1.521634    1.096194    0.209794
     10          6           0       -3.762818    0.217402   -0.502641
     11          6           0       -1.097483   -0.358034    0.393359
     12          6           0       -1.928724   -1.269503   -0.500284
     13          6           0        3.543569    0.445267   -0.769553
     14          1           0        1.610069    1.070803   -1.489166
     15          1           0        2.545169    2.364969   -0.764221
     16          1           0        2.572475   -1.409180   -1.274016
     17          1           0        4.083562   -1.622338   -0.425551
     18          1           0        0.856402   -0.063861    1.904609
     19          1           0        3.104153   -0.816275    1.668593
     20          1           0        2.082552   -2.099447    1.055201
     21          1           0       -3.367154    2.221821    0.136639
     22          1           0       -3.309620    1.032397    1.420159
     23          1           0       -1.237759    1.420159   -0.788953
     24          1           0       -1.011327    1.736418    0.919604
     25          1           0       -4.826429    0.212163   -0.307607
     26          1           0       -3.607410    0.451814   -1.553357
     27          1           0       -1.249055   -0.653158    1.428186
     28          1           0       -1.697832   -2.307185   -0.303339
     29          1           0       -1.714210   -1.056792   -1.545061
     30          1           0        3.982848    0.546549   -1.757926
     31          1           0        4.276189    0.800435   -0.048474
 ---------------------------------------------------------------------
 Rotational constants (GHZ):           1.9254147           0.4076019           0.3743616
 Standard basis: 6-311++G(2d,2p) (5D, 7F)
 There are   557 symmetry adapted cartesian basis functions of A   symmetry.
 There are   531 symmetry adapted basis functions of A   symmetry.
   531 basis functions,   762 primitive gaussians,   557 cartesian basis functions
    51 alpha electrons       51 beta electrons
       nuclear repulsion energy       892.0905479484 Hartrees.
 NAtoms=   31 NActive=   31 NUniq=   31 SFac= 1.00D+00 NAtFMM=   60 NAOKFM=F Big=F
 Integral buffers will be    131072 words long.
 Raffenetti 2 integral format.
 Two-electron integral symmetry is turned on.
 ------------------------------------------------------------------------------
 Polarizable Continuum Model (PCM)
 =================================
 Model                : PCM.
 Atomic radii         : UFF (Universal Force Field).
 Polarization charges : Total charges.
 Charge compensation  : None.
 Solution method      : On-the-fly selection.
 Cavity type          : Scaled VdW (van der Waals Surface) (Alpha=1.100).
 Cavity algorithm     : GePol (No added spheres)
                        Default sphere list used, NSphG=   31.
                        Lebedev-Laikov grids with approx.  5.0 points / Ang**2.
                        Smoothing algorithm: York/Karplus (Gamma=1.0000).
                        Polarization charges: spherical gaussians, with
                                              point-specific exponents (IZeta= 3).
                        Self-potential: point-specific (ISelfS= 7).
                        Self-field    : sphere-specific E.n sum rule (ISelfD= 2).
 1st derivatives      : Analytical E(r).r(x)/FMM algorithm (CHGder, D1EAlg=3).
                        Cavity 1st derivative terms included.
 Solvent              : Water, Eps=  78.355300 Eps(inf)=   1.777849
 ------------------------------------------------------------------------------
 One-electron integrals computed using PRISM.
 NBasis=   531 RedAO= T EigKep=  5.12D-06  NBF=   531
 NBsUse=   531 1.00D-06 EigRej= -1.00D+00 NBFU=   531
 ExpMin= 3.60D-02 ExpMax= 8.59D+03 ExpMxC= 1.30D+03 IAcc=3 IRadAn=         5 AccDes= 0.00D+00
 Harris functional with IExCor= 1009 and IRadAn=       5 diagonalized for initial guess.
 HarFok:  IExCor= 1009 AccDes= 0.00D+00 IRadAn=         5 IDoV= 1 UseB2=F ITyADJ=14
 ICtDFT=  3500011 ScaDFX=  1.000000  1.000000  1.000000  1.000000
 FoFCou: FMM=F IPFlag=           0 FMFlag=      100000 FMFlg1=           0
         NFxFlg=           0 DoJE=T BraDBF=F KetDBF=T FulRan=T
         wScrn=  0.000000 ICntrl=       500 IOpCl=  0 I1Cent=   200000004 NGrid=           0
         NMat0=    1 NMatS0=      1 NMatT0=    0 NMatD0=    1 NMtDS0=    0 NMtDT0=    0
 Petite list used in FoFCou.
 Requested convergence on RMS density matrix=1.00D-08 within 128 cycles.
 Requested convergence on MAX density matrix=1.00D-06.
 Requested convergence on             energy=1.00D-06.
 No special actions if energy rises.
 Inv3:  Mode=1 IEnd=    12891987.
 Iteration    1 A*A^-1 deviation from unit magnitude is 4.66D-15 for   2053.
 Iteration    1 A*A^-1 deviation from orthogonality  is 2.13D-15 for   2032    874.
 Iteration    1 A^-1*A deviation from unit magnitude is 4.88D-15 for   2053.
 Iteration    1 A^-1*A deviation from orthogonality  is 6.30D-15 for   2033   2009.
 Error on total polarization charges =  0.01486
 SCF Done:  E(RM062X) =  -617.501340062     A.U. after   12 cycles
            NFock= 12  Conv=0.52D-08     -V/T= 2.0035

 **********************************************************************

            Population analysis using the SCF density.

 **********************************************************************

 Orbital symmetries:
       Occupied  (A) (A) (A) (A) (A) (A) (A) (A) (A) (A) (A) (A)
                 (A) (A) (A) (A) (A) (A) (A) (A) (A) (A) (A) (A)
                 (A) (A) (A) (A) (A) (A) (A) (A) (A) (A) (A) (A)
                 (A) (A) (A) (A) (A) (A) (A) (A) (A) (A) (A) (A)
                 (A) (A) (A)
       Virtual   (A) (A) (A) (A) (A) (A) (A) (A) (A) (A) (A) (A)
                 (A) (A) (A) (A) (A) (A) (A) (A) (A) (A) (A) (A)
                 (A) (A) (A) (A) (A) (A) (A) (A) (A) (A) (A) (A)
                 (A) (A) (A) (A) (A) (A) (A) (A) (A) (A) (A) (A)
                 (A) (A) (A) (A) (A) (A) (A) (A) (A) (A) (A) (A)
                 (A) (A) (A) (A) (A) (A) (A) (A) (A) (A) (A) (A)
                 (A) (A) (A) (A) (A) (A) (A) (A) (A) (A) (A) (A)
                 (A) (A) (A) (A) (A) (A) (A) (A) (A) (A) (A) (A)
                 (A) (A) (A) (A) (A) (A) (A) (A) (A) (A) (A) (A)
                 (A) (A) (A) (A) (A) (A) (A) (A) (A) (A) (A) (A)
                 (A) (A) (A) (A) (A) (A) (A) (A) (A) (A) (A) (A)
                 (A) (A) (A) (A) (A) (A) (A) (A) (A) (A) (A) (A)
                 (A) (A) (A) (A) (A) (A) (A) (A) (A) (A) (A) (A)
                 (A) (A) (A) (A) (A) (A) (A) (A) (A) (A) (A) (A)
                 (A) (A) (A) (A) (A) (A) (A) (A) (A) (A) (A) (A)
                 (A) (A) (A) (A) (A) (A) (A) (A) (A) (A) (A) (A)
                 (A) (A) (A) (A) (A) (A) (A) (A) (A) (A) (A) (A)
                 (A) (A) (A) (A) (A) (A) (A) (A) (A) (A) (A) (A)
                 (A) (A) (A) (A) (A) (A) (A) (A) (A) (A) (A) (A)
                 (A) (A) (A) (A) (A) (A) (A) (A) (A) (A) (A) (A)
                 (A) (A) (A) (A) (A) (A) (A) (A) (A) (A) (A) (A)
                 (A) (A) (A) (A) (A) (A) (A) (A) (A) (A) (A) (A)
                 (A) (A) (A) (A) (A) (A) (A) (A) (A) (A) (A) (A)
                 (A) (A) (A) (A) (A) (A) (A) (A) (A) (A) (A) (A)
                 (A) (A) (A) (A) (A) (A) (A) (A) (A) (A) (A) (A)
                 (A) (A) (A) (A) (A) (A) (A) (A) (A) (A) (A) (A)
                 (A) (A) (A) (A) (A) (A) (A) (A) (A) (A) (A) (A)
                 (A) (A) (A) (A) (A) (A) (A) (A) (A) (A) (A) (A)
                 (A) (A) (A) (A) (A) (A) (A) (A) (A) (A) (A) (A)
                 (A) (A) (A) (A) (A) (A) (A) (A) (A) (A) (A) (A)
                 (A) (A) (A) (A) (A) (A) (A) (A) (A) (A) (A) (A)
                 (A) (A) (A) (A) (A) (A) (A) (A) (A) (A) (A) (A)
                 (A) (A) (A) (A) (A) (A) (A) (A) (A) (A) (A) (A)
                 (A) (A) (A) (A) (A) (A) (A) (A) (A) (A) (A) (A)
                 (A) (A) (A) (A) (A) (A) (A) (A) (A) (A) (A) (A)
                 (A) (A) (A) (A) (A) (A) (A) (A) (A) (A) (A) (A)
                 (A) (A) (A) (A) (A) (A) (A) (A) (A) (A) (A) (A)
                 (A) (A) (A) (A) (A) (A) (A) (A) (A) (A) (A) (A)
                 (A) (A) (A) (A) (A) (A) (A) (A) (A) (A) (A) (A)
                 (A) (A) (A) (A) (A) (A) (A) (A) (A) (A) (A) (A)
 The electronic state is 1-A.
 Alpha  occ. eigenvalues --  -19.63078 -19.62926 -19.62530 -10.63393 -10.58788
 Alpha  occ. eigenvalues --  -10.57928 -10.57827 -10.57533 -10.53076 -10.52946
 Alpha  occ. eigenvalues --  -10.52921 -10.52877 -10.52707  -1.20100  -1.16806
 Alpha  occ. eigenvalues --   -1.13637  -0.90871  -0.89630  -0.87695  -0.84603
 Alpha  occ. eigenvalues --   -0.74949  -0.74068  -0.72969  -0.71275  -0.66076
 Alpha  occ. eigenvalues --   -0.63856  -0.60246  -0.58680  -0.57409  -0.55426
 Alpha  occ. eigenvalues --   -0.54781  -0.53321  -0.52348  -0.50484  -0.50227
 Alpha  occ. eigenvalues --   -0.48413  -0.47877  -0.45993  -0.45195  -0.44140
 Alpha  occ. eigenvalues --   -0.44026  -0.42802  -0.41175  -0.40195  -0.39906
 Alpha  occ. eigenvalues --   -0.38343  -0.37532  -0.36444  -0.34618  -0.33169
 Alpha  occ. eigenvalues --   -0.31956
 Alpha virt. eigenvalues --   -0.00059   0.00761   0.00799   0.01056   0.02186
 Alpha virt. eigenvalues --    0.02487   0.02627   0.03348   0.03515   0.04395
 Alpha virt. eigenvalues --    0.04679   0.04776   0.05510   0.05905   0.06944
 Alpha virt. eigenvalues --    0.07318   0.07640   0.07903   0.08971   0.09001
 Alpha virt. eigenvalues --    0.10308   0.10626   0.11132   0.11586   0.11909
 Alpha virt. eigenvalues --    0.11982   0.12441   0.12779   0.13084   0.13613
 Alpha virt. eigenvalues --    0.13731   0.14242   0.14671   0.14703   0.14908
 Alpha virt. eigenvalues --    0.15226   0.15286   0.15492   0.15736   0.15874
 Alpha virt. eigenvalues --    0.16019   0.16974   0.17080   0.17442   0.17908
 Alpha virt. eigenvalues --    0.18148   0.18305   0.18475   0.19203   0.19346
 Alpha virt. eigenvalues --    0.19953   0.20147   0.20385   0.21089   0.21923
 Alpha virt. eigenvalues --    0.22211   0.22673   0.23373   0.23585   0.23804
 Alpha virt. eigenvalues --    0.25050   0.26062   0.26227   0.26591   0.27035
 Alpha virt. eigenvalues --    0.27334   0.28274   0.28642   0.28875   0.29261
 Alpha virt. eigenvalues --    0.29940   0.30267   0.30867   0.31410   0.31878
 Alpha virt. eigenvalues --    0.32415   0.32655   0.33220   0.34202   0.34295
 Alpha virt. eigenvalues --    0.35097   0.35265   0.35542   0.35704   0.36301
 Alpha virt. eigenvalues --    0.36618   0.36854   0.37240   0.37649   0.37724
 Alpha virt. eigenvalues --    0.38186   0.38857   0.39258   0.39982   0.40547
 Alpha virt. eigenvalues --    0.41058   0.41897   0.43085   0.44458   0.44895
 Alpha virt. eigenvalues --    0.46117   0.46779   0.49010   0.49990   0.50211
 Alpha virt. eigenvalues --    0.50789   0.52834   0.53173   0.54288   0.55533
 Alpha virt. eigenvalues --    0.56665   0.57143   0.57717   0.59168   0.59470
 Alpha virt. eigenvalues --    0.59798   0.60286   0.61347   0.61748   0.61826
 Alpha virt. eigenvalues --    0.62185   0.62624   0.63947   0.64340   0.64459
 Alpha virt. eigenvalues --    0.64868   0.65389   0.66060   0.66232   0.66744
 Alpha virt. eigenvalues --    0.67235   0.67731   0.68859   0.69235   0.70376
 Alpha virt. eigenvalues --    0.70886   0.71370   0.71856   0.72292   0.72484
 Alpha virt. eigenvalues --    0.73664   0.74257   0.74685   0.75540   0.75616
 Alpha virt. eigenvalues --    0.75936   0.76754   0.77269   0.78404   0.79859
 Alpha virt. eigenvalues --    0.80538   0.81745   0.83741   0.85025   0.85411
 Alpha virt. eigenvalues --    0.86516   0.87373   0.87864   0.88535   0.89415
 Alpha virt. eigenvalues --    0.90176   0.91443   0.91721   0.93497   0.95254
 Alpha virt. eigenvalues --    0.97037   0.99077   1.00524   1.00717   1.01760
 Alpha virt. eigenvalues --    1.03026   1.04693   1.05515   1.06242   1.06824
 Alpha virt. eigenvalues --    1.08284   1.09421   1.10261   1.10652   1.11830
 Alpha virt. eigenvalues --    1.12419   1.14411   1.14691   1.16397   1.16696
 Alpha virt. eigenvalues --    1.17523   1.18610   1.18812   1.19268   1.20133
 Alpha virt. eigenvalues --    1.20492   1.21731   1.22073   1.22942   1.23580
 Alpha virt. eigenvalues --    1.24572   1.24984   1.26097   1.27296   1.27774
 Alpha virt. eigenvalues --    1.28716   1.29547   1.30273   1.30719   1.30997
 Alpha virt. eigenvalues --    1.31665   1.32313   1.32570   1.33445   1.34331
 Alpha virt. eigenvalues --    1.35196   1.35852   1.36982   1.37411   1.37834
 Alpha virt. eigenvalues --    1.38870   1.39271   1.39691   1.40294   1.41728
 Alpha virt. eigenvalues --    1.42326   1.43393   1.43920   1.45163   1.45369
 Alpha virt. eigenvalues --    1.45776   1.46464   1.47112   1.47288   1.48000
 Alpha virt. eigenvalues --    1.48643   1.48693   1.49550   1.50975   1.52146
 Alpha virt. eigenvalues --    1.52614   1.53526   1.54463   1.55080   1.55796
 Alpha virt. eigenvalues --    1.56500   1.56700   1.57426   1.58335   1.59396
 Alpha virt. eigenvalues --    1.59991   1.60585   1.61159   1.61450   1.62026
 Alpha virt. eigenvalues --    1.62982   1.64536   1.66117   1.66474   1.67296
 Alpha virt. eigenvalues --    1.67855   1.68826   1.69853   1.71250   1.72104
 Alpha virt. eigenvalues --    1.74182   1.74897   1.75688   1.76836   1.76885
 Alpha virt. eigenvalues --    1.78866   1.80638   1.81063   1.81246   1.83427
 Alpha virt. eigenvalues --    1.85564   1.87542   1.89341   1.94289   2.01589
 Alpha virt. eigenvalues --    2.02195   2.07033   2.13386   2.17607   2.21300
 Alpha virt. eigenvalues --    2.24152   2.25912   2.28876   2.33730   2.39246
 Alpha virt. eigenvalues --    2.40791   2.44317   2.45744   2.47161   2.52240
 Alpha virt. eigenvalues --    2.59851   2.76439   2.76638   2.78495   2.81669
 Alpha virt. eigenvalues --    2.83789   2.90097   2.92563   2.93359   2.93783
 Alpha virt. eigenvalues --    2.95794   2.96305   3.00451   3.02019   3.03732
 Alpha virt. eigenvalues --    3.05639   3.07762   3.08543   3.10744   3.12467
 Alpha virt. eigenvalues --    3.12913   3.15607   3.17655   3.19244   3.22249
 Alpha virt. eigenvalues --    3.23197   3.29241   3.31464   3.32685   3.34901
 Alpha virt. eigenvalues --    3.36042   3.36741   3.38627   3.40286   3.40977
 Alpha virt. eigenvalues --    3.41977   3.43051   3.44273   3.45413   3.46630
 Alpha virt. eigenvalues --    3.48162   3.48695   3.49709   3.51180   3.51394
 Alpha virt. eigenvalues --    3.53189   3.53911   3.55010   3.55531   3.56008
 Alpha virt. eigenvalues --    3.56989   3.57958   3.58353   3.59332   3.60343
 Alpha virt. eigenvalues --    3.60885   3.61197   3.62185   3.63816   3.65580
 Alpha virt. eigenvalues --    3.66048   3.66424   3.68221   3.68775   3.69478
 Alpha virt. eigenvalues --    3.70131   3.71289   3.72043   3.72389   3.73990
 Alpha virt. eigenvalues --    3.74959   3.75402   3.75517   3.76863   3.77962
 Alpha virt. eigenvalues --    3.78672   3.79693   3.79902   3.81578   3.83696
 Alpha virt. eigenvalues --    3.86575   3.87974   3.88811   3.90545   3.91072
 Alpha virt. eigenvalues --    3.92605   3.93822   3.94076   3.95571   3.98542
 Alpha virt. eigenvalues --    3.99524   4.02003   4.02898   4.03813   4.04363
 Alpha virt. eigenvalues --    4.05187   4.05730   4.06509   4.07326   4.07959
 Alpha virt. eigenvalues --    4.08244   4.08587   4.09416   4.09987   4.11293
 Alpha virt. eigenvalues --    4.11674   4.12782   4.14781   4.15102   4.15471
 Alpha virt. eigenvalues --    4.17182   4.18095   4.18776   4.18999   4.20433
 Alpha virt. eigenvalues --    4.21800   4.22926   4.24961   4.25579   4.26513
 Alpha virt. eigenvalues --    4.28161   4.29374   4.30384   4.31521   4.32645
 Alpha virt. eigenvalues --    4.33119   4.33762   4.36384   4.39045   4.39401
 Alpha virt. eigenvalues --    4.41868   4.43729   4.44496   4.46247   4.47455
 Alpha virt. eigenvalues --    4.58456   4.60697   4.74903   4.76711   4.82785
 Alpha virt. eigenvalues --    4.85549   4.92169   4.95419   4.98942   5.00869
 Alpha virt. eigenvalues --    5.06180   5.07214   5.07878   5.08725   5.11599
 Alpha virt. eigenvalues --    5.12511   5.13991   5.14977   5.30639   5.39471
 Alpha virt. eigenvalues --    5.40978   5.57590   5.59236   5.65755   5.87381
 Alpha virt. eigenvalues --    5.87615   6.06607   7.02141   7.04698   7.05785
 Alpha virt. eigenvalues --    7.09497   7.10001   7.13108   7.14255   7.19828
 Alpha virt. eigenvalues --    7.26606   7.36266   7.41254   7.44569   7.53484
 Alpha virt. eigenvalues --    7.55174   7.65591  23.96323  23.96879  24.04961
 Alpha virt. eigenvalues --   24.08907  24.11412  24.12154  24.14490  24.14917
 Alpha virt. eigenvalues --   24.16956  24.21140  50.16770  50.18132  50.25791
          Condensed to atoms (all electrons):
               1          2          3          4          5          6
     1  C    5.494781   0.101193  -0.001983   0.000165  -0.480031   0.210293
     2  O    0.101193   8.217332   0.004123   0.000113   0.278990  -0.039458
     3  C   -0.001983   0.004123   5.541869   0.000739  -0.122757   0.013826
     4  O    0.000165   0.000113   0.000739   8.360195  -0.002763   0.000255
     5  C   -0.480031   0.278990  -0.122757  -0.002763   6.837822  -0.862819
     6  C    0.210293  -0.039458   0.013826   0.000255  -0.862819   6.600583
     7  C   -0.016835   0.025358   0.001920  -0.028395  -0.114888   0.009019
     8  O    0.015057  -0.041747  -0.020437  -0.004416   0.239209  -0.024804
     9  C   -0.019669   0.035072   0.021401  -0.029110   0.151295  -0.053846
    10  C   -0.000155   0.001007  -0.001586   0.112750   0.010925   0.013087
    11  C    0.097658  -0.067515   0.031664   0.009944  -0.667815   0.138624
    12  C   -0.017584  -0.008524  -0.024159   0.150753   0.130679  -0.133807
    13  C   -0.097975  -0.069086   0.023501  -0.000005   0.337553  -0.208210
    14  H    0.478133  -0.030519   0.009330  -0.000023  -0.013449   0.022285
    15  H    0.444444  -0.069993   0.006509   0.000018  -0.000566  -0.008256
    16  H    0.000677   0.001080   0.526590   0.000097  -0.030917  -0.042787
    17  H    0.005435  -0.003330   0.412565   0.000020   0.008598  -0.040829
    18  H   -0.030522  -0.059933  -0.015724  -0.000899   0.501003  -0.084219
    19  H    0.011571  -0.008583  -0.012580  -0.000010  -0.140155   0.521520
    20  H    0.011075   0.009854  -0.043400   0.000338  -0.021833   0.429864
    21  H   -0.000774   0.000886  -0.000192   0.007487  -0.001327   0.000646
    22  H    0.001360  -0.000435   0.000425  -0.000933  -0.005647   0.000656
    23  H    0.000752  -0.007839  -0.001951  -0.000861  -0.006562   0.002657
    24  H    0.005872  -0.009877  -0.000096  -0.000794  -0.002258  -0.012449
    25  H   -0.000339   0.000263  -0.000070  -0.071817  -0.002056   0.000872
    26  H    0.000468  -0.000294   0.000316  -0.041672   0.001392  -0.001230
    27  H    0.002215  -0.002754   0.003802  -0.009703  -0.013645   0.003723
    28  H    0.000719   0.000456   0.003076  -0.072771   0.001945  -0.003005
    29  H    0.003852   0.000451  -0.003433  -0.036365  -0.014940   0.008869
    30  H   -0.033928   0.011198  -0.050208   0.000011  -0.001944   0.002686
    31  H   -0.083955  -0.003960  -0.016312  -0.000014   0.006876  -0.013022
               7          8          9         10         11         12
     1  C   -0.016835   0.015057  -0.019669  -0.000155   0.097658  -0.017584
     2  O    0.025358  -0.041747   0.035072   0.001007  -0.067515  -0.008524
     3  C    0.001920  -0.020437   0.021401  -0.001586   0.031664  -0.024159
     4  O   -0.028395  -0.004416  -0.029110   0.112750   0.009944   0.150753
     5  C   -0.114888   0.239209   0.151295   0.010925  -0.667815   0.130679
     6  C    0.009019  -0.024804  -0.053846   0.013087   0.138624  -0.133807
     7  C    6.292256  -0.016813  -0.484864   0.038954  -0.110425   0.199655
     8  O   -0.016813   8.304594  -0.098939   0.005846   0.151670  -0.157591
     9  C   -0.484864  -0.098939   6.419512  -0.032275  -0.686158   0.144519
    10  C    0.038954   0.005846  -0.032275   5.384589   0.144387  -0.253327
    11  C   -0.110425   0.151670  -0.686158   0.144387   7.044177  -0.458023
    12  C    0.199655  -0.157591   0.144519  -0.253327  -0.458023   6.044287
    13  C    0.002417  -0.020087   0.038970  -0.000722  -0.062276   0.008591
    14  H    0.001204   0.007162   0.001836  -0.000199  -0.014402  -0.003867
    15  H    0.002479  -0.000519   0.000896  -0.000159   0.003387  -0.000020
    16  H   -0.001101  -0.000309   0.000715   0.000077   0.001670   0.001651
    17  H    0.000185   0.000312  -0.000279   0.000076   0.005491  -0.002636
    18  H    0.000368  -0.025339  -0.008618  -0.000679   0.000217   0.026356
    19  H    0.001268   0.011242   0.004001   0.000043   0.000114   0.000301
    20  H   -0.002334  -0.009104  -0.007007   0.000131   0.007397  -0.004272
    21  H    0.451463  -0.001489  -0.041496  -0.034853  -0.013801   0.000453
    22  H    0.469768   0.001065   0.002595  -0.081272  -0.033848   0.008766
    23  H   -0.076527   0.009475   0.472677  -0.000576   0.015452  -0.047166
    24  H   -0.020357  -0.008167   0.393049   0.001837   0.006059   0.010202
    25  H   -0.024684   0.000724  -0.006332   0.427034  -0.003029   0.017504
    26  H   -0.054139  -0.000814   0.003368   0.458590   0.019854  -0.031700
    27  H   -0.033013  -0.030658  -0.027183   0.013006   0.517835  -0.099835
    28  H    0.001658  -0.000671   0.034035   0.002445  -0.068295   0.447017
    29  H   -0.003500   0.005432  -0.025640   0.003719   0.033676   0.345985
    30  H   -0.000547  -0.000350  -0.001446  -0.000175   0.005159  -0.000197
    31  H    0.000427   0.000411   0.000505   0.000126  -0.005238   0.000054
              13         14         15         16         17         18
     1  C   -0.097975   0.478133   0.444444   0.000677   0.005435  -0.030522
     2  O   -0.069086  -0.030519  -0.069993   0.001080  -0.003330  -0.059933
     3  C    0.023501   0.009330   0.006509   0.526590   0.412565  -0.015724
     4  O   -0.000005  -0.000023   0.000018   0.000097   0.000020  -0.000899
     5  C    0.337553  -0.013449  -0.000566  -0.030917   0.008598   0.501003
     6  C   -0.208210   0.022285  -0.008256  -0.042787  -0.040829  -0.084219
     7  C    0.002417   0.001204   0.002479  -0.001101   0.000185   0.000368
     8  O   -0.020087   0.007162  -0.000519  -0.000309   0.000312  -0.025339
     9  C    0.038970   0.001836   0.000896   0.000715  -0.000279  -0.008618
    10  C   -0.000722  -0.000199  -0.000159   0.000077   0.000076  -0.000679
    11  C   -0.062276  -0.014402   0.003387   0.001670   0.005491   0.000217
    12  C    0.008591  -0.003867  -0.000020   0.001651  -0.002636   0.026356
    13  C    5.732655  -0.078363  -0.032951  -0.072626  -0.012038   0.021280
    14  H   -0.078363   0.500901  -0.014710  -0.001890  -0.001373  -0.000850
    15  H   -0.032951  -0.014710   0.485290  -0.002304   0.000853   0.000201
    16  H   -0.072626  -0.001890  -0.002304   0.458680  -0.004072  -0.002077
    17  H   -0.012038  -0.001373   0.000853  -0.004072   0.468185   0.001299
    18  H    0.021280  -0.000850   0.000201  -0.002077   0.001299   0.460277
    19  H   -0.013930  -0.001007   0.000263   0.001986  -0.000789  -0.009967
    20  H   -0.007043  -0.000683   0.001291  -0.002576  -0.010309  -0.011566
    21  H    0.000575  -0.000023   0.000003  -0.000015   0.000003   0.000180
    22  H    0.000127  -0.000191   0.000075  -0.000016   0.000024  -0.000655
    23  H   -0.001775  -0.002135   0.000117   0.000282   0.000125   0.003851
    24  H   -0.000515  -0.000291  -0.000736  -0.000052  -0.000036  -0.008314
    25  H   -0.000069   0.000142  -0.000027  -0.000006   0.000007  -0.000117
    26  H    0.000449   0.000036   0.000054  -0.000051  -0.000010  -0.000482
    27  H   -0.002387   0.001310  -0.000475   0.000482  -0.000137  -0.005221
    28  H   -0.000364   0.000550   0.000150  -0.000603  -0.000012  -0.000033
    29  H    0.002678  -0.003500   0.000242  -0.000975   0.000268  -0.001096
    30  H    0.440371  -0.000330  -0.008714  -0.004359  -0.007387   0.000934
    31  H    0.479895   0.003977  -0.005691   0.001649  -0.001714   0.000959
              19         20         21         22         23         24
     1  C    0.011571   0.011075  -0.000774   0.001360   0.000752   0.005872
     2  O   -0.008583   0.009854   0.000886  -0.000435  -0.007839  -0.009877
     3  C   -0.012580  -0.043400  -0.000192   0.000425  -0.001951  -0.000096
     4  O   -0.000010   0.000338   0.007487  -0.000933  -0.000861  -0.000794
     5  C   -0.140155  -0.021833  -0.001327  -0.005647  -0.006562  -0.002258
     6  C    0.521520   0.429864   0.000646   0.000656   0.002657  -0.012449
     7  C    0.001268  -0.002334   0.451463   0.469768  -0.076527  -0.020357
     8  O    0.011242  -0.009104  -0.001489   0.001065   0.009475  -0.008167
     9  C    0.004001  -0.007007  -0.041496   0.002595   0.472677   0.393049
    10  C    0.000043   0.000131  -0.034853  -0.081272  -0.000576   0.001837
    11  C    0.000114   0.007397  -0.013801  -0.033848   0.015452   0.006059
    12  C    0.000301  -0.004272   0.000453   0.008766  -0.047166   0.010202
    13  C   -0.013930  -0.007043   0.000575   0.000127  -0.001775  -0.000515
    14  H   -0.001007  -0.000683  -0.000023  -0.000191  -0.002135  -0.000291
    15  H    0.000263   0.001291   0.000003   0.000075   0.000117  -0.000736
    16  H    0.001986  -0.002576  -0.000015  -0.000016   0.000282  -0.000052
    17  H   -0.000789  -0.010309   0.000003   0.000024   0.000125  -0.000036
    18  H   -0.009967  -0.011566   0.000180  -0.000655   0.003851  -0.008314
    19  H    0.454904  -0.005390   0.000063   0.000008  -0.000166  -0.000388
    20  H   -0.005390   0.480856  -0.000133   0.000057  -0.000379   0.000818
    21  H    0.000063  -0.000133   0.495559  -0.009261  -0.006771  -0.012379
    22  H    0.000008   0.000057  -0.009261   0.478678  -0.000679  -0.000154
    23  H   -0.000166  -0.000379  -0.006771  -0.000679   0.453503  -0.014877
    24  H   -0.000388   0.000818  -0.012379  -0.000154  -0.014877   0.492481
    25  H    0.000023  -0.000063  -0.008240  -0.004765  -0.000659  -0.000280
    26  H    0.000001   0.000126   0.004612   0.003314  -0.011526   0.002103
    27  H    0.001055  -0.001120  -0.003079  -0.003820   0.005955  -0.004246
    28  H   -0.000505  -0.001268   0.002076  -0.001425  -0.002255  -0.000871
    29  H    0.000284   0.000962  -0.002235   0.002111  -0.002173   0.000342
    30  H   -0.002448   0.001632  -0.000022   0.000022   0.000234   0.000306
    31  H   -0.002056  -0.002145  -0.000007  -0.000029   0.000372  -0.000483
              25         26         27         28         29         30
     1  C   -0.000339   0.000468   0.002215   0.000719   0.003852  -0.033928
     2  O    0.000263  -0.000294  -0.002754   0.000456   0.000451   0.011198
     3  C   -0.000070   0.000316   0.003802   0.003076  -0.003433  -0.050208
     4  O   -0.071817  -0.041672  -0.009703  -0.072771  -0.036365   0.000011
     5  C   -0.002056   0.001392  -0.013645   0.001945  -0.014940  -0.001944
     6  C    0.000872  -0.001230   0.003723  -0.003005   0.008869   0.002686
     7  C   -0.024684  -0.054139  -0.033013   0.001658  -0.003500  -0.000547
     8  O    0.000724  -0.000814  -0.030658  -0.000671   0.005432  -0.000350
     9  C   -0.006332   0.003368  -0.027183   0.034035  -0.025640  -0.001446
    10  C    0.427034   0.458590   0.013006   0.002445   0.003719  -0.000175
    11  C   -0.003029   0.019854   0.517835  -0.068295   0.033676   0.005159
    12  C    0.017504  -0.031700  -0.099835   0.447017   0.345985  -0.000197
    13  C   -0.000069   0.000449  -0.002387  -0.000364   0.002678   0.440371
    14  H    0.000142   0.000036   0.001310   0.000550  -0.003500  -0.000330
    15  H   -0.000027   0.000054  -0.000475   0.000150   0.000242  -0.008714
    16  H   -0.000006  -0.000051   0.000482  -0.000603  -0.000975  -0.004359
    17  H    0.000007  -0.000010  -0.000137  -0.000012   0.000268  -0.007387
    18  H   -0.000117  -0.000482  -0.005221  -0.000033  -0.001096   0.000934
    19  H    0.000023   0.000001   0.001055  -0.000505   0.000284  -0.002448
    20  H   -0.000063   0.000126  -0.001120  -0.001268   0.000962   0.001632
    21  H   -0.008240   0.004612  -0.003079   0.002076  -0.002235  -0.000022
    22  H   -0.004765   0.003314  -0.003820  -0.001425   0.002111   0.000022
    23  H   -0.000659  -0.011526   0.005955  -0.002255  -0.002173   0.000234
    24  H   -0.000280   0.002103  -0.004246  -0.000871   0.000342   0.000306
    25  H    0.477365  -0.010178  -0.000779   0.002143  -0.003208  -0.000016
    26  H   -0.010178   0.504813   0.000259  -0.003075   0.011590   0.000044
    27  H   -0.000779   0.000259   0.449785  -0.009092   0.002026   0.000017
    28  H    0.002143  -0.003075  -0.009092   0.493068  -0.027084   0.000116
    29  H   -0.003208   0.011590   0.002026  -0.027084   0.505163   0.000129
    30  H   -0.000016   0.000044   0.000017   0.000116   0.000129   0.488600
    31  H    0.000008  -0.000022  -0.000029  -0.000058  -0.000089  -0.011970
              31
     1  C   -0.083955
     2  O   -0.003960
     3  C   -0.016312
     4  O   -0.000014
     5  C    0.006876
     6  C   -0.013022
     7  C    0.000427
     8  O    0.000411
     9  C    0.000505
    10  C    0.000126
    11  C   -0.005238
    12  C    0.000054
    13  C    0.479895
    14  H    0.003977
    15  H   -0.005691
    16  H    0.001649
    17  H   -0.001714
    18  H    0.000959
    19  H   -0.002056
    20  H   -0.002145
    21  H   -0.000007
    22  H   -0.000029
    23  H    0.000372
    24  H   -0.000483
    25  H    0.000008
    26  H   -0.000022
    27  H   -0.000029
    28  H   -0.000058
    29  H   -0.000089
    30  H   -0.011970
    31  H    0.484427
 Mulliken charges:
               1
     1  C   -0.101972
     2  O   -0.263528
     3  C   -0.286768
     4  O   -0.342335
     5  C    0.000085
     6  C   -0.450718
     7  C   -0.509976
     8  O   -0.289944
     9  C   -0.201587
    10  C   -0.212651
    11  C   -0.043611
    12  C   -0.294066
    13  C   -0.408642
    14  H    0.140939
    15  H    0.198846
    16  H    0.171100
    17  H    0.181505
    18  H    0.249386
    19  H    0.189327
    20  H    0.186224
    21  H    0.172091
    22  H    0.174082
    23  H    0.219426
    24  H    0.184549
    25  H    0.210647
    26  H    0.143803
    27  H    0.245706
    28  H    0.201936
    29  H    0.196457
    30  H    0.172581
    31  H    0.167106
 Sum of Mulliken charges =  -0.00000
 Mulliken charges with hydrogens summed into heavy atoms:
               1
     1  C    0.237814
     2  O   -0.263528
     3  C    0.065837
     4  O   -0.342335
     5  C    0.249471
     6  C   -0.075167
     7  C   -0.163803
     8  O   -0.289944
     9  C    0.202389
    10  C    0.141799
    11  C    0.202095
    12  C    0.104327
    13  C   -0.068955
 Electronic spatial extent (au):  <R**2>=           3097.5176
 Charge=              0.0000 electrons
 Dipole moment (field-independent basis, Debye):
    X=              1.1721    Y=              0.9739    Z=             -0.3078  Tot=              1.5547
 Quadrupole moment (field-independent basis, Debye-Ang):
   XX=            -77.9724   YY=            -82.3221   ZZ=            -77.6238
   XY=             -8.5395   XZ=             -0.9588   YZ=             -3.3075
 Traceless Quadrupole moment (field-independent basis, Debye-Ang):
   XX=              1.3337   YY=             -3.0160   ZZ=              1.6823
   XY=             -8.5395   XZ=             -0.9588   YZ=             -3.3075
 Octapole moment (field-independent basis, Debye-Ang**2):
  XXX=             21.5511  YYY=             -0.9501  ZZZ=              2.3571  XYY=              4.3617
  XXY=             26.9347  XXZ=             -6.6539  XZZ=             -1.1542  YZZ=             -1.2481
  YYZ=             -2.8211  XYZ=             -4.8556
 Hexadecapole moment (field-independent basis, Debye-Ang**3):
 XXXX=          -3152.6869 YYYY=           -588.8281 ZZZZ=           -313.1193 XXXY=            -97.6622
 XXXZ=              4.3821 YYYX=              8.1724 YYYZ=             -7.2031 ZZZX=              5.1117
 ZZZY=              0.0103 XXYY=           -658.5504 XXZZ=           -581.9158 YYZZ=           -158.3881
 XXYZ=            -16.1710 YYXZ=             -5.3727 ZZXY=              3.1983
 N-N= 8.920905479484D+02 E-N=-3.226004335774D+03  KE= 6.153459509276D+02
 D1PCM: PCM CHGder 1st derivatives, ID1Alg=3 FixD1E=F DoIter=F DoCFld=F I1PDM=0.
 Calling FoFJK, ICntrl=      2127 FMM=F ISym2X=0 I1Cent= 0 IOpClX= 0 NMat=1 NMatS=1 NMatT=0.
 ***** Axes restored to original set *****
 -------------------------------------------------------------------
 Center     Atomic                   Forces (Hartrees/Bohr)
 Number     Number              X              Y              Z
 -------------------------------------------------------------------
      1        6          -0.002229570   -0.005877217   -0.002588486
      2        8           0.001909504    0.008803128   -0.007174249
      3        6           0.001240691    0.003131215   -0.002099502
      4        8           0.005091664   -0.006686518   -0.003210422
      5        6          -0.003319737   -0.000556137    0.006764357
      6        6           0.000551273    0.000103072    0.002572398
      7        6          -0.001223617   -0.000377429    0.002568554
      8        8          -0.001959817   -0.006742023    0.008767450
      9        6           0.003846772   -0.003254687   -0.000996226
     10        6          -0.005801037    0.000340905   -0.003604517
     11        6          -0.002712709    0.003943805    0.003649197
     12        6           0.002844299    0.005464172   -0.003901789
     13        6           0.002302623   -0.001178702    0.000785462
     14        1           0.003736080   -0.002412820    0.004555921
     15        1          -0.001158203    0.004290715    0.000209809
     16        1           0.002873465   -0.000720371    0.002139743
     17        1          -0.002151653   -0.001427367   -0.000169050
     18        1           0.002638604    0.001166873   -0.007528456
     19        1          -0.002152651    0.001420972   -0.002302159
     20        1           0.001217827   -0.002876233   -0.000298368
     21        1           0.000746475    0.002935312    0.000376316
     22        1           0.000780324   -0.001198989   -0.002920016
     23        1          -0.001596637    0.000113060    0.003758380
     24        1          -0.003024974    0.001706307   -0.002230628
     25        1           0.004297257   -0.000011736   -0.000911540
     26        1          -0.001387784    0.002365610    0.005568181
     27        1           0.002423014   -0.001466947   -0.006050847
     28        1          -0.001700920   -0.004298559   -0.001108714
     29        1          -0.002986280    0.002281423    0.005521416
     30        1          -0.001376090   -0.000022347    0.002519998
     31        1          -0.001718193    0.001041511   -0.002662211
 -------------------------------------------------------------------
 Cartesian Forces:  Max     0.008803128 RMS     0.003365896

 GradGradGradGradGradGradGradGradGradGradGradGradGradGradGradGradGradGrad
 Berny optimization.
 FormGI is forming the generalized inverse of G from B-inverse, IUseBI=4.
 Internal  Forces:  Max     0.012131263 RMS     0.002059533
 Search for a local minimum.
 Step number   1 out of a maximum of  186
 All quantities printed in internal units (Hartrees-Bohrs-Radians)
 Mixed Optimization -- RFO/linear search
 Second derivative matrix not updated -- first step.
 ITU=  0
     Eigenvalues ---    0.00627   0.00629   0.00725   0.00740   0.01413
     Eigenvalues ---    0.01455   0.01707   0.02702   0.02730   0.03080
     Eigenvalues ---    0.03162   0.04095   0.04134   0.04535   0.04747
     Eigenvalues ---    0.04862   0.04890   0.05128   0.05139   0.05161
     Eigenvalues ---    0.05260   0.05691   0.05721   0.06157   0.06172
     Eigenvalues ---    0.06393   0.06621   0.06987   0.07591   0.07828
     Eigenvalues ---    0.07844   0.07952   0.08036   0.08137   0.08236
     Eigenvalues ---    0.08821   0.09263   0.09325   0.10879   0.11608
     Eigenvalues ---    0.11626   0.11698   0.11765   0.12404   0.12507
     Eigenvalues ---    0.14575   0.14715   0.16287   0.16489   0.17624
     Eigenvalues ---    0.19168   0.21252   0.21962   0.25000   0.28481
     Eigenvalues ---    0.28646   0.28667   0.28854   0.28946   0.29075
     Eigenvalues ---    0.30269   0.30308   0.35079   0.35083   0.35094
     Eigenvalues ---    0.35094   0.35135   0.35178   0.35196   0.35197
     Eigenvalues ---    0.35241   0.35297   0.35320   0.35431   0.35441
     Eigenvalues ---    0.35566   0.35831   0.35844   0.35856   0.35912
     Eigenvalues ---    0.40864   0.41412   0.42504   0.43112   0.43451
     Eigenvalues ---    0.458151000.000001000.000001000.000001000.00000
     Eigenvalues --- 1000.000001000.000001000.000001000.000001000.00000
     Eigenvalues --- 1000.000001000.000001000.000001000.000001000.00000
     Eigenvalues --- 1000.000001000.000001000.000001000.000001000.00000
     Eigenvalues --- 1000.000001000.000001000.000001000.000001000.00000
     Eigenvalues --- 1000.000001000.000001000.000001000.000001000.00000
     Eigenvalues --- 1000.000001000.000001000.000001000.000001000.00000
     Eigenvalues --- 1000.000001000.000001000.000001000.000001000.00000
     Eigenvalues --- 1000.000001000.000001000.000001000.000001000.00000
     Eigenvalues --- 1000.000001000.000001000.000001000.000001000.00000
     Eigenvalues --- 1000.000001000.000001000.000001000.000001000.00000
     Eigenvalues --- 1000.000001000.000001000.000001000.000001000.00000
     Eigenvalues --- 1000.000001000.000001000.000001000.000001000.00000
     Eigenvalues --- 1000.000001000.000001000.000001000.000001000.00000
     Eigenvalues --- 1000.000001000.000001000.000001000.000001000.00000
     Eigenvalues --- 1000.000001000.000001000.000001000.000001000.00000
     Eigenvalues --- 1000.000001000.000001000.000001000.000001000.00000
     Eigenvalues --- 1000.000001000.000001000.000001000.000001000.00000
     Eigenvalues --- 1000.000001000.000001000.000001000.000001000.00000
     Eigenvalues --- 1000.000001000.000001000.000001000.000001000.00000
 RFO step:  Lambda=-3.53886058D-03 EMin= 6.26726551D-03
 Linear search not attempted -- first point.
 Iteration  1 RMS(Cart)=  0.07365211 RMS(Int)=  0.00106523
 Iteration  2 RMS(Cart)=  0.00294510 RMS(Int)=  0.00005051
 Iteration  3 RMS(Cart)=  0.00000251 RMS(Int)=  0.00005049
 Iteration  4 RMS(Cart)=  0.00000000 RMS(Int)=  0.00005049
 Iteration  1 RMS(Cart)=  0.00000190 RMS(Int)=  0.00000046
 Iteration  2 RMS(Cart)=  0.00000105 RMS(Int)=  0.00000051
 Iteration  3 RMS(Cart)=  0.00000058 RMS(Int)=  0.00000058
 Variable       Old X    -DE/DX   Delta X   Delta X   Delta X     New X
                                 (Linear)    (Quad)   (Total)
    R1        2.68619   0.00268   0.00000   0.00619   0.00620   2.69239
    R2        2.87139   0.00025   0.00000   0.00133   0.00136   2.87275
    R3        2.04981   0.00628   0.00000   0.01755   0.01755   2.06736
    R4        2.04326   0.00444   0.00000   0.01227   0.01227   2.05553
    R5        2.65295   0.00361   0.00000   0.00753   0.00754   2.66049
    R6        2.88998  -0.00141   0.00000  -0.00462  -0.00463   2.88535
    R7        2.88853  -0.00078   0.00000  -0.00193  -0.00194   2.88658
    R8        2.05388   0.00347   0.00000   0.00977   0.00977   2.06365
    R9        2.05158   0.00259   0.00000   0.00726   0.00726   2.05884
   R10        2.67682   0.00373   0.00000   0.00846   0.00849   2.68531
   R11        2.66399   0.00299   0.00000   0.00703   0.00705   2.67104
   R12        2.87585  -0.00042   0.00000  -0.00191  -0.00194   2.87391
   R13        2.64340   0.00317   0.00000   0.00687   0.00687   2.65027
   R14        2.04220   0.00803   0.00000   0.02215   0.02215   2.06435
   R15        2.05355   0.00340   0.00000   0.00957   0.00957   2.06312
   R16        2.04966   0.00312   0.00000   0.00873   0.00873   2.05838
   R17        2.89468  -0.00052   0.00000  -0.00218  -0.00219   2.89248
   R18        2.87086   0.00033   0.00000   0.00108   0.00109   2.87195
   R19        2.05196   0.00303   0.00000   0.00851   0.00851   2.06046
   R20        2.05457   0.00318   0.00000   0.00896   0.00896   2.06353
   R21        2.67532   0.00081   0.00000   0.00187   0.00187   2.67719
   R22        2.88354  -0.00204   0.00000  -0.00656  -0.00658   2.87696
   R23        2.05541   0.00390   0.00000   0.01101   0.01101   2.06642
   R24        2.04766   0.00390   0.00000   0.01085   0.01085   2.05850
   R25        2.04347   0.00439   0.00000   0.01213   0.01213   2.05560
   R26        2.05547   0.00609   0.00000   0.01718   0.01718   2.07265
   R27        2.87855  -0.00063   0.00000  -0.00207  -0.00207   2.87649
   R28        2.05358   0.00650   0.00000   0.01828   0.01828   2.07186
   R29        2.04307   0.00469   0.00000   0.01295   0.01295   2.05602
   R30        2.05522   0.00634   0.00000   0.01788   0.01788   2.07311
   R31        2.05286   0.00285   0.00000   0.00800   0.00800   2.06086
   R32        2.05523   0.00326   0.00000   0.00920   0.00920   2.06443
    A1        1.94566   0.00235   0.00000   0.00633   0.00629   1.95195
    A2        1.90921   0.00001   0.00000   0.00009   0.00015   1.90935
    A3        1.84202  -0.00131   0.00000  -0.00204  -0.00205   1.83997
    A4        1.93109  -0.00146   0.00000  -0.00634  -0.00638   1.92471
    A5        1.94602  -0.00032   0.00000  -0.00208  -0.00202   1.94400
    A6        1.88687   0.00073   0.00000   0.00428   0.00427   1.89114
    A7        2.02427  -0.00567   0.00000  -0.03683  -0.03675   1.98753
    A8        1.91264   0.00189   0.00000  -0.00167  -0.00167   1.91097
    A9        1.92195  -0.00097   0.00000  -0.00623  -0.00623   1.91572
   A10        1.91667  -0.00052   0.00000   0.00178   0.00177   1.91844
   A11        1.91422  -0.00082   0.00000  -0.00159  -0.00169   1.91253
   A12        1.93101  -0.00026   0.00000   0.00220   0.00227   1.93328
   A13        1.86698   0.00062   0.00000   0.00559   0.00560   1.87258
   A14        1.97780  -0.00452   0.00000  -0.02510  -0.02505   1.95275
   A15        1.93824   0.00332   0.00000   0.01237   0.01215   1.95039
   A16        1.94426   0.00030   0.00000  -0.00160  -0.00144   1.94282
   A17        1.83502  -0.00238   0.00000  -0.01223  -0.01223   1.82279
   A18        1.90442  -0.00298   0.00000  -0.01366  -0.01357   1.89085
   A19        1.93278   0.00025   0.00000   0.00553   0.00560   1.93838
   A20        1.90843   0.00158   0.00000   0.01016   0.01014   1.91857
   A21        1.95405  -0.00178   0.00000  -0.01602  -0.01617   1.93788
   A22        1.90944   0.00118   0.00000   0.00702   0.00713   1.91657
   A23        1.94759  -0.00026   0.00000  -0.00137  -0.00146   1.94613
   A24        1.87329   0.00019   0.00000   0.00479   0.00478   1.87807
   A25        1.90004   0.00078   0.00000  -0.00021  -0.00018   1.89986
   A26        1.87634  -0.00003   0.00000   0.00694   0.00690   1.88325
   A27        1.93283  -0.00090   0.00000  -0.00788  -0.00791   1.92491
   A28        1.92470  -0.00033   0.00000   0.00086   0.00088   1.92558
   A29        1.91931   0.00078   0.00000   0.00159   0.00158   1.92088
   A30        1.90940   0.00084   0.00000   0.00523   0.00525   1.91465
   A31        1.90281  -0.00032   0.00000  -0.00239  -0.00240   1.90041
   A32        1.87371  -0.00004   0.00000   0.00293   0.00292   1.87663
   A33        2.05973  -0.01213   0.00000  -0.04785  -0.04785   2.01188
   A34        1.91413   0.00108   0.00000  -0.00123  -0.00126   1.91287
   A35        1.91683   0.00024   0.00000   0.00530   0.00528   1.92212
   A36        1.92379   0.00046   0.00000   0.01157   0.01157   1.93536
   A37        1.89840  -0.00126   0.00000  -0.01000  -0.01000   1.88840
   A38        1.93198  -0.00075   0.00000  -0.00622  -0.00621   1.92577
   A39        1.87823   0.00018   0.00000   0.00041   0.00029   1.87852
   A40        1.93321   0.00189   0.00000   0.00901   0.00902   1.94223
   A41        1.85542  -0.00117   0.00000  -0.00343  -0.00342   1.85200
   A42        1.90230   0.00068   0.00000   0.00657   0.00660   1.90890
   A43        1.94632  -0.00036   0.00000  -0.00294  -0.00295   1.94337
   A44        1.93219  -0.00158   0.00000  -0.01005  -0.01008   1.92211
   A45        1.89210   0.00058   0.00000   0.00125   0.00121   1.89331
   A46        1.98771  -0.00248   0.00000  -0.01634  -0.01632   1.97139
   A47        1.84265   0.00140   0.00000   0.00627   0.00619   1.84884
   A48        1.89582   0.00096   0.00000   0.01512   0.01511   1.91093
   A49        1.92623   0.00018   0.00000  -0.00411  -0.00418   1.92205
   A50        1.91198   0.00049   0.00000   0.00083   0.00088   1.91286
   A51        1.89657  -0.00047   0.00000  -0.00091  -0.00094   1.89562
   A52        1.93645   0.00163   0.00000   0.00688   0.00691   1.94336
   A53        1.86724  -0.00041   0.00000   0.00328   0.00329   1.87053
   A54        1.91618   0.00120   0.00000   0.01194   0.01198   1.92816
   A55        1.92933  -0.00071   0.00000  -0.00654  -0.00660   1.92273
   A56        1.91656  -0.00242   0.00000  -0.01666  -0.01671   1.89985
   A57        1.89715   0.00079   0.00000   0.00174   0.00160   1.89875
   A58        1.92203  -0.00099   0.00000  -0.00489  -0.00510   1.91693
   A59        1.90304   0.00061   0.00000   0.00380   0.00385   1.90689
   A60        1.90612   0.00007   0.00000  -0.00126  -0.00120   1.90492
   A61        1.93966  -0.00051   0.00000  -0.00172  -0.00168   1.93798
   A62        1.91626   0.00086   0.00000   0.00089   0.00097   1.91724
   A63        1.87590  -0.00000   0.00000   0.00339   0.00336   1.87925
    D1       -1.00079   0.00043   0.00000  -0.01526  -0.01513  -1.01592
    D2        1.14059   0.00016   0.00000  -0.01898  -0.01890   1.12169
    D3       -3.11631   0.00031   0.00000  -0.01502  -0.01494  -3.13125
    D4        0.95473   0.00129   0.00000   0.01788   0.01793   0.97266
    D5        3.08724   0.00042   0.00000   0.01510   0.01509   3.10233
    D6       -1.15081   0.00080   0.00000   0.02062   0.02064  -1.13017
    D7       -1.17405   0.00069   0.00000   0.01783   0.01789  -1.15616
    D8        0.95846  -0.00018   0.00000   0.01505   0.01504   0.97351
    D9        3.00359   0.00020   0.00000   0.02056   0.02060   3.02419
   D10        3.00850   0.00097   0.00000   0.01809   0.01814   3.02664
[...]
 2,0.00036023,0.00021863,0.00013077,-0.00008288,-0.00098072,-0.00036692
 ,-0.00000123,0.00000314,0.00000991,0.00001026,0.00000167,-0.00000540,-
 0.00000454,0.00000660,0.00000309,0.00000150,0.00000130,-0.00000134,-0.
 00000485,-0.00000216,0.00000315,0.00000130,0.00000231,-0.00000815,-0.0
 0001150,-0.00000285,-0.00000017,-0.00000188,-0.00000397,0.00000025,0.0
 0061459,-0.00016613,0.00048953,0.00027140,-0.00098095,0.00089374,-0.00
 032868,0.00003706,0.00023576,-0.00093780,-0.00009943,0.00025720,-0.043
 19908,-0.00143837,0.05780429,-0.00001905,0.00001280,0.00001406,0.00005
 704,-0.00001359,-0.00001285,0.00000222,0.00000236,0.00000310,0.0022304
 9,-0.00512286,-0.00890115,-0.00008126,0.00003145,-0.00003837,0.0000048
 3,-0.00000779,0.00000287,0.00319465,-0.00050523,-0.01694195,0.00004832
 ,0.00002690,0.00008308,0.00136330,-0.00064213,-0.00073447,-0.06699115,
 0.00613564,0.05186239,-0.00039867,0.00004538,-0.00005546,0.00209290,-0
 .00063555,-0.00353853,0.00000075,-0.00000228,-0.00000019,-0.00000462,-
 0.00000165,0.00000779,0.00000304,-0.00000347,-0.00000093,-0.00000045,-
 0.00000123,0.00000150,0.00000300,0.00000089,-0.00000175,0.00000518,-0.
 00000462,0.00000538,0.00000732,0.00000170,-0.00000049,0.00000031,0.000
 00106,-0.00000084,0.00052445,-0.00024773,0.00064128,-0.00082017,0.0020
 7901,-0.00215645,-0.00001082,0.00021244,0.00025728,0.00012390,0.000040
 57,0.00026343,-0.00454980,0.00339867,0.03015641,0.06258728,0.00001114,
 -0.00000386,-0.00002022,-0.00003666,0.00006517,0.00000454,-0.00000116,
 -0.00000270,-0.00000524,-0.00103173,-0.02396353,-0.03912394,0.00005577
 ,-0.00009094,0.00012922,-0.00001389,0.00002041,-0.00001932,-0.00427294
 ,0.00335704,0.02357223,-0.00040924,0.00029079,-0.00021795,-0.00114655,
 0.00055258,-0.00034764,0.00360063,-0.04883146,-0.02067403,-0.00022396,
 -0.00048229,0.00048179,0.00559465,0.00171711,-0.00252986,0.00000277,-0
 .00000171,0.00000336,-0.00000177,-0.00000213,0.00000144,-0.00000205,0.
 00000251,0.00000238,0.00000025,0.00000126,-0.00000165,-0.00000318,-0.0
 0000032,0.00000281,0.00000045,0.00000229,-0.00001130,-0.00001328,-0.00
 000619,-0.00000005,0.00000053,-0.00000080,0.00000057,-0.00055844,0.000
 75185,-0.00087157,0.00332063,-0.00243875,0.00287578,0.00031155,0.00000
 671,-0.00046271,-0.00011864,-0.00012633,-0.00026544,0.00055603,0.00155
 787,0.00176805,-0.00519527,0.06731541,0.00003458,-0.00001392,-0.000049
 06,-0.00010483,0.00008130,0.00001356,-0.00000164,-0.00000465,-0.000009
 57,-0.00156102,-0.01429615,-0.00801825,0.00017272,-0.00013751,0.000177
 39,-0.00002121,0.00002612,-0.00002341,0.00498632,-0.00030033,-0.019227
 38,-0.00054280,-0.00003236,-0.00019188,0.00081739,-0.00084092,0.000754
 37,0.04933139,-0.02313403,-0.28170471,0.00011506,-0.00009442,0.0001975
 6,0.00154880,0.00131567,0.00102736,0.00000069,-0.00000054,0.00000553,0
 .00000314,-0.00000268,-0.00000479,-0.00000591,0.00000643,0.00000367,0.
 00000186,0.00000192,-0.00000294,-0.00000703,-0.00000089,0.00000471,-0.
 00000628,0.00000976,-0.00001398,-0.00002135,-0.00000708,0.00000043,0.0
 0000031,-0.00000033,0.00000109,-0.00000764,0.00037700,0.00031396,-0.00
 212961,0.00266758,-0.00096081,-0.00084495,-0.00007863,0.00018356,-0.00
 003016,0.00018541,0.00037008,0.00146237,0.00056106,-0.00326467,-0.0517
 0525,0.03401071,0.31009102,0.00021043,-0.00005462,-0.00011672,-0.00051
 530,0.00101572,-0.00071007,-0.00005106,-0.00010504,0.00000969,0.001837
 93,-0.00006164,0.00086927,0.00416730,-0.00229617,0.00768338,0.00009335
 ,-0.00004938,-0.00007588,0.00076709,0.00031631,-0.00029922,-0.02755427
 ,0.00110201,0.03435093,0.00294241,-0.00032325,-0.00509035,-0.00003797,
 0.00000051,-0.00005286,-0.05309056,0.00867396,0.02847997,0.00326607,-0
 .00334896,-0.01937751,0.00005950,-0.00004293,-0.00000551,-0.00005499,-
 0.00004620,-0.00012205,-0.00006636,0.00005162,-0.00006458,-0.00002568,
 0.00006187,-0.00019714,-0.00012320,0.00004505,-0.00003372,0.00015130,0
 .00021154,-0.00147795,-0.00010496,-0.00004332,-0.00005365,-0.00000895,
 0.00000625,0.00000510,0.00017846,0.00003764,0.00000847,-0.00004308,-0.
 00019204,0.00011087,0.00023679,-0.00146422,-0.00027977,0.00005915,-0.0
 0016809,0.00050097,-0.00003237,-0.00001412,-0.00001716,0.00000373,0.00
 001141,0.00011564,0.06931867,0.00001688,0.00004733,-0.00009887,0.00005
 771,0.00015620,0.00010209,-0.00001563,-0.00005872,0.00000997,-0.001178
 78,0.00055831,-0.00172842,0.00107134,-0.00022062,0.00004751,0.00005746
 ,-0.00000224,0.00011386,0.00116725,0.00097180,-0.00021439,-0.00564224,
 0.00312166,0.01022517,0.00402876,-0.00879413,-0.03266487,-0.00005534,-
 0.00035556,0.00000489,0.00798173,-0.06167364,-0.05066861,-0.00207914,0
 .00280936,0.02233731,0.00002220,-0.00002650,0.00003724,-0.00004941,-0.
 00003287,0.00003773,-0.00002768,0.00001143,0.00000135,-0.00001014,0.00
 001783,-0.00003083,-0.00003252,0.00001338,0.00000333,0.00025796,-0.000
 05362,-0.00011822,-0.00000090,-0.00000771,-0.00001728,0.00000322,-0.00
 003144,0.00000175,0.00000012,-0.00001046,0.00049619,-0.00055512,0.0000
 9422,0.00052695,-0.00181927,-0.00568778,-0.00163101,0.00046039,0.00152
 882,0.00066784,-0.00004676,0.00009982,-0.00005684,-0.00001663,-0.00009
 081,0.00005241,-0.00522773,0.06821369,-0.00031073,0.00009339,-0.000013
 62,0.00067683,-0.00053697,-0.00028764,-0.00022187,-0.00007146,-0.00008
 440,-0.00037402,-0.00070891,0.00198833,-0.00375660,0.00155592,0.001143
 94,0.00003998,-0.00001648,0.00072720,-0.00002170,-0.00013457,-0.000091
 63,0.01163914,0.00205092,-0.00696164,0.00082487,-0.00153912,-0.0064457
 1,-0.00002271,0.00017062,0.00016203,0.03264674,-0.04852034,-0.27986322
 ,0.00277471,-0.00292062,-0.01927485,0.00000527,-0.00001329,0.00000944,
 0.00009819,-0.00002273,0.00004796,0.00002373,-0.00002600,-0.00000293,0
 .00003597,-0.00004183,0.00004215,0.00000242,0.00001712,0.00005726,0.00
 090221,-0.00063386,0.00072103,0.00018714,0.00004782,-0.00004118,0.0000
 1625,-0.00002759,-0.00003240,-0.00026568,-0.00005770,0.00015946,-0.000
 46597,-0.00001838,0.00008558,-0.00020392,-0.00098998,0.00079040,-0.000
 04010,-0.00022391,0.00070052,-0.00005290,-0.00000343,-0.00001600,0.000
 18002,0.00001778,-0.00008366,-0.04286593,0.05028657,0.30668566,0.00003
 277,-0.00002083,-0.00002434,-0.00006303,-0.00014441,0.00003048,-0.0000
 0324,0.00000177,-0.00000213,-0.01672650,-0.04142172,-0.00967586,0.0000
 9676,0.00001798,0.00001480,-0.00001371,-0.00000343,-0.00000819,-0.0006
 3614,-0.00064829,-0.00021336,0.00191734,-0.00003614,0.00011879,-0.0026
 7254,0.00207203,-0.00267897,-0.00546140,0.00214395,0.00241429,0.003284
 69,0.01741976,0.00571785,-0.05155263,-0.02888247,-0.00708139,-0.000003
 40,0.00000742,0.00000135,0.00001351,0.00000138,-0.00001432,-0.00000249
 ,0.00000465,0.00000020,0.00000031,0.00000130,0.00000106,-0.00000141,-0
 .00000218,-0.00000043,0.00002277,-0.00000373,0.00001344,-0.00000151,-0
 .00000187,0.00000111,-0.00000310,-0.00000737,-0.00000216,0.00025034,-0
 .00015818,0.00016152,0.00009736,0.00000578,0.00002871,-0.00003778,-0.0
 0025061,-0.00005393,0.00044901,0.00129725,0.00006791,-0.00059327,-0.00
 181367,-0.00027422,0.00008191,-0.00001204,-0.00028192,0.00070374,-0.00
 076189,0.00016908,0.06824063,-0.00004606,0.00003369,0.00002540,-0.0000
 2934,0.00016845,-0.00008975,0.00000839,0.00000576,0.00000913,-0.006515
 92,-0.00421210,-0.00079445,0.00011294,0.00023524,0.00008117,0.00005214
 ,-0.00005009,0.00004595,0.00030873,0.00029709,-0.00027553,-0.00031600,
 0.00160277,-0.00032727,0.00295539,-0.00074293,0.00344405,-0.00024359,0
 .00284631,0.00124564,-0.00313239,-0.02014861,-0.00590261,-0.03791252,-
 0.29783787,-0.06583789,0.00000236,-0.00000419,-0.00000008,-0.00001396,
 -0.00000656,0.00001961,0.00000508,-0.00000748,0.00000088,-0.00000142,-
 0.00000355,0.00000029,0.00000713,0.00000246,-0.00000582,-0.00001979,-0
 .00000715,-0.00001521,0.00002740,0.00001622,-0.00000127,0.00000649,0.0
 0000859,0.00000256,-0.00007868,-0.00007974,-0.00001898,-0.00006771,0.0
 0000535,0.00005756,0.00003892,0.00023378,-0.00004403,-0.00048983,-0.00
 126172,-0.00025200,-0.00007466,-0.00034880,-0.00004729,0.00009407,-0.0
 0000049,-0.00005557,-0.00030223,0.00102066,0.00012155,0.04530308,0.320
 64621,0.00001136,-0.00001575,-0.00000564,0.00003078,-0.00013570,0.0000
 3374,0.00000428,-0.00000065,0.00000057,0.00216396,0.00650141,0.0024708
 3,0.00004426,0.00002898,-0.00012916,0.00000048,-0.00001350,-0.00000228
 ,-0.00009657,-0.00010715,-0.00000192,0.00162557,-0.00092656,0.00037593
 ,-0.00263483,0.00134855,-0.00170441,0.00040301,0.00022112,0.00014351,0
 .00156405,0.02152413,0.00452444,-0.01098426,-0.07022064,-0.07123994,-0
 .00000205,0.00000074,0.00000096,0.00000055,0.00000620,-0.00000587,0.00
 000131,0.00000151,-0.00000202,0.00000135,-0.00000031,-0.00000477,-0.00
 000054,0.00000052,-0.00000122,0.00001771,-0.00000679,-0.00000862,0.000
 00003,0.00000121,-0.00000066,-0.00000216,-0.00000150,0.00000329,0.0000
 0829,-0.00001954,-0.00000858,0.00006984,-0.00003204,-0.00001521,-0.000
 06048,0.00035171,0.00024462,0.00010459,0.00102832,0.00037360,-0.000027
 58,-0.00001191,0.00037402,0.00007009,0.00039480,0.00042287,0.00093696,
 -0.00043759,0.00101266,0.01109839,0.06954848,0.06931953,0.00000255,0.0
 0001138,-0.00004223,0.00000839,-0.00000964,0.00009299,-0.00002735,-0.0
 0002344,-0.00001530,-0.02824746,-0.00141364,0.03782582,0.00019751,-0.0
 0012604,-0.00035223,-0.00000117,0.00000996,0.00009748,-0.00032617,-0.0
 0049160,-0.00042765,0.00187438,0.00001973,0.00032629,0.00047375,-0.001
 07062,0.00026353,0.00203029,0.00529840,0.00326372,0.00399376,-0.001997
 24,-0.01882865,-0.05478022,0.00503171,0.04083812,0.00000599,-0.0000046
 1,0.00000956,0.00002499,-0.00000742,0.00002229,-0.00000235,0.00000476,
 0.00000994,0.00000761,-0.00000305,0.00000360,-0.00001050,0.00000298,0.
 00001097,-0.00021132,0.00000891,0.00018185,0.00000511,0.00000265,-0.00
 000127,-0.00000172,-0.00000418,0.00000093,0.00024776,-0.00021367,0.000
 06548,-0.00007339,0.00006974,-0.00005325,-0.00003113,0.00009506,0.0003
 7902,-0.00011599,-0.00007777,0.00019586,0.00006237,0.00003284,-0.00041
 846,0.00053661,-0.00042191,-0.00131105,-0.00224862,0.00239702,-0.00167
 299,0.00258840,0.00030944,-0.00434590,0.07402311,0.00001676,-0.0000175
 6,0.00001901,-0.00002472,0.00001458,-0.00003052,0.00002156,0.00002478,
 0.00000591,-0.00383343,0.00240684,0.00489100,0.00011636,-0.00008679,0.
 00014262,0.00000633,-0.00000878,-0.00009839,0.00008892,-0.00034321,-0.
 00005484,-0.00146390,0.00034600,-0.00098767,-0.00064565,0.00150294,0.0
 0066641,-0.00084761,0.00130382,0.00322483,-0.00196309,0.00227693,0.022
 24091,0.00709179,-0.06111281,-0.03713331,-0.00000614,0.00000564,-0.000
 00549,-0.00001019,0.00000602,-0.00001864,0.00000003,-0.00000114,-0.000
 00613,-0.00000274,-0.00000170,0.00000649,0.00000733,-0.00000397,-0.000
 00830,0.00004056,0.00001877,-0.00017277,-0.00001051,-0.00000852,0.0000
 0835,0.00000006,0.00000117,-0.00000097,0.00001610,-0.00002181,-0.00002
 862,-0.00000406,0.00000580,-0.00018000,0.00023989,-0.00013622,-0.00018
 682,0.00010344,0.00012889,-0.00032793,0.00009738,0.00007526,-0.0000101
 4,0.00031544,0.00040087,-0.00029498,0.00218379,-0.00163313,0.00213942,
 0.00589812,-0.00241579,-0.02902669,-0.00743152,0.05727637,0.00002319,-
 0.00000618,-0.00008204,-0.00010884,0.00010315,0.00003561,-0.00002398,-
 0.00002024,-0.00003047,0.01192379,0.00116513,-0.00161833,-0.00016562,-
 0.00011871,0.00048514,-0.00007556,0.00005942,0.00001767,0.00018553,0.0
 0015638,0.00006645,0.00009149,-0.00027249,0.00127978,0.00042390,-0.001
 24909,0.00080836,-0.00128597,-0.00088647,0.00147329,0.00369593,-0.0033
 8697,-0.02262472,0.04267733,-0.03483389,-0.28112192,0.00000332,-0.0000
 0407,0.00001448,-0.00004246,0.00002573,-0.00001127,-0.00000398,0.00000
 532,0.00001093,-0.00000743,0.00000190,-0.00000420,-0.00001051,-0.00000
 006,0.00001582,0.00019166,-0.00005631,0.00019746,-0.00002471,-0.000009
 86,-0.00000517,0.00000512,0.00000011,-0.00000105,0.00006714,0.00008914
 ,-0.00002756,-0.00011804,-0.00012601,-0.00012836,0.00012925,0.00083027
 ,0.00052328,-0.00024051,-0.00001286,0.00038668,0.00004761,0.00024933,0
 .00041237,0.00054118,0.00128505,-0.00001477,-0.00224494,0.00271496,-0.
 00113511,0.00047085,-0.00093154,-0.00617104,-0.05611860,0.03522692,0.3
 0724429,-0.00661049,0.00729361,0.02570699,-0.00673652,-0.00287110,0.00
 352791,-0.00264929,0.00134132,0.00403910,-0.00006285,0.00000647,-0.000
 02144,0.00091899,-0.00214361,-0.00048295,0.00092964,0.00095634,-0.0005
 3516,0.00000855,0.00001293,-0.00004699,-0.00052705,0.00035499,-0.00019
 837,-0.00006304,-0.00004936,0.00006653,-0.00000979,-0.00000078,0.00002
 664,0.00029514,0.00003986,-0.00007783,0.00002538,-0.00003826,0.0000444
 4,-0.08016045,0.01291288,0.08249850,0.00077064,0.00083978,-0.00077979,
 0.00090381,-0.00024100,-0.00029857,0.00006831,-0.00024846,0.00013470,0
 .00021010,0.00015834,-0.00037040,-0.00000025,0.00023227,0.00003580,-0.
 00005633,-0.00000516,0.00039688,0.00018639,-0.00008102,0.00028238,-0.0
 0001516,-0.00000807,-0.00000126,-0.00000502,0.00000171,0.00000470,0.00
 000563,0.00000223,-0.00000726,0.00003379,0.00006262,-0.00003750,-0.000
 01083,0.00000596,-0.00000604,0.00000189,-0.00000208,-0.00000517,-0.000
 01897,-0.00000786,0.00001983,-0.00000382,0.00000592,-0.00000163,-0.000
 00455,0.00000122,-0.00000699,0.08393095,-0.00240621,0.00327139,0.01631
 610,-0.00558623,-0.00046523,0.00258917,0.01210737,-0.00403147,-0.03161
 760,0.00001611,0.00000111,0.00000479,-0.00045171,-0.00209795,-0.000057
 84,0.00086544,-0.00704963,0.00040135,-0.00000387,0.00003329,-0.0000208
 0,0.00004259,0.00040478,-0.00007671,-0.00001350,-0.00005712,0.00002929
 ,-0.00001482,-0.00001487,0.00000302,0.00000827,-0.00004161,0.00003726,
 0.00000188,0.00001642,-0.00000566,0.01274561,-0.05247078,-0.03660471,0
 .00035024,0.00060766,-0.00041847,0.00102445,0.00009572,-0.00023541,-0.
 00004746,0.00148621,0.00061048,-0.00072966,0.00137449,0.00033524,0.000
 10690,0.00034300,0.00007260,-0.00021758,0.00004966,0.00007568,0.001127
 85,-0.00021853,-0.00187417,0.00000197,-0.00000087,-0.00000058,-0.00000
 244,-0.00000018,0.00000200,0.00000435,0.00000197,0.00000041,0.00000412
 ,0.00003779,-0.00003105,-0.00000309,0.00000476,-0.00000252,0.00000051,
 0.00000016,-0.00000014,0.00000705,0.00000307,0.00000156,-0.00000270,0.
 00000123,-0.00000103,0.00000112,-0.00000076,0.00000110,-0.01460807,0.0
 5784577,-0.00075764,-0.00087578,-0.00404251,0.00181878,0.00016277,0.00
 085137,0.00030792,0.00003442,-0.00280962,0.00005531,-0.00000621,0.0000
 1874,-0.00094902,0.00067633,0.00014903,0.00005385,-0.00133988,0.001438
 02,-0.00000992,-0.00000378,0.00002228,0.00043881,-0.00013339,0.0000682
 3,0.00006277,0.00002595,-0.00003232,0.00000279,-0.00000292,-0.00002156
 ,-0.00022576,-0.00002810,0.00007914,-0.00001935,0.00003655,-0.00003704
 ,0.08484608,-0.03703088,-0.27781234,0.00038986,0.00020926,0.00039695,0
 .00020199,0.00029717,0.00007408,0.00012006,-0.00032752,0.00060240,-0.0
 0021875,-0.00026900,0.00003225,0.00002329,0.00002191,-0.00005617,-0.00
 013160,0.00008895,0.00031161,0.00040409,0.00011613,-0.00029831,0.00001
 280,0.00000677,0.00000116,0.00000724,-0.00000128,-0.00000425,-0.000013
 46,-0.00000254,-0.00000987,-0.00001737,-0.00003205,0.00002693,0.000008
 03,-0.00000369,0.00000460,-0.00000203,0.00000168,0.00000419,0.00002166
 ,0.00000407,-0.00001781,0.00000204,-0.00000470,0.00000072,0.00000230,-
 0.00000082,0.00000577,-0.09343969,0.04113461,0.29923798,-0.02284360,0.
 00808565,-0.02088018,0.00306340,0.00070551,0.00036348,-0.00336066,0.00
 179474,-0.00301309,-0.00003679,0.00000665,-0.00000855,-0.00025215,-0.0
 0010173,-0.00010166,-0.00011424,-0.00014518,-0.00030466,0.00002450,0.0
 0001270,0.00004044,-0.00005931,0.00015810,0.00018341,-0.00004314,-0.00
 000590,-0.00011896,0.00000475,-0.00000609,0.00001507,0.00018137,-0.000
 00905,-0.00005676,0.00002844,-0.00002063,0.00001981,-0.16979424,0.0588
 6866,-0.11334784,-0.00405681,-0.00339633,0.00121701,0.00141477,0.00007
 752,0.00037782,0.00094205,0.00080292,0.00018921,0.00056623,0.00015640,
 0.00037224,-0.00008116,0.00004396,0.00002880,-0.00020477,0.00018954,0.
 00032599,0.00010412,-0.00001207,0.00016501,-0.00000810,-0.00000561,-0.
 00000301,-0.00002589,0.00000105,0.00000694,0.00003530,0.00002571,0.000
 08598,0.00003298,0.00000088,-0.00000877,-0.00000713,0.00000420,-0.0000
 0275,0.00000286,-0.00000102,-0.00000247,-0.00001957,0.00000498,0.00003
 276,-0.00000358,0.00000663,-0.00000085,-0.00000063,-0.00000153,0.00000
 084,0.00864522,-0.00432848,0.00700492,0.18586579,-0.01470574,0.0051973
 4,-0.01412822,0.00199730,0.00021314,0.00002566,0.02337876,-0.01349118,
 0.02235956,0.00000451,0.00000584,0.00000030,-0.00004143,-0.00044554,-0
 .00012036,-0.00037967,0.00142784,0.00125228,0.00000964,0.00002498,0.00
 003318,0.00008040,0.00023031,0.00007503,-0.00001314,-0.00001027,-0.000
 07860,-0.00000116,-0.00001151,0.00000346,-0.00001403,-0.00003090,-0.00
 007369,-0.00000075,0.00000182,0.00000350,0.05926005,-0.07489688,0.0551
 0631,-0.00366418,-0.00119658,0.00113389,0.00082891,0.00087323,-0.00043
 465,0.00121116,-0.00615802,-0.00177837,-0.00067505,0.00140703,0.000164
 05,0.00008866,0.00010114,0.00000142,-0.00008644,0.00013443,-0.00076902
 ,-0.00048036,0.00009154,-0.00012910,0.00000155,-0.00000120,-0.00000148
 ,-0.00001633,-0.00000014,0.00000398,0.00002653,0.00001094,0.00005658,0
 .00001482,-0.00000150,-0.00001057,-0.00000233,0.00000335,-0.00000128,0
 .00000115,0.00000030,-0.00000025,0.00001524,0.00001167,0.00000451,-0.0
 0000292,0.00000326,-0.00000030,0.00000064,-0.00000248,0.00000081,-0.00
 392363,0.00087053,-0.00275401,-0.06291217,0.08563750,0.00378290,-0.001
 62907,0.00093299,-0.00059251,0.00023245,0.00209105,0.00402851,-0.00119
 195,0.00263455,-0.00003522,0.00000149,-0.00000845,0.00024513,-0.000464
 48,-0.00001487,0.00055037,-0.00022942,0.00093578,0.00000177,-0.0000058
 2,-0.00001547,-0.00033030,0.00012981,-0.00004948,0.00000407,0.00000512
 ,0.00001115,0.00000227,0.00000644,0.00000801,0.00014923,0.00004101,-0.
 00005237,0.00001215,-0.00002300,0.00001751,-0.11554248,0.05451407,-0.1
 5936764,0.00095207,0.00002203,0.00107983,-0.00038115,-0.00041101,0.000
 17720,0.00068215,-0.00101178,0.00097208,-0.00002706,0.00051528,0.00023
 276,-0.00007016,0.00004507,0.00001141,-0.00030993,-0.00002657,0.000171
 63,-0.00006969,0.00008466,0.00014424,-0.00000641,-0.00000292,-0.000000
 21,-0.00000042,0.00000100,0.00000126,0.00000755,0.00000124,-0.00000462
 ,0.00000817,0.00001121,-0.00000212,-0.00000363,0.00000031,-0.00000094,
 0.00000087,-0.00000123,-0.00000148,-0.00000789,-0.00000426,0.00001820,
 -0.00000065,0.00000174,0.00000007,-0.00000217,0.00000115,-0.00000135,-
 0.02046735,0.00933205,-0.01818366,0.12741983,-0.05994463,0.16826294\\0
 .00001353,0.00001882,0.00005536,-0.00001831,0.00001724,-0.00001969,-0.
 00000324,-0.00000628,0.00001687,-0.00000552,-0.00000513,-0.00001415,-0
 .00003688,0.00039956,0.00030386,0.00003154,0.00000494,-0.00001035,-0.0
 0001607,0.00000065,0.00000133,0.00000733,-0.00056011,-0.00065615,-0.00
 014016,0.00012918,-0.00043929,0.00001843,0.00001219,0.00002894,0.00018
 957,-0.00000293,0.00074701,-0.00002629,-0.00001429,0.00002879,-0.00000
 089,0.00000914,0.00000232,-0.00001164,0.00000605,-0.00002108,0.0000080
 6,-0.00001097,-0.00000649,-0.00000889,0.00000352,-0.00000740,0.0000063
 3,0.00000691,-0.00000858,-0.00000347,0.00000511,0.00002840,-0.00000079
 ,0.00000446,0.00000067,-0.00001831,0.00000372,0.00000226,0.00000075,-0
 .00000369,-0.00000849,0.00000491,-0.00000200,0.00000430,0.00000596,0.0
 0000032,-0.00000798,0.00000437,-0.00000308,0.00000351,-0.00001378,-0.0
 0000854,0.00000034,0.00000478,-0.00001176,-0.00001792,-0.00000541,0.00
 000510,0.00001872,0.00000570,0.00000945,0.00000042,0.00000857,-0.00000
 696,-0.00002024,-0.00000460,-0.00000272,-0.00000832,0.00000442,0.00000
 208,0.00000306\\\@


 "PERFECTION IS NOT AN ACCIDENT"
         --  EAGLE ELECTRIC MANUFACTURING CO.,INC. NY
 Job cpu time:       0 days 14 hours 40 minutes 43.5 seconds.
 Elapsed time:       0 days  0 hours 55 minutes  4.5 seconds.
 File lengths (MBytes):  RWF=    685 Int=      0 D2E=      0 Chk=     33 Scr=      1
 Normal termination of Gaussian 16 at Sun Nov  4 22:54:18 2018.
