 Entering Gaussian System, Link 0=g16
 Initial command:
 /apps/gaussian/g16a03/g16/l1.exe "/jobfs/local/2012078.r-man2/Gau-17716.inp" -scrdir="/jobfs/local/2012078.r-man2/"
 Entering Link 1 = /apps/gaussian/g16a03/g16/l1.exe PID=     17717.
  
 Copyright (c) 1988,1990,1992,1993,1995,1998,2003,2009,2016,
            Gaussian, Inc.  All Rights Reserved.
  
 This is part of the Gaussian(R) 16 program.  It is based on
 the Gaussian(R) 09 system (copyright 2009, Gaussian, Inc.),
 the Gaussian(R) 03 system (copyright 2003, Gaussian, Inc.),
 the Gaussian(R) 98 system (copyright 1998, Gaussian, Inc.),
 the Gaussian(R) 94 system (copyright 1995, Gaussian, Inc.),
 the Gaussian 92(TM) system (copyright 1992, Gaussian, Inc.),
 the Gaussian 90(TM) system (copyright 1990, Gaussian, Inc.),
 the Gaussian 88(TM) system (copyright 1988, Gaussian, Inc.),
 the Gaussian 86(TM) system (copyright 1986, Carnegie Mellon
 University), and the Gaussian 82(TM) system (copyright 1983,
 Carnegie Mellon University). Gaussian is a federally registered
 trademark of Gaussian, Inc.
  
 This software contains proprietary and confidential information,
 including trade secrets, belonging to Gaussian, Inc.
  
 This software is provided under written license and may be
 used, copied, transmitted, or stored only in accord with that
 written license.
  
 The following legend is applicable only to US Government
 contracts under FAR:
  
                    RESTRICTED RIGHTS LEGEND
  
 Use, reproduction and disclosure by the US Government is
 subject to restrictions as set forth in subparagraphs (a)
 and (c) of the Commercial Computer Software - Restricted
 Rights clause in FAR 52.227-19.
  
 Gaussian, Inc.
 340 Quinnipiac St., Bldg. 40, Wallingford CT 06492
  
  
 ---------------------------------------------------------------
 Warning -- This program may not be used in any manner that
 competes with the business of Gaussian, Inc. or will provide
 assistance to any competitor of Gaussian, Inc.  The licensee
 of this program is prohibited from giving any competitor of
 Gaussian, Inc. access to this program.  By using this program,
 the user acknowledges that Gaussian, Inc. is engaged in the
 business of creating and licensing software in the field of
 computational chemistry and represents and warrants to the
 licensee that it is not a competitor of Gaussian, Inc. and that
 it will not use this program in any manner prohibited above.
 ---------------------------------------------------------------
  

 Cite this work as:
 Gaussian 16, Revision A.03,
 M. J. Frisch, G. W. Trucks, H. B. Schlegel, G. E. Scuseria, 
 M. A. Robb, J. R. Cheeseman, G. Scalmani, V. Barone, 
 G. A. Petersson, H. Nakatsuji, X. Li, M. Caricato, A. V. Marenich, 
 J. Bloino, B. G. Janesko, R. Gomperts, B. Mennucci, H. P. Hratchian, 
 J. V. Ortiz, A. F. Izmaylov, J. L. Sonnenberg, D. Williams-Young, 
 F. Ding, F. Lipparini, F. Egidi, J. Goings, B. Peng, A. Petrone, 
 T. Henderson, D. Ranasinghe, V. G. Zakrzewski, J. Gao, N. Rega, 
 G. Zheng, W. Liang, M. Hada, M. Ehara, K. Toyota, R. Fukuda, 
 J. Hasegawa, M. Ishida, T. Nakajima, Y. Honda, O. Kitao, H. Nakai, 
 T. Vreven, K. Throssell, J. A. Montgomery, Jr., J. E. Peralta, 
 F. Ogliaro, M. J. Bearpark, J. J. Heyd, E. N. Brothers, K. N. Kudin, 
 V. N. Staroverov, T. A. Keith, R. Kobayashi, J. Normand, 
 K. Raghavachari, A. P. Rendell, J. C. Burant, S. S. Iyengar, 
 J. Tomasi, M. Cossi, J. M. Millam, M. Klene, C. Adamo, R. Cammi, 
 J. W. Ochterski, R. L. Martin, K. Morokuma, O. Farkas, 
 J. B. Foresman, and D. J. Fox, Gaussian, Inc., Wallingford CT, 2016.
 
 ******************************************
 Gaussian 16:  ES64L-G16RevA.03 25-Dec-2016
                 4-Nov-2018 
 ******************************************
 %mem=6000mb
 %nproc=24
 Will use up to   24 processors via shared memory.
 %chk=L_a1-e4_D_PSI.inp_extract_22.chk
 ----------------------------------------------------------------------
 #M062X/6-311++G(2d,2p) opt=ModRedundant freq=noraman SCRF=(Solvent=Wat
 er)
 ----------------------------------------------------------------------
 1/18=120,19=15,26=3,38=1/1,3;
 2/9=110,12=2,17=6,18=5,40=1/2;
 3/5=4,6=6,7=1212,11=2,25=1,30=1,70=2201,71=1,72=1,74=-55/1,2,3;
 4//1;
 5/5=2,38=5,53=1/2;
 6/7=2,8=2,9=2,10=2,28=1/1;
 7//1,2,3,16;
 1/18=20,19=15,26=3/3(2);
 2/9=110/2;
 99//99;
 2/9=110/2;
 3/5=4,6=6,7=1212,11=2,25=1,30=1,70=2205,71=1,72=1,74=-55/1,2,3;
 4/5=5,16=3,69=1/1;
 5/5=2,38=5,53=1/2;
 7//1,2,3,16;
 1/18=20,19=15,26=3/3(-5);
 2/9=110/2;
 6/7=2,8=2,9=2,10=2,19=2,28=1/1;
 99/9=1/99;
 ----------------------------
 L_a1-e4_D_PSI.inp_extract_22
 ----------------------------
 Symbolic Z-matrix:
 Charge =  0 Multiplicity = 1
 C                    -2.30994   1.44432  -0.18798 
 O                    -1.66022   0.61838  -1.14673 
 C                    -3.16946  -0.59584   0.96704 
 O                     3.3272   -0.97117  -0.28721 
 C                    -1.26803  -0.65408  -0.70228 
 C                    -2.43201  -1.41817  -0.09031 
 C                     2.95732   1.39868   0.03061 
 O                    -0.2368   -0.5676    0.23738 
 C                     1.49389   1.1252    0.3887 
 C                     3.82183   0.19104   0.35431 
 C                     1.04124  -0.18509  -0.24192 
 C                     2.01342  -1.30644   0.10247 
 C                    -3.54295   0.76745   0.38596 
 H                    -1.61246   1.69655   0.60277 
 H                    -2.56471   2.35317  -0.71533 
 H                    -2.53988  -0.46019   1.84252 
 H                    -4.05672  -1.12925   1.29386 
 H                    -0.90311  -1.15719  -1.58685 
 H                    -3.11611  -1.66273  -0.89825 
 H                    -2.06217  -2.35288   0.31692 
 H                     3.32623   2.26203   0.57622 
 H                     3.04445   1.62293  -1.02968 
 H                     1.38932   1.04481   1.46856 
 H                     0.85873   1.93977   0.05805 
 H                     4.83553   0.32418   0.00199 
 H                     3.85144   0.01695   1.42761 
 H                     1.00326  -0.07472  -1.3199 
 H                     1.74972  -2.21447  -0.42269 
 H                     1.98482  -1.50233   1.17206 
 H                    -3.9778    1.41097   1.14547 
 H                    -4.28386   0.64312  -0.4004 
 
 The following ModRedundant input section has been read:
 D       5       8      11       9 F                                           
 

 GradGradGradGradGradGradGradGradGradGradGradGradGradGradGradGradGradGrad
 Berny optimization.
 Initialization pass.
                           ----------------------------
                           !    Initial Parameters    !
                           ! (Angstroms and Degrees)  !
 --------------------------                            --------------------------
 ! Name  Definition              Value          Derivative Info.                !
 --------------------------------------------------------------------------------
 ! R1    R(1,2)                  1.4225         estimate D2E/DX2                !
 ! R2    R(1,13)                 1.5192         estimate D2E/DX2                !
 ! R3    R(1,14)                 1.0842         estimate D2E/DX2                !
 ! R4    R(1,15)                 1.0812         estimate D2E/DX2                !
 ! R5    R(2,5)                  1.4038         estimate D2E/DX2                !
 ! R6    R(3,6)                  1.5291         estimate D2E/DX2                !
 ! R7    R(3,13)                 1.5283         estimate D2E/DX2                !
 ! R8    R(3,16)                 1.0868         estimate D2E/DX2                !
 ! R9    R(3,17)                 1.0856         estimate D2E/DX2                !
 ! R10   R(4,10)                 1.4167         estimate D2E/DX2                !
 ! R11   R(4,12)                 1.4108         estimate D2E/DX2                !
 ! R12   R(5,6)                  1.5209         estimate D2E/DX2                !
 ! R13   R(5,8)                  1.3978         estimate D2E/DX2                !
 ! R14   R(5,18)                 1.0811         estimate D2E/DX2                !
 ! R15   R(6,19)                 1.0865         estimate D2E/DX2                !
 ! R16   R(6,20)                 1.0846         estimate D2E/DX2                !
 ! R17   R(7,9)                  1.5312         estimate D2E/DX2                !
 ! R18   R(7,10)                 1.5201         estimate D2E/DX2                !
 ! R19   R(7,21)                 1.0859         estimate D2E/DX2                !
 ! R20   R(7,22)                 1.0872         estimate D2E/DX2                !
 ! R21   R(8,11)                 1.4175         estimate D2E/DX2                !
 ! R22   R(9,11)                 1.523          estimate D2E/DX2                !
 ! R23   R(9,23)                 1.0879         estimate D2E/DX2                !
 ! R24   R(9,24)                 1.0846         estimate D2E/DX2                !
 ! R25   R(10,25)                1.0814         estimate D2E/DX2                !
 ! R26   R(10,26)                1.0877         estimate D2E/DX2                !
 ! R27   R(11,12)                1.5235         estimate D2E/DX2                !
 ! R28   R(11,27)                1.0843         estimate D2E/DX2                !
 ! R29   R(12,28)                1.0816         estimate D2E/DX2                !
 ! R30   R(12,29)                1.0878         estimate D2E/DX2                !
 ! R31   R(13,30)                1.0863         estimate D2E/DX2                !
 ! R32   R(13,31)                1.0876         estimate D2E/DX2                !
 ! A1    A(2,1,13)             111.5091         estimate D2E/DX2                !
 ! A2    A(2,1,14)             109.4407         estimate D2E/DX2                !
 ! A3    A(2,1,15)             105.4831         estimate D2E/DX2                !
 ! A4    A(13,1,14)            110.5031         estimate D2E/DX2                !
 ! A5    A(13,1,15)            111.5642         estimate D2E/DX2                !
 ! A6    A(14,1,15)            108.166          estimate D2E/DX2                !
 ! A7    A(1,2,5)              116.1376         estimate D2E/DX2                !
 ! A8    A(6,3,13)             109.5532         estimate D2E/DX2                !
 ! A9    A(6,3,16)             110.1675         estimate D2E/DX2                !
 ! A10   A(6,3,17)             109.7609         estimate D2E/DX2                !
 ! A11   A(13,3,16)            109.6636         estimate D2E/DX2                !
 ! A12   A(13,3,17)            110.6725         estimate D2E/DX2                !
 ! A13   A(16,3,17)            106.9927         estimate D2E/DX2                !
 ! A14   A(10,4,12)            113.268          estimate D2E/DX2                !
 ! A15   A(2,5,6)              111.6526         estimate D2E/DX2                !
 ! A16   A(2,5,8)              111.2768         estimate D2E/DX2                !
 ! A17   A(2,5,18)             104.8975         estimate D2E/DX2                !
 ! A18   A(6,5,8)              108.9781         estimate D2E/DX2                !
 ! A19   A(6,5,18)             110.7174         estimate D2E/DX2                !
 ! A20   A(8,5,18)             109.2571         estimate D2E/DX2                !
 ! A21   A(3,6,5)              112.1577         estimate D2E/DX2                !
 ! A22   A(3,6,19)             109.3646         estimate D2E/DX2                !
 ! A23   A(3,6,20)             111.6113         estimate D2E/DX2                !
 ! A24   A(5,6,19)             107.2019         estimate D2E/DX2                !
 ! A25   A(5,6,20)             108.849          estimate D2E/DX2                !
 ! A26   A(19,6,20)            107.4526         estimate D2E/DX2                !
 ! A27   A(9,7,10)             110.6017         estimate D2E/DX2                !
 ! A28   A(9,7,21)             110.4374         estimate D2E/DX2                !
 ! A29   A(9,7,22)             109.968          estimate D2E/DX2                !
 ! A30   A(10,7,21)            109.3561         estimate D2E/DX2                !
 ! A31   A(10,7,22)            109.0238         estimate D2E/DX2                !
 ! A32   A(21,7,22)            107.3841         estimate D2E/DX2                !
 ! A33   A(5,8,11)             117.0356         estimate D2E/DX2                !
 ! A34   A(7,9,11)             109.9301         estimate D2E/DX2                !
 ! A35   A(7,9,23)             109.7064         estimate D2E/DX2                !
 ! A36   A(7,9,24)             110.7487         estimate D2E/DX2                !
 ! A37   A(11,9,23)            108.5944         estimate D2E/DX2                !
 ! A38   A(11,9,24)            110.2356         estimate D2E/DX2                !
 ! A39   A(23,9,24)            107.5677         estimate D2E/DX2                !
 ! A40   A(4,10,7)             110.9016         estimate D2E/DX2                !
 ! A41   A(4,10,25)            106.306          estimate D2E/DX2                !
 ! A42   A(4,10,26)            108.9673         estimate D2E/DX2                !
 ! A43   A(7,10,25)            111.4653         estimate D2E/DX2                !
 ! A44   A(7,10,26)            110.6562         estimate D2E/DX2                !
 ! A45   A(25,10,26)           108.401          estimate D2E/DX2                !
 ! A46   A(8,11,9)             111.1069         estimate D2E/DX2                !
 ! A47   A(8,11,12)            107.4741         estimate D2E/DX2                !
 ! A48   A(8,11,27)            109.3927         estimate D2E/DX2                !
 ! A49   A(9,11,12)            110.4863         estimate D2E/DX2                !
 ! A50   A(9,11,27)            109.542          estimate D2E/DX2                !
 ! A51   A(12,11,27)           108.7846         estimate D2E/DX2                !
 ! A52   A(4,12,11)            110.9092         estimate D2E/DX2                !
 ! A53   A(4,12,28)            107.0042         estimate D2E/DX2                !
 ! A54   A(4,12,29)            109.809          estimate D2E/DX2                !
 ! A55   A(11,12,28)           110.645          estimate D2E/DX2                !
 ! A56   A(11,12,29)           109.7579         estimate D2E/DX2                !
 ! A57   A(28,12,29)           108.6526         estimate D2E/DX2                !
 ! A58   A(1,13,3)             110.0435         estimate D2E/DX2                !
 ! A59   A(1,13,30)            108.9719         estimate D2E/DX2                !
 ! A60   A(1,13,31)            109.3111         estimate D2E/DX2                !
 ! A61   A(3,13,30)            111.1266         estimate D2E/DX2                !
 ! A62   A(3,13,31)            109.842          estimate D2E/DX2                !
 ! A63   A(30,13,31)           107.4906         estimate D2E/DX2                !
 ! D1    D(13,1,2,5)           -56.7244         estimate D2E/DX2                !
 ! D2    D(14,1,2,5)            65.846          estimate D2E/DX2                !
 ! D3    D(15,1,2,5)          -177.9963         estimate D2E/DX2                !
 ! D4    D(2,1,13,3)            55.188          estimate D2E/DX2                !
 ! D5    D(2,1,13,30)          177.2696         estimate D2E/DX2                !
 ! D6    D(2,1,13,31)          -65.5221         estimate D2E/DX2                !
 ! D7    D(14,1,13,3)          -66.7709         estimate D2E/DX2                !
 ! D8    D(14,1,13,30)          55.3108         estimate D2E/DX2                !
 ! D9    D(14,1,13,31)         172.5191         estimate D2E/DX2                !
 ! D10   D(15,1,13,3)          172.8517         estimate D2E/DX2                !
 ! D11   D(15,1,13,30)         -65.0666         estimate D2E/DX2                !
 ! D12   D(15,1,13,31)          52.1416         estimate D2E/DX2                !
 ! D13   D(1,2,5,6)             53.9022         estimate D2E/DX2                !
 ! D14   D(1,2,5,8)            -68.109          estimate D2E/DX2                !
 ! D15   D(1,2,5,18)           173.867          estimate D2E/DX2                !
 ! D16   D(13,3,6,5)            51.7487         estimate D2E/DX2                !
 ! D17   D(13,3,6,19)          -67.0409         estimate D2E/DX2                !
 ! D18   D(13,3,6,20)          174.1971         estimate D2E/DX2                !
 ! D19   D(16,3,6,5)           -68.9724         estimate D2E/DX2                !
 ! D20   D(16,3,6,19)          172.2379         estimate D2E/DX2                !
 ! D21   D(16,3,6,20)           53.476          estimate D2E/DX2                !
 ! D22   D(17,3,6,5)           173.4618         estimate D2E/DX2                !
 ! D23   D(17,3,6,19)           54.6721         estimate D2E/DX2                !
 ! D24   D(17,3,6,20)          -64.0898         estimate D2E/DX2                !
 ! D25   D(6,3,13,1)           -53.4023         estimate D2E/DX2                !
 ! D26   D(6,3,13,30)         -174.1976         estimate D2E/DX2                !
 ! D27   D(6,3,13,31)           66.9879         estimate D2E/DX2                !
 ! D28   D(16,3,13,1)           67.6242         estimate D2E/DX2                !
 ! D29   D(16,3,13,30)         -53.1711         estimate D2E/DX2                !
 ! D30   D(16,3,13,31)        -171.9856         estimate D2E/DX2                !
 ! D31   D(17,3,13,1)         -174.5662         estimate D2E/DX2                !
 ! D32   D(17,3,13,30)          64.6385         estimate D2E/DX2                !
 ! D33   D(17,3,13,31)         -54.176          estimate D2E/DX2                !
 ! D34   D(12,4,10,7)          -60.4734         estimate D2E/DX2                !
 ! D35   D(12,4,10,25)         178.2045         estimate D2E/DX2                !
 ! D36   D(12,4,10,26)          61.5686         estimate D2E/DX2                !
 ! D37   D(10,4,12,11)          60.7254         estimate D2E/DX2                !
 ! D38   D(10,4,12,28)        -178.5094         estimate D2E/DX2                !
 ! D39   D(10,4,12,29)         -60.7579         estimate D2E/DX2                !
 ! D40   D(2,5,6,3)            -50.9359         estimate D2E/DX2                !
 ! D41   D(2,5,6,19)            69.1208         estimate D2E/DX2                !
 ! D42   D(2,5,6,20)          -174.9386         estimate D2E/DX2                !
 ! D43   D(8,5,6,3)             72.3894         estimate D2E/DX2                !
 ! D44   D(8,5,6,19)          -167.554          estimate D2E/DX2                !
 ! D45   D(8,5,6,20)           -51.6134         estimate D2E/DX2                !
 ! D46   D(18,5,6,3)          -167.4155         estimate D2E/DX2                !
 ! D47   D(18,5,6,19)          -47.3589         estimate D2E/DX2                !
 ! D48   D(18,5,6,20)           68.5818         estimate D2E/DX2                !
 ! D49   D(2,5,8,11)           -71.4026         estimate D2E/DX2                !
 ! D50   D(6,5,8,11)           165.0484         estimate D2E/DX2                !
 ! D51   D(18,5,8,11)           43.9567         estimate D2E/DX2                !
 ! D52   D(10,7,9,11)          -51.6287         estimate D2E/DX2                !
 ! D53   D(10,7,9,23)           67.722          estimate D2E/DX2                !
 ! D54   D(10,7,9,24)         -173.688          estimate D2E/DX2                !
 ! D55   D(21,7,9,11)         -172.8232         estimate D2E/DX2                !
 ! D56   D(21,7,9,23)          -53.4726         estimate D2E/DX2                !
 ! D57   D(21,7,9,24)           65.1174         estimate D2E/DX2                !
 ! D58   D(22,7,9,11)           68.8413         estimate D2E/DX2                !
 ! D59   D(22,7,9,23)         -171.8081         estimate D2E/DX2                !
 ! D60   D(22,7,9,24)          -53.2181         estimate D2E/DX2                !
 ! D61   D(9,7,10,4)            55.1372         estimate D2E/DX2                !
 ! D62   D(9,7,10,25)          173.3735         estimate D2E/DX2                !
 ! D63   D(9,7,10,26)          -65.9137         estimate D2E/DX2                !
 ! D64   D(21,7,10,4)          176.9701         estimate D2E/DX2                !
 ! D65   D(21,7,10,25)         -64.7936         estimate D2E/DX2                !
 ! D66   D(21,7,10,26)          55.9192         estimate D2E/DX2                !
 ! D67   D(22,7,10,4)          -65.8946         estimate D2E/DX2                !
 ! D68   D(22,7,10,25)          52.3417         estimate D2E/DX2                !
 ! D69   D(22,7,10,26)         173.0545         estimate D2E/DX2                !
 ! D70   D(5,8,11,9)           117.77           Frozen                          !
 ! D71   D(5,8,11,12)         -121.2447         estimate D2E/DX2                !
 ! D72   D(5,8,11,27)           -3.2941         estimate D2E/DX2                !
 ! D73   D(7,9,11,8)           170.9775         estimate D2E/DX2                !
 ! D74   D(7,9,11,12)           51.7803         estimate D2E/DX2                !
 ! D75   D(7,9,11,27)          -68.0461         estimate D2E/DX2                !
 ! D76   D(23,9,11,8)           50.9495         estimate D2E/DX2                !
 ! D77   D(23,9,11,12)         -68.2477         estimate D2E/DX2                !
 ! D78   D(23,9,11,27)         171.9259         estimate D2E/DX2                !
 ! D79   D(24,9,11,8)          -66.6588         estimate D2E/DX2                !
 ! D80   D(24,9,11,12)         174.144          estimate D2E/DX2                !
 ! D81   D(24,9,11,27)          54.3176         estimate D2E/DX2                !
 ! D82   D(8,11,12,4)         -177.182          estimate D2E/DX2                !
 ! D83   D(8,11,12,28)          64.2315         estimate D2E/DX2                !
 ! D84   D(8,11,12,29)         -55.6687         estimate D2E/DX2                !
 ! D85   D(9,11,12,4)          -55.8072         estimate D2E/DX2                !
 ! D86   D(9,11,12,28)        -174.3937         estimate D2E/DX2                !
 ! D87   D(9,11,12,29)          65.7061         estimate D2E/DX2                !
 ! D88   D(27,11,12,4)          64.4742         estimate D2E/DX2                !
 ! D89   D(27,11,12,28)        -54.1124         estimate D2E/DX2                !
 ! D90   D(27,11,12,29)       -174.0125         estimate D2E/DX2                !
 --------------------------------------------------------------------------------
 Trust Radius=3.00D-01 FncErr=1.00D-07 GrdErr=1.00D-06 EigMax=2.50D+02 EigMin=1.00D-04
 Number of steps in this run=    186 maximum allowed number of steps=    186.
 GradGradGradGradGradGradGradGradGradGradGradGradGradGradGradGradGradGrad

                          Input orientation:                          
 ---------------------------------------------------------------------
 Center     Atomic      Atomic             Coordinates (Angstroms)
 Number     Number       Type             X           Y           Z
 ---------------------------------------------------------------------
      1          6           0       -2.309938    1.444316   -0.187982
      2          8           0       -1.660219    0.618382   -1.146732
      3          6           0       -3.169459   -0.595837    0.967037
      4          8           0        3.327202   -0.971170   -0.287206
      5          6           0       -1.268029   -0.654084   -0.702277
      6          6           0       -2.432006   -1.418169   -0.090313
      7          6           0        2.957317    1.398676    0.030609
      8          8           0       -0.236802   -0.567599    0.237379
      9          6           0        1.493887    1.125203    0.388700
     10          6           0        3.821833    0.191038    0.354306
     11          6           0        1.041244   -0.185094   -0.241922
     12          6           0        2.013417   -1.306436    0.102469
     13          6           0       -3.542953    0.767451    0.385964
     14          1           0       -1.612459    1.696547    0.602768
     15          1           0       -2.564706    2.353167   -0.715332
     16          1           0       -2.539882   -0.460186    1.842515
     17          1           0       -4.056716   -1.129252    1.293864
     18          1           0       -0.903110   -1.157193   -1.586848
     19          1           0       -3.116113   -1.662727   -0.898249
     20          1           0       -2.062169   -2.352879    0.316915
     21          1           0        3.326228    2.262026    0.576215
     22          1           0        3.044453    1.622934   -1.029680
     23          1           0        1.389315    1.044806    1.468563
     24          1           0        0.858733    1.939771    0.058049
     25          1           0        4.835527    0.324180    0.001990
     26          1           0        3.851438    0.016947    1.427614
     27          1           0        1.003262   -0.074720   -1.319895
     28          1           0        1.749717   -2.214469   -0.422694
     29          1           0        1.984815   -1.502334    1.172058
     30          1           0       -3.977804    1.410972    1.145474
     31          1           0       -4.283861    0.643123   -0.400401
 ---------------------------------------------------------------------
                    Distance matrix (angstroms):
                    1          2          3          4          5
     1  C    0.000000
     2  O    1.422499   0.000000
     3  C    2.497012   2.867081   0.000000
     4  O    6.133658   5.304699   6.627262   0.000000
     5  C    2.398615   1.403753   2.530897   4.624822   0.000000
     6  C    2.866751   2.420582   1.529070   5.779883   1.520910
     7  C    5.271986   4.828730   6.510942   2.419502   4.754418
     8  O    2.920039   2.312667   3.022197   3.624939   1.397806
     9  C    3.860503   3.544405   5.004323   2.865776   3.461831
    10  C    6.281990   5.699880   7.062066   1.416660   5.266621
    11  C    3.726702   2.960094   4.400035   2.417761   2.400962
    12  C    5.132484   4.331400   5.302323   1.410773   3.441085
    13  C    1.519173   2.432296   1.528299   7.118637   2.894876
    14  H    1.084151   2.055595   2.794989   5.684102   2.710579
    15  H    1.081210   2.003418   3.448582   6.778576   3.274920
    16  H    2.793371   3.297380   1.086844   6.262547   2.851521
    17  H    3.445338   3.841085   1.085621   7.552948   3.462245
    18  H    3.271672   1.979794   3.460316   4.429358   1.081088
    19  H    3.287570   2.717504   2.149510   6.509065   2.114517
    20  H    3.838620   3.336498   2.176223   5.596374   2.134318
    21  H    5.746217   5.525827   7.107325   3.346499   5.589762
    22  H    5.423086   4.812148   6.893658   2.713041   4.887689
    23  H    4.072864   4.039958   4.870899   3.301862   3.828871
    24  H    3.216595   3.089124   4.845812   3.832247   3.439374
    25  H    7.235224   6.603093   8.115266   2.009132   6.221446
    26  H    6.527640   6.112883   7.062622   2.047390   5.585308
    27  H    3.816542   2.757627   4.786776   2.696436   2.424021
    28  H    5.470155   4.491875   5.361867   2.013109   3.408777
    29  H    5.383062   4.812535   5.237395   2.052703   3.848851
    30  H    2.135648   3.354640   2.170839   7.816027   3.875761
    31  H    2.140889   2.727842   2.155644   7.781198   3.296835
                    6          7          8          9         10
     6  C    0.000000
     7  C    6.082273   0.000000
     8  O    2.376925   3.756513   0.000000
     9  C    4.702215   1.531223   2.425647   0.000000
    10  C    6.472846   1.520052   4.130584   2.508621   0.000000
    11  C    3.688757   2.500787   1.417548   1.522973   2.868560
    12  C    4.451004   2.865963   2.372249   2.502940   2.361402
    13  C    2.497594   6.540507   3.568623   5.049530   7.387376
    14  H    3.294461   4.615078   2.674378   3.165698   5.644450
    15  H    3.825080   5.653337   3.854565   4.381662   6.826918
    16  H    2.159906   6.079274   2.809302   4.571469   6.565842
    17  H    2.153857   7.561937   4.002919   6.058967   8.043474
    18  H    2.155284   4.904236   2.029628   3.854571   5.283076
    19  H    1.086541   6.864511   3.283198   5.539033   7.289749
    20  H    1.084572   6.273067   2.554509   4.974710   6.410491
    21  H    6.866247   1.085889   4.562540   2.164487   2.140995
    22  H    6.334218   1.087243   4.143731   2.159582   2.137771
    23  H    4.806125   2.156749   2.599985   1.087889   2.808493
    24  H    4.703906   2.167393   2.742127   1.084561   3.453375
    25  H    7.474044   2.164032   5.155502   3.457997   1.081401
    26  H    6.621581   2.158761   4.297913   2.804571   1.087738
    27  H    3.888161   2.795190   2.050802   2.144720   3.289060
    28  H    4.269822   3.836483   2.663482   3.446334   3.268617
    29  H    4.594450   3.265658   2.585138   2.785428   2.628852
    30  H    3.452637   7.024171   4.328334   5.531164   7.934011
    31  H    2.788269   7.293236   4.272154   5.851278   8.153296
                   11         12         13         14         15
    11  C    0.000000
    12  C    1.523527   0.000000
    13  C    4.724028   5.937560   0.000000
    14  H    3.360984   4.734468   2.153377   0.000000
    15  H    4.435060   5.917829   2.164328   1.753657   0.000000
    16  H    4.152712   4.947366   2.152855   2.654917   3.802388
    17  H    5.407335   6.188484   2.164652   3.799624   4.288380
    18  H    2.556231   3.373751   3.816414   3.666255   3.980335
    19  H    4.460693   5.238364   2.781575   3.974764   4.057698
    20  H    3.826586   4.213245   3.454555   4.084336   4.844063
    21  H    3.446577   3.831687   7.032467   4.971026   6.031542
    22  H    2.811116   3.305451   6.791893   4.935295   5.665220
    23  H    2.135314   2.789992   5.057293   3.191397   4.702711
    24  H    2.153682   3.445741   4.566914   2.542178   3.533971
    25  H    3.836070   3.260876   8.398979   6.619732   7.706801
    26  H    3.274960   2.624057   7.505019   5.775431   7.156609
    27  H    1.084274   2.135569   4.928212   3.698110   4.357812
    28  H    2.157076   1.081600   6.128469   5.258502   6.289927
    29  H    2.150532   1.087757   6.027113   4.847402   6.255020
    30  H    5.446388   6.660848   1.086310   2.443551   2.519360
    31  H    5.391456   6.611306   1.087553   3.041782   2.445184
                   16         17         18         19         20
    16  H    0.000000
    17  H    1.746268   0.000000
    18  H    3.863337   4.271360   0.000000
    19  H    3.047939   2.444318   2.372154   0.000000
    20  H    2.477489   2.535727   2.529307   1.750352   0.000000
    21  H    6.589780   8.156203   5.852965   7.686448   7.099254
    22  H    6.616169   7.962411   4.860329   6.983224   6.610446
    23  H    4.224148   5.866541   4.409030   5.764670   4.978283
    24  H    4.527107   5.925182   3.924406   5.449027   5.198608
    25  H    7.641951   9.102384   6.136027   8.245411   7.405676
    26  H    6.422521   7.991906   5.750766   7.535099   6.466875
    27  H    4.764797   5.791990   2.208453   4.434952   4.155240
    28  H    5.158424   6.151336   3.083923   4.920048   3.885441
    29  H    4.691318   6.054265   4.008840   5.507392   4.222887
    30  H    2.460634   2.545778   4.849206   3.790375   4.303806
    31  H    3.047856   2.462406   4.009772   2.632192   3.798221
                   21         22         23         24         25
    21  H    0.000000
    22  H    1.751209   0.000000
    23  H    2.455512   3.052037   0.000000
    24  H    2.541825   2.461892   1.752721   0.000000
    25  H    2.522492   2.441117   3.813989   4.292804   0.000000
    26  H    2.457866   3.044456   2.668374   3.811724   1.759326
    27  H    3.801550   2.670714   3.029501   2.444952   4.073421
    28  H    4.849970   4.095172   3.785448   4.275825   4.018373
    29  H    4.040399   3.967087   2.632576   3.789085   3.582146
    30  H    7.375448   7.354476   5.389288   4.985400   8.953406
    31  H    7.841434   7.420257   5.986593   5.323321   9.133832
                   26         27         28         29         30
    26  H    0.000000
    27  H    3.958449   0.000000
    28  H    3.580515   2.437353   0.000000
    29  H    2.420290   3.035022   1.762283   0.000000
    30  H    7.957383   5.752942   6.957548   6.636331   0.000000
    31  H    8.361628   5.414281   6.676106   6.809692   1.752995
                   31
    31  H    0.000000
 Stoichiometry    C10H18O3
 Framework group  C1[X(C10H18O3)]
 Deg. of freedom    87
 Full point group                 C1      NOp   1
 Largest Abelian subgroup         C1      NOp   1
 Largest concise Abelian subgroup C1      NOp   1
                         Standard orientation:                         
 ---------------------------------------------------------------------
 Center     Atomic      Atomic             Coordinates (Angstroms)
 Number     Number       Type             X           Y           Z
 ---------------------------------------------------------------------
      1          6           0       -2.309938    1.444316   -0.187982
      2          8           0       -1.660219    0.618382   -1.146732
      3          6           0       -3.169459   -0.595837    0.967037
      4          8           0        3.327202   -0.971170   -0.287206
      5          6           0       -1.268029   -0.654084   -0.702277
      6          6           0       -2.432006   -1.418169   -0.090313
      7          6           0        2.957317    1.398676    0.030609
      8          8           0       -0.236802   -0.567599    0.237379
      9          6           0        1.493887    1.125203    0.388700
     10          6           0        3.821833    0.191038    0.354306
     11          6           0        1.041244   -0.185094   -0.241922
     12          6           0        2.013417   -1.306436    0.102469
     13          6           0       -3.542953    0.767451    0.385964
     14          1           0       -1.612459    1.696547    0.602768
     15          1           0       -2.564706    2.353167   -0.715332
     16          1           0       -2.539882   -0.460186    1.842515
     17          1           0       -4.056716   -1.129252    1.293864
     18          1           0       -0.903110   -1.157193   -1.586848
     19          1           0       -3.116113   -1.662727   -0.898249
     20          1           0       -2.062169   -2.352879    0.316915
     21          1           0        3.326228    2.262026    0.576215
     22          1           0        3.044453    1.622934   -1.029680
     23          1           0        1.389315    1.044806    1.468563
     24          1           0        0.858733    1.939771    0.058049
     25          1           0        4.835527    0.324180    0.001990
     26          1           0        3.851438    0.016947    1.427614
     27          1           0        1.003262   -0.074720   -1.319895
     28          1           0        1.749717   -2.214469   -0.422694
     29          1           0        1.984815   -1.502334    1.172058
     30          1           0       -3.977804    1.410972    1.145474
     31          1           0       -4.283861    0.643123   -0.400401
 ---------------------------------------------------------------------
 Rotational constants (GHZ):           1.9387691           0.4094337           0.3711396
 Standard basis: 6-311++G(2d,2p) (5D, 7F)
 There are   557 symmetry adapted cartesian basis functions of A   symmetry.
 There are   531 symmetry adapted basis functions of A   symmetry.
   531 basis functions,   762 primitive gaussians,   557 cartesian basis functions
    51 alpha electrons       51 beta electrons
       nuclear repulsion energy       891.7698767997 Hartrees.
 NAtoms=   31 NActive=   31 NUniq=   31 SFac= 1.00D+00 NAtFMM=   60 NAOKFM=F Big=F
 Integral buffers will be    131072 words long.
 Raffenetti 2 integral format.
 Two-electron integral symmetry is turned on.
 ------------------------------------------------------------------------------
 Polarizable Continuum Model (PCM)
 =================================
 Model                : PCM.
 Atomic radii         : UFF (Universal Force Field).
 Polarization charges : Total charges.
 Charge compensation  : None.
 Solution method      : On-the-fly selection.
 Cavity type          : Scaled VdW (van der Waals Surface) (Alpha=1.100).
 Cavity algorithm     : GePol (No added spheres)
                        Default sphere list used, NSphG=   31.
                        Lebedev-Laikov grids with approx.  5.0 points / Ang**2.
                        Smoothing algorithm: York/Karplus (Gamma=1.0000).
                        Polarization charges: spherical gaussians, with
                                              point-specific exponents (IZeta= 3).
                        Self-potential: point-specific (ISelfS= 7).
                        Self-field    : sphere-specific E.n sum rule (ISelfD= 2).
 1st derivatives      : Analytical E(r).r(x)/FMM algorithm (CHGder, D1EAlg=3).
                        Cavity 1st derivative terms included.
 Solvent              : Water, Eps=  78.355300 Eps(inf)=   1.777849
 ------------------------------------------------------------------------------
 One-electron integrals computed using PRISM.
 NBasis=   531 RedAO= T EigKep=  5.12D-06  NBF=   531
 NBsUse=   531 1.00D-06 EigRej= -1.00D+00 NBFU=   531
 ExpMin= 3.60D-02 ExpMax= 8.59D+03 ExpMxC= 1.30D+03 IAcc=3 IRadAn=         5 AccDes= 0.00D+00
 Harris functional with IExCor= 1009 and IRadAn=       5 diagonalized for initial guess.
 HarFok:  IExCor= 1009 AccDes= 0.00D+00 IRadAn=         5 IDoV= 1 UseB2=F ITyADJ=14
 ICtDFT=  3500011 ScaDFX=  1.000000  1.000000  1.000000  1.000000
 FoFCou: FMM=F IPFlag=           0 FMFlag=      100000 FMFlg1=           0
         NFxFlg=           0 DoJE=T BraDBF=F KetDBF=T FulRan=T
         wScrn=  0.000000 ICntrl=       500 IOpCl=  0 I1Cent=   200000004 NGrid=           0
         NMat0=    1 NMatS0=      1 NMatT0=    0 NMatD0=    1 NMtDS0=    0 NMtDT0=    0
 Petite list used in FoFCou.
 Requested convergence on RMS density matrix=1.00D-08 within 128 cycles.
 Requested convergence on MAX density matrix=1.00D-06.
 Requested convergence on             energy=1.00D-06.
 No special actions if energy rises.
 Inv3:  Mode=1 IEnd=    12497043.
 Iteration    1 A*A^-1 deviation from unit magnitude is 4.44D-15 for   2022.
 Iteration    1 A*A^-1 deviation from orthogonality  is 1.89D-15 for   2041    951.
 Iteration    1 A^-1*A deviation from unit magnitude is 4.22D-15 for   2006.
 Iteration    1 A^-1*A deviation from orthogonality  is 2.83D-15 for   2040    862.
 Error on total polarization charges =  0.01494
 SCF Done:  E(RM062X) =  -617.502520719     A.U. after   12 cycles
            NFock= 12  Conv=0.49D-08     -V/T= 2.0035

 **********************************************************************

            Population analysis using the SCF density.

 **********************************************************************

 Orbital symmetries:
       Occupied  (A) (A) (A) (A) (A) (A) (A) (A) (A) (A) (A) (A)
                 (A) (A) (A) (A) (A) (A) (A) (A) (A) (A) (A) (A)
                 (A) (A) (A) (A) (A) (A) (A) (A) (A) (A) (A) (A)
                 (A) (A) (A) (A) (A) (A) (A) (A) (A) (A) (A) (A)
                 (A) (A) (A)
       Virtual   (A) (A) (A) (A) (A) (A) (A) (A) (A) (A) (A) (A)
                 (A) (A) (A) (A) (A) (A) (A) (A) (A) (A) (A) (A)
                 (A) (A) (A) (A) (A) (A) (A) (A) (A) (A) (A) (A)
                 (A) (A) (A) (A) (A) (A) (A) (A) (A) (A) (A) (A)
                 (A) (A) (A) (A) (A) (A) (A) (A) (A) (A) (A) (A)
                 (A) (A) (A) (A) (A) (A) (A) (A) (A) (A) (A) (A)
                 (A) (A) (A) (A) (A) (A) (A) (A) (A) (A) (A) (A)
                 (A) (A) (A) (A) (A) (A) (A) (A) (A) (A) (A) (A)
                 (A) (A) (A) (A) (A) (A) (A) (A) (A) (A) (A) (A)
                 (A) (A) (A) (A) (A) (A) (A) (A) (A) (A) (A) (A)
                 (A) (A) (A) (A) (A) (A) (A) (A) (A) (A) (A) (A)
                 (A) (A) (A) (A) (A) (A) (A) (A) (A) (A) (A) (A)
                 (A) (A) (A) (A) (A) (A) (A) (A) (A) (A) (A) (A)
                 (A) (A) (A) (A) (A) (A) (A) (A) (A) (A) (A) (A)
                 (A) (A) (A) (A) (A) (A) (A) (A) (A) (A) (A) (A)
                 (A) (A) (A) (A) (A) (A) (A) (A) (A) (A) (A) (A)
                 (A) (A) (A) (A) (A) (A) (A) (A) (A) (A) (A) (A)
                 (A) (A) (A) (A) (A) (A) (A) (A) (A) (A) (A) (A)
                 (A) (A) (A) (A) (A) (A) (A) (A) (A) (A) (A) (A)
                 (A) (A) (A) (A) (A) (A) (A) (A) (A) (A) (A) (A)
                 (A) (A) (A) (A) (A) (A) (A) (A) (A) (A) (A) (A)
                 (A) (A) (A) (A) (A) (A) (A) (A) (A) (A) (A) (A)
                 (A) (A) (A) (A) (A) (A) (A) (A) (A) (A) (A) (A)
                 (A) (A) (A) (A) (A) (A) (A) (A) (A) (A) (A) (A)
                 (A) (A) (A) (A) (A) (A) (A) (A) (A) (A) (A) (A)
                 (A) (A) (A) (A) (A) (A) (A) (A) (A) (A) (A) (A)
                 (A) (A) (A) (A) (A) (A) (A) (A) (A) (A) (A) (A)
                 (A) (A) (A) (A) (A) (A) (A) (A) (A) (A) (A) (A)
                 (A) (A) (A) (A) (A) (A) (A) (A) (A) (A) (A) (A)
                 (A) (A) (A) (A) (A) (A) (A) (A) (A) (A) (A) (A)
                 (A) (A) (A) (A) (A) (A) (A) (A) (A) (A) (A) (A)
                 (A) (A) (A) (A) (A) (A) (A) (A) (A) (A) (A) (A)
                 (A) (A) (A) (A) (A) (A) (A) (A) (A) (A) (A) (A)
                 (A) (A) (A) (A) (A) (A) (A) (A) (A) (A) (A) (A)
                 (A) (A) (A) (A) (A) (A) (A) (A) (A) (A) (A) (A)
                 (A) (A) (A) (A) (A) (A) (A) (A) (A) (A) (A) (A)
                 (A) (A) (A) (A) (A) (A) (A) (A) (A) (A) (A) (A)
                 (A) (A) (A) (A) (A) (A) (A) (A) (A) (A) (A) (A)
                 (A) (A) (A) (A) (A) (A) (A) (A) (A) (A) (A) (A)
                 (A) (A) (A) (A) (A) (A) (A) (A) (A) (A) (A) (A)
 The electronic state is 1-A.
 Alpha  occ. eigenvalues --  -19.63096 -19.62890 -19.62768 -10.63466 -10.58657
 Alpha  occ. eigenvalues --  -10.57851 -10.57804 -10.57623 -10.53121 -10.53047
 Alpha  occ. eigenvalues --  -10.53000 -10.52961 -10.52762  -1.20274  -1.16744
 Alpha  occ. eigenvalues --   -1.13624  -0.91024  -0.89774  -0.87538  -0.84643
 Alpha  occ. eigenvalues --   -0.74697  -0.74195  -0.73358  -0.71177  -0.65867
 Alpha  occ. eigenvalues --   -0.64277  -0.59939  -0.58718  -0.57669  -0.56245
 Alpha  occ. eigenvalues --   -0.54375  -0.53305  -0.51952  -0.51271  -0.49842
 Alpha  occ. eigenvalues --   -0.48062  -0.47737  -0.46005  -0.45442  -0.44996
 Alpha  occ. eigenvalues --   -0.44188  -0.42046  -0.40884  -0.40519  -0.39530
 Alpha  occ. eigenvalues --   -0.38537  -0.37906  -0.36157  -0.35360  -0.33459
 Alpha  occ. eigenvalues --   -0.31680
 Alpha virt. eigenvalues --   -0.00073   0.00753   0.00844   0.01057   0.02153
 Alpha virt. eigenvalues --    0.02497   0.02632   0.03387   0.03568   0.04345
 Alpha virt. eigenvalues --    0.04704   0.04816   0.05542   0.05830   0.07210
 Alpha virt. eigenvalues --    0.07497   0.07643   0.08044   0.08681   0.08741
 Alpha virt. eigenvalues --    0.10097   0.10618   0.11063   0.11753   0.12075
 Alpha virt. eigenvalues --    0.12218   0.12612   0.13011   0.13218   0.13487
 Alpha virt. eigenvalues --    0.13804   0.13996   0.14140   0.14585   0.14955
 Alpha virt. eigenvalues --    0.15075   0.15381   0.15476   0.15736   0.16179
 Alpha virt. eigenvalues --    0.16549   0.16702   0.17498   0.17672   0.17846
 Alpha virt. eigenvalues --    0.17999   0.18366   0.18911   0.19283   0.19610
 Alpha virt. eigenvalues --    0.19766   0.20514   0.20987   0.21220   0.21607
 Alpha virt. eigenvalues --    0.21984   0.22383   0.22614   0.23131   0.23676
 Alpha virt. eigenvalues --    0.25295   0.25666   0.26221   0.26614   0.26833
 Alpha virt. eigenvalues --    0.27572   0.27846   0.28285   0.29106   0.29452
 Alpha virt. eigenvalues --    0.30104   0.30517   0.30604   0.30968   0.31177
 Alpha virt. eigenvalues --    0.32101   0.32254   0.32698   0.33567   0.34579
 Alpha virt. eigenvalues --    0.35003   0.35152   0.35366   0.35822   0.36004
 Alpha virt. eigenvalues --    0.36631   0.36970   0.37185   0.37631   0.37918
 Alpha virt. eigenvalues --    0.38635   0.38838   0.39637   0.39742   0.40961
 Alpha virt. eigenvalues --    0.41643   0.42392   0.43100   0.43704   0.44336
 Alpha virt. eigenvalues --    0.45285   0.47715   0.48864   0.49622   0.50530
 Alpha virt. eigenvalues --    0.51677   0.52354   0.53309   0.54873   0.55430
 Alpha virt. eigenvalues --    0.55798   0.56254   0.58540   0.58635   0.59580
 Alpha virt. eigenvalues --    0.59941   0.60543   0.61348   0.61723   0.62007
 Alpha virt. eigenvalues --    0.62260   0.62840   0.62918   0.63577   0.64538
 Alpha virt. eigenvalues --    0.64912   0.65427   0.65918   0.66243   0.66979
 Alpha virt. eigenvalues --    0.67568   0.67907   0.68766   0.69196   0.69976
 Alpha virt. eigenvalues --    0.70830   0.71757   0.72215   0.72374   0.73309
 Alpha virt. eigenvalues --    0.73535   0.74469   0.74994   0.75168   0.75607
 Alpha virt. eigenvalues --    0.75915   0.76196   0.76882   0.78100   0.79449
 Alpha virt. eigenvalues --    0.79850   0.81600   0.84549   0.84705   0.85396
 Alpha virt. eigenvalues --    0.85917   0.86754   0.87448   0.88027   0.90066
 Alpha virt. eigenvalues --    0.90300   0.91539   0.92702   0.94447   0.95652
 Alpha virt. eigenvalues --    0.96424   0.97447   0.99348   1.00161   1.02452
 Alpha virt. eigenvalues --    1.02808   1.03492   1.04595   1.05274   1.06565
 Alpha virt. eigenvalues --    1.07668   1.08415   1.09486   1.10535   1.11939
 Alpha virt. eigenvalues --    1.12182   1.13702   1.14303   1.16215   1.16837
 Alpha virt. eigenvalues --    1.17791   1.18477   1.18892   1.19574   1.20763
 Alpha virt. eigenvalues --    1.20896   1.21621   1.23349   1.23848   1.24297
 Alpha virt. eigenvalues --    1.25109   1.26032   1.26293   1.26920   1.27403
 Alpha virt. eigenvalues --    1.28200   1.28637   1.29575   1.30399   1.31477
 Alpha virt. eigenvalues --    1.32081   1.32330   1.33282   1.33778   1.34124
 Alpha virt. eigenvalues --    1.34755   1.35714   1.35987   1.36763   1.37165
 Alpha virt. eigenvalues --    1.38244   1.39288   1.40186   1.40410   1.41153
 Alpha virt. eigenvalues --    1.42231   1.42662   1.43162   1.44032   1.45172
 Alpha virt. eigenvalues --    1.45839   1.46439   1.47064   1.47628   1.48564
 Alpha virt. eigenvalues --    1.48981   1.49278   1.50185   1.51304   1.51978
 Alpha virt. eigenvalues --    1.52378   1.53428   1.54318   1.55397   1.56020
 Alpha virt. eigenvalues --    1.56301   1.56654   1.58045   1.58173   1.58789
 Alpha virt. eigenvalues --    1.59012   1.59528   1.60307   1.60539   1.62413
 Alpha virt. eigenvalues --    1.62685   1.63300   1.64372   1.64857   1.65855
 Alpha virt. eigenvalues --    1.67818   1.68723   1.69245   1.71089   1.72446
 Alpha virt. eigenvalues --    1.73878   1.74210   1.74800   1.76875   1.77989
 Alpha virt. eigenvalues --    1.78409   1.78711   1.80929   1.81304   1.84419
 Alpha virt. eigenvalues --    1.85668   1.88344   1.90463   1.94783   1.96970
 Alpha virt. eigenvalues --    2.01383   2.06067   2.13945   2.17481   2.20606
 Alpha virt. eigenvalues --    2.24966   2.26208   2.31082   2.32873   2.38253
 Alpha virt. eigenvalues --    2.41919   2.42881   2.45237   2.45856   2.51985
 Alpha virt. eigenvalues --    2.61007   2.75830   2.76765   2.79771   2.80517
 Alpha virt. eigenvalues --    2.83226   2.88744   2.92295   2.92870   2.93800
 Alpha virt. eigenvalues --    2.96024   2.97584   3.01818   3.02834   3.03047
 Alpha virt. eigenvalues --    3.06035   3.07286   3.09120   3.09793   3.11660
 Alpha virt. eigenvalues --    3.13650   3.14114   3.17504   3.18967   3.21364
 Alpha virt. eigenvalues --    3.25553   3.29785   3.31186   3.32765   3.34958
 Alpha virt. eigenvalues --    3.35866   3.36453   3.37985   3.40585   3.41318
 Alpha virt. eigenvalues --    3.41733   3.43214   3.44319   3.44981   3.47174
 Alpha virt. eigenvalues --    3.47460   3.49810   3.50355   3.50850   3.52059
 Alpha virt. eigenvalues --    3.52491   3.53014   3.53857   3.54900   3.56117
 Alpha virt. eigenvalues --    3.56557   3.57572   3.58548   3.59052   3.59933
 Alpha virt. eigenvalues --    3.60946   3.61640   3.61948   3.63900   3.64703
 Alpha virt. eigenvalues --    3.65942   3.67164   3.67890   3.68777   3.69500
 Alpha virt. eigenvalues --    3.69692   3.70149   3.70787   3.72425   3.74206
 Alpha virt. eigenvalues --    3.74503   3.74643   3.76203   3.76648   3.77613
 Alpha virt. eigenvalues --    3.78044   3.78614   3.79365   3.81901   3.83300
 Alpha virt. eigenvalues --    3.86717   3.87892   3.90063   3.90579   3.92509
 Alpha virt. eigenvalues --    3.93716   3.93939   3.94422   3.96817   3.97657
 Alpha virt. eigenvalues --    3.99507   4.01033   4.02931   4.03133   4.03245
 Alpha virt. eigenvalues --    4.04459   4.05601   4.06381   4.07032   4.07605
 Alpha virt. eigenvalues --    4.07995   4.08469   4.08759   4.10335   4.11268
 Alpha virt. eigenvalues --    4.11929   4.12272   4.13244   4.15083   4.15882
 Alpha virt. eigenvalues --    4.16444   4.17311   4.18866   4.19297   4.20661
 Alpha virt. eigenvalues --    4.21761   4.23316   4.24535   4.25254   4.27754
 Alpha virt. eigenvalues --    4.29084   4.29746   4.30663   4.30683   4.32492
 Alpha virt. eigenvalues --    4.32938   4.33419   4.34255   4.35787   4.38087
 Alpha virt. eigenvalues --    4.41636   4.42739   4.44949   4.46277   4.47165
 Alpha virt. eigenvalues --    4.58342   4.61503   4.75019   4.76796   4.82906
 Alpha virt. eigenvalues --    4.85019   4.92676   4.95250   4.99563   5.00210
 Alpha virt. eigenvalues --    5.06431   5.07250   5.07669   5.08688   5.11611
 Alpha virt. eigenvalues --    5.12624   5.13959   5.15543   5.30422   5.39803
 Alpha virt. eigenvalues --    5.42618   5.56752   5.58802   5.63576   5.86072
 Alpha virt. eigenvalues --    5.87267   6.06081   7.01893   7.04840   7.05710
 Alpha virt. eigenvalues --    7.08934   7.10420   7.12947   7.16473   7.19391
 Alpha virt. eigenvalues --    7.28455   7.34623   7.38815   7.43603   7.53363
 Alpha virt. eigenvalues --    7.55168   7.67016  23.96336  23.97251  24.06552
 Alpha virt. eigenvalues --   24.07396  24.10960  24.12989  24.14451  24.15119
 Alpha virt. eigenvalues --   24.16102  24.20422  50.15946  50.17471  50.25776
          Condensed to atoms (all electrons):
               1          2          3          4          5          6
     1  C    5.470762   0.147632   0.003067   0.000339  -0.530461   0.218541
     2  O    0.147632   8.188672  -0.001439   0.000509   0.315846  -0.067832
     3  C    0.003067  -0.001439   5.628280   0.000176  -0.055875  -0.112988
     4  O    0.000339   0.000509   0.000176   8.326299   0.004320   0.001115
     5  C   -0.530461   0.315846  -0.055875   0.004320   7.100765  -0.778726
     6  C    0.218541  -0.067832  -0.112988   0.001115  -0.778726   6.636679
     7  C   -0.024923   0.003662   0.000739  -0.028931   0.012102  -0.002721
     8  O    0.008396  -0.034079  -0.025520   0.001090   0.287581  -0.078250
     9  C    0.024314  -0.108234   0.058194  -0.019009   0.204103  -0.149330
    10  C   -0.000453   0.001139  -0.003706   0.101593  -0.030553  -0.003684
    11  C    0.139963   0.060786  -0.043894   0.013960  -1.022637   0.046834
    12  C   -0.018907   0.024796  -0.004956   0.162299   0.116607   0.071488
    13  C   -0.113050  -0.081846   0.036723  -0.000059   0.221740  -0.208414
    14  H    0.469971  -0.033160  -0.006294  -0.000097   0.013746   0.023830
    15  H    0.422691  -0.069380   0.008563   0.000043  -0.019027   0.002204
    16  H    0.005061   0.001601   0.513550   0.000015  -0.010062  -0.053052
    17  H    0.015812  -0.005030   0.430380   0.000005   0.022869  -0.051774
    18  H   -0.025315  -0.054808  -0.004051   0.001392   0.496975  -0.040485
    19  H    0.017678  -0.009932  -0.013760  -0.000069  -0.153054   0.529293
    20  H    0.006062   0.010500  -0.035809   0.000375  -0.026518   0.426873
    21  H    0.001172  -0.000694   0.000296   0.006607  -0.006178  -0.001549
    22  H    0.000796   0.000226   0.000359   0.000665   0.006667   0.003906
    23  H    0.000982   0.000685  -0.002814  -0.000035  -0.005216   0.004087
    24  H    0.001602   0.009905   0.000937  -0.001265   0.022169   0.003032
    25  H   -0.000125   0.000116  -0.000205  -0.072068  -0.003687  -0.000197
    26  H   -0.000087  -0.000191   0.000463  -0.044595   0.007567   0.000919
    27  H    0.003035  -0.012021  -0.002223  -0.011915  -0.053612  -0.030800
    28  H    0.000153   0.000076   0.004411  -0.078308   0.014557  -0.018905
    29  H   -0.000733   0.000353  -0.000697  -0.036623   0.003992   0.013445
    30  H   -0.043392   0.010758  -0.038203   0.000006   0.001064  -0.005999
    31  H   -0.078662   0.000804  -0.026913  -0.000011   0.012746  -0.012034
               7          8          9         10         11         12
     1  C   -0.024923   0.008396   0.024314  -0.000453   0.139963  -0.018907
     2  O    0.003662  -0.034079  -0.108234   0.001139   0.060786   0.024796
     3  C    0.000739  -0.025520   0.058194  -0.003706  -0.043894  -0.004956
     4  O   -0.028931   0.001090  -0.019009   0.101593   0.013960   0.162299
     5  C    0.012102   0.287581   0.204103  -0.030553  -1.022637   0.116607
     6  C   -0.002721  -0.078250  -0.149330  -0.003684   0.046834   0.071488
     7  C    5.936165   0.011659  -0.259667   0.008292  -0.190501   0.226293
     8  O    0.011659   8.257134  -0.113098   0.009988   0.158490  -0.189519
     9  C   -0.259667  -0.113098   7.401922  -0.044003  -1.454504  -0.222555
    10  C    0.008292   0.009988  -0.044003   5.424445   0.187333  -0.236510
    11  C   -0.190501   0.158490  -1.454504   0.187333   8.205065  -0.453303
    12  C    0.226293  -0.189519  -0.222555  -0.236510  -0.453303   6.155648
    13  C    0.006195  -0.012470  -0.086546   0.005248   0.104533   0.004380
    14  H   -0.006393   0.004769   0.027529  -0.002456  -0.058031   0.007347
    15  H   -0.003229  -0.000069   0.004382   0.000245   0.009941  -0.002358
    16  H    0.001068  -0.003532  -0.001548  -0.000183  -0.004717   0.003394
    17  H   -0.000104  -0.000332   0.000667  -0.000026  -0.000552  -0.000908
    18  H   -0.003409  -0.024582   0.000414  -0.000517  -0.013467  -0.008000
    19  H   -0.000377   0.009418  -0.009961   0.000376   0.023700   0.001337
    20  H   -0.000888  -0.005271   0.014895  -0.000970  -0.021448   0.000018
    21  H    0.407321  -0.001815   0.001500  -0.024405  -0.012101  -0.011412
    22  H    0.470266   0.000133  -0.009449  -0.082208  -0.027344   0.010392
    23  H   -0.108635  -0.002468   0.468252   0.003322   0.043312  -0.042127
    24  H    0.055865   0.001171   0.432012  -0.018294  -0.113780   0.019712
    25  H   -0.036100   0.000884  -0.000136   0.430118  -0.001620   0.019533
    26  H   -0.035151   0.000594  -0.017489   0.446661   0.028143  -0.033614
    27  H   -0.029021  -0.028719   0.053922   0.020365   0.501443  -0.102699
    28  H    0.012925   0.002490   0.043199   0.006061  -0.071848   0.428557
    29  H   -0.007847   0.008214  -0.003955  -0.003597  -0.030103   0.385102
    30  H   -0.000256   0.000777   0.004875   0.000141  -0.000152  -0.002230
    31  H    0.000633  -0.000424  -0.002508  -0.000088  -0.005957   0.002154
              13         14         15         16         17         18
     1  C   -0.113050   0.469971   0.422691   0.005061   0.015812  -0.025315
     2  O   -0.081846  -0.033160  -0.069380   0.001601  -0.005030  -0.054808
     3  C    0.036723  -0.006294   0.008563   0.513550   0.430380  -0.004051
     4  O   -0.000059  -0.000097   0.000043   0.000015   0.000005   0.001392
     5  C    0.221740   0.013746  -0.019027  -0.010062   0.022869   0.496975
     6  C   -0.208414   0.023830   0.002204  -0.053052  -0.051774  -0.040485
     7  C    0.006195  -0.006393  -0.003229   0.001068  -0.000104  -0.003409
     8  O   -0.012470   0.004769  -0.000069  -0.003532  -0.000332  -0.024582
     9  C   -0.086546   0.027529   0.004382  -0.001548   0.000667   0.000414
    10  C    0.005248  -0.002456   0.000245  -0.000183  -0.000026  -0.000517
    11  C    0.104533  -0.058031   0.009941  -0.004717  -0.000552  -0.013467
    12  C    0.004380   0.007347  -0.002358   0.003394  -0.000908  -0.008000
    13  C    5.786868  -0.073793  -0.008243  -0.067575  -0.036224   0.011110
    14  H   -0.073793   0.521359  -0.019928  -0.000901  -0.001563   0.000675
    15  H   -0.008243  -0.019928   0.478714  -0.002530   0.002109  -0.000539
    16  H   -0.067575  -0.000901  -0.002530   0.457686  -0.007408  -0.002885
    17  H   -0.036224  -0.001563   0.002109  -0.007408   0.464003   0.002169
    18  H    0.011110   0.000675  -0.000539  -0.002885   0.002169   0.445320
    19  H   -0.015530  -0.001736   0.000982   0.001701  -0.003154  -0.012240
    20  H   -0.005391   0.000417   0.000858  -0.001647  -0.007572  -0.010071
    21  H   -0.000535  -0.000703   0.000183  -0.000010   0.000001  -0.000234
    22  H   -0.000904   0.001364  -0.000036  -0.000086   0.000026   0.000812
    23  H    0.001587  -0.002426   0.000708  -0.000928  -0.000007   0.001152
    24  H   -0.011392   0.000850  -0.003104   0.001141   0.000031  -0.001810
    25  H    0.000253  -0.000358   0.000001   0.000043  -0.000006  -0.000157
    26  H   -0.000469   0.000666  -0.000044  -0.000111   0.000028   0.000510
    27  H    0.007691  -0.004767   0.002126   0.000131  -0.000177  -0.000315
    28  H   -0.000745  -0.000855  -0.000048   0.000382  -0.000067  -0.006173
    29  H    0.001325   0.000515   0.000074  -0.001039   0.000326   0.001900
    30  H    0.445187  -0.001072  -0.009095  -0.004513  -0.005926   0.000729
    31  H    0.477304   0.005221  -0.007658   0.001874  -0.002746   0.000699
              19         20         21         22         23         24
     1  C    0.017678   0.006062   0.001172   0.000796   0.000982   0.001602
     2  O   -0.009932   0.010500  -0.000694   0.000226   0.000685   0.009905
     3  C   -0.013760  -0.035809   0.000296   0.000359  -0.002814   0.000937
     4  O   -0.000069   0.000375   0.006607   0.000665  -0.000035  -0.001265
     5  C   -0.153054  -0.026518  -0.006178   0.006667  -0.005216   0.022169
     6  C    0.529293   0.426873  -0.001549   0.003906   0.004087   0.003032
     7  C   -0.000377  -0.000888   0.407321   0.470266  -0.108635   0.055865
     8  O    0.009418  -0.005271  -0.001815   0.000133  -0.002468   0.001171
     9  C   -0.009961   0.014895   0.001500  -0.009449   0.468252   0.432012
    10  C    0.000376  -0.000970  -0.024405  -0.082208   0.003322  -0.018294
    11  C    0.023700  -0.021448  -0.012101  -0.027344   0.043312  -0.113780
    12  C    0.001337   0.000018  -0.011412   0.010392  -0.042127   0.019712
    13  C   -0.015530  -0.005391  -0.000535  -0.000904   0.001587  -0.011392
    14  H   -0.001736   0.000417  -0.000703   0.001364  -0.002426   0.000850
    15  H    0.000982   0.000858   0.000183  -0.000036   0.000708  -0.003104
    16  H    0.001701  -0.001647  -0.000010  -0.000086  -0.000928   0.001141
    17  H   -0.003154  -0.007572   0.000001   0.000026  -0.000007   0.000031
    18  H   -0.012240  -0.010071  -0.000234   0.000812   0.001152  -0.001810
    19  H    0.452689  -0.004493  -0.000017  -0.000092   0.000405  -0.000389
    20  H   -0.004493   0.478527  -0.000002   0.000168  -0.000499   0.000278
    21  H   -0.000017  -0.000002   0.495098  -0.008623  -0.004234  -0.013273
    22  H   -0.000092   0.000168  -0.008623   0.476765   0.002402  -0.003765
    23  H    0.000405  -0.000499  -0.004234   0.002402   0.451859  -0.019434
    24  H   -0.000389   0.000278  -0.013273  -0.003765  -0.019434   0.496526
    25  H    0.000034  -0.000082  -0.008313  -0.005778  -0.000916   0.001296
    26  H   -0.000083   0.000154   0.001231   0.004134  -0.007752   0.001582
    27  H    0.002023  -0.000562   0.001024  -0.008705   0.004724  -0.004749
    28  H   -0.000016  -0.001122   0.002778  -0.002793  -0.002273   0.000067
    29  H   -0.000314   0.000198  -0.002847   0.003164  -0.001857  -0.000945
    30  H   -0.002149   0.001090   0.000060  -0.000041   0.000009  -0.000508
    31  H   -0.003844  -0.000996  -0.000039   0.000003  -0.000116   0.000782
              25         26         27         28         29         30
     1  C   -0.000125  -0.000087   0.003035   0.000153  -0.000733  -0.043392
     2  O    0.000116  -0.000191  -0.012021   0.000076   0.000353   0.010758
     3  C   -0.000205   0.000463  -0.002223   0.004411  -0.000697  -0.038203
     4  O   -0.072068  -0.044595  -0.011915  -0.078308  -0.036623   0.000006
     5  C   -0.003687   0.007567  -0.053612   0.014557   0.003992   0.001064
     6  C   -0.000197   0.000919  -0.030800  -0.018905   0.013445  -0.005999
     7  C   -0.036100  -0.035151  -0.029021   0.012925  -0.007847  -0.000256
     8  O    0.000884   0.000594  -0.028719   0.002490   0.008214   0.000777
     9  C   -0.000136  -0.017489   0.053922   0.043199  -0.003955   0.004875
    10  C    0.430118   0.446661   0.020365   0.006061  -0.003597   0.000141
    11  C   -0.001620   0.028143   0.501443  -0.071848  -0.030103  -0.000152
    12  C    0.019533  -0.033614  -0.102699   0.428557   0.385102  -0.002230
    13  C    0.000253  -0.000469   0.007691  -0.000745   0.001325   0.445187
    14  H   -0.000358   0.000666  -0.004767  -0.000855   0.000515  -0.001072
    15  H    0.000001  -0.000044   0.002126  -0.000048   0.000074  -0.009095
    16  H    0.000043  -0.000111   0.000131   0.000382  -0.001039  -0.004513
    17  H   -0.000006   0.000028  -0.000177  -0.000067   0.000326  -0.005926
    18  H   -0.000157   0.000510  -0.000315  -0.006173   0.001900   0.000729
    19  H    0.000034  -0.000083   0.002023  -0.000016  -0.000314  -0.002149
    20  H   -0.000082   0.000154  -0.000562  -0.001122   0.000198   0.001090
    21  H   -0.008313   0.001231   0.001024   0.002778  -0.002847   0.000060
    22  H   -0.005778   0.004134  -0.008705  -0.002793   0.003164  -0.000041
    23  H   -0.000916  -0.007752   0.004724  -0.002273  -0.001857   0.000009
    24  H    0.001296   0.001582  -0.004749   0.000067  -0.000945  -0.000508
    25  H    0.475983  -0.009601   0.000773   0.003061  -0.003646   0.000001
    26  H   -0.009601   0.506754  -0.003917  -0.004425   0.012487   0.000001
    27  H    0.000773  -0.003917   0.449942  -0.002263  -0.004307   0.000533
    28  H    0.003061  -0.004425  -0.002263   0.500569  -0.024202   0.000069
    29  H   -0.003646   0.012487  -0.004307  -0.024202   0.499160   0.000001
    30  H    0.000001   0.000001   0.000533   0.000069   0.000001   0.487234
    31  H    0.000004  -0.000004  -0.000773  -0.000049  -0.000008  -0.012041
              31
     1  C   -0.078662
     2  O    0.000804
     3  C   -0.026913
     4  O   -0.000011
     5  C    0.012746
     6  C   -0.012034
     7  C    0.000633
     8  O   -0.000424
     9  C   -0.002508
    10  C   -0.000088
    11  C   -0.005957
    12  C    0.002154
    13  C    0.477304
    14  H    0.005221
    15  H   -0.007658
    16  H    0.001874
    17  H   -0.002746
    18  H    0.000699
    19  H   -0.003844
    20  H   -0.000996
    21  H   -0.000039
    22  H    0.000003
    23  H   -0.000116
    24  H    0.000782
    25  H    0.000004
    26  H   -0.000004
    27  H   -0.000773
    28  H   -0.000049
    29  H   -0.000008
    30  H   -0.012041
    31  H    0.484923
 Mulliken charges:
               1
     1  C   -0.121922
     2  O   -0.299420
     3  C   -0.306790
     4  O   -0.327822
     5  C   -0.169812
     6  C   -0.365506
     7  C   -0.415034
     8  O   -0.242641
     9  C   -0.238188
    10  C   -0.193675
    11  C    0.002456
    12  C   -0.309960
    13  C   -0.386958
    14  H    0.136274
    15  H    0.211462
    16  H    0.175081
    17  H    0.185150
    18  H    0.245202
    19  H    0.191576
    20  H    0.182928
    21  H    0.179713
    22  H    0.167573
    23  H    0.218250
    24  H    0.143752
    25  H    0.210895
    26  H    0.145638
    27  H    0.253813
    28  H    0.194737
    29  H    0.192463
    30  H    0.173041
    31  H    0.167722
 Sum of Mulliken charges =  -0.00000
 Mulliken charges with hydrogens summed into heavy atoms:
               1
     1  C    0.225814
     2  O   -0.299420
     3  C    0.053440
     4  O   -0.327822
     5  C    0.075390
     6  C    0.008999
     7  C   -0.067747
     8  O   -0.242641
     9  C    0.123814
    10  C    0.162858
    11  C    0.256269
    12  C    0.077241
    13  C   -0.046194
 Electronic spatial extent (au):  <R**2>=           3102.3408
 Charge=              0.0000 electrons
 Dipole moment (field-independent basis, Debye):
    X=             -1.2574    Y=              1.1380    Z=              1.4363  Tot=              2.2224
 Quadrupole moment (field-independent basis, Debye-Ang):
   XX=            -77.2302   YY=            -77.5916   ZZ=            -82.3123
   XY=              6.4892   XZ=              1.6137   YZ=              2.1637
 Traceless Quadrupole moment (field-independent basis, Debye-Ang):
   XX=              1.8145   YY=              1.4531   ZZ=             -3.2676
   XY=              6.4892   XZ=              1.6137   YZ=              2.1637
 Octapole moment (field-independent basis, Debye-Ang**2):
  XXX=            -21.0417  YYY=              0.3157  ZZZ=              0.7373  XYY=             -8.2015
  XXY=             25.7858  XXZ=             17.3609  XZZ=              5.8276  YZZ=             -3.4191
  YYZ=             -1.7786  XYZ=             -5.5220
 Hexadecapole moment (field-independent basis, Debye-Ang**3):
 XXXX=          -3152.9568 YYYY=           -625.5649 ZZZZ=           -287.0598 XXXY=             88.4823
 XXXZ=             38.5856 YYYX=            -14.3317 YYYZ=             -0.7032 ZZZX=              0.2194
 ZZZY=              4.9097 XXYY=           -645.2734 XXZZ=           -589.7305 YYZZ=           -151.9280
 XXYZ=             -6.6151 YYXZ=              6.7993 ZZXY=              1.0529
 N-N= 8.917698767997D+02 E-N=-3.225343593542D+03  KE= 6.153498348932D+02
 D1PCM: PCM CHGder 1st derivatives, ID1Alg=3 FixD1E=F DoIter=F DoCFld=F I1PDM=0.
 Calling FoFJK, ICntrl=      2127 FMM=F ISym2X=0 I1Cent= 0 IOpClX= 0 NMat=1 NMatS=1 NMatT=0.
 ***** Axes restored to original set *****
 -------------------------------------------------------------------
 Center     Atomic                   Forces (Hartrees/Bohr)
 Number     Number              X              Y              Z
 -------------------------------------------------------------------
      1        6          -0.002532195   -0.006392080    0.000842549
      2        8           0.001662356    0.003100668   -0.010543609
      3        6           0.001210522    0.001344184   -0.003498068
      4        8           0.004744071   -0.004676250   -0.006192170
      5        6          -0.003656926    0.003235691    0.005892979
      6        6           0.000885100    0.001683743    0.002085111
      7        6          -0.000755889   -0.001250429    0.002331671
      8        8          -0.001874827   -0.002492185    0.011195218
      9        6           0.003432384   -0.002663508   -0.002592608
     10        6          -0.006459480    0.001108242   -0.002235857
     11        6          -0.001420688    0.000741558    0.003715135
     12        6           0.002471878    0.006669947   -0.001786210
     13        6           0.002440246   -0.000507160    0.001401090
     14        1           0.004129506    0.000668468    0.005498125
     15        1          -0.001147492    0.003666888   -0.002179972
     16        1           0.002824409    0.000651489    0.002097517
     17        1          -0.002147738   -0.001252493    0.000686172
     18        1           0.001973076   -0.002999411   -0.006955846
     19        1          -0.002121873   -0.000181531   -0.002680249
     20        1           0.001314729   -0.002550895    0.001376633
     21        1           0.000779495    0.002592704    0.001339329
     22        1           0.000212893   -0.000003903   -0.003187070
     23        1          -0.000545322   -0.001355675    0.003614382
     24        1          -0.002893895    0.002125936   -0.001381862
     25        1           0.004017099    0.000623160   -0.001544180
     26        1          -0.000382819    0.000103736    0.006188037
     27        1           0.000728797    0.001190364   -0.006726916
     28        1          -0.001871611   -0.003818581   -0.002360459
     29        1          -0.001963325   -0.000141448    0.006312432
     30        1          -0.001348098    0.001396355    0.002082785
     31        1          -0.001704383   -0.000617584   -0.002794091
 -------------------------------------------------------------------
 Cartesian Forces:  Max     0.011195218 RMS     0.003345814

 GradGradGradGradGradGradGradGradGradGradGradGradGradGradGradGradGradGrad
 Berny optimization.
 FormGI is forming the generalized inverse of G from B-inverse, IUseBI=4.
 Internal  Forces:  Max     0.010106061 RMS     0.001998752
 Search for a local minimum.
 Step number   1 out of a maximum of  186
 All quantities printed in internal units (Hartrees-Bohrs-Radians)
 Mixed Optimization -- RFO/linear search
 Second derivative matrix not updated -- first step.
 ITU=  0
     Eigenvalues ---    0.00630   0.00641   0.00730   0.00741   0.01402
     Eigenvalues ---    0.01449   0.01721   0.02697   0.02759   0.03078
     Eigenvalues ---    0.03155   0.04093   0.04202   0.04605   0.04754
     Eigenvalues ---    0.04862   0.04887   0.05126   0.05140   0.05169
     Eigenvalues ---    0.05254   0.05693   0.05736   0.06160   0.06184
     Eigenvalues ---    0.06393   0.06512   0.06925   0.07575   0.07839
     Eigenvalues ---    0.07878   0.07940   0.08012   0.08116   0.08273
     Eigenvalues ---    0.08846   0.09307   0.09331   0.10881   0.11620
     Eigenvalues ---    0.11621   0.11707   0.11765   0.12408   0.12511
     Eigenvalues ---    0.14611   0.14804   0.16286   0.16524   0.17561
     Eigenvalues ---    0.19229   0.21181   0.21960   0.25000   0.28483
     Eigenvalues ---    0.28682   0.28691   0.28898   0.28974   0.29306
     Eigenvalues ---    0.30210   0.30363   0.35058   0.35073   0.35075
     Eigenvalues ---    0.35097   0.35133   0.35180   0.35215   0.35243
     Eigenvalues ---    0.35292   0.35324   0.35448   0.35449   0.35483
     Eigenvalues ---    0.35497   0.35802   0.35826   0.35849   0.35863
     Eigenvalues ---    0.40731   0.41388   0.42352   0.42832   0.43494
     Eigenvalues ---    0.459861000.000001000.000001000.000001000.00000
     Eigenvalues --- 1000.000001000.000001000.000001000.000001000.00000
     Eigenvalues --- 1000.000001000.000001000.000001000.000001000.00000
     Eigenvalues --- 1000.000001000.000001000.000001000.000001000.00000
     Eigenvalues --- 1000.000001000.000001000.000001000.000001000.00000
     Eigenvalues --- 1000.000001000.000001000.000001000.000001000.00000
     Eigenvalues --- 1000.000001000.000001000.000001000.000001000.00000
     Eigenvalues --- 1000.000001000.000001000.000001000.000001000.00000
     Eigenvalues --- 1000.000001000.000001000.000001000.000001000.00000
     Eigenvalues --- 1000.000001000.000001000.000001000.000001000.00000
     Eigenvalues --- 1000.000001000.000001000.000001000.000001000.00000
     Eigenvalues --- 1000.000001000.000001000.000001000.000001000.00000
     Eigenvalues --- 1000.000001000.000001000.000001000.000001000.00000
     Eigenvalues --- 1000.000001000.000001000.000001000.000001000.00000
     Eigenvalues --- 1000.000001000.000001000.000001000.000001000.00000
     Eigenvalues --- 1000.000001000.000001000.000001000.000001000.00000
     Eigenvalues --- 1000.000001000.000001000.000001000.000001000.00000
     Eigenvalues --- 1000.000001000.000001000.000001000.000001000.00000
     Eigenvalues --- 1000.000001000.000001000.000001000.000001000.00000
     Eigenvalues --- 1000.000001000.000001000.000001000.000001000.00000
 RFO step:  Lambda=-3.27891889D-03 EMin= 6.29662976D-03
 Linear search not attempted -- first point.
 Iteration  1 RMS(Cart)=  0.06626128 RMS(Int)=  0.00086622
 Iteration  2 RMS(Cart)=  0.00226874 RMS(Int)=  0.00005361
 Iteration  3 RMS(Cart)=  0.00000173 RMS(Int)=  0.00005360
 Iteration  4 RMS(Cart)=  0.00000000 RMS(Int)=  0.00005360
 Iteration  1 RMS(Cart)=  0.00000332 RMS(Int)=  0.00000077
 Iteration  2 RMS(Cart)=  0.00000183 RMS(Int)=  0.00000086
 Iteration  3 RMS(Cart)=  0.00000101 RMS(Int)=  0.00000097
 Iteration  4 RMS(Cart)=  0.00000056 RMS(Int)=  0.00000105
 Variable       Old X    -DE/DX   Delta X   Delta X   Delta X     New X
                                 (Linear)    (Quad)   (Total)
    R1        2.68813   0.00272   0.00000   0.00613   0.00613   2.69426
    R2        2.87082   0.00017   0.00000   0.00075   0.00077   2.87159
    R3        2.04875   0.00682   0.00000   0.01904   0.01904   2.06779
    R4        2.04319   0.00442   0.00000   0.01221   0.01221   2.05540
    R5        2.65271   0.00339   0.00000   0.00696   0.00696   2.65967
    R6        2.88952  -0.00138   0.00000  -0.00425  -0.00425   2.88528
    R7        2.88807  -0.00081   0.00000  -0.00194  -0.00194   2.88613
    R8        2.05384   0.00341   0.00000   0.00960   0.00960   2.06344
    R9        2.05153   0.00258   0.00000   0.00723   0.00723   2.05876
   R10        2.67710   0.00346   0.00000   0.00786   0.00788   2.68498
   R11        2.66597   0.00315   0.00000   0.00731   0.00732   2.67330
   R12        2.87410  -0.00080   0.00000  -0.00288  -0.00290   2.87120
   R13        2.64147   0.00310   0.00000   0.00670   0.00670   2.64817
   R14        2.04296   0.00775   0.00000   0.02142   0.02142   2.06438
   R15        2.05327   0.00337   0.00000   0.00948   0.00948   2.06274
   R16        2.04954   0.00316   0.00000   0.00885   0.00885   2.05839
   R17        2.89359  -0.00062   0.00000  -0.00238  -0.00240   2.89119
   R18        2.87248   0.00029   0.00000   0.00075   0.00076   2.87324
   R19        2.05203   0.00300   0.00000   0.00842   0.00842   2.06045
   R20        2.05459   0.00313   0.00000   0.00881   0.00881   2.06341
   R21        2.67878   0.00195   0.00000   0.00451   0.00451   2.68329
   R22        2.87800  -0.00217   0.00000  -0.00695  -0.00698   2.87103
   R23        2.05581   0.00374   0.00000   0.01057   0.01057   2.06638
   R24        2.04952   0.00371   0.00000   0.01038   0.01038   2.05990
   R25        2.04355   0.00435   0.00000   0.01202   0.01202   2.05557
   R26        2.05553   0.00608   0.00000   0.01717   0.01717   2.07270
   R27        2.87905  -0.00005   0.00000   0.00004   0.00004   2.87909
   R28        2.04898   0.00678   0.00000   0.01894   0.01894   2.06792
   R29        2.04393   0.00481   0.00000   0.01331   0.01331   2.05723
   R30        2.05556   0.00628   0.00000   0.01775   0.01775   2.07332
   R31        2.05283   0.00282   0.00000   0.00794   0.00794   2.06076
   R32        2.05518   0.00325   0.00000   0.00918   0.00918   2.06436
    A1        1.94620   0.00232   0.00000   0.00551   0.00542   1.95163
    A2        1.91010   0.00002   0.00000   0.00014   0.00022   1.91032
    A3        1.84103  -0.00130   0.00000  -0.00163  -0.00163   1.83939
    A4        1.92864  -0.00148   0.00000  -0.00630  -0.00634   1.92230
    A5        1.94716  -0.00028   0.00000  -0.00175  -0.00167   1.94550
    A6        1.88785   0.00071   0.00000   0.00431   0.00429   1.89214
    A7        2.02698  -0.00572   0.00000  -0.03771  -0.03764   1.98935
    A8        1.91206   0.00195   0.00000  -0.00081  -0.00079   1.91128
    A9        1.92279  -0.00095   0.00000  -0.00630  -0.00632   1.91647
   A10        1.91569  -0.00054   0.00000   0.00198   0.00197   1.91766
   A11        1.91399  -0.00092   0.00000  -0.00225  -0.00235   1.91164
   A12        1.93160  -0.00023   0.00000   0.00198   0.00204   1.93364
   A13        1.86737   0.00062   0.00000   0.00544   0.00545   1.87282
   A14        1.97690  -0.00449   0.00000  -0.02565  -0.02559   1.95131
   A15        1.94871   0.00355   0.00000   0.01204   0.01176   1.96047
   A16        1.94215  -0.00016   0.00000  -0.00678  -0.00661   1.93554
   A17        1.83081  -0.00234   0.00000  -0.01110  -0.01110   1.81970
   A18        1.90203  -0.00319   0.00000  -0.01603  -0.01593   1.88609
   A19        1.93238   0.00012   0.00000   0.00600   0.00609   1.93848
   A20        1.90690   0.00213   0.00000   0.01683   0.01683   1.92372
   A21        1.95752  -0.00181   0.00000  -0.01537  -0.01552   1.94200
   A22        1.90877   0.00129   0.00000   0.00780   0.00790   1.91667
   A23        1.94798  -0.00029   0.00000  -0.00164  -0.00174   1.94625
   A24        1.87103   0.00007   0.00000   0.00396   0.00396   1.87498
   A25        1.89977   0.00086   0.00000  -0.00047  -0.00044   1.89933
   A26        1.87540  -0.00003   0.00000   0.00688   0.00684   1.88225
   A27        1.93036  -0.00092   0.00000  -0.00737  -0.00742   1.92294
   A28        1.92750  -0.00034   0.00000   0.00045   0.00046   1.92796
   A29        1.91930   0.00076   0.00000   0.00130   0.00129   1.92060
   A30        1.90862   0.00079   0.00000   0.00512   0.00514   1.91377
   A31        1.90282  -0.00024   0.00000  -0.00232  -0.00234   1.90049
   A32        1.87421  -0.00003   0.00000   0.00314   0.00314   1.87734
   A33        2.04266  -0.01011   0.00000  -0.03990  -0.03990   2.00276
   A34        1.91864   0.00138   0.00000  -0.00080  -0.00083   1.91781
   A35        1.91474  -0.00009   0.00000   0.00384   0.00383   1.91857
   A36        1.93293   0.00020   0.00000   0.00711   0.00712   1.94005
   A37        1.89533  -0.00112   0.00000  -0.00765  -0.00765   1.88768
   A38        1.92397  -0.00087   0.00000  -0.00679  -0.00677   1.91721
   A39        1.87741   0.00044   0.00000   0.00413   0.00406   1.88147
   A40        1.93560   0.00189   0.00000   0.00853   0.00853   1.94413
   A41        1.85539  -0.00117   0.00000  -0.00360  -0.00359   1.85180
   A42        1.90184   0.00070   0.00000   0.00719   0.00723   1.90907
   A43        1.94544  -0.00040   0.00000  -0.00344  -0.00346   1.94198
   A44        1.93132  -0.00159   0.00000  -0.00967  -0.00970   1.92162
   A45        1.89195   0.00059   0.00000   0.00141   0.00137   1.89332
   A46        1.93918  -0.00152   0.00000  -0.00892  -0.00889   1.93029
   A47        1.87578   0.00116   0.00000   0.00603   0.00601   1.88179
   A48        1.90926   0.00045   0.00000   0.00892   0.00889   1.91815
   A49        1.92835  -0.00018   0.00000  -0.00440  -0.00444   1.92391
   A50        1.91187   0.00030   0.00000  -0.00202  -0.00199   1.90987
   A51        1.89865  -0.00018   0.00000   0.00082   0.00080   1.89944
   A52        1.93573   0.00176   0.00000   0.00848   0.00851   1.94424
   A53        1.86758  -0.00055   0.00000   0.00261   0.00262   1.87020
   A54        1.91653   0.00122   0.00000   0.01176   0.01181   1.92834
   A55        1.93112  -0.00070   0.00000  -0.00666  -0.00672   1.92440
   A56        1.91564  -0.00242   0.00000  -0.01664  -0.01670   1.89894
   A57        1.89635   0.00076   0.00000   0.00103   0.00088   1.89723
   A58        1.92062  -0.00104   0.00000  -0.00477  -0.00499   1.91563
   A59        1.90192   0.00064   0.00000   0.00406   0.00413   1.90605
   A60        1.90784   0.00002   0.00000  -0.00225  -0.00219   1.90565
   A61        1.93952  -0.00052   0.00000  -0.00160  -0.00157   1.93795
   A62        1.91710   0.00095   0.00000   0.00130   0.00139   1.91850
   A63        1.87606  -0.00001   0.00000   0.00344   0.00340   1.87947
    D1       -0.99003   0.00040   0.00000  -0.01997  -0.01981  -1.00984
    D2        1.14923   0.00010   0.00000  -0.02415  -0.02406   1.12517
    D3       -3.10662   0.00026   0.00000  -0.01993  -0.01981  -3.12644
    D4        0.96321   0.00132   0.00000   0.01862   0.01869   0.98190
    D5        3.09394   0.00042   0.00000   0.01623   0.01623   3.11017
    D6       -1.14358   0.00079   0.00000   0.02141   0.02145  -1.12213
    D7       -1.16537   0.00073   0.00000   0.01905   0.01913  -1.14624
    D8        0.96536  -0.00017   0.00000   0.01666   0.01667   0.98202
    D9        3.01103   0.00020   0.00000   0.02184   0.02188   3.03291
[...]
 7806,0.00046444,0.00263325,-0.00036844,-0.00000244,0.00010582,0.001680
 49,0.00082764,-0.00373293,0.00000131,-0.00000038,0.00000224,-0.0000043
 4,0.00000258,0.00000456,0.00000187,-0.00000166,0.00000006,-0.00000052,
 -0.00000029,0.00000085,0.00000100,0.00000026,-0.00000120,0.00000538,0.
 00000141,0.00000161,0.00000224,0.00000002,-0.00000044,-0.00000027,0.,-
 0.00000069,0.00061812,-0.00032477,0.00047719,-0.00154068,0.00304484,-0
 .00104238,-0.00002196,0.00005183,0.00035563,0.00019568,-0.00003144,0.0
 0029259,0.00216212,-0.00572006,0.02866059,0.05248537,0.00000532,-0.000
 00691,-0.00000988,-0.00001676,0.00002292,-0.00001891,0.00000161,-0.000
 00211,-0.00000015,-0.00823944,-0.00698206,-0.03823087,0.00004063,0.000
 02710,0.00008252,-0.00000238,0.00000075,-0.00000642,0.00059714,-0.0056
 3743,0.02774897,-0.00026574,0.00023688,0.00003360,-0.00134708,0.000858
 39,-0.00005541,-0.00061646,-0.05875716,0.05482175,-0.00017832,-0.00054
 756,0.00028371,0.00419894,0.00223184,-0.00337977,0.00000131,0.00000034
 ,0.00000278,-0.00000187,-0.00000059,0.00000391,-0.00000101,0.00000134,
 0.00000042,-0.00000049,-0.00000012,-0.00000134,-0.00000165,0.00000069,
 0.00000008,0.00000655,-0.00000078,-0.00000698,-0.00000258,-0.00000237,
 0.00000044,0.00000073,0.00000001,0.00000084,-0.00066124,0.00080453,-0.
 00052869,0.00422537,-0.00365653,0.00098707,0.00039255,0.00025071,-0.00
 056791,-0.00016825,-0.00006141,-0.00035052,0.00075522,0.00016497,0.004
 16066,0.00085936,0.07107874,0.00003595,-0.00003091,-0.00002010,-0.0001
 0477,0.00009182,-0.00004279,-0.00000179,-0.00001067,-0.00000613,-0.006
 38929,-0.01330960,-0.02198394,0.00023081,-0.00002714,0.00028281,-0.000
 02521,0.00001103,-0.00003926,0.00108967,0.00311444,-0.00676299,-0.0007
 0225,-0.00002186,-0.00012117,0.00027664,-0.00068912,0.00050301,-0.0003
 7641,0.05200914,-0.28266105,0.00022359,-0.00035108,0.00017596,0.002893
 48,0.00165190,0.00083348,0.00000116,0.00000177,0.00000104,0.00000584,-
 0.00000548,-0.00000801,-0.00000734,0.00000717,-0.00000138,0.00000156,0
 .00000127,-0.00000421,-0.00000823,0.00000110,0.00000525,-0.00000171,-0
 .00000386,-0.00002616,-0.00002339,-0.00000774,0.00000525,0.00000146,0.
 00000014,0.00000146,-0.00028261,0.00061914,0.00016531,-0.00063148,0.00
 104901,0.00098220,-0.00066445,-0.00016805,0.00011780,-0.00006455,0.000
 06147,0.00024829,0.00057054,0.00307127,-0.00854393,0.00542532,-0.04653
 391,0.31598347,0.00001777,0.00024551,0.00021931,-0.00062703,0.00042755
 ,-0.00041854,-0.00002025,-0.00002509,0.00003903,0.00197151,-0.00047674
 ,0.00087982,0.00114549,-0.00047115,0.00592467,0.00022246,-0.00010080,-
 0.00021143,0.00066720,0.00032787,-0.00048001,-0.01378400,-0.00942292,0
 .03562926,0.00074157,0.00162495,-0.00838527,-0.00007223,-0.00006948,-0
 .00004637,-0.05204351,0.00275361,-0.02650409,-0.00131027,0.00360231,-0
 .02247362,-0.00000023,-0.00010209,-0.00002297,-0.00003244,-0.00009144,
 -0.00004172,-0.00000271,-0.00002195,-0.00004946,0.00001036,-0.00003888
 ,-0.00016628,-0.00007513,0.00001578,-0.00005947,-0.00020510,-0.0005104
 7,-0.00053242,-0.00011092,0.00001049,-0.00002828,0.00003904,0.00008683
 ,-0.00001474,0.00007794,-0.00000047,0.00005333,-0.00012443,-0.00023424
 ,0.00010904,-0.00006962,-0.00172952,-0.00069363,0.00025403,-0.00014604
 ,0.00061196,-0.00004214,0.00000643,-0.00001071,0.00006668,0.00000254,0
 .00009791,0.06519472,0.00011844,-0.00012339,-0.00014127,-0.00018812,0.
 00000342,-0.00040669,0.00001888,0.00002222,-0.00001557,-0.00126320,0.0
 0133705,-0.00173108,0.00024683,0.00163967,0.00281121,0.00005879,-0.000
 19650,-0.00016251,0.00108708,0.00103380,-0.00004463,-0.00527300,-0.003
 19001,0.00973068,-0.00252084,0.00201437,-0.03066264,-0.00004489,-0.000
 33127,-0.00012955,0.00195119,-0.05329389,0.02769428,0.00369650,-0.0049
 1815,0.02700775,0.00001456,0.00001374,0.00001326,-0.00000012,0.0000022
 5,0.00000254,-0.00000907,0.00000105,0.00000185,0.00001224,-0.00001799,
 -0.00004320,-0.00001273,-0.00000747,-0.00002602,-0.00044664,-0.0004502
 5,-0.00021399,-0.00003881,0.00000307,-0.00001420,-0.00001292,0.0000204
 6,-0.00000055,0.00019926,-0.00010693,0.00033779,-0.00027854,-0.0001084
 6,0.00049666,-0.00205521,-0.00447096,-0.00288940,0.00058258,0.00134326
 ,0.00069534,-0.00003308,0.00009570,-0.00001663,-0.00006088,-0.00012507
 ,0.00006510,0.00185871,0.06153212,-0.00006783,-0.00022964,-0.00020029,
 -0.00057245,-0.00112221,0.00098550,-0.00024610,-0.00008041,-0.00002572
 ,-0.00098291,-0.00081889,0.00102167,-0.00481083,0.00066678,-0.00140716
 ,-0.00003307,0.00037667,0.00046064,0.00015727,0.00023916,0.00006674,0.
 01004526,0.00397452,-0.01259636,-0.00184948,0.00049185,-0.01475376,-0.
 00001773,0.00004918,0.00010903,-0.01698367,0.02960945,-0.29878641,-0.0
 0038005,0.00129596,-0.00626418,-0.00004360,0.00004154,0.00009296,0.000
 01672,0.00003750,0.00005069,0.00001712,0.00000840,0.00001676,0.0000262
 5,-0.00000556,0.00006640,-0.00000097,0.00003531,0.00004925,0.00032100,
 0.00017444,0.00119228,0.00014287,0.00005149,-0.00004365,0.00000737,-0.
 00005337,0.00001985,-0.00012131,-0.00014402,0.00031269,-0.00056552,-0.
 00009971,0.00027562,-0.00066809,-0.00213415,-0.00015400,0.00028021,0.0
 0012164,0.00077699,-0.00003894,0.00002733,-0.00000334,0.00012327,0.000
 01597,-0.00011328,0.01657346,-0.03347228,0.32740443,0.00000960,0.00001
 328,0.00007275,0.00006191,-0.00013537,0.00001859,0.00001884,0.00002286
 ,-0.00000026,-0.01851667,-0.03514705,-0.01704263,-0.00021556,0.0001198
 0,-0.00003751,-0.00002139,-0.00006115,-0.00005066,-0.00067007,-0.00057
 194,-0.00027544,0.00256850,-0.00071968,-0.00032154,-0.00356958,0.00304
 053,-0.00143391,-0.00459717,0.00121333,0.00407344,0.00548963,0.0186886
 5,0.01187594,-0.05894661,-0.04247344,-0.02602071,-0.00000668,-0.000002
 06,-0.00002032,0.00003048,-0.00000222,-0.00002400,0.00000331,-0.000006
 73,-0.00000476,0.00000127,-0.00000003,-0.00000065,0.00000687,-0.000006
 16,-0.00000740,0.00000899,-0.00007327,-0.00017908,-0.00000251,0.000002
 21,0.00000119,0.00001209,-0.00000544,-0.00000189,0.00027400,-0.0001924
 4,0.00003637,0.00011084,-0.00000017,0.00000310,-0.00005049,-0.00016522
 ,-0.00004636,0.00047815,0.00141591,0.00047615,-0.00067101,-0.00169206,
 -0.00061139,0.00006442,0.00012724,-0.00018469,0.00088909,-0.00085735,-
 0.00011668,0.07598464,-0.00004204,0.00002450,-0.00004467,0.00004519,0.
 00005017,0.00005747,-0.00000228,-0.00000493,0.00000899,-0.00792797,-0.
 00718443,-0.00256422,0.00033232,-0.00019081,-0.00026137,0.00006389,0.0
 0000957,0.00007472,0.00025523,0.00033332,-0.00024078,-0.00021413,0.002
 41825,0.00091311,0.00403432,-0.00187713,0.00239932,-0.00025738,0.00223
 688,0.00214893,-0.00591818,-0.02174035,-0.01335084,-0.04922837,-0.2373
 0307,-0.11162781,0.00000715,0.00000112,0.00001923,-0.00003241,0.000006
 68,0.00003351,0.00000157,-0.00000244,0.00000416,-0.00000401,-0.0000007
 3,0.00000332,0.00000247,0.00000335,-0.00000254,0.00022682,-0.00011932,
 0.00008584,0.00002670,0.00001229,-0.00000760,0.00001449,-0.00000640,-0
 .00000285,-0.00007445,-0.00007866,-0.00001712,-0.00006477,-0.00000842,
 0.00007782,0.00002165,0.00013940,-0.00007500,-0.00045094,-0.00132752,-
 0.00066125,-0.00014127,-0.00035265,-0.00026707,0.00002926,-0.00005569,
 -0.00023169,-0.00048677,0.00109435,0.00024425,0.05773296,0.25780356,-0
 .00001919,0.00002402,0.00002001,0.00005277,-0.00004532,0.00001629,0.00
 000973,0.00001708,-0.00000018,0.00462387,0.01144673,0.00697404,-0.0000
 4912,-0.00001525,-0.00006307,0.00000627,-0.00005297,-0.00000716,0.0001
 1751,0.00014479,-0.00002059,0.00105774,-0.00037065,-0.00020311,-0.0009
 4363,0.00057972,0.00040842,0.00137335,0.00067901,-0.00010007,0.0006277
 2,0.00926020,0.00446335,-0.03275807,-0.11698899,-0.12234688,-0.0000022
 0,-0.00000037,-0.00000490,0.00000318,-0.00000036,0.00000047,0.00000404
 ,-0.00000468,0.00000178,-0.00000039,-0.00000064,0.00000236,0.00000757,
 -0.00000381,-0.00000597,0.00004880,-0.00003852,-0.00009179,0.00000782,
 0.00000839,-0.00000254,0.00000861,0.00000675,-0.00000561,-0.00007115,0
 .00000348,-0.00003481,0.00002251,-0.00002453,-0.00001376,0.00001740,0.
 00034998,0.00034174,-0.00007848,0.00019932,0.00033949,0.00015893,0.000
 12172,0.00042539,0.00017818,0.00022485,0.00049689,0.00079044,-0.000235
 00,0.00070357,0.03118955,0.12051878,0.12255712,0.00003247,-0.00010582,
 -0.00008421,-0.00034926,-0.00001636,0.00016395,-0.00002022,-0.00001271
 ,-0.00000725,-0.01679280,-0.01341361,0.03876172,0.00036696,0.00000721,
 -0.00013997,-0.00002213,0.00003816,0.00001794,-0.00035738,-0.00032835,
 -0.00047019,0.00214058,-0.00028866,0.00010113,0.00054341,-0.00130996,-
 0.00010153,0.00248963,0.00374624,0.00456565,-0.00066706,0.00489056,-0.
 02278839,-0.04738956,0.00058316,-0.01087414,-0.00000670,0.00002475,0.0
 0002634,0.00000738,0.00000238,0.00000574,-0.00000954,0.00001320,0.0000
 0299,0.00000496,0.00000140,0.00000307,-0.00000811,0.00000190,0.0000099
 2,0.00006812,0.00000741,0.00008280,-0.00000593,0.00000061,-0.00000049,
 0.00000169,-0.00000986,0.00000340,0.00025280,-0.00018892,-0.00005974,-
 0.00011022,0.00006650,-0.00004259,0.00011148,0.00010531,0.00055422,-0.
 00009536,-0.00015786,0.00024958,-0.00000088,0.00017857,-0.00029548,0.0
 0032391,0.00028915,-0.00137604,-0.00279091,0.00325517,-0.00021315,0.00
 125702,0.00203963,-0.00638837,0.06104092,-0.00003730,0.00007458,0.0000
 3969,0.00013316,0.00013941,-0.00017049,0.00001218,0.00001077,0.0000052
 4,-0.00684437,-0.00083443,0.00843826,0.00000519,0.00009900,0.00016396,
 0.00002851,-0.00003045,-0.00000643,-0.00001852,-0.00032897,-0.00020685
 ,-0.00156594,0.00041576,-0.00140862,-0.00046966,0.00153709,0.00102267,
 0.00033581,0.00080382,0.00320882,0.00307257,-0.00561842,0.02717483,0.0
 0175542,-0.06081642,0.03695225,0.00000316,-0.00001157,-0.00001882,-0.0
 0000092,-0.00000382,-0.00000074,0.00000442,-0.00000594,0.00000255,-0.0
 0000466,0.00000015,0.00000021,0.00000485,-0.00000202,-0.00000580,0.000
 05877,-0.00002444,-0.00006746,0.00000701,0.00000014,0.00000102,-0.0000
 0013,0.00000178,-0.00000133,0.00000700,-0.00005076,-0.00003820,-0.0000
 0310,0.00009145,-0.00011567,0.00007189,-0.00026491,-0.00053401,0.00005
 776,0.00026221,-0.00038317,0.00004752,0.00004380,-0.00018040,0.0000796
 6,0.00015625,-0.00036443,0.00292566,-0.00281913,0.00071532,-0.00026058
 ,0.00611419,-0.02580297,0.00058608,0.06105956,0.00003203,-0.00005025,-
 0.00002134,0.00002969,0.00000970,0.00010057,-0.00001053,-0.00001927,-0
 .00000987,0.01369668,0.00516235,-0.00986538,0.00012657,-0.00016730,0.0
 0028050,-0.00004752,0.00002758,-0.00004868,0.00028033,0.00010807,0.000
 10663,-0.00086593,-0.00044404,0.00132825,0.00020817,-0.00068428,0.0006
 4802,-0.00153056,-0.00207845,0.00145389,-0.00006168,0.00125146,-0.0104
 7185,-0.00886369,0.03917188,-0.28741518,0.00000241,0.00000597,0.000006
 24,0.00000048,-0.00000495,-0.00000960,-0.00000740,0.00000815,-0.000003
 17,0.00000195,0.00000304,-0.00000504,-0.00001112,0.00000282,0.00000835
 ,0.00010353,0.00002126,0.00001848,-0.00002833,-0.00001369,0.00000684,-
 0.00000107,-0.00000183,-0.00000003,0.00000792,0.00013346,-0.00000844,-
 0.00012758,-0.00007898,-0.00017240,0.00030917,0.00052324,0.00044924,-0
 .00013114,-0.00001178,0.00024085,0.00016918,0.00010372,0.00050452,0.00
 058426,0.00132342,0.00052961,-0.00077025,0.00134441,0.00072156,-0.0013
 6943,0.00277042,-0.01385058,-0.00171420,-0.04841575,0.31547525,-0.0076
 6604,0.01922741,0.01752333,-0.00656538,-0.00095354,0.00423581,-0.00332
 542,0.00391415,0.00357957,-0.00007680,0.00000296,-0.00000274,0.0010175
 0,-0.00198920,0.00066529,0.00084820,0.00074652,-0.00115807,0.00000944,
 -0.00001724,-0.00002440,-0.00055075,0.00014232,-0.00033286,-0.00002790
 ,0.00002288,0.00002719,0.00001422,0.00001374,0.00002191,0.00025400,0.0
 0009221,-0.00004428,0.00004168,-0.00005420,-0.00000783,-0.08676220,0.0
 5920185,0.06923117,0.00073506,0.00030068,-0.00108232,0.00091050,-0.000
 31108,-0.00010457,0.00007144,-0.00017736,0.00023283,0.00025595,-0.0001
 0064,-0.00038715,-0.00001140,0.00020212,-0.00006712,-0.00005046,0.0002
 0446,0.00033525,0.00013845,0.00012829,0.00033905,-0.00001561,-0.000007
 22,0.00000064,-0.00000113,0.00000097,0.00000272,-0.00000544,-0.0000022
 0,-0.00000967,0.00001845,0.00000575,0.00000987,-0.00000652,-0.00000047
 ,-0.00000106,0.00000022,-0.00000083,-0.00000525,0.00001682,-0.00000517
 ,-0.00001837,0.00000338,0.00000180,0.00000335,-0.00001394,0.00000863,-
 0.00000778,0.09139299,-0.00326926,0.00891931,0.00947162,-0.00418731,0.
 00089021,0.00259335,0.01120780,-0.01729530,-0.02175312,0.00003794,-0.0
 0000361,0.00000436,-0.00079832,-0.00133744,0.00084024,0.00108274,-0.00
 495112,0.00444939,-0.00000344,0.00000925,0.00001361,0.00021075,0.00025
 628,-0.00023280,0.00003824,0.00000419,-0.00002358,-0.00000484,-0.00000
 450,-0.00001028,-0.00009124,-0.00002078,0.00009973,-0.00001059,0.00003
 076,-0.00002164,0.06033287,-0.14505030,-0.11389608,0.00051408,0.000481
 98,-0.00049971,0.00099688,0.00017630,-0.00023860,-0.00002990,0.0013279
 7,0.00014667,-0.00076071,0.00097542,-0.00031580,0.00009443,0.00028295,
 -0.00013471,-0.00025852,0.00019755,0.00016026,0.00120467,-0.00097669,-
 0.00138733,0.00000813,0.00000338,-0.00000075,0.00000117,-0.00000037,-0
 .00000157,-0.00000016,-0.00000072,0.00000227,-0.00000270,-0.00000314,0
 .00000552,0.00000305,-0.00000026,0.00000071,-0.00000040,0.00000018,0.0
 0000235,0.00001921,-0.00000004,-0.00001841,-0.00000125,-0.00000117,-0.
 00000099,-0.00000228,0.00000050,0.00000229,-0.06697910,0.15839038,0.00
 114495,-0.00833082,-0.00885169,0.00444898,0.00018260,-0.00068389,-0.00
 680478,0.00938739,0.01117194,0.00004584,-0.00000266,0.00000053,-0.0006
 1800,0.00149450,-0.00073124,-0.00053673,0.00274364,-0.00060642,-0.0000
 0408,-0.00000420,0.00002020,0.00036812,-0.00020199,0.00025401,0.000018
 27,0.00001192,-0.00002874,-0.00000368,-0.00000209,-0.00001617,-0.00016
 705,-0.00004165,0.00001467,-0.00003103,0.00002806,0.00000870,0.0712897
 1,-0.11421340,-0.17861607,0.00013183,0.00017446,0.00053232,-0.00038886
 ,0.00023639,0.00005488,0.00016292,-0.00080038,0.00071370,0.00024805,-0
 .00087620,0.00039318,-0.00003084,-0.00018315,0.00000541,0.00000118,0.0
 0016786,0.00016727,-0.00028464,0.00057547,0.00052473,0.00000982,0.0000
 0508,0.00000025,0.00000130,-0.00000065,-0.00000293,0.00000134,0.000001
 59,0.00000732,-0.00001217,-0.00002581,0.00000224,0.00000612,-0.0000020
 2,0.00000092,-0.00000092,0.00000039,0.00000352,-0.00001233,0.00000701,
 0.00001566,-0.00000028,-0.00000287,-0.00000154,0.00001011,-0.00000572,
 0.00000415,-0.07807740,0.12264920,0.19137980,-0.02190266,-0.00514380,-
 0.02177027,0.00301218,0.00090795,-0.00011632,-0.00431165,-0.00033535,-
 0.00451594,-0.00003387,0.00001114,-0.00000073,-0.00027815,-0.00010548,
 -0.00004185,-0.00009286,-0.00036722,-0.00020917,-0.00000489,0.00008441
 ,-0.00004284,-0.00006778,0.00021802,0.00011688,-0.00001415,-0.00016258
 ,0.00011045,-0.00002194,-0.00003427,0.00002498,0.00017865,-0.00002266,
 -0.00010073,0.00003324,-0.00001648,0.00002120,-0.16613535,-0.01652893,
 -0.12628524,-0.00386253,-0.00241177,0.00268625,0.00132518,0.00029983,0
 .00032813,0.00080922,0.00103811,-0.00039127,0.00055096,0.00029769,0.00
 024504,-0.00008003,0.00005004,0.00000637,-0.00019820,0.00034183,0.0001
 9618,0.00012365,0.00007507,0.00014873,-0.00000818,-0.00000837,-0.00000
 188,-0.00000715,-0.00000184,0.00000885,0.00000834,0.00000248,-0.000006
 02,0.00000173,0.00012619,-0.00006354,-0.00001424,0.00001388,-0.0000012
 3,0.00000189,0.00000043,-0.00000449,-0.00000378,0.00000034,0.00001995,
 -0.00000529,0.00000954,0.00000126,-0.00000136,-0.00000007,-0.00000415,
 0.00935068,0.00064806,0.00908425,0.18164835,-0.01106442,-0.00376915,-0
 .01279658,0.00153299,0.00099141,0.00077226,0.02144677,0.00182910,0.023
 44652,-0.00001364,0.00000505,0.00000019,0.00011520,-0.00056775,0.00024
 184,-0.00011660,0.00177426,0.00069894,-0.00000302,0.00005268,-0.000023
 64,-0.00014877,0.00023240,-0.00007302,-0.00000495,-0.00009323,0.000072
 50,-0.00001482,-0.00002127,0.00001447,0.00007616,-0.00004941,-0.000123
 51,0.00002222,-0.00000480,0.00000660,-0.01742066,-0.05107240,-0.020676
 17,-0.00276304,-0.00025434,0.00194156,0.00055772,0.00030920,-0.0004660
 7,0.00168272,-0.00525689,0.00225316,-0.00064081,0.00134271,-0.00054867
 ,0.00002701,0.00010387,-0.00005723,-0.00024010,-0.00025003,-0.00052224
 ,-0.00043890,0.00007788,-0.00008137,-0.00000420,-0.00000526,-0.0000009
 8,-0.00000456,-0.00000121,0.00000510,0.00000404,0.00000160,-0.00000473
 ,0.00001137,0.00007716,-0.00003937,-0.00000854,0.00000862,-0.00000040,
 0.00000102,0.00000017,-0.00000259,0.00002062,0.00000295,0.00000187,-0.
 00000314,0.00000611,0.00000023,-0.00000301,0.00000079,-0.00000265,-0.0
 1361849,-0.00230116,-0.01297195,0.02101381,0.05683093,0.01066721,0.001
 41367,0.00922999,-0.00160193,0.00086356,0.00137773,-0.00906375,-0.0005
 1004,-0.01163489,-0.00003559,-0.00000148,-0.00000110,0.00024297,-0.000
 10109,0.00014003,0.00070391,-0.00074000,0.00061308,0.00000861,-0.00004
 301,0.00000360,-0.00033315,-0.00007039,-0.00005669,0.00001141,0.000068
 54,-0.00002270,0.00001682,0.00001906,0.00000249,0.00011507,0.00008806,
 -0.00001762,0.00001071,-0.00002499,-0.00000383,-0.12835061,-0.02136060
 ,-0.18735150,0.00266982,0.00081774,-0.00004554,-0.00074966,-0.00050345
 ,0.00071070,-0.00021312,0.00299926,0.00016336,0.00035238,-0.00018519,0
 .00025154,-0.00011438,-0.00001476,0.00001943,-0.00021385,0.00017740,0.
 00051719,0.00020068,0.00013209,0.00014924,-0.00000595,-0.00000066,0.00
 000097,0.00000107,0.00000104,-0.00000080,-0.00000459,-0.00000058,0.000
 00036,0.00001130,-0.00004504,0.00002348,0.00000147,-0.00000542,0.00000
 008,0.00000009,-0.00000059,-0.00000092,-0.00000663,-0.00000266,0.00000
 583,0.00000250,-0.00000221,0.00000162,-0.00000282,0.00000204,-0.000001
 41,-0.01487712,-0.00190622,-0.01573676,0.14055713,0.01893593,0.2016630
 3\\0.00001288,-0.00001117,-0.00002546,-0.00000126,0.00002357,0.0000083
 0,-0.00000712,-0.00000424,0.00000657,0.00001309,0.00001119,-0.00000210
 ,0.00008218,-0.00038238,-0.00005883,-0.00000758,-0.00000543,0.00000113
 ,-0.00000406,0.00000803,-0.00000284,-0.00006183,0.00044368,0.00017642,
 0.00015794,-0.00016364,0.00024066,0.00001130,-0.00001697,-0.00000876,-
 0.00019299,0.00007096,-0.00035104,0.00000187,-0.00000644,-0.00000313,-
 0.00000540,0.00000092,0.00000266,-0.00000628,0.00000075,-0.00000181,-0
 .00000165,-0.00000124,0.00000318,0.00000074,-0.00000160,-0.00000148,0.
 00000870,0.00000134,-0.00000021,-0.00000965,0.00001239,0.00000961,-0.0
 0000054,0.00000198,0.00000210,0.00000015,0.00000340,-0.00000421,0.0000
 0461,0.00000148,-0.00000320,0.00000236,-0.00000259,0.00000361,-0.00000
 239,0.00000102,-0.00000648,0.00000137,-0.00000299,0.00000225,-0.000005
 01,0.00000133,0.00000463,0.00000085,0.00000680,-0.00000363,0.00000977,
 -0.00000146,0.00001078,-0.00000359,0.00000343,0.00000686,-0.00000368,0
 .00000159,-0.00000785,0.00000157,0.00000526,-0.00000271,0.00000365,0.0
 0000102,0.00000498\\\@


 I WOULD TAKE COUNSEL OF MYSELF.
 I WOULD STOP AND LOOK WITHIN
 AND LOOKING WITHIN, LOOK BACK, ALSO
 THAT I MAY LOOK AHEAD WITH CLEARER UNDERSTANDING
 OF THE WAY I HAVE BEEN MOVING, AND IN WHAT DIRECTION.
 I NEED TO KNOW IF I AM GOING FORWARD OR RETREATING,
 WHETHER I HAVE BEEN WASTING, OR ENJOYING
 THE PRECIOUS MOMENTS OF LIFE.  THERE HAVE BEEN FRICTIONS,
 ANNOYANCES AND SOMETIMES WRATH,
 BUT WERE THEY BECAUSE I WAS RIGHT AND OTHERS WRONG.....
 HAVE I HAD MY THOUGHTS TOO SHARPLY FOCUSED
 ON THAT WHICH PLEASED ME, SERVED MY SELF-ESTEEM,
 UNDERGIRDED MY SECURITY,
 OF WHICH I DID NOT INQUIRE WHETHER IT SERVED OR HAMPERED OTHERS.....
 HAVE I BEEN TRYING TO STOP THE CLOCK
 TO HOLD THE WORLD
 IN PERPETUATION OF WHAT WAS AN IS ALREADY SLIPPING AWAY.....
 HAVE I BEEN CRITICAL OF OTHERS FOR WHAT REALLY NEEDED CHANGING IN ME...
 LET ME INDEED TAKE COUNSEL OF MYSELF
 AND SET MY DIRECTIONS STRAIGHT.

                          R.T. WESTON AS ADAPTED BY D. OSBORN 1967
 Job cpu time:       0 days 14 hours 11 minutes 31.6 seconds.
 Elapsed time:       0 days  0 hours 53 minutes 14.7 seconds.
 File lengths (MBytes):  RWF=    684 Int=      0 D2E=      0 Chk=     33 Scr=      1
 Normal termination of Gaussian 16 at Sun Nov  4 22:42:10 2018.
