 Entering Gaussian System, Link 0=g16
 Initial command:
 /apps/gaussian/g16a03/g16/l1.exe "/jobfs/local/2012075.r-man2/Gau-5650.inp" -scrdir="/jobfs/local/2012075.r-man2/"
 Entering Link 1 = /apps/gaussian/g16a03/g16/l1.exe PID=      5651.
  
 Copyright (c) 1988,1990,1992,1993,1995,1998,2003,2009,2016,
            Gaussian, Inc.  All Rights Reserved.
  
 This is part of the Gaussian(R) 16 program.  It is based on
 the Gaussian(R) 09 system (copyright 2009, Gaussian, Inc.),
 the Gaussian(R) 03 system (copyright 2003, Gaussian, Inc.),
 the Gaussian(R) 98 system (copyright 1998, Gaussian, Inc.),
 the Gaussian(R) 94 system (copyright 1995, Gaussian, Inc.),
 the Gaussian 92(TM) system (copyright 1992, Gaussian, Inc.),
 the Gaussian 90(TM) system (copyright 1990, Gaussian, Inc.),
 the Gaussian 88(TM) system (copyright 1988, Gaussian, Inc.),
 the Gaussian 86(TM) system (copyright 1986, Carnegie Mellon
 University), and the Gaussian 82(TM) system (copyright 1983,
 Carnegie Mellon University). Gaussian is a federally registered
 trademark of Gaussian, Inc.
  
 This software contains proprietary and confidential information,
 including trade secrets, belonging to Gaussian, Inc.
  
 This software is provided under written license and may be
 used, copied, transmitted, or stored only in accord with that
 written license.
  
 The following legend is applicable only to US Government
 contracts under FAR:
  
                    RESTRICTED RIGHTS LEGEND
  
 Use, reproduction and disclosure by the US Government is
 subject to restrictions as set forth in subparagraphs (a)
 and (c) of the Commercial Computer Software - Restricted
 Rights clause in FAR 52.227-19.
  
 Gaussian, Inc.
 340 Quinnipiac St., Bldg. 40, Wallingford CT 06492
  
  
 ---------------------------------------------------------------
 Warning -- This program may not be used in any manner that
 competes with the business of Gaussian, Inc. or will provide
 assistance to any competitor of Gaussian, Inc.  The licensee
 of this program is prohibited from giving any competitor of
 Gaussian, Inc. access to this program.  By using this program,
 the user acknowledges that Gaussian, Inc. is engaged in the
 business of creating and licensing software in the field of
 computational chemistry and represents and warrants to the
 licensee that it is not a competitor of Gaussian, Inc. and that
 it will not use this program in any manner prohibited above.
 ---------------------------------------------------------------
  

 Cite this work as:
 Gaussian 16, Revision A.03,
 M. J. Frisch, G. W. Trucks, H. B. Schlegel, G. E. Scuseria, 
 M. A. Robb, J. R. Cheeseman, G. Scalmani, V. Barone, 
 G. A. Petersson, H. Nakatsuji, X. Li, M. Caricato, A. V. Marenich, 
 J. Bloino, B. G. Janesko, R. Gomperts, B. Mennucci, H. P. Hratchian, 
 J. V. Ortiz, A. F. Izmaylov, J. L. Sonnenberg, D. Williams-Young, 
 F. Ding, F. Lipparini, F. Egidi, J. Goings, B. Peng, A. Petrone, 
 T. Henderson, D. Ranasinghe, V. G. Zakrzewski, J. Gao, N. Rega, 
 G. Zheng, W. Liang, M. Hada, M. Ehara, K. Toyota, R. Fukuda, 
 J. Hasegawa, M. Ishida, T. Nakajima, Y. Honda, O. Kitao, H. Nakai, 
 T. Vreven, K. Throssell, J. A. Montgomery, Jr., J. E. Peralta, 
 F. Ogliaro, M. J. Bearpark, J. J. Heyd, E. N. Brothers, K. N. Kudin, 
 V. N. Staroverov, T. A. Keith, R. Kobayashi, J. Normand, 
 K. Raghavachari, A. P. Rendell, J. C. Burant, S. S. Iyengar, 
 J. Tomasi, M. Cossi, J. M. Millam, M. Klene, C. Adamo, R. Cammi, 
 J. W. Ochterski, R. L. Martin, K. Morokuma, O. Farkas, 
 J. B. Foresman, and D. J. Fox, Gaussian, Inc., Wallingford CT, 2016.
 
 ******************************************
 Gaussian 16:  ES64L-G16RevA.03 25-Dec-2016
                 4-Nov-2018 
 ******************************************
 %mem=6000mb
 %nproc=24
 Will use up to   24 processors via shared memory.
 %chk=L_a1-e4_D_PSI.inp_extract_20.chk
 ----------------------------------------------------------------------
 #M062X/6-311++G(2d,2p) opt=ModRedundant freq=noraman SCRF=(Solvent=Wat
 er)
 ----------------------------------------------------------------------
 1/18=120,19=15,26=3,38=1/1,3;
 2/9=110,12=2,17=6,18=5,40=1/2;
 3/5=4,6=6,7=1212,11=2,25=1,30=1,70=2201,71=1,72=1,74=-55/1,2,3;
 4//1;
 5/5=2,38=5,53=1/2;
 6/7=2,8=2,9=2,10=2,28=1/1;
 7//1,2,3,16;
 1/18=20,19=15,26=3/3(2);
 2/9=110/2;
 99//99;
 2/9=110/2;
 3/5=4,6=6,7=1212,11=2,25=1,30=1,70=2205,71=1,72=1,74=-55/1,2,3;
 4/5=5,16=3,69=1/1;
 5/5=2,38=5,53=1/2;
 7//1,2,3,16;
 1/18=20,19=15,26=3/3(-5);
 2/9=110/2;
 6/7=2,8=2,9=2,10=2,19=2,28=1/1;
 99/9=1/99;
 ----------------------------
 L_a1-e4_D_PSI.inp_extract_20
 ----------------------------
 Symbolic Z-matrix:
 Charge =  0 Multiplicity = 1
 C                    -2.25485   1.43482   0.33423 
 O                    -1.65099   0.96611  -0.86451 
 C                    -3.1574   -0.85737   0.75062 
 O                     3.34226  -1.04659   0.07328 
 C                    -1.28242  -0.3879   -0.88157 
 C                    -2.46446  -1.28478  -0.54394 
 C                     2.9626    1.32102  -0.22728 
 O                    -0.24366  -0.65788   0.01435 
 C                     1.46127   1.11492  -0.00402 
 C                     3.76393   0.24252   0.48158 
 C                     1.07757  -0.31725  -0.36498 
 C                     1.98559  -1.3064    0.35539 
 C                    -3.49651   0.63157   0.68288 
 H                    -1.53297   1.39148   1.14239 
 H                    -2.49298   2.47351   0.15131 
 H                    -2.50897  -1.04664   1.60202 
 H                    -4.05609  -1.44807   0.89917 
 H                    -0.93799  -0.57013  -1.88993 
 H                    -3.16801  -1.21557  -1.36912 
 H                    -2.12203  -2.31257  -0.49299 
 H                     3.26778   2.29661   0.13921 
 H                     3.18804   1.28904  -1.29047 
 H                     1.22025   1.28574   1.04278 
 H                     0.89202   1.82435  -0.59179 
 H                     4.81637   0.30775   0.24179 
 H                     3.65149   0.3268    1.56021 
 H                     1.18432  -0.46514  -1.43584 
 H                     1.78252  -2.31585   0.02567 
 H                     1.81477  -1.24937   1.42802 
 H                    -3.89328   0.98636   1.6299 
 H                    -4.25807   0.80168  -0.07465 
 
 The following ModRedundant input section has been read:
 D       5       8      11       9 F                                           
 

 GradGradGradGradGradGradGradGradGradGradGradGradGradGradGradGradGradGrad
 Berny optimization.
 Initialization pass.
                           ----------------------------
                           !    Initial Parameters    !
                           ! (Angstroms and Degrees)  !
 --------------------------                            --------------------------
 ! Name  Definition              Value          Derivative Info.                !
 --------------------------------------------------------------------------------
 ! R1    R(1,2)                  1.4217         estimate D2E/DX2                !
 ! R2    R(1,13)                 1.5194         estimate D2E/DX2                !
 ! R3    R(1,14)                 1.0845         estimate D2E/DX2                !
 ! R4    R(1,15)                 1.0812         estimate D2E/DX2                !
 ! R5    R(2,5)                  1.4034         estimate D2E/DX2                !
 ! R6    R(3,6)                  1.5293         estimate D2E/DX2                !
 ! R7    R(3,13)                 1.5286         estimate D2E/DX2                !
 ! R8    R(3,16)                 1.0868         estimate D2E/DX2                !
 ! R9    R(3,17)                 1.0857         estimate D2E/DX2                !
 ! R10   R(4,10)                 1.4164         estimate D2E/DX2                !
 ! R11   R(4,12)                 1.4098         estimate D2E/DX2                !
 ! R12   R(5,6)                  1.5217         estimate D2E/DX2                !
 ! R13   R(5,8)                  1.3981         estimate D2E/DX2                !
 ! R14   R(5,18)                 1.081          estimate D2E/DX2                !
 ! R15   R(6,19)                 1.0866         estimate D2E/DX2                !
 ! R16   R(6,20)                 1.0845         estimate D2E/DX2                !
 ! R17   R(7,9)                  1.5318         estimate D2E/DX2                !
 ! R18   R(7,10)                 1.5191         estimate D2E/DX2                !
 ! R19   R(7,21)                 1.0859         estimate D2E/DX2                !
 ! R20   R(7,22)                 1.0873         estimate D2E/DX2                !
 ! R21   R(8,11)                 1.4162         estimate D2E/DX2                !
 ! R22   R(9,11)                 1.526          estimate D2E/DX2                !
 ! R23   R(9,23)                 1.0877         estimate D2E/DX2                !
 ! R24   R(9,24)                 1.083          estimate D2E/DX2                !
 ! R25   R(10,25)                1.0814         estimate D2E/DX2                !
 ! R26   R(10,26)                1.0877         estimate D2E/DX2                !
 ! R27   R(11,12)                1.5238         estimate D2E/DX2                !
 ! R28   R(11,27)                1.0863         estimate D2E/DX2                !
 ! R29   R(12,28)                1.0812         estimate D2E/DX2                !
 ! R30   R(12,29)                1.0876         estimate D2E/DX2                !
 ! R31   R(13,30)                1.0864         estimate D2E/DX2                !
 ! R32   R(13,31)                1.0875         estimate D2E/DX2                !
 ! A1    A(2,1,13)             111.4872         estimate D2E/DX2                !
 ! A2    A(2,1,14)             109.4156         estimate D2E/DX2                !
 ! A3    A(2,1,15)             105.5222         estimate D2E/DX2                !
 ! A4    A(13,1,14)            110.6002         estimate D2E/DX2                !
 ! A5    A(13,1,15)            111.5131         estimate D2E/DX2                !
 ! A6    A(14,1,15)            108.1235         estimate D2E/DX2                !
 ! A7    A(1,2,5)              116.0963         estimate D2E/DX2                !
 ! A8    A(6,3,13)             109.5875         estimate D2E/DX2                !
 ! A9    A(6,3,16)             110.1289         estimate D2E/DX2                !
 ! A10   A(6,3,17)             109.8064         estimate D2E/DX2                !
 ! A11   A(13,3,16)            109.6769         estimate D2E/DX2                !
 ! A12   A(13,3,17)            110.6347         estimate D2E/DX2                !
 ! A13   A(16,3,17)            106.9742         estimate D2E/DX2                !
 ! A14   A(10,4,12)            113.3603         estimate D2E/DX2                !
 ! A15   A(2,5,6)              111.2202         estimate D2E/DX2                !
 ! A16   A(2,5,8)              111.9415         estimate D2E/DX2                !
 ! A17   A(2,5,18)             104.9317         estimate D2E/DX2                !
 ! A18   A(6,5,8)              108.732          estimate D2E/DX2                !
 ! A19   A(6,5,18)             110.7996         estimate D2E/DX2                !
 ! A20   A(8,5,18)             109.1753         estimate D2E/DX2                !
 ! A21   A(3,6,5)              112.0284         estimate D2E/DX2                !
 ! A22   A(3,6,19)             109.3701         estimate D2E/DX2                !
 ! A23   A(3,6,20)             111.6018         estimate D2E/DX2                !
 ! A24   A(5,6,19)             107.2722         estimate D2E/DX2                !
 ! A25   A(5,6,20)             108.8881         estimate D2E/DX2                !
 ! A26   A(19,6,20)            107.4861         estimate D2E/DX2                !
 ! A27   A(9,7,10)             110.6996         estimate D2E/DX2                !
 ! A28   A(9,7,21)             110.3126         estimate D2E/DX2                !
 ! A29   A(9,7,22)             109.9854         estimate D2E/DX2                !
 ! A30   A(10,7,21)            109.3959         estimate D2E/DX2                !
 ! A31   A(10,7,22)            109.0274         estimate D2E/DX2                !
 ! A32   A(21,7,22)            107.3474         estimate D2E/DX2                !
 ! A33   A(5,8,11)             118.3649         estimate D2E/DX2                !
 ! A34   A(7,9,11)             109.7706         estimate D2E/DX2                !
 ! A35   A(7,9,23)             109.6539         estimate D2E/DX2                !
 ! A36   A(7,9,24)             110.3615         estimate D2E/DX2                !
 ! A37   A(11,9,23)            108.6226         estimate D2E/DX2                !
 ! A38   A(11,9,24)            110.7477         estimate D2E/DX2                !
 ! A39   A(23,9,24)            107.6363         estimate D2E/DX2                !
 ! A40   A(4,10,7)             110.7674         estimate D2E/DX2                !
 ! A41   A(4,10,25)            106.3025         estimate D2E/DX2                !
 ! A42   A(4,10,26)            109.001          estimate D2E/DX2                !
 ! A43   A(7,10,25)            111.5353         estimate D2E/DX2                !
 ! A44   A(7,10,26)            110.6816         estimate D2E/DX2                !
 ! A45   A(25,10,26)           108.4108         estimate D2E/DX2                !
 ! A46   A(8,11,9)             113.3891         estimate D2E/DX2                !
 ! A47   A(8,11,12)            105.8538         estimate D2E/DX2                !
 ! A48   A(8,11,27)            108.8435         estimate D2E/DX2                !
 ! A49   A(9,11,12)            110.3389         estimate D2E/DX2                !
 ! A50   A(9,11,27)            109.649          estimate D2E/DX2                !
 ! A51   A(12,11,27)           108.6085         estimate D2E/DX2                !
 ! A52   A(4,12,11)            111.0513         estimate D2E/DX2                !
 ! A53   A(4,12,28)            106.9647         estimate D2E/DX2                !
 ! A54   A(4,12,29)            109.8046         estimate D2E/DX2                !
 ! A55   A(11,12,28)           110.4864         estimate D2E/DX2                !
 ! A56   A(11,12,29)           109.7913         estimate D2E/DX2                !
 ! A57   A(28,12,29)           108.6756         estimate D2E/DX2                !
 ! A58   A(1,13,3)             110.1109         estimate D2E/DX2                !
 ! A59   A(1,13,30)            109.0172         estimate D2E/DX2                !
 ! A60   A(1,13,31)            109.2523         estimate D2E/DX2                !
 ! A61   A(3,13,30)            111.132          estimate D2E/DX2                !
 ! A62   A(3,13,31)            109.7905         estimate D2E/DX2                !
 ! A63   A(30,13,31)           107.4801         estimate D2E/DX2                !
 ! D1    D(13,1,2,5)           -57.1091         estimate D2E/DX2                !
 ! D2    D(14,1,2,5)            65.5522         estimate D2E/DX2                !
 ! D3    D(15,1,2,5)          -178.3311         estimate D2E/DX2                !
 ! D4    D(2,1,13,3)            54.7783         estimate D2E/DX2                !
 ! D5    D(2,1,13,30)          176.9388         estimate D2E/DX2                !
 ! D6    D(2,1,13,31)          -65.8731         estimate D2E/DX2                !
 ! D7    D(14,1,13,3)          -67.2012         estimate D2E/DX2                !
 ! D8    D(14,1,13,30)          54.9594         estimate D2E/DX2                !
 ! D9    D(14,1,13,31)         172.1475         estimate D2E/DX2                !
 ! D10   D(15,1,13,3)          172.4435         estimate D2E/DX2                !
 ! D11   D(15,1,13,30)         -65.3959         estimate D2E/DX2                !
 ! D12   D(15,1,13,31)          51.7921         estimate D2E/DX2                !
 ! D13   D(1,2,5,6)             54.8547         estimate D2E/DX2                !
 ! D14   D(1,2,5,8)            -67.0034         estimate D2E/DX2                !
 ! D15   D(1,2,5,18)           174.7082         estimate D2E/DX2                !
 ! D16   D(13,3,6,5)            52.028          estimate D2E/DX2                !
 ! D17   D(13,3,6,19)          -66.7723         estimate D2E/DX2                !
 ! D18   D(13,3,6,20)          174.4264         estimate D2E/DX2                !
 ! D19   D(16,3,6,5)           -68.7071         estimate D2E/DX2                !
 ! D20   D(16,3,6,19)          172.4926         estimate D2E/DX2                !
 ! D21   D(16,3,6,20)           53.6913         estimate D2E/DX2                !
 ! D22   D(17,3,6,5)           173.7453         estimate D2E/DX2                !
 ! D23   D(17,3,6,19)           54.945          estimate D2E/DX2                !
 ! D24   D(17,3,6,20)          -63.8563         estimate D2E/DX2                !
 ! D25   D(6,3,13,1)           -53.0293         estimate D2E/DX2                !
 ! D26   D(6,3,13,30)         -173.9302         estimate D2E/DX2                !
 ! D27   D(6,3,13,31)           67.2979         estimate D2E/DX2                !
 ! D28   D(16,3,13,1)           67.9795         estimate D2E/DX2                !
 ! D29   D(16,3,13,30)         -52.9214         estimate D2E/DX2                !
 ! D30   D(16,3,13,31)        -171.6932         estimate D2E/DX2                !
 ! D31   D(17,3,13,1)         -174.2482         estimate D2E/DX2                !
 ! D32   D(17,3,13,30)          64.851          estimate D2E/DX2                !
 ! D33   D(17,3,13,31)         -53.9209         estimate D2E/DX2                !
 ! D34   D(12,4,10,7)          -60.4005         estimate D2E/DX2                !
 ! D35   D(12,4,10,25)         178.2716         estimate D2E/DX2                !
 ! D36   D(12,4,10,26)          61.6093         estimate D2E/DX2                !
 ! D37   D(10,4,12,11)          60.6803         estimate D2E/DX2                !
 ! D38   D(10,4,12,28)        -178.6899         estimate D2E/DX2                !
 ! D39   D(10,4,12,29)         -60.9357         estimate D2E/DX2                !
 ! D40   D(2,5,6,3)            -51.774          estimate D2E/DX2                !
 ! D41   D(2,5,6,19)            68.2585         estimate D2E/DX2                !
 ! D42   D(2,5,6,20)          -175.7042         estimate D2E/DX2                !
 ! D43   D(8,5,6,3)             71.9316         estimate D2E/DX2                !
 ! D44   D(8,5,6,19)          -168.036          estimate D2E/DX2                !
 ! D45   D(8,5,6,20)           -51.9986         estimate D2E/DX2                !
 ! D46   D(18,5,6,3)          -168.0802         estimate D2E/DX2                !
 ! D47   D(18,5,6,19)          -48.0478         estimate D2E/DX2                !
 ! D48   D(18,5,6,20)           67.9896         estimate D2E/DX2                !
 ! D49   D(2,5,8,11)           -78.6011         estimate D2E/DX2                !
 ! D50   D(6,5,8,11)           158.1246         estimate D2E/DX2                !
 ! D51   D(18,5,8,11)           37.133          estimate D2E/DX2                !
 ! D52   D(10,7,9,11)          -51.9276         estimate D2E/DX2                !
 ! D53   D(10,7,9,23)           67.3276         estimate D2E/DX2                !
 ! D54   D(10,7,9,24)         -174.267          estimate D2E/DX2                !
 ! D55   D(21,7,9,11)         -173.1541         estimate D2E/DX2                !
 ! D56   D(21,7,9,23)          -53.8988         estimate D2E/DX2                !
 ! D57   D(21,7,9,24)           64.5065         estimate D2E/DX2                !
 ! D58   D(22,7,9,11)           68.6212         estimate D2E/DX2                !
 ! D59   D(22,7,9,23)         -172.1235         estimate D2E/DX2                !
 ! D60   D(22,7,9,24)          -53.7182         estimate D2E/DX2                !
 ! D61   D(9,7,10,4)            55.3295         estimate D2E/DX2                !
 ! D62   D(9,7,10,25)          173.5192         estimate D2E/DX2                !
 ! D63   D(9,7,10,26)          -65.6912         estimate D2E/DX2                !
 ! D64   D(21,7,10,4)          177.0962         estimate D2E/DX2                !
 ! D65   D(21,7,10,25)         -64.7141         estimate D2E/DX2                !
 ! D66   D(21,7,10,26)          56.0755         estimate D2E/DX2                !
 ! D67   D(22,7,10,4)          -65.7879         estimate D2E/DX2                !
 ! D68   D(22,7,10,25)          52.4017         estimate D2E/DX2                !
 ! D69   D(22,7,10,26)         173.1914         estimate D2E/DX2                !
 ! D70   D(5,8,11,9)            87.7699         Frozen                          !
 ! D71   D(5,8,11,12)         -151.1329         estimate D2E/DX2                !
 ! D72   D(5,8,11,27)          -34.5546         estimate D2E/DX2                !
 ! D73   D(7,9,11,8)           170.3631         estimate D2E/DX2                !
 ! D74   D(7,9,11,12)           51.8241         estimate D2E/DX2                !
 ! D75   D(7,9,11,27)          -67.7607         estimate D2E/DX2                !
 ! D76   D(23,9,11,8)           50.477          estimate D2E/DX2                !
 ! D77   D(23,9,11,12)         -68.0619         estimate D2E/DX2                !
 ! D78   D(23,9,11,27)         172.3532         estimate D2E/DX2                !
 ! D79   D(24,9,11,8)          -67.5273         estimate D2E/DX2                !
 ! D80   D(24,9,11,12)         173.9337         estimate D2E/DX2                !
 ! D81   D(24,9,11,27)          54.3489         estimate D2E/DX2                !
 ! D82   D(8,11,12,4)         -178.805          estimate D2E/DX2                !
 ! D83   D(8,11,12,28)          62.6688         estimate D2E/DX2                !
 ! D84   D(8,11,12,29)         -57.1813         estimate D2E/DX2                !
 ! D85   D(9,11,12,4)          -55.7545         estimate D2E/DX2                !
 ! D86   D(9,11,12,28)        -174.2806         estimate D2E/DX2                !
 ! D87   D(9,11,12,29)          65.8692         estimate D2E/DX2                !
 ! D88   D(27,11,12,4)          64.458          estimate D2E/DX2                !
 ! D89   D(27,11,12,28)        -54.0681         estimate D2E/DX2                !
 ! D90   D(27,11,12,29)       -173.9183         estimate D2E/DX2                !
 --------------------------------------------------------------------------------
 Trust Radius=3.00D-01 FncErr=1.00D-07 GrdErr=1.00D-06 EigMax=2.50D+02 EigMin=1.00D-04
 Number of steps in this run=    186 maximum allowed number of steps=    186.
 GradGradGradGradGradGradGradGradGradGradGradGradGradGradGradGradGradGrad

                          Input orientation:                          
 ---------------------------------------------------------------------
 Center     Atomic      Atomic             Coordinates (Angstroms)
 Number     Number       Type             X           Y           Z
 ---------------------------------------------------------------------
      1          6           0       -2.254852    1.434820    0.334226
      2          8           0       -1.650989    0.966113   -0.864505
      3          6           0       -3.157399   -0.857370    0.750618
      4          8           0        3.342255   -1.046585    0.073275
      5          6           0       -1.282422   -0.387897   -0.881572
      6          6           0       -2.464458   -1.284780   -0.543939
      7          6           0        2.962603    1.321022   -0.227278
      8          8           0       -0.243663   -0.657884    0.014346
      9          6           0        1.461274    1.114915   -0.004016
     10          6           0        3.763933    0.242518    0.481582
     11          6           0        1.077571   -0.317246   -0.364982
     12          6           0        1.985593   -1.306399    0.355385
     13          6           0       -3.496510    0.631565    0.682878
     14          1           0       -1.532965    1.391478    1.142392
     15          1           0       -2.492984    2.473512    0.151309
     16          1           0       -2.508967   -1.046642    1.602023
     17          1           0       -4.056094   -1.448071    0.899166
     18          1           0       -0.937985   -0.570133   -1.889933
     19          1           0       -3.168010   -1.215570   -1.369121
     20          1           0       -2.122033   -2.312566   -0.492985
     21          1           0        3.267783    2.296613    0.139207
     22          1           0        3.188040    1.289036   -1.290466
     23          1           0        1.220245    1.285741    1.042776
     24          1           0        0.892022    1.824351   -0.591790
     25          1           0        4.816370    0.307747    0.241785
     26          1           0        3.651488    0.326795    1.560207
     27          1           0        1.184323   -0.465143   -1.435842
     28          1           0        1.782518   -2.315847    0.025668
     29          1           0        1.814767   -1.249366    1.428015
     30          1           0       -3.893277    0.986358    1.629902
     31          1           0       -4.258069    0.801677   -0.074647
 ---------------------------------------------------------------------
                    Distance matrix (angstroms):
                    1          2          3          4          5
     1  C    0.000000
     2  O    1.421722   0.000000
     3  C    2.498421   2.864085   0.000000
     4  O    6.128056   5.464693   6.537591   0.000000
     5  C    2.397099   1.403380   2.529820   4.767939   0.000000
     6  C    2.865542   2.414749   1.529289   5.844280   1.521711
     7  C    5.248816   4.670894   6.569330   2.416616   4.622634
     8  O    2.920037   2.321705   3.011934   3.607405   1.398064
     9  C    3.745175   3.232455   5.078535   2.866382   3.249064
    10  C    6.137513   5.626448   7.013342   1.416444   5.265103
    11  C    3.829317   3.056399   4.412626   2.419256   2.416904
    12  C    5.049367   4.458382   5.177664   1.409830   3.612981
    13  C    1.519372   2.431515   1.528565   7.067992   2.896376
    14  H    1.084496   2.054872   2.801712   5.554722   2.706543
    15  H    1.081225   2.003269   3.448970   6.815217   3.274136
    16  H    2.798131   3.297130   1.086820   6.047633   2.847209
    17  H    3.445967   3.837102   1.085655   7.455123   3.462406
    18  H    3.271217   1.979881   3.461331   4.733038   1.081036
    19  H    3.280216   2.704761   2.149817   6.670278   2.116173
    20  H    3.839899   3.333113   2.176264   5.637535   2.135485
    21  H    5.592872   5.193456   7.183620   3.344677   5.380794
    22  H    5.682073   4.868462   7.002691   2.709003   4.792111
    23  H    3.549728   3.461772   4.882832   3.298879   3.573167
    24  H    3.303340   2.697749   5.038998   3.832522   3.115481
    25  H    7.161077   6.594244   8.074491   2.008887   6.240282
    26  H    6.133156   5.865511   6.958349   2.047624   5.551264
    27  H    4.309400   3.227060   4.876987   2.696698   2.529429
    28  H    5.519336   4.832457   5.201489   2.011485   3.732818
    29  H    4.996301   4.709083   5.033385   2.051746   3.958396
    30  H    2.136429   3.354151   2.171172   7.675211   3.874615
    31  H    2.140310   2.729062   2.155220   7.823227   3.304647
                    6          7          8          9         10
     6  C    0.000000
     7  C    6.028554   0.000000
     8  O    2.374155   3.775525   0.000000
     9  C    4.632648   1.531769   2.459667   0.000000
    10  C    6.494397   1.519139   4.133988   2.509805   0.000000
    11  C    3.676155   2.501246   1.416186   1.525978   2.871680
    12  C    4.540067   2.863108   2.346585   2.503366   2.361686
    13  C    2.498517   6.559259   3.562391   5.028426   7.273645
    14  H    3.297537   4.700116   2.671081   3.218106   5.460211
    15  H    3.822165   5.588827   3.857959   4.184025   6.650972
    16  H    2.159593   6.236205   2.793466   4.797343   6.501276
    17  H    2.154651   7.628818   3.992735   6.150283   8.011572
    18  H    2.156975   4.642787   2.028808   3.486046   5.328463
    19  H    1.086601   6.732200   3.282804   5.359566   7.321404
    20  H    1.084525   6.255165   2.554140   4.982650   6.490210
    21  H    6.793501   1.085921   4.590740   2.163423   2.140722
    22  H    6.255603   1.087296   4.155673   2.160322   2.137056
    23  H    4.764691   2.156408   2.641661   1.087681   2.805994
    24  H    4.575472   2.161831   2.796189   1.082971   3.449956
    25  H    7.494262   2.164070   5.156366   3.459568   1.081379
    26  H    6.665538   2.158275   4.304821   2.804454   1.087740
    27  H    3.844593   2.795227   2.044343   2.150212   3.291153
    28  H    4.407307   3.831892   2.618087   3.445897   3.267888
    29  H    4.711860   3.265642   2.566212   2.786664   2.630723
    30  H    3.453285   7.110851   4.316623   5.599771   7.778483
    31  H    2.791161   7.240934   4.272434   5.728350   8.060680
                   11         12         13         14         15
    11  C    0.000000
    12  C    1.523764   0.000000
    13  C    4.787533   5.823780   0.000000
    14  H    3.465085   4.503129   2.155024   0.000000
    15  H    4.561113   5.864045   2.163885   1.753476   0.000000
    16  H    4.155043   4.671472   2.153241   2.666134   3.807402
    17  H    5.406603   6.067763   2.164440   3.806360   4.287355
    18  H    2.540058   3.759102   3.822236   3.660179   3.981013
    19  H    4.454238   5.435236   2.780381   3.972124   4.046813
    20  H    3.772950   4.313316   3.455394   4.091626   4.843476
    21  H    3.447244   3.830462   6.987390   4.987267   5.763495
    22  H    2.809046   3.300150   7.000683   5.311985   5.979610
    23  H    2.138155   2.788809   4.775484   2.757040   3.999198
    24  H    2.161552   3.448860   4.723000   3.012529   3.525886
    25  H    3.838932   3.260624   8.330870   6.503816   7.624000
    26  H    3.278138   2.625667   7.208083   5.309112   6.659424
    27  H    1.086283   2.135003   5.253755   4.180668   4.967628
    28  H    2.154986   1.081174   6.081718   5.097427   6.421344
    29  H    2.151080   1.087644   5.683555   4.273517   5.834939
    30  H    5.512556   6.437565   1.086350   2.443944   2.521643
    31  H    5.459426   6.603955   1.087545   3.042243   2.441642
                   16         17         18         19         20
    16  H    0.000000
    17  H    1.746068   0.000000
    18  H    3.858601   4.274629   0.000000
    19  H    3.048044   2.447014   2.379253   0.000000
    20  H    2.478173   2.534961   2.527747   1.750738   0.000000
    21  H    6.832864   8.260712   5.479428   7.485313   7.119994
    22  H    6.802777   8.047591   4.565080   6.832175   6.465631
    23  H    4.433936   5.944250   4.086931   5.597373   5.145600
    24  H    4.962070   6.116825   3.281410   5.131201   5.119411
    25  H    7.572660   9.068388   6.198992   8.286485   7.453010
    26  H    6.311837   7.936872   5.811300   7.580594   6.671984
    27  H    4.817381   5.820686   2.172881   4.417057   3.903068
    28  H    4.744747   5.967028   3.757417   5.259636   3.938849
    29  H    4.331980   5.897980   4.364376   5.714296   4.507663
    30  H    2.459711   2.546945   4.852386   3.790599   4.304283
    31  H    3.047436   2.459771   4.024933   2.633093   3.799495
                   21         22         23         24         25
    21  H    0.000000
    22  H    1.750867   0.000000
    23  H    2.455751   3.052253   0.000000
    24  H    2.530144   2.458945   1.752038   0.000000
    25  H    2.522743   2.441758   3.811847   4.288991   0.000000
    26  H    2.458994   3.044179   2.664255   3.806365   1.759417
    27  H    3.801168   2.667051   3.034869   2.457569   4.074746
    28  H    4.847029   4.086916   3.784454   4.279659   4.016741
    29  H    4.043049   3.964783   2.632230   3.791940   3.583485
    30  H    7.430997   7.665847   5.155818   5.342025   8.845639
    31  H    7.675872   7.560441   5.612030   5.276053   9.093379
                   26         27         28         29         30
    26  H    0.000000
    27  H    3.961108   0.000000
    28  H    3.582097   2.432890   0.000000
    29  H    2.423902   3.035481   1.762101   0.000000
    30  H    7.573860   6.106363   6.759643   6.133595   0.000000
    31  H    8.090695   5.751288   6.798361   6.583624   1.752903
                   31
    31  H    0.000000
 Stoichiometry    C10H18O3
 Framework group  C1[X(C10H18O3)]
 Deg. of freedom    87
 Full point group                 C1      NOp   1
 Largest Abelian subgroup         C1      NOp   1
 Largest concise Abelian subgroup C1      NOp   1
                         Standard orientation:                         
 ---------------------------------------------------------------------
 Center     Atomic      Atomic             Coordinates (Angstroms)
 Number     Number       Type             X           Y           Z
 ---------------------------------------------------------------------
      1          6           0        2.254852    1.434820   -0.334226
      2          8           0        1.650989    0.966113    0.864505
      3          6           0        3.157399   -0.857370   -0.750618
      4          8           0       -3.342255   -1.046585   -0.073275
      5          6           0        1.282422   -0.387897    0.881572
      6          6           0        2.464458   -1.284780    0.543939
      7          6           0       -2.962603    1.321022    0.227278
      8          8           0        0.243663   -0.657884   -0.014346
      9          6           0       -1.461274    1.114915    0.004016
     10          6           0       -3.763933    0.242518   -0.481582
     11          6           0       -1.077571   -0.317246    0.364982
     12          6           0       -1.985593   -1.306399   -0.355385
     13          6           0        3.496510    0.631565   -0.682878
     14          1           0        1.532965    1.391478   -1.142392
     15          1           0        2.492984    2.473512   -0.151309
     16          1           0        2.508967   -1.046642   -1.602023
     17          1           0        4.056094   -1.448071   -0.899166
     18          1           0        0.937985   -0.570133    1.889933
     19          1           0        3.168010   -1.215570    1.369121
     20          1           0        2.122033   -2.312566    0.492985
     21          1           0       -3.267783    2.296613   -0.139207
     22          1           0       -3.188040    1.289036    1.290466
     23          1           0       -1.220245    1.285741   -1.042776
     24          1           0       -0.892022    1.824351    0.591790
     25          1           0       -4.816370    0.307747   -0.241785
     26          1           0       -3.651488    0.326795   -1.560207
     27          1           0       -1.184323   -0.465143    1.435842
     28          1           0       -1.782518   -2.315847   -0.025668
     29          1           0       -1.814767   -1.249366   -1.428015
     30          1           0        3.893277    0.986358   -1.629902
     31          1           0        4.258069    0.801677    0.074647
 ---------------------------------------------------------------------
 Rotational constants (GHZ):           1.9073503           0.4135009           0.3740196
 Standard basis: 6-311++G(2d,2p) (5D, 7F)
 There are   557 symmetry adapted cartesian basis functions of A   symmetry.
 There are   531 symmetry adapted basis functions of A   symmetry.
   531 basis functions,   762 primitive gaussians,   557 cartesian basis functions
    51 alpha electrons       51 beta electrons
       nuclear repulsion energy       892.7125025500 Hartrees.
 NAtoms=   31 NActive=   31 NUniq=   31 SFac= 1.00D+00 NAtFMM=   60 NAOKFM=F Big=F
 Integral buffers will be    131072 words long.
 Raffenetti 2 integral format.
 Two-electron integral symmetry is turned on.
 ------------------------------------------------------------------------------
 Polarizable Continuum Model (PCM)
 =================================
 Model                : PCM.
 Atomic radii         : UFF (Universal Force Field).
 Polarization charges : Total charges.
 Charge compensation  : None.
 Solution method      : On-the-fly selection.
 Cavity type          : Scaled VdW (van der Waals Surface) (Alpha=1.100).
 Cavity algorithm     : GePol (No added spheres)
                        Default sphere list used, NSphG=   31.
                        Lebedev-Laikov grids with approx.  5.0 points / Ang**2.
                        Smoothing algorithm: York/Karplus (Gamma=1.0000).
                        Polarization charges: spherical gaussians, with
                                              point-specific exponents (IZeta= 3).
                        Self-potential: point-specific (ISelfS= 7).
                        Self-field    : sphere-specific E.n sum rule (ISelfD= 2).
 1st derivatives      : Analytical E(r).r(x)/FMM algorithm (CHGder, D1EAlg=3).
                        Cavity 1st derivative terms included.
 Solvent              : Water, Eps=  78.355300 Eps(inf)=   1.777849
 ------------------------------------------------------------------------------
 One-electron integrals computed using PRISM.
 NBasis=   531 RedAO= T EigKep=  5.14D-06  NBF=   531
 NBsUse=   531 1.00D-06 EigRej= -1.00D+00 NBFU=   531
 ExpMin= 3.60D-02 ExpMax= 8.59D+03 ExpMxC= 1.30D+03 IAcc=3 IRadAn=         5 AccDes= 0.00D+00
 Harris functional with IExCor= 1009 and IRadAn=       5 diagonalized for initial guess.
 HarFok:  IExCor= 1009 AccDes= 0.00D+00 IRadAn=         5 IDoV= 1 UseB2=F ITyADJ=14
 ICtDFT=  3500011 ScaDFX=  1.000000  1.000000  1.000000  1.000000
 FoFCou: FMM=F IPFlag=           0 FMFlag=      100000 FMFlg1=           0
         NFxFlg=           0 DoJE=T BraDBF=F KetDBF=T FulRan=T
         wScrn=  0.000000 ICntrl=       500 IOpCl=  0 I1Cent=   200000004 NGrid=           0
         NMat0=    1 NMatS0=      1 NMatT0=    0 NMatD0=    1 NMtDS0=    0 NMtDT0=    0
 Petite list used in FoFCou.
 Requested convergence on RMS density matrix=1.00D-08 within 128 cycles.
 Requested convergence on MAX density matrix=1.00D-06.
 Requested convergence on             energy=1.00D-06.
 No special actions if energy rises.
 Inv3:  Mode=1 IEnd=    12546075.
 Iteration    1 A*A^-1 deviation from unit magnitude is 4.66D-15 for   2045.
 Iteration    1 A*A^-1 deviation from orthogonality  is 2.18D-15 for   2041    903.
 Iteration    1 A^-1*A deviation from unit magnitude is 4.66D-15 for   2045.
 Iteration    1 A^-1*A deviation from orthogonality  is 1.76D-15 for   2012    942.
 Error on total polarization charges =  0.01491
 SCF Done:  E(RM062X) =  -617.501897488     A.U. after   12 cycles
            NFock= 12  Conv=0.49D-08     -V/T= 2.0035

 **********************************************************************

            Population analysis using the SCF density.

 **********************************************************************

 Orbital symmetries:
       Occupied  (A) (A) (A) (A) (A) (A) (A) (A) (A) (A) (A) (A)
                 (A) (A) (A) (A) (A) (A) (A) (A) (A) (A) (A) (A)
                 (A) (A) (A) (A) (A) (A) (A) (A) (A) (A) (A) (A)
                 (A) (A) (A) (A) (A) (A) (A) (A) (A) (A) (A) (A)
                 (A) (A) (A)
       Virtual   (A) (A) (A) (A) (A) (A) (A) (A) (A) (A) (A) (A)
                 (A) (A) (A) (A) (A) (A) (A) (A) (A) (A) (A) (A)
                 (A) (A) (A) (A) (A) (A) (A) (A) (A) (A) (A) (A)
                 (A) (A) (A) (A) (A) (A) (A) (A) (A) (A) (A) (A)
                 (A) (A) (A) (A) (A) (A) (A) (A) (A) (A) (A) (A)
                 (A) (A) (A) (A) (A) (A) (A) (A) (A) (A) (A) (A)
                 (A) (A) (A) (A) (A) (A) (A) (A) (A) (A) (A) (A)
                 (A) (A) (A) (A) (A) (A) (A) (A) (A) (A) (A) (A)
                 (A) (A) (A) (A) (A) (A) (A) (A) (A) (A) (A) (A)
                 (A) (A) (A) (A) (A) (A) (A) (A) (A) (A) (A) (A)
                 (A) (A) (A) (A) (A) (A) (A) (A) (A) (A) (A) (A)
                 (A) (A) (A) (A) (A) (A) (A) (A) (A) (A) (A) (A)
                 (A) (A) (A) (A) (A) (A) (A) (A) (A) (A) (A) (A)
                 (A) (A) (A) (A) (A) (A) (A) (A) (A) (A) (A) (A)
                 (A) (A) (A) (A) (A) (A) (A) (A) (A) (A) (A) (A)
                 (A) (A) (A) (A) (A) (A) (A) (A) (A) (A) (A) (A)
                 (A) (A) (A) (A) (A) (A) (A) (A) (A) (A) (A) (A)
                 (A) (A) (A) (A) (A) (A) (A) (A) (A) (A) (A) (A)
                 (A) (A) (A) (A) (A) (A) (A) (A) (A) (A) (A) (A)
                 (A) (A) (A) (A) (A) (A) (A) (A) (A) (A) (A) (A)
                 (A) (A) (A) (A) (A) (A) (A) (A) (A) (A) (A) (A)
                 (A) (A) (A) (A) (A) (A) (A) (A) (A) (A) (A) (A)
                 (A) (A) (A) (A) (A) (A) (A) (A) (A) (A) (A) (A)
                 (A) (A) (A) (A) (A) (A) (A) (A) (A) (A) (A) (A)
                 (A) (A) (A) (A) (A) (A) (A) (A) (A) (A) (A) (A)
                 (A) (A) (A) (A) (A) (A) (A) (A) (A) (A) (A) (A)
                 (A) (A) (A) (A) (A) (A) (A) (A) (A) (A) (A) (A)
                 (A) (A) (A) (A) (A) (A) (A) (A) (A) (A) (A) (A)
                 (A) (A) (A) (A) (A) (A) (A) (A) (A) (A) (A) (A)
                 (A) (A) (A) (A) (A) (A) (A) (A) (A) (A) (A) (A)
                 (A) (A) (A) (A) (A) (A) (A) (A) (A) (A) (A) (A)
                 (A) (A) (A) (A) (A) (A) (A) (A) (A) (A) (A) (A)
                 (A) (A) (A) (A) (A) (A) (A) (A) (A) (A) (A) (A)
                 (A) (A) (A) (A) (A) (A) (A) (A) (A) (A) (A) (A)
                 (A) (A) (A) (A) (A) (A) (A) (A) (A) (A) (A) (A)
                 (A) (A) (A) (A) (A) (A) (A) (A) (A) (A) (A) (A)
                 (A) (A) (A) (A) (A) (A) (A) (A) (A) (A) (A) (A)
                 (A) (A) (A) (A) (A) (A) (A) (A) (A) (A) (A) (A)
                 (A) (A) (A) (A) (A) (A) (A) (A) (A) (A) (A) (A)
                 (A) (A) (A) (A) (A) (A) (A) (A) (A) (A) (A) (A)
 The electronic state is 1-A.
 Alpha  occ. eigenvalues --  -19.63136 -19.62900 -19.62606 -10.63418 -10.58756
 Alpha  occ. eigenvalues --  -10.57877 -10.57811 -10.57569 -10.53051 -10.52953
 Alpha  occ. eigenvalues --  -10.52896 -10.52846 -10.52730  -1.20145  -1.16779
 Alpha  occ. eigenvalues --   -1.13661  -0.90931  -0.89657  -0.87652  -0.84579
 Alpha  occ. eigenvalues --   -0.74824  -0.74110  -0.73106  -0.71212  -0.65986
 Alpha  occ. eigenvalues --   -0.64039  -0.60064  -0.58775  -0.57429  -0.55813
 Alpha  occ. eigenvalues --   -0.54624  -0.53272  -0.52175  -0.50760  -0.49880
 Alpha  occ. eigenvalues --   -0.48349  -0.47933  -0.45969  -0.45231  -0.44520
 Alpha  occ. eigenvalues --   -0.44069  -0.42030  -0.41329  -0.40384  -0.39783
 Alpha  occ. eigenvalues --   -0.38390  -0.37623  -0.36226  -0.34989  -0.33277
 Alpha  occ. eigenvalues --   -0.31796
 Alpha virt. eigenvalues --   -0.00057   0.00751   0.00821   0.01090   0.02175
 Alpha virt. eigenvalues --    0.02506   0.02608   0.03388   0.03601   0.04381
 Alpha virt. eigenvalues --    0.04714   0.04881   0.05492   0.05786   0.06950
 Alpha virt. eigenvalues --    0.07591   0.07820   0.08218   0.08796   0.09244
 Alpha virt. eigenvalues --    0.09850   0.10626   0.11252   0.11318   0.12076
 Alpha virt. eigenvalues --    0.12221   0.12571   0.12943   0.13034   0.13523
 Alpha virt. eigenvalues --    0.13639   0.14234   0.14416   0.14828   0.15095
 Alpha virt. eigenvalues --    0.15284   0.15374   0.15622   0.16031   0.16076
 Alpha virt. eigenvalues --    0.16330   0.16564   0.17077   0.17570   0.17882
 Alpha virt. eigenvalues --    0.18250   0.18550   0.18845   0.19233   0.19691
 Alpha virt. eigenvalues --    0.19847   0.20527   0.20660   0.21306   0.21509
 Alpha virt. eigenvalues --    0.22151   0.22734   0.23118   0.23615   0.23996
 Alpha virt. eigenvalues --    0.24653   0.25988   0.26151   0.26753   0.26985
 Alpha virt. eigenvalues --    0.27696   0.27953   0.28272   0.29286   0.29461
 Alpha virt. eigenvalues --    0.29928   0.30071   0.30770   0.31199   0.31876
 Alpha virt. eigenvalues --    0.32315   0.32907   0.33624   0.34324   0.34474
 Alpha virt. eigenvalues --    0.34636   0.34925   0.35541   0.35942   0.36119
 Alpha virt. eigenvalues --    0.36754   0.36922   0.37455   0.37698   0.38014
 Alpha virt. eigenvalues --    0.38283   0.38755   0.39332   0.39923   0.40599
 Alpha virt. eigenvalues --    0.41697   0.41850   0.42888   0.43496   0.45700
 Alpha virt. eigenvalues --    0.45971   0.46730   0.49020   0.49997   0.50750
 Alpha virt. eigenvalues --    0.51249   0.52893   0.53572   0.54331   0.54899
 Alpha virt. eigenvalues --    0.56226   0.57392   0.58324   0.58848   0.59240
 Alpha virt. eigenvalues --    0.59604   0.60445   0.61038   0.61497   0.61947
 Alpha virt. eigenvalues --    0.62247   0.62886   0.63534   0.64221   0.64572
 Alpha virt. eigenvalues --    0.64951   0.65188   0.65792   0.66510   0.67130
 Alpha virt. eigenvalues --    0.67759   0.68182   0.69442   0.69708   0.70436
 Alpha virt. eigenvalues --    0.71060   0.71596   0.71995   0.72474   0.72776
 Alpha virt. eigenvalues --    0.73582   0.74082   0.74366   0.75462   0.75752
 Alpha virt. eigenvalues --    0.76230   0.76548   0.77107   0.78183   0.79383
 Alpha virt. eigenvalues --    0.80380   0.83172   0.83651   0.84253   0.85177
 Alpha virt. eigenvalues --    0.86343   0.87321   0.87671   0.89130   0.90460
 Alpha virt. eigenvalues --    0.90827   0.92183   0.92734   0.93612   0.94780
 Alpha virt. eigenvalues --    0.96163   0.98256   0.99258   1.00547   1.01683
 Alpha virt. eigenvalues --    1.02674   1.04080   1.04655   1.05706   1.07413
 Alpha virt. eigenvalues --    1.07962   1.09391   1.10186   1.10860   1.11457
 Alpha virt. eigenvalues --    1.12723   1.14492   1.15476   1.15896   1.16318
 Alpha virt. eigenvalues --    1.17813   1.18921   1.19202   1.19512   1.20250
 Alpha virt. eigenvalues --    1.21602   1.21940   1.22405   1.23333   1.24151
 Alpha virt. eigenvalues --    1.25162   1.25206   1.26314   1.26454   1.27307
 Alpha virt. eigenvalues --    1.28932   1.29583   1.30030   1.31356   1.31777
 Alpha virt. eigenvalues --    1.31931   1.32250   1.33348   1.34182   1.34208
 Alpha virt. eigenvalues --    1.34957   1.35429   1.36493   1.36898   1.37490
 Alpha virt. eigenvalues --    1.38902   1.39506   1.39789   1.40014   1.40923
 Alpha virt. eigenvalues --    1.42949   1.43302   1.44315   1.44708   1.45026
 Alpha virt. eigenvalues --    1.45536   1.45874   1.46896   1.47618   1.47919
 Alpha virt. eigenvalues --    1.48232   1.49508   1.50163   1.51004   1.52392
 Alpha virt. eigenvalues --    1.53222   1.53655   1.54292   1.54970   1.55398
 Alpha virt. eigenvalues --    1.56979   1.57266   1.58232   1.58523   1.59171
 Alpha virt. eigenvalues --    1.59509   1.60237   1.61240   1.61748   1.62415
 Alpha virt. eigenvalues --    1.62977   1.63568   1.65750   1.66176   1.67401
 Alpha virt. eigenvalues --    1.68207   1.68595   1.68832   1.70651   1.72927
 Alpha virt. eigenvalues --    1.74184   1.74921   1.75699   1.76834   1.77423
 Alpha virt. eigenvalues --    1.78624   1.79649   1.80558   1.80906   1.83603
 Alpha virt. eigenvalues --    1.85360   1.87414   1.90651   1.94442   1.99590
 Alpha virt. eigenvalues --    2.02085   2.06032   2.14111   2.18040   2.21696
 Alpha virt. eigenvalues --    2.24671   2.25616   2.27805   2.34135   2.39271
 Alpha virt. eigenvalues --    2.40299   2.43766   2.46824   2.47037   2.51875
 Alpha virt. eigenvalues --    2.61679   2.76583   2.76829   2.79314   2.80968
 Alpha virt. eigenvalues --    2.83808   2.89724   2.92371   2.93466   2.94027
 Alpha virt. eigenvalues --    2.95319   2.96653   3.00856   3.03014   3.03629
 Alpha virt. eigenvalues --    3.05563   3.08027   3.09363   3.10128   3.12298
 Alpha virt. eigenvalues --    3.14544   3.16084   3.16838   3.18681   3.21373
 Alpha virt. eigenvalues --    3.24844   3.29037   3.31481   3.32888   3.34567
 Alpha virt. eigenvalues --    3.36085   3.36665   3.38748   3.39501   3.40987
 Alpha virt. eigenvalues --    3.41737   3.43372   3.44453   3.45333   3.46658
 Alpha virt. eigenvalues --    3.48804   3.49646   3.50178   3.50909   3.51385
 Alpha virt. eigenvalues --    3.51951   3.53041   3.54354   3.55317   3.55649
 Alpha virt. eigenvalues --    3.57472   3.57897   3.58702   3.58971   3.59748
 Alpha virt. eigenvalues --    3.60482   3.61866   3.62556   3.63860   3.65694
 Alpha virt. eigenvalues --    3.66447   3.67050   3.67862   3.67916   3.69142
 Alpha virt. eigenvalues --    3.69560   3.70758   3.71726   3.73024   3.73668
 Alpha virt. eigenvalues --    3.74319   3.75179   3.75557   3.76887   3.77492
 Alpha virt. eigenvalues --    3.77974   3.79017   3.79795   3.81063   3.83152
 Alpha virt. eigenvalues --    3.86594   3.88093   3.89935   3.90391   3.91527
 Alpha virt. eigenvalues --    3.93022   3.93996   3.95066   3.96202   3.98363
 Alpha virt. eigenvalues --    3.99562   4.02324   4.02610   4.03680   4.04864
 Alpha virt. eigenvalues --    4.05561   4.05951   4.07039   4.07643   4.07695
 Alpha virt. eigenvalues --    4.08116   4.08470   4.08713   4.09452   4.11747
 Alpha virt. eigenvalues --    4.12015   4.12722   4.14490   4.15169   4.15330
 Alpha virt. eigenvalues --    4.16855   4.17971   4.18138   4.19333   4.20282
 Alpha virt. eigenvalues --    4.20575   4.22879   4.24899   4.25290   4.27397
 Alpha virt. eigenvalues --    4.27917   4.29878   4.30764   4.31350   4.32669
 Alpha virt. eigenvalues --    4.33378   4.35550   4.36102   4.36475   4.38634
 Alpha virt. eigenvalues --    4.41989   4.43843   4.46559   4.46808   4.47774
 Alpha virt. eigenvalues --    4.58347   4.60293   4.75064   4.76780   4.83117
 Alpha virt. eigenvalues --    4.85400   4.92453   4.95493   4.99113   5.00509
 Alpha virt. eigenvalues --    5.06485   5.07137   5.07527   5.08597   5.11578
 Alpha virt. eigenvalues --    5.12818   5.14066   5.15270   5.30788   5.38946
 Alpha virt. eigenvalues --    5.40321   5.57089   5.58882   5.63342   5.87042
 Alpha virt. eigenvalues --    5.87492   6.06955   7.01052   7.05292   7.05886
 Alpha virt. eigenvalues --    7.09785   7.10454   7.13199   7.14605   7.19876
 Alpha virt. eigenvalues --    7.28308   7.36188   7.40070   7.45327   7.53854
 Alpha virt. eigenvalues --    7.54532   7.66581  23.96187  23.96885  24.05294
 Alpha virt. eigenvalues --   24.08757  24.11289  24.11984  24.14475  24.14921
 Alpha virt. eigenvalues --   24.16650  24.20854  50.16509  50.18118  50.24485
          Condensed to atoms (all electrons):
               1          2          3          4          5          6
     1  C    5.556827   0.107702   0.020989  -0.000187  -0.455184   0.189963
     2  O    0.107702   8.205939  -0.001393   0.000199   0.315230  -0.070254
     3  C    0.020989  -0.001393   5.608555   0.000564  -0.067531  -0.061311
     4  O   -0.000187   0.000199   0.000564   8.347708   0.002012   0.000923
     5  C   -0.455184   0.315230  -0.067531   0.002012   6.878650  -0.838043
     6  C    0.189963  -0.070254  -0.061311   0.000923  -0.838043   6.568379
     7  C   -0.038048   0.016568  -0.001507  -0.036609  -0.032593   0.000574
     8  O    0.033132  -0.043412  -0.021574  -0.002072   0.232861  -0.042140
     9  C   -0.036805   0.007811   0.039739  -0.023842   0.060415  -0.030448
    10  C   -0.003050   0.000245  -0.001371   0.112668   0.019115   0.000371
    11  C    0.146742  -0.036966  -0.021873   0.005159  -0.638393   0.099774
    12  C   -0.024402  -0.005836  -0.025554   0.164818   0.082016  -0.071452
    13  C   -0.184850  -0.068360   0.022208  -0.000027   0.255477  -0.151536
    14  H    0.474395  -0.032760   0.001941   0.000252  -0.007070   0.023927
    15  H    0.432541  -0.072955   0.006277   0.000016  -0.004094  -0.005394
    16  H   -0.006331   0.002312   0.517550   0.000040  -0.014149  -0.052948
    17  H    0.007398  -0.004338   0.419583   0.000017   0.011979  -0.041978
    18  H   -0.035632  -0.050379  -0.026105   0.000285   0.505539  -0.069677
    19  H    0.006997  -0.008076  -0.011324  -0.000067  -0.151254   0.533145
    20  H    0.012242   0.010096  -0.039468   0.000415  -0.036591   0.435842
    21  H   -0.000324  -0.000302   0.000010   0.007331  -0.004034   0.000267
    22  H    0.001421   0.000384   0.000158  -0.000220  -0.005478   0.002897
    23  H    0.000578  -0.003990   0.000049  -0.002070  -0.000350   0.001553
    24  H    0.010784   0.002558  -0.001287  -0.000943  -0.010028  -0.003074
    25  H   -0.000379   0.000146  -0.000127  -0.072490  -0.001823   0.000318
    26  H   -0.000354  -0.000123   0.000317  -0.043649   0.003658  -0.000409
    27  H    0.007690  -0.009590   0.006297  -0.013011  -0.019023  -0.014122
    28  H    0.001597   0.000374   0.004339  -0.075939   0.006601  -0.005482
    29  H    0.000790   0.000306  -0.003939  -0.035679  -0.013430   0.013152
    30  H   -0.026533   0.012379  -0.043156   0.000010  -0.006661   0.004484
    31  H   -0.092410  -0.004264  -0.022604  -0.000014   0.018251  -0.023288
               7          8          9         10         11         12
     1  C   -0.038048   0.033132  -0.036805  -0.003050   0.146742  -0.024402
     2  O    0.016568  -0.043412   0.007811   0.000245  -0.036966  -0.005836
     3  C   -0.001507  -0.021574   0.039739  -0.001371  -0.021873  -0.025554
     4  O   -0.036609  -0.002072  -0.023842   0.112668   0.005159   0.164818
     5  C   -0.032593   0.232861   0.060415   0.019115  -0.638393   0.082016
     6  C    0.000574  -0.042140  -0.030448   0.000371   0.099774  -0.071452
     7  C    6.203584  -0.014746  -0.404104   0.042266  -0.149267   0.204148
     8  O   -0.014746   8.297868  -0.124957   0.004719   0.198469  -0.162364
     9  C   -0.404104  -0.124957   6.251010   0.002985  -0.445444   0.021368
    10  C    0.042266   0.004719   0.002985   5.363636   0.090516  -0.215364
    11  C   -0.149267   0.198469  -0.445444   0.090516   6.726963  -0.320445
    12  C    0.204148  -0.162364   0.021368  -0.215364  -0.320445   5.967412
    13  C    0.006930  -0.030528   0.033430   0.001605  -0.063705   0.013655
    14  H   -0.000619   0.009753   0.014971  -0.001217  -0.028377   0.000057
    15  H    0.001117   0.000571   0.002525  -0.000049   0.005542  -0.001444
    16  H   -0.000354  -0.001765   0.000613   0.000241   0.000290   0.002449
    17  H   -0.000021  -0.000323   0.000472  -0.000012   0.002085  -0.001288
    18  H   -0.001014  -0.023810  -0.003304   0.000240  -0.020178   0.025152
    19  H    0.000267   0.011534   0.002071   0.000016   0.003846  -0.000235
    20  H   -0.001300  -0.007846  -0.002624   0.000098   0.005752  -0.004048
    21  H    0.437570  -0.001779  -0.035538  -0.035528  -0.006561   0.000403
    22  H    0.457540   0.001437   0.000421  -0.075163  -0.028659   0.012547
    23  H   -0.089100   0.005986   0.489112   0.003200  -0.008820  -0.039355
    24  H   -0.006287  -0.004409   0.417560   0.001443  -0.024168   0.011876
    25  H   -0.020138   0.000628  -0.006210   0.420334  -0.006369   0.021664
    26  H   -0.062068  -0.000083   0.008440   0.463166   0.018009  -0.030192
    27  H   -0.023010  -0.034586  -0.002634   0.011295   0.504685  -0.099433
    28  H    0.006707   0.000195   0.028061   0.004825  -0.061705   0.436130
    29  H   -0.012785   0.005943  -0.016035   0.000178   0.020342   0.361817
    30  H   -0.000847   0.000542  -0.000220  -0.000018   0.004393  -0.001307
    31  H    0.000893  -0.000566  -0.000653   0.000082  -0.004785   0.001101
              13         14         15         16         17         18
     1  C   -0.184850   0.474395   0.432541  -0.006331   0.007398  -0.035632
     2  O   -0.068360  -0.032760  -0.072955   0.002312  -0.004338  -0.050379
     3  C    0.022208   0.001941   0.006277   0.517550   0.419583  -0.026105
     4  O   -0.000027   0.000252   0.000016   0.000040   0.000017   0.000285
     5  C    0.255477  -0.007070  -0.004094  -0.014149   0.011979   0.505539
     6  C   -0.151536   0.023927  -0.005394  -0.052948  -0.041978  -0.069677
     7  C    0.006930  -0.000619   0.001117  -0.000354  -0.000021  -0.001014
     8  O   -0.030528   0.009753   0.000571  -0.001765  -0.000323  -0.023810
     9  C    0.033430   0.014971   0.002525   0.000613   0.000472  -0.003304
    10  C    0.001605  -0.001217  -0.000049   0.000241  -0.000012   0.000240
    11  C   -0.063705  -0.028377   0.005542   0.000290   0.002085  -0.020178
    12  C    0.013655   0.000057  -0.001444   0.002449  -0.001288   0.025152
    13  C    5.813728  -0.081759  -0.018619  -0.062839  -0.020520   0.022885
    14  H   -0.081759   0.529624  -0.021214  -0.003368  -0.001406   0.000247
    15  H   -0.018619  -0.021214   0.485866  -0.002209   0.001474   0.000061
    16  H   -0.062839  -0.003368  -0.002209   0.460042  -0.005450  -0.001877
    17  H   -0.020520  -0.001406   0.001474  -0.005450   0.464769   0.001930
    18  H    0.022885   0.000247   0.000061  -0.001877   0.001930   0.451364
    19  H   -0.008126  -0.001550   0.000682   0.002392  -0.001412  -0.010794
    20  H   -0.011068   0.000655   0.000900  -0.003171  -0.009342  -0.010287
    21  H    0.000210  -0.000158   0.000162  -0.000002   0.000007   0.000065
    22  H    0.000317   0.000337  -0.000042  -0.000069   0.000033   0.000446
    23  H    0.002972  -0.006340   0.000930   0.000697   0.000058   0.000982
    24  H   -0.005327   0.000286  -0.002057   0.000016  -0.000041  -0.004315
    25  H    0.000001  -0.000090   0.000004   0.000038  -0.000003  -0.000196
    26  H    0.000052   0.001467  -0.000074  -0.000226   0.000011   0.000150
    27  H   -0.001235  -0.001769   0.000497   0.000488  -0.000351  -0.003144
    28  H   -0.000970  -0.000441   0.000148   0.000079   0.000029  -0.002269
    29  H    0.001783   0.001068   0.000104  -0.002053   0.000363   0.000807
    30  H    0.427112  -0.001085  -0.008280  -0.004564  -0.006458   0.000463
    31  H    0.495895   0.003062  -0.006704   0.002094  -0.002781   0.001206
              19         20         21         22         23         24
     1  C    0.006997   0.012242  -0.000324   0.001421   0.000578   0.010784
     2  O   -0.008076   0.010096  -0.000302   0.000384  -0.003990   0.002558
     3  C   -0.011324  -0.039468   0.000010   0.000158   0.000049  -0.001287
     4  O   -0.000067   0.000415   0.007331  -0.000220  -0.002070  -0.000943
     5  C   -0.151254  -0.036591  -0.004034  -0.005478  -0.000350  -0.010028
     6  C    0.533145   0.435842   0.000267   0.002897   0.001553  -0.003074
     7  C    0.000267  -0.001300   0.437570   0.457540  -0.089100  -0.006287
     8  O    0.011534  -0.007846  -0.001779   0.001437   0.005986  -0.004409
     9  C    0.002071  -0.002624  -0.035538   0.000421   0.489112   0.417560
    10  C    0.000016   0.000098  -0.035528  -0.075163   0.003200   0.001443
    11  C    0.003846   0.005752  -0.006561  -0.028659  -0.008820  -0.024168
    12  C   -0.000235  -0.004048   0.000403   0.012547  -0.039355   0.011876
    13  C   -0.008126  -0.011068   0.000210   0.000317   0.002972  -0.005327
    14  H   -0.001550   0.000655  -0.000158   0.000337  -0.006340   0.000286
    15  H    0.000682   0.000900   0.000162  -0.000042   0.000930  -0.002057
    16  H    0.002392  -0.003171  -0.000002  -0.000069   0.000697   0.000016
    17  H   -0.001412  -0.009342   0.000007   0.000033   0.000058  -0.000041
    18  H   -0.010794  -0.010287   0.000065   0.000446   0.000982  -0.004315
    19  H    0.451857  -0.004569   0.000035  -0.000019   0.000306  -0.000422
    20  H   -0.004569   0.480092  -0.000065   0.000037  -0.000851   0.000419
    21  H    0.000035  -0.000065   0.494162  -0.008143  -0.005703  -0.009783
    22  H   -0.000019   0.000037  -0.008143   0.478717   0.000139  -0.001967
    23  H    0.000306  -0.000851  -0.005703   0.000139   0.452436  -0.013061
    24  H   -0.000422   0.000419  -0.009783  -0.001967  -0.013061   0.466443
    25  H    0.000027  -0.000050  -0.009168  -0.005325  -0.000939   0.000792
    26  H   -0.000058   0.000173   0.004376   0.003520  -0.013226   0.001226
    27  H    0.002338  -0.000762  -0.002106  -0.008234   0.004321  -0.003336
    28  H   -0.000207  -0.002179   0.002141  -0.001851  -0.001023  -0.000854
    29  H   -0.000139   0.001742  -0.002350   0.002809  -0.003745  -0.000245
    30  H   -0.002293   0.001371   0.000022  -0.000009   0.000439  -0.000279
    31  H   -0.002170  -0.002045  -0.000039  -0.000010   0.000340  -0.000110
              25         26         27         28         29         30
     1  C   -0.000379  -0.000354   0.007690   0.001597   0.000790  -0.026533
     2  O    0.000146  -0.000123  -0.009590   0.000374   0.000306   0.012379
     3  C   -0.000127   0.000317   0.006297   0.004339  -0.003939  -0.043156
     4  O   -0.072490  -0.043649  -0.013011  -0.075939  -0.035679   0.000010
     5  C   -0.001823   0.003658  -0.019023   0.006601  -0.013430  -0.006661
     6  C    0.000318  -0.000409  -0.014122  -0.005482   0.013152   0.004484
     7  C   -0.020138  -0.062068  -0.023010   0.006707  -0.012785  -0.000847
     8  O    0.000628  -0.000083  -0.034586   0.000195   0.005943   0.000542
     9  C   -0.006210   0.008440  -0.002634   0.028061  -0.016035  -0.000220
    10  C    0.420334   0.463166   0.011295   0.004825   0.000178  -0.000018
    11  C   -0.006369   0.018009   0.504685  -0.061705   0.020342   0.004393
    12  C    0.021664  -0.030192  -0.099433   0.436130   0.361817  -0.001307
    13  C    0.000001   0.000052  -0.001235  -0.000970   0.001783   0.427112
    14  H   -0.000090   0.001467  -0.001769  -0.000441   0.001068  -0.001085
    15  H    0.000004  -0.000074   0.000497   0.000148   0.000104  -0.008280
    16  H    0.000038  -0.000226   0.000488   0.000079  -0.002053  -0.004564
    17  H   -0.000003   0.000011  -0.000351   0.000029   0.000363  -0.006458
    18  H   -0.000196   0.000150  -0.003144  -0.002269   0.000807   0.000463
    19  H    0.000027  -0.000058   0.002338  -0.000207  -0.000139  -0.002293
    20  H   -0.000050   0.000173  -0.000762  -0.002179   0.001742   0.001371
    21  H   -0.009168   0.004376  -0.002106   0.002141  -0.002350   0.000022
    22  H   -0.005325   0.003520  -0.008234  -0.001851   0.002809  -0.000009
    23  H   -0.000939  -0.013226   0.004321  -0.001023  -0.003745   0.000439
    24  H    0.000792   0.001226  -0.003336  -0.000854  -0.000245  -0.000279
    25  H    0.476583  -0.010339  -0.000141   0.002874  -0.003883  -0.000010
    26  H   -0.010339   0.506074  -0.001649  -0.003258   0.012208   0.000003
    27  H   -0.000141  -0.001649   0.466699  -0.006622  -0.001741   0.000465
    28  H    0.002874  -0.003258  -0.006622   0.493816  -0.026087   0.000085
    29  H   -0.003883   0.012208  -0.001741  -0.026087   0.504252   0.000057
    30  H   -0.000010   0.000003   0.000465   0.000085   0.000057   0.489520
    31  H    0.000009  -0.000013  -0.000692  -0.000043  -0.000078  -0.012733
              31
     1  C   -0.092410
     2  O   -0.004264
     3  C   -0.022604
     4  O   -0.000014
     5  C    0.018251
     6  C   -0.023288
     7  C    0.000893
     8  O   -0.000566
     9  C   -0.000653
    10  C    0.000082
    11  C   -0.004785
    12  C    0.001101
    13  C    0.495895
    14  H    0.003062
    15  H   -0.006704
    16  H    0.002094
    17  H   -0.002781
    18  H    0.001206
    19  H   -0.002170
    20  H   -0.002045
    21  H   -0.000039
    22  H   -0.000010
    23  H    0.000340
    24  H   -0.000110
    25  H    0.000009
    26  H   -0.000013
    27  H   -0.000692
    28  H   -0.000043
    29  H   -0.000078
    30  H   -0.012733
    31  H    0.483982
 Mulliken charges:
               1
     1  C   -0.107299
     2  O   -0.269251
     3  C   -0.298452
     4  O   -0.335597
     5  C   -0.086074
     6  C   -0.394014
     7  C   -0.483746
     8  O   -0.286678
     9  C   -0.248189
    10  C   -0.211470
    11  C    0.033149
    12  C   -0.323892
    13  C   -0.388790
    14  H    0.127180
    15  H    0.203718
    16  H    0.172035
    17  H    0.185516
    18  H    0.251159
    19  H    0.187202
    20  H    0.186433
    21  H    0.174823
    22  H    0.172028
    23  H    0.224475
    24  H    0.178587
    25  H    0.214263
    26  H    0.142871
    27  H    0.242419
    28  H    0.200928
    29  H    0.194469
    30  H    0.173109
    31  H    0.169089
 Sum of Mulliken charges =  -0.00000
 Mulliken charges with hydrogens summed into heavy atoms:
               1
     1  C    0.223599
     2  O   -0.269251
     3  C    0.059098
     4  O   -0.335597
     5  C    0.165085
     6  C   -0.020378
     7  C   -0.136894
     8  O   -0.286678
     9  C    0.154873
    10  C    0.145663
    11  C    0.275568
    12  C    0.071505
    13  C   -0.046592
 Electronic spatial extent (au):  <R**2>=           3082.7520
 Charge=             -0.0000 electrons
 Dipole moment (field-independent basis, Debye):
    X=              1.2877    Y=              1.1203    Z=             -0.8487  Tot=              1.9062
 Quadrupole moment (field-independent basis, Debye-Ang):
   XX=            -78.5182   YY=            -80.2521   ZZ=            -79.3976
   XY=             -7.8393   XZ=             -0.2085   YZ=             -3.4770
 Traceless Quadrupole moment (field-independent basis, Debye-Ang):
   XX=              0.8711   YY=             -0.8628   ZZ=             -0.0083
   XY=             -7.8393   XZ=             -0.2085   YZ=             -3.4770
 Octapole moment (field-independent basis, Debye-Ang**2):
  XXX=             24.2127  YYY=              0.6337  ZZZ=              1.8408  XYY=              6.1631
  XXY=             26.7857  XXZ=            -10.6102  XZZ=             -4.1134  YZZ=             -3.5312
  YYZ=             -1.3249  XYZ=             -5.8329
 Hexadecapole moment (field-independent basis, Debye-Ang**3):
 XXXX=          -3138.7277 YYYY=           -619.5859 ZZZZ=           -288.1320 XXXY=            -99.3689
 XXXZ=             17.5325 YYYX=             13.8379 YYYZ=             -3.1404 ZZZX=              4.0725
 ZZZY=             -4.1416 XXYY=           -650.5735 XXZZ=           -577.2465 YYZZ=           -160.4669
 XXYZ=             -9.2903 YYXZ=             -1.0483 ZZXY=              0.1734
 N-N= 8.927125025500D+02 E-N=-3.227231313779D+03  KE= 6.153467781917D+02
 D1PCM: PCM CHGder 1st derivatives, ID1Alg=3 FixD1E=F DoIter=F DoCFld=F I1PDM=0.
 Calling FoFJK, ICntrl=      2127 FMM=F ISym2X=0 I1Cent= 0 IOpClX= 0 NMat=1 NMatS=1 NMatT=0.
 ***** Axes restored to original set *****
 -------------------------------------------------------------------
 Center     Atomic                   Forces (Hartrees/Bohr)
 Number     Number              X              Y              Z
 -------------------------------------------------------------------
      1        6          -0.002495198   -0.006230449   -0.000985154
      2        8           0.001734710    0.006877889   -0.009047968
      3        6           0.001215272    0.002494527   -0.002902365
      4        8           0.005288688   -0.005898522   -0.004282906
      5        6          -0.002848307    0.000769121    0.006720249
      6        6           0.000676276    0.000753086    0.002622619
      7        6          -0.001017109   -0.000719697    0.002696732
      8        8          -0.001852454   -0.005128571    0.010051904
      9        6           0.004024615   -0.002907904   -0.001328894
     10        6          -0.005956966    0.000623346   -0.003251804
     11        6          -0.002959346    0.003074437    0.002977794
     12        6           0.002512247    0.005973171   -0.003137307
     13        6           0.002414103   -0.001072004    0.000968093
     14        1           0.004225290   -0.001204174    0.005023882
     15        1          -0.001098571    0.004238763   -0.000813050
     16        1           0.002934036   -0.000191229    0.002102460
     17        1          -0.002175250   -0.001375573    0.000270774
     18        1           0.002121442   -0.000661706   -0.007518558
     19        1          -0.002176466    0.000833330   -0.002538913
     20        1           0.001214359   -0.002877325    0.000420294
     21        1           0.000653881    0.002867116    0.000757191
     22        1           0.000646543   -0.000763731   -0.003068873
     23        1          -0.001214123   -0.000559927    0.003971184
     24        1          -0.003419990    0.001640697   -0.002052861
     25        1           0.004249535    0.000289031   -0.001100949
     26        1          -0.001197835    0.001513838    0.005891495
     27        1           0.001885187   -0.000598523   -0.006462233
     28        1          -0.001572746   -0.004163481   -0.001603992
     29        1          -0.002762720    0.001373787    0.005942477
     30        1          -0.001245370    0.000621292    0.002474592
     31        1          -0.001803733    0.000409382   -0.002795911
 -------------------------------------------------------------------
 Cartesian Forces:  Max     0.010051904 RMS     0.003359590

 GradGradGradGradGradGradGradGradGradGradGradGradGradGradGradGradGradGrad
 Berny optimization.
 FormGI is forming the generalized inverse of G from B-inverse, IUseBI=4.
 Internal  Forces:  Max     0.012358542 RMS     0.002086936
 Search for a local minimum.
 Step number   1 out of a maximum of  186
 All quantities printed in internal units (Hartrees-Bohrs-Radians)
 Mixed Optimization -- RFO/linear search
 Second derivative matrix not updated -- first step.
 ITU=  0
     Eigenvalues ---    0.00626   0.00628   0.00726   0.00737   0.01410
     Eigenvalues ---    0.01452   0.01717   0.02700   0.02735   0.03078
     Eigenvalues ---    0.03154   0.04092   0.04146   0.04541   0.04748
     Eigenvalues ---    0.04865   0.04888   0.05121   0.05141   0.05162
     Eigenvalues ---    0.05267   0.05693   0.05726   0.06158   0.06176
     Eigenvalues ---    0.06390   0.06597   0.06978   0.07584   0.07838
     Eigenvalues ---    0.07844   0.07950   0.08031   0.08137   0.08247
     Eigenvalues ---    0.08826   0.09245   0.09324   0.10888   0.11612
     Eigenvalues ---    0.11633   0.11699   0.11766   0.12408   0.12507
     Eigenvalues ---    0.14576   0.14736   0.16291   0.16512   0.17610
     Eigenvalues ---    0.19180   0.21236   0.21971   0.25000   0.28469
     Eigenvalues ---    0.28652   0.28661   0.28863   0.28947   0.29068
     Eigenvalues ---    0.30253   0.30318   0.35075   0.35082   0.35086
     Eigenvalues ---    0.35098   0.35127   0.35183   0.35208   0.35238
     Eigenvalues ---    0.35246   0.35288   0.35320   0.35453   0.35457
     Eigenvalues ---    0.35638   0.35828   0.35847   0.35853   0.35869
     Eigenvalues ---    0.40833   0.41420   0.42492   0.43040   0.43535
     Eigenvalues ---    0.459431000.000001000.000001000.000001000.00000
     Eigenvalues --- 1000.000001000.000001000.000001000.000001000.00000
     Eigenvalues --- 1000.000001000.000001000.000001000.000001000.00000
     Eigenvalues --- 1000.000001000.000001000.000001000.000001000.00000
     Eigenvalues --- 1000.000001000.000001000.000001000.000001000.00000
     Eigenvalues --- 1000.000001000.000001000.000001000.000001000.00000
     Eigenvalues --- 1000.000001000.000001000.000001000.000001000.00000
     Eigenvalues --- 1000.000001000.000001000.000001000.000001000.00000
     Eigenvalues --- 1000.000001000.000001000.000001000.000001000.00000
     Eigenvalues --- 1000.000001000.000001000.000001000.000001000.00000
     Eigenvalues --- 1000.000001000.000001000.000001000.000001000.00000
     Eigenvalues --- 1000.000001000.000001000.000001000.000001000.00000
     Eigenvalues --- 1000.000001000.000001000.000001000.000001000.00000
     Eigenvalues --- 1000.000001000.000001000.000001000.000001000.00000
     Eigenvalues --- 1000.000001000.000001000.000001000.000001000.00000
     Eigenvalues --- 1000.000001000.000001000.000001000.000001000.00000
     Eigenvalues --- 1000.000001000.000001000.000001000.000001000.00000
     Eigenvalues --- 1000.000001000.000001000.000001000.000001000.00000
     Eigenvalues --- 1000.000001000.000001000.000001000.000001000.00000
     Eigenvalues --- 1000.000001000.000001000.000001000.000001000.00000
 RFO step:  Lambda=-3.86322427D-03 EMin= 6.26447786D-03
 Linear search not attempted -- first point.
 Iteration  1 RMS(Cart)=  0.09175424 RMS(Int)=  0.00159152
 Iteration  2 RMS(Cart)=  0.00401669 RMS(Int)=  0.00005455
 Iteration  3 RMS(Cart)=  0.00000458 RMS(Int)=  0.00005449
 Iteration  4 RMS(Cart)=  0.00000000 RMS(Int)=  0.00005449
 Iteration  1 RMS(Cart)=  0.00000041 RMS(Int)=  0.00000010
 Variable       Old X    -DE/DX   Delta X   Delta X   Delta X     New X
                                 (Linear)    (Quad)   (Total)
    R1        2.68666   0.00259   0.00000   0.00585   0.00584   2.69251
    R2        2.87120   0.00026   0.00000   0.00116   0.00118   2.87238
    R3        2.04940   0.00660   0.00000   0.01842   0.01842   2.06782
    R4        2.04322   0.00445   0.00000   0.01229   0.01229   2.05550
    R5        2.65200   0.00376   0.00000   0.00776   0.00776   2.65977
    R6        2.88994  -0.00143   0.00000  -0.00449  -0.00449   2.88545
    R7        2.88857  -0.00076   0.00000  -0.00178  -0.00178   2.88679
    R8        2.05379   0.00343   0.00000   0.00965   0.00965   2.06344
    R9        2.05159   0.00259   0.00000   0.00724   0.00724   2.05883
   R10        2.67669   0.00374   0.00000   0.00846   0.00848   2.68517
   R11        2.66419   0.00314   0.00000   0.00738   0.00740   2.67159
   R12        2.87562  -0.00062   0.00000  -0.00240  -0.00242   2.87320
   R13        2.64196   0.00249   0.00000   0.00537   0.00537   2.64733
   R14        2.04286   0.00780   0.00000   0.02151   0.02151   2.06438
   R15        2.05338   0.00339   0.00000   0.00952   0.00952   2.06290
   R16        2.04946   0.00313   0.00000   0.00874   0.00874   2.05819
   R17        2.89462  -0.00051   0.00000  -0.00215  -0.00217   2.89245
   R18        2.87076   0.00027   0.00000   0.00106   0.00106   2.87182
   R19        2.05209   0.00301   0.00000   0.00845   0.00845   2.06054
   R20        2.05469   0.00316   0.00000   0.00890   0.00890   2.06359
   R21        2.67620   0.00073   0.00000   0.00167   0.00167   2.67788
   R22        2.88368  -0.00218   0.00000  -0.00702  -0.00704   2.87664
   R23        2.05542   0.00400   0.00000   0.01128   0.01128   2.06670
   R24        2.04652   0.00399   0.00000   0.01107   0.01107   2.05759
   R25        2.04351   0.00440   0.00000   0.01214   0.01214   2.05565
   R26        2.05553   0.00608   0.00000   0.01715   0.01715   2.07268
   R27        2.87950  -0.00032   0.00000  -0.00123  -0.00123   2.87826
   R28        2.05278   0.00664   0.00000   0.01863   0.01863   2.07140
   R29        2.04312   0.00467   0.00000   0.01289   0.01289   2.05601
   R30        2.05535   0.00637   0.00000   0.01795   0.01795   2.07330
   R31        2.05290   0.00282   0.00000   0.00790   0.00790   2.06081
   R32        2.05516   0.00327   0.00000   0.00923   0.00923   2.06439
    A1        1.94582   0.00222   0.00000   0.00500   0.00493   1.95075
    A2        1.90966  -0.00004   0.00000  -0.00030  -0.00023   1.90943
    A3        1.84171  -0.00127   0.00000  -0.00192  -0.00193   1.83978
    A4        1.93034  -0.00132   0.00000  -0.00478  -0.00483   1.92551
    A5        1.94627  -0.00026   0.00000  -0.00189  -0.00181   1.94447
    A6        1.88711   0.00066   0.00000   0.00408   0.00407   1.89118
    A7        2.02626  -0.00571   0.00000  -0.03735  -0.03727   1.98900
    A8        1.91266   0.00205   0.00000  -0.00033  -0.00031   1.91235
    A9        1.92211  -0.00098   0.00000  -0.00666  -0.00667   1.91544
   A10        1.91648  -0.00059   0.00000   0.00175   0.00173   1.91821
   A11        1.91422  -0.00095   0.00000  -0.00220  -0.00230   1.91193
   A12        1.93094  -0.00023   0.00000   0.00202   0.00208   1.93302
   A13        1.86705   0.00065   0.00000   0.00545   0.00546   1.87252
   A14        1.97851  -0.00459   0.00000  -0.02478  -0.02473   1.95378
   A15        1.94116   0.00356   0.00000   0.01295   0.01269   1.95385
   A16        1.95375  -0.00029   0.00000  -0.00724  -0.00707   1.94667
   A17        1.83140  -0.00243   0.00000  -0.01238  -0.01240   1.81901
   A18        1.89773  -0.00289   0.00000  -0.01430  -0.01420   1.88353
   A19        1.93382   0.00032   0.00000   0.00822   0.00830   1.94211
   A20        1.90547   0.00184   0.00000   0.01356   0.01355   1.91902
   A21        1.95526  -0.00197   0.00000  -0.01657  -0.01671   1.93855
   A22        1.90887   0.00134   0.00000   0.00815   0.00825   1.91712
   A23        1.94782  -0.00028   0.00000  -0.00178  -0.00189   1.94593
   A24        1.87225   0.00010   0.00000   0.00424   0.00423   1.87649
   A25        1.90046   0.00095   0.00000   0.00002   0.00003   1.90049
   A26        1.87599  -0.00005   0.00000   0.00714   0.00711   1.88309
   A27        1.93207  -0.00089   0.00000  -0.00782  -0.00786   1.92421
   A28        1.92532  -0.00031   0.00000   0.00092   0.00093   1.92625
   A29        1.91961   0.00074   0.00000   0.00134   0.00133   1.92094
   A30        1.90932   0.00083   0.00000   0.00517   0.00519   1.91451
   A31        1.90289  -0.00031   0.00000  -0.00233  -0.00234   1.90055
   A32        1.87357  -0.00003   0.00000   0.00306   0.00305   1.87662
   A33        2.06586  -0.01236   0.00000  -0.04868  -0.04868   2.01717
   A34        1.91586   0.00130   0.00000  -0.00027  -0.00030   1.91556
   A35        1.91382   0.00008   0.00000   0.00386   0.00384   1.91767
   A36        1.92617   0.00059   0.00000   0.01318   0.01319   1.93936
   A37        1.89582  -0.00125   0.00000  -0.01009  -0.01010   1.88572
   A38        1.93291  -0.00109   0.00000  -0.00907  -0.00906   1.92385
   A39        1.87861   0.00033   0.00000   0.00216   0.00203   1.88063
   A40        1.93326   0.00189   0.00000   0.00898   0.00899   1.94225
   A41        1.85533  -0.00116   0.00000  -0.00347  -0.00346   1.85187
   A42        1.90243   0.00064   0.00000   0.00635   0.00638   1.90881
   A43        1.94666  -0.00035   0.00000  -0.00292  -0.00294   1.94372
   A44        1.93176  -0.00157   0.00000  -0.00987  -0.00990   1.92186
   A45        1.89212   0.00058   0.00000   0.00133   0.00130   1.89342
   A46        1.97901  -0.00260   0.00000  -0.01791  -0.01788   1.96113
   A47        1.84750   0.00166   0.00000   0.00805   0.00796   1.85546
   A48        1.89968   0.00082   0.00000   0.01311   0.01308   1.91276
   A49        1.92578  -0.00009   0.00000  -0.00479  -0.00484   1.92094
   A50        1.91374   0.00069   0.00000   0.00183   0.00188   1.91562
   A51        1.89558  -0.00040   0.00000   0.00062   0.00059   1.89616
   A52        1.93821   0.00173   0.00000   0.00691   0.00693   1.94514
   A53        1.86689  -0.00040   0.00000   0.00330   0.00331   1.87020
   A54        1.91645   0.00109   0.00000   0.01144   0.01148   1.92793
   A55        1.92835  -0.00075   0.00000  -0.00626  -0.00631   1.92204
   A56        1.91622  -0.00239   0.00000  -0.01652  -0.01658   1.89965
   A57        1.89675   0.00079   0.00000   0.00175   0.00161   1.89836
   A58        1.92180  -0.00095   0.00000  -0.00397  -0.00419   1.91760
   A59        1.90271   0.00058   0.00000   0.00367   0.00373   1.90644
   A60        1.90681   0.00003   0.00000  -0.00211  -0.00204   1.90477
   A61        1.93962  -0.00054   0.00000  -0.00190  -0.00187   1.93775
   A62        1.91621   0.00090   0.00000   0.00114   0.00123   1.91744
   A63        1.87588   0.00001   0.00000   0.00333   0.00330   1.87918
    D1       -0.99674   0.00044   0.00000  -0.01785  -0.01769  -1.01443
    D2        1.14410   0.00023   0.00000  -0.02076  -0.02066   1.12344
    D3       -3.11247   0.00031   0.00000  -0.01717  -0.01706  -3.12953
    D4        0.95606   0.00130   0.00000   0.01769   0.01775   0.97382
    D5        3.08817   0.00040   0.00000   0.01519   0.01518   3.10335
    D6       -1.14970   0.00076   0.00000   0.02009   0.02012  -1.12958
    D7       -1.17288   0.00075   0.00000   0.01797   0.01804  -1.15484
    D8        0.95922  -0.00015   0.00000   0.01547   0.01547   0.97469
    D9        3.00454   0.00021   0.00000   0.02037   0.02041   3.02495
   D10        3.00971   0.00099   0.00000   0.01730   0.01736   3.02706
   D11       -1.14137   0.00009   0.00000   0.01480   0.01478  -1.12659
[...]
 399,-0.06756787,0.00029573,-0.00000616,0.00012364,-0.00016026,-0.00149
 919,-0.00079716,-0.00000271,0.00000341,-0.00000565,0.00000263,0.000002
 40,-0.00001792,-0.00000266,0.00000540,-0.00000035,0.00000110,0.0000006
 5,-0.00000152,-0.00000364,-0.00000141,0.00000270,0.00000100,-0.0000001
 7,-0.00001154,-0.00000993,-0.00000289,0.00000086,-0.00000088,-0.000002
 17,0.00000068,0.00053580,-0.00015780,0.00034659,0.00018791,-0.00091541
 ,0.00073357,-0.00036062,-0.00002219,0.00027683,-0.00063064,-0.00007023
 ,0.00032888,-0.06116697,-0.00622337,0.06548399,-0.00002208,0.00001030,
 0.00000647,0.00005323,-0.00000766,0.00000434,0.00000188,0.00000234,0.0
 0000192,0.00172556,-0.00407425,-0.00861036,-0.00007056,0.00001749,-0.0
 0003907,0.00000490,-0.00000429,0.00000425,0.00206345,0.00209823,-0.019
 65525,0.00003082,0.00001747,0.00008465,0.00143657,-0.00054453,-0.00092
 356,-0.06030879,-0.00090859,0.03389275,-0.00040244,0.00004386,-0.00003
 999,0.00171300,-0.00000484,-0.00350220,0.00000052,-0.00000237,0.000002
 36,-0.00000615,0.00000275,0.00000813,0.00000362,-0.00000319,-0.0000000
 5,-0.00000009,-0.00000044,0.00000103,0.00000253,0.00000073,-0.00000217
 ,0.00000764,-0.00000064,0.00000756,0.00000606,0.00000097,-0.00000105,0
 .00000001,0.00000052,-0.00000120,0.00061154,-0.00031202,0.00061565,-0.
 00143011,0.00259381,-0.00189548,-0.00018068,0.00009184,0.00037966,0.00
 014029,0.00002081,0.00029593,-0.00201607,-0.00074205,0.03009330,0.0561
 1217,0.00000745,-0.00000564,-0.00001847,-0.00003256,0.00004533,-0.0000
 1256,0.00000068,-0.00000319,-0.00000383,-0.00290547,-0.01698313,-0.040
 61071,0.00004073,-0.00003456,0.00012475,-0.00001033,0.00000961,-0.0000
 1913,-0.00265341,-0.00018015,0.02541012,-0.00036081,0.00025363,-0.0001
 2512,-0.00122204,0.00059197,-0.00026646,-0.00285485,-0.04731276,0.0130
 3524,-0.00021574,-0.00053426,0.00039874,0.00509911,0.00216668,-0.00302
 634,0.00000221,-0.00000074,0.00000490,-0.00000140,-0.00000166,0.000004
 54,-0.00000148,0.00000186,0.00000198,-0.00000021,0.00000065,-0.0000009
 3,-0.00000226,0.00000088,0.00000191,0.00000340,0.00000086,-0.00000920,
 -0.00000946,-0.00000498,0.00000144,0.00000038,-0.00000044,0.00000110,-
 0.00062527,0.00075782,-0.00071568,0.00383850,-0.00277410,0.00217532,0.
 00031914,0.00014159,-0.00052806,-0.00011256,-0.00011199,-0.00030156,0.
 00038518,0.00113458,0.00400408,0.00140578,0.06264780,0.00003856,-0.000
 02659,-0.00003548,-0.00009417,0.00009365,-0.00000882,-0.00000308,-0.00
 000701,-0.00000926,-0.00217490,-0.01527421,-0.01437195,0.00019410,-0.0
 0011249,0.00022773,-0.00002557,0.00002208,-0.00003339,0.00285122,0.002
 31224,-0.01468857,-0.00061714,-0.00003833,-0.00019483,0.00065388,-0.00
 078023,0.00060544,0.03120989,0.01038895,-0.28990016,0.00016008,-0.0001
 8848,0.00023193,0.00210986,0.00156605,0.00097888,0.00000105,0.00000085
 ,0.00000041,0.00000427,-0.00000332,-0.00001004,-0.00000572,0.00000727,
 0.00000141,0.00000122,0.00000092,-0.00000309,-0.00000741,-0.00000009,0
 .00000562,-0.00000914,0.00000573,-0.00002181,-0.00002319,-0.00000713,0
 .00000355,0.00000061,-0.00000003,0.00000107,-0.00012663,0.00045392,0.0
 0023047,-0.00170969,0.00208598,0.00001757,-0.00074298,-0.00020754,0.00
 017326,-0.00005037,0.00012197,0.00034442,0.00137746,0.00129964,-0.0053
 7720,-0.03149486,-0.00133258,0.32131981,0.00012640,-0.00001410,-0.0000
 3209,-0.00012134,0.00054983,-0.00074356,-0.00005160,-0.00005165,0.0000
 3035,0.00189098,-0.00009471,0.00096369,0.00316951,-0.00088850,0.007398
 09,0.00014349,-0.00011275,-0.00018648,0.00069496,0.00028373,-0.0004172
 0,-0.02209620,-0.00470794,0.03485338,0.00224559,0.00053878,-0.00462756
 ,-0.00006368,-0.00001229,-0.00005148,-0.05087010,0.00242441,0.01234399
 ,0.00193443,-0.00050997,-0.02228065,0.00003137,-0.00006395,-0.00000281
 ,-0.00000453,-0.00008368,-0.00004782,-0.00003600,0.00001344,-0.0000559
 8,-0.00002110,0.00000595,-0.00020280,-0.00010815,0.00003982,-0.0000548
 3,-0.00005139,-0.00015632,-0.00124239,-0.00011002,-0.00002932,-0.00003
 842,0.00001994,0.00004823,0.00001158,0.00012245,0.00003955,0.00000025,
 -0.00002336,-0.00021873,0.00007242,0.00026043,-0.00127123,-0.00036830,
 0.00005396,-0.00023473,0.00046748,-0.00003551,-0.00001272,-0.00001630,
 0.00002896,0.00001162,0.00011284,0.06479177,-0.00001486,-0.00007462,-0
 .00016287,-0.00029523,0.00022836,0.00000219,-0.00000795,-0.00002195,0.
 00000391,-0.00118624,0.00080121,-0.00174441,0.00137049,0.00043400,0.00
 133217,0.00004809,-0.00003355,-0.00001058,0.00115362,0.00118839,-0.000
 17807,-0.00663763,0.00047851,0.01196406,0.00187007,-0.00371866,-0.0326
 6219,-0.00005572,-0.00036889,-0.00007165,0.00148149,-0.05177894,-0.017
 91645,-0.00044695,-0.00031699,0.02420726,0.00001626,-0.00000465,0.0000
 5880,-0.00009431,-0.00000219,0.00003750,-0.00001974,0.00001362,0.00000
 458,-0.00000414,0.00000366,-0.00005055,-0.00003286,0.00001180,-0.00000
 877,0.00009873,-0.00011744,-0.00042944,-0.00003071,-0.00000748,-0.0000
 1516,0.00000472,-0.00000213,0.00001252,0.00011380,-0.00005361,0.000452
 68,-0.00048930,-0.00007942,0.00053063,-0.00158660,-0.00540899,-0.00231
 721,0.00044475,0.00142159,0.00071218,-0.00004774,0.00010062,-0.0000394
 6,-0.00003258,-0.00010546,0.00006323,0.00237247,0.05835888,-0.00027413
 ,0.00005701,-0.00008231,0.00075842,-0.00091940,-0.00004060,-0.00028298
 ,-0.00009257,-0.00006442,-0.00055101,-0.00086308,0.00158339,-0.0044488
 0,0.00141978,0.00089457,-0.00000544,0.00022511,0.00072241,0.00011396,0
 .00008390,-0.00007246,0.01141138,0.00291922,-0.00975114,0.00030495,-0.
 00125036,-0.01067335,-0.00003706,0.00010225,0.00015441,0.01762924,-0.0
 1540149,-0.29357381,0.00111785,-0.00006764,-0.01453973,-0.00000139,-0.
 00002258,0.00004075,0.00007282,-0.00000706,0.00008760,0.00002842,-0.00
 002300,0.00001469,0.00004528,-0.00003267,0.00004764,-0.00000418,0.0000
 3786,0.00006204,0.00100026,-0.00040687,0.00104455,0.00016316,0.0000444
 1,-0.00004899,0.00000339,-0.00002849,-0.00001804,-0.00022511,-0.000100
 49,0.00024606,-0.00055809,-0.00008433,0.00014183,-0.00032520,-0.001687
 65,0.00037730,0.00002324,-0.00005424,0.00069039,-0.00005476,0.00001091
 ,-0.00001643,0.00016911,0.00002237,-0.00009344,-0.02493489,0.01429720,
 0.32220961,0.00005163,-0.00002212,0.00000666,-0.00004973,-0.00015491,0
 .00005834,0.00000298,0.00000440,-0.00000152,-0.01518383,-0.03971120,-0
 .01352621,-0.00001562,0.00001612,-0.00013129,-0.00001432,-0.00000822,-
 0.00001458,-0.00063450,-0.00066051,-0.00023669,0.00223391,-0.00011648,
 0.00004853,-0.00331176,0.00241564,-0.00236235,-0.00524556,0.00142947,0
 .00300244,0.00298353,0.01923605,0.00868931,-0.05003575,-0.02263317,-0.
 00901091,-0.00000374,0.00000683,-0.00000954,0.00002690,-0.00000175,-0.
 00002788,-0.00000159,0.00000251,-0.00000486,0.00000131,0.00000104,-0.0
 0000050,-0.00000106,-0.00000385,-0.00000013,-0.00000256,-0.00000055,-0
 .00000817,-0.00000305,-0.00000071,0.00000184,-0.00000264,-0.00000659,0
 .00000083,0.00027433,-0.00016118,0.00011801,0.00010806,0.00000531,0.00
 001734,-0.00003722,-0.00022075,-0.00006082,0.00040412,0.00143385,0.000
 27231,-0.00052970,-0.00177611,-0.00043001,0.00005979,0.00005090,-0.000
 24777,0.00083705,-0.00079569,0.00007754,0.06609210,-0.00006682,0.00004
 151,-0.00000086,0.00001656,0.00011331,-0.00006655,0.00001000,0.0000050
 9,0.00000856,-0.00742994,-0.00752589,-0.00203068,0.00010817,0.00010654
 ,0.00000584,0.00005113,-0.00003033,0.00005200,0.00026343,0.00031690,-0
 .00027016,-0.00047646,0.00201107,0.00014434,0.00338738,-0.00111147,0.0
 0307826,-0.00061139,0.00270289,0.00177004,-0.00276743,-0.02091780,-0.0
 0887220,-0.03058795,-0.27857770,-0.09214154,0.00000364,-0.00000486,0.0
 0001270,-0.00002389,-0.00000711,0.00003491,0.00000478,-0.00000554,0.00
 000020,-0.00000357,-0.00000243,0.00000144,0.00000698,0.00000294,-0.000
 00667,0.00000698,-0.00002140,-0.00000177,0.00002751,0.00001271,-0.0000
 0557,0.00000847,0.00000737,-0.00000246,-0.00006712,-0.00008866,-0.0000
 1411,-0.00006596,-0.00000026,0.00006837,0.00002601,0.00018663,-0.00005
 039,-0.00040681,-0.00129393,-0.00044993,-0.00009652,-0.00043484,-0.000
 16467,0.00007958,-0.00003535,-0.00013915,-0.00040401,0.00099289,0.0001
 7268,0.03803756,0.30170966,0.00000864,-0.00000836,0.00000680,0.0000027
 1,-0.00007177,0.00001247,0.00000525,0.00000582,-0.00000122,0.00239435,
 0.00859949,0.00401584,0.00000679,0.00005298,-0.00009870,0.00000243,-0.
 00002670,0.00000403,-0.00001150,-0.00001659,-0.00002509,0.00156235,-0.
 00065945,0.00005667,-0.00208658,0.00107990,-0.00069515,0.00076720,0.00
 048996,0.00014751,0.00034737,0.01663146,0.00549589,-0.01387662,-0.0973
 7321,-0.09171503,-0.00000152,0.00000142,-0.00000186,0.00000920,0.00000
 231,-0.00000618,0.00000260,-0.00000180,0.,-0.00000023,-0.00000167,-0.0
 0000042,0.00000241,-0.00000148,-0.00000301,0.00003166,-0.00001165,-0.0
 0001721,0.00000350,0.00000489,-0.00000096,0.00000119,0.00000383,0.0000
 0106,-0.00001879,-0.00001661,-0.00002493,0.00005300,-0.00002690,-0.000
 01883,-0.00005024,0.00035038,0.00030111,-0.00001552,0.00069220,0.00042
 527,0.00003779,0.00002536,0.00038368,0.00011026,0.00034617,0.00046462,
 0.00088826,-0.00029225,0.00087216,0.01344283,0.09873898,0.09039551,0.0
 0002011,-0.00002708,-0.00003681,-0.00002935,-0.00002536,0.00009900,-0.
 00003047,-0.00002172,-0.00000825,-0.02366067,-0.00784694,0.03866642,0.
 00026049,-0.00020317,-0.00025961,-0.00001179,0.00004297,0.00008644,-0.
 00032957,-0.00042576,-0.00046035,0.00193298,0.00002350,0.00052178,0.00
 056887,-0.00127458,0.00004524,0.00200970,0.00479412,0.00373472,0.00271
 216,0.00094721,-0.02213479,-0.04971186,-0.00068499,0.02329951,0.000001
 62,0.00000103,0.00001221,0.00000243,0.00000269,0.00001309,-0.00000285,
 0.00000777,0.00000448,0.00000559,-0.00000170,0.00000381,-0.00000937,0.
 00000425,0.00001132,-0.00013814,0.00000217,0.00015731,0.00000198,0.000
 00421,-0.00000260,0.00000066,-0.00000517,0.00000179,0.00026228,-0.0001
 9780,0.00001601,-0.00008658,0.00006113,-0.00003660,-0.00000820,0.00012
 758,0.00045753,-0.00012757,-0.00012365,0.00022455,0.00001993,0.0000946
 2,-0.00038543,0.00042927,-0.00015608,-0.00137264,-0.00274658,0.0028106
 4,-0.00126201,0.00200705,0.00095363,-0.00361802,0.06666579,0.00000424,
 0.00001763,0.00003437,0.00000959,0.00003999,-0.00006802,0.00002202,0.0
 0001928,0.00000408,-0.00638486,0.00069381,0.00791059,0.00011995,0.0000
 0236,0.00009936,0.00001906,-0.00004447,-0.00006188,0.00005174,-0.00036
 283,-0.00012621,-0.00135892,0.00032843,-0.00108098,-0.00062551,0.00148
 687,0.00087085,-0.00031769,0.00127916,0.00338883,-0.00040596,-0.000827
 15,0.02421318,0.00091120,-0.05524192,-0.00423073,-0.00000133,0.0000017
 7,-0.00001183,0.00000534,-0.00000216,-0.00001179,-0.00000048,-0.000005
 08,-0.00000466,-0.00000266,0.00000026,0.00000457,0.00000631,-0.0000039
 1,-0.00000841,0.00002106,-0.00001869,-0.00015686,0.00000077,-0.0000028
 0,0.00000674,-0.00000096,0.00000081,-0.00000148,0.00002302,-0.00004223
 ,-0.00003039,-0.00000773,0.00004825,-0.00016133,0.00021219,-0.00037277
 ,-0.00030857,0.00009861,0.00018034,-0.00033823,0.00008540,0.00005571,-
 0.00009930,0.00024916,0.00033404,-0.00030475,0.00250498,-0.00195418,0.
 00164801,0.00364036,0.00184248,-0.02851519,0.00111845,0.05254810,0.000
 03295,-0.00003823,-0.00007734,-0.00003891,0.00004000,0.00003591,-0.000
 02026,-0.00002132,-0.00002356,0.01292588,0.00289926,-0.00449975,-0.000
 07122,-0.00017317,0.00047439,-0.00008334,0.00006076,-0.00003146,0.0002
 1150,0.00011787,0.00010137,-0.00034028,-0.00033840,0.00106241,0.000402
 90,-0.00105995,0.00069912,-0.00133813,-0.00140327,0.00160931,0.0017446
 5,-0.00030257,-0.01820448,0.02529192,-0.00182145,-0.29155168,0.0000043
 4,-0.00000033,0.00001170,0.00000203,0.00000349,-0.00000683,-0.00000382
 ,0.00000895,0.00000699,-0.00000314,0.00000286,-0.00000433,-0.00001031,
 0.00000209,0.00001441,0.00014812,0.00001710,0.00011935,-0.00003332,-0.
 00001301,0.00000254,0.00000521,-0.00000146,-0.00000085,0.00004139,0.00
 011119,-0.00002471,-0.00011923,-0.00011634,-0.00016265,0.00018322,0.00
 072328,0.00051993,-0.00021189,-0.00003029,0.00033166,0.00008806,0.0002
 0225,0.00044412,0.00048950,0.00143780,0.00013833,-0.00184195,0.0022172
 9,-0.00021446,0.00033387,0.00013351,-0.00997471,-0.03777947,-0.0026591
 4,0.31920079,-0.00606426,0.01355640,0.02339669,-0.00658709,-0.00173545
 ,0.00423517,-0.00245459,0.00222382,0.00324815,-0.00006492,0.00000230,-
 0.00001516,0.00082342,-0.00219986,0.00002514,0.00093609,0.00068605,-0.
 00073031,0.00001047,-0.00000277,-0.00003612,-0.00051434,0.00029994,-0.
 00025785,-0.00003373,-0.00002575,0.00001938,-0.00000025,0.00000473,0.0
 0002417,0.00028438,0.00004939,-0.00006218,0.00003483,-0.00004314,0.000
 02939,-0.07559476,0.03084044,0.07112033,0.00073402,0.00059059,-0.00095
 341,0.00090112,-0.00030503,-0.00024673,0.00007455,-0.00018670,0.000215
 85,0.00019469,0.00004791,-0.00040399,0.00001247,0.00023856,-0.00001639
 ,-0.00005057,0.00010329,0.00039922,0.00021868,-0.00001737,0.00026178,-
 0.00001542,-0.00000807,-0.00000050,-0.00000292,0.00000079,0.00000415,-
 0.00001119,0.00001001,-0.00001396,0.00004339,0.00004982,0.00000344,-0.
 00000882,0.00000305,-0.00000281,0.00000156,-0.00000125,-0.00000509,-0.
 00000332,-0.00001467,0.00001350,-0.00000310,0.00000513,0.00000004,-0.0
 0000608,0.00000359,-0.00000779,0.07900259,-0.00207864,0.00632849,0.013
 26134,-0.00473535,0.00039848,0.00276794,0.01090734,-0.01187489,-0.0296
 4818,0.00003043,-0.00000084,0.00000755,-0.00072596,-0.00175817,0.00047
 464,0.00080571,-0.00677165,0.00252823,-0.00000597,0.00001983,-0.000003
 93,0.00016286,0.00035531,-0.00015862,0.00002098,-0.00003043,-0.0000066
 3,-0.00000892,-0.00001142,-0.00000532,-0.00002970,-0.00005874,0.000070
 26,-0.00000298,0.00002647,-0.00001389,0.03134974,-0.08581368,-0.088782
 80,0.00040506,0.00050497,-0.00042621,0.00101058,0.00010850,-0.00025090
 ,0.00001597,0.00148244,0.00037036,-0.00074526,0.00133900,0.00003282,0.
 00011483,0.00033222,-0.00002675,-0.00023182,0.00010586,0.00012416,0.00
 111445,-0.00066185,-0.00182441,0.00000471,0.00000169,-0.00000052,0.000
 00061,-0.00000091,0.00000018,-0.00000360,0.00000377,-0.00000353,-0.000
 00353,0.00002393,-0.00000216,0.,0.00000229,-0.00000016,0.00000007,0.00
 000024,0.00000154,0.00001257,0.00000246,-0.00000510,-0.00000157,-0.000
 00040,-0.00000054,0.00000032,-0.00000009,0.00000247,-0.03492549,0.0945
 1804,-0.00010130,-0.00393469,-0.00801721,0.00329397,0.00028531,-0.0000
 7730,-0.00254549,0.00232832,0.00483861,0.00005345,-0.00000422,0.000011
 99,-0.00080510,0.00124712,-0.00009273,-0.00014365,0.00077570,0.0011390
 5,-0.00000781,-0.00001190,0.00002783,0.00042502,-0.00020997,0.00012749
 ,0.00005438,0.00003628,-0.00002923,0.00000398,0.00000128,-0.00002263,-
 0.00021877,-0.00002196,0.00006342,-0.00002983,0.00003505,-0.00002482,0
 .07347158,-0.08921373,-0.24933043,0.00028174,0.00015374,0.00047025,-0.
 00007990,0.00029141,0.00007628,0.00013565,-0.00055791,0.00057665,-0.00
 003938,-0.00060643,0.00011420,-0.00001103,-0.00008605,-0.00005746,-0.0
 0006167,0.00014364,0.00024829,0.00010809,0.00020876,0.00013069,0.00001
 240,0.00000760,0.00000122,0.00000603,-0.00000054,-0.00000524,-0.000003
 24,-0.00000129,-0.00000087,-0.00003112,-0.00004922,0.00002136,0.000009
 11,-0.00000436,0.00000348,-0.00000201,0.00000116,0.00000431,0.00000754
 ,0.00001185,-0.00001379,0.00000308,-0.00000579,0.00000020,0.00000418,-
 0.00000273,0.00000566,-0.08088205,0.09686643,0.26808077,-0.02320953,0.
 00304762,-0.02181418,0.00306697,0.00073486,0.00008296,-0.00310090,0.00
 093643,-0.00294869,-0.00003574,0.00001038,-0.00000622,-0.00024410,-0.0
 0014801,-0.00005671,-0.00009739,-0.00020493,-0.00021053,0.00002144,0.0
 0007385,0.00001676,-0.00007338,0.00018912,0.00014879,-0.00009539,-0.00
 004672,-0.00000112,-0.00001378,-0.00002766,0.00002643,0.00016510,-0.00
 003539,-0.00010206,0.00003718,-0.00001606,0.00002267,-0.17475281,0.031
 06233,-0.12417438,-0.00398583,-0.00286918,0.00215313,0.00139106,0.0001
 2480,0.00032266,0.00097431,0.00072766,-0.00001888,0.00055811,0.0002702
 6,0.00029623,-0.00008325,0.00005708,0.00002311,-0.00019970,0.00027032,
 0.00027558,0.00010483,0.00003109,0.00016202,-0.00000665,-0.00000933,-0
 .00000427,-0.00003016,-0.00000222,0.00001372,0.00004587,-0.00001731,0.
 00010312,0.00004745,0.00005806,-0.00009465,-0.00001404,0.00001166,-0.0
 0000545,0.00000360,0.00000011,-0.00000473,-0.00000841,0.00000782,0.000
 03250,-0.00000705,0.00001093,-0.00000081,-0.00000185,-0.00000091,-0.00
 000251,0.00814311,-0.00245741,0.00709213,0.19140093,-0.01311350,0.0013
 2718,-0.01355092,0.00175302,0.00037425,0.00042320,0.02413329,-0.007644
 32,0.02434729,-0.00000293,0.00000721,-0.00000137,0.00002728,-0.0005618
 7,0.00002022,-0.00017723,0.00167712,0.00106583,0.00000541,0.00005553,0
 .00001509,-0.00000171,0.00023658,-0.00001099,-0.00004957,-0.00002905,-
 0.00000014,-0.00001178,-0.00002193,0.00001193,0.00000443,-0.00006703,-
 0.00010989,0.00001006,0.00000039,0.00001023,0.03090121,-0.05458953,0.0
 2903845,-0.00315900,-0.00063484,0.00166447,0.00067425,0.00058692,-0.00
 056104,0.00124650,-0.00639932,0.00011627,-0.00064788,0.00147283,-0.000
 14512,0.00006730,0.00010551,-0.00002602,-0.00017654,-0.00003076,-0.000
 70776,-0.00048432,0.00009111,-0.00010169,0.00000011,-0.00000414,-0.000
 00239,-0.00001803,-0.00000210,0.00000779,0.00002833,-0.00001317,0.0000
 6293,0.00002208,0.00003762,-0.00006344,-0.00000729,0.00000791,-0.00000
 314,0.00000174,0.00000087,-0.00000204,0.00002120,0.00001315,0.00000633
 ,-0.00000467,0.00000599,-0.00000097,-0.00000229,-0.00000100,-0.0000012
 5,-0.00925023,0.00142907,-0.00768288,-0.03178925,0.06256983,0.00796829
 ,-0.00188805,0.00539503,-0.00099373,0.00063368,0.00198984,-0.00195727,
 0.00137049,-0.00343221,-0.00003441,-0.00000242,-0.00000512,0.00023657,
 -0.00029953,0.00009788,0.00064535,-0.00042565,0.00069318,0.00000419,-0
 .00002740,-0.00001521,-0.00033493,0.00004302,-0.00007039,0.00003621,0.
 00003528,-0.00000522,0.00000888,0.00001386,0.00000448,0.00013056,0.000
 06143,-0.00003359,0.00001376,-0.00002327,0.00000762,-0.12657478,0.0284
 7120,-0.17488757,0.00191352,0.00052770,0.00056361,-0.00060893,-0.00050
 813,0.00042098,0.00037335,0.00087063,0.00117931,0.00013117,0.00018017,
 0.00012515,-0.00008968,0.00001940,0.00000839,-0.00025366,0.00002732,0.
 00035387,0.00006250,0.00009846,0.00014667,-0.00000646,-0.00000184,0.00
 000068,0.00000411,0.00000136,-0.00000083,-0.00000751,0.00000549,-0.000
 02171,0.00002896,-0.00000562,0.00002110,-0.00000082,-0.00000289,0.0000
 0068,0.00000037,-0.00000097,-0.00000083,-0.00000437,-0.00000900,0.0000
 1355,0.00000028,0.00000067,0.00000049,-0.00000282,0.00000188,-0.000001
 18,-0.01936205,0.00465174,-0.01827005,0.13867335,-0.03381898,0.1857213
 9\\0.00001415,0.00001976,0.00001167,-0.00003052,0.00006622,-0.00000367
 ,-0.00001066,-0.00000467,0.00001544,-0.00000532,0.00000879,-0.00000741
 ,-0.00018637,0.00115583,0.00072011,0.00001957,-0.00000054,-0.00000750,
 -0.00001112,0.00000517,-0.00000225,0.00012018,-0.00157334,-0.00152524,
 -0.00049945,0.00048424,-0.00112642,0.00002323,0.00000022,0.00001865,0.
 00059576,-0.00014863,0.00189035,-0.00002577,-0.00002533,0.00001909,-0.
 00000510,0.00000554,0.00000282,-0.00001268,-0.00000035,-0.00001084,0.0
 0000286,-0.00000790,0.00000483,-0.00000498,-0.00000015,-0.00000802,0.0
 0000867,-0.00000130,-0.00000455,-0.00000274,0.00000513,0.00002066,0.00
 000867,0.00000493,0.00000033,-0.00000828,0.00000188,-0.00000400,-0.000
 00069,-0.00000040,-0.00000539,0.00000130,-0.00000070,0.00000766,0.0000
 0397,0.00000394,-0.00000696,0.00000519,-0.00000170,0.00000627,-0.00001
 250,-0.00000047,0.00000568,0.00000104,-0.00000305,-0.00001437,-0.00000
 405,0.00000275,0.00001716,0.00000330,0.00000805,0.00000690,0.00000917,
 -0.00000234,-0.00001665,-0.00000096,0.00000150,-0.00000789,0.00000411,
 -0.00000305,0.00000352\\\@


 THOSE WITH THE GOLD MAKE THE RULES.

             -- PETER'S GOLDEN RULE
 Job cpu time:       0 days 17 hours 55 minutes 23.3 seconds.
 Elapsed time:       0 days  1 hours  7 minutes 14.3 seconds.
 File lengths (MBytes):  RWF=    686 Int=      0 D2E=      0 Chk=     33 Scr=      1
 Normal termination of Gaussian 16 at Sun Nov  4 23:06:08 2018.
