 Entering Gaussian System, Link 0=g16
 Initial command:
 /apps/gaussian/g16a03/g16/l1.exe "/jobfs/local/2012089.r-man2/Gau-14845.inp" -scrdir="/jobfs/local/2012089.r-man2/"
 Entering Link 1 = /apps/gaussian/g16a03/g16/l1.exe PID=     14846.
  
 Copyright (c) 1988,1990,1992,1993,1995,1998,2003,2009,2016,
            Gaussian, Inc.  All Rights Reserved.
  
 This is part of the Gaussian(R) 16 program.  It is based on
 the Gaussian(R) 09 system (copyright 2009, Gaussian, Inc.),
 the Gaussian(R) 03 system (copyright 2003, Gaussian, Inc.),
 the Gaussian(R) 98 system (copyright 1998, Gaussian, Inc.),
 the Gaussian(R) 94 system (copyright 1995, Gaussian, Inc.),
 the Gaussian 92(TM) system (copyright 1992, Gaussian, Inc.),
 the Gaussian 90(TM) system (copyright 1990, Gaussian, Inc.),
 the Gaussian 88(TM) system (copyright 1988, Gaussian, Inc.),
 the Gaussian 86(TM) system (copyright 1986, Carnegie Mellon
 University), and the Gaussian 82(TM) system (copyright 1983,
 Carnegie Mellon University). Gaussian is a federally registered
 trademark of Gaussian, Inc.
  
 This software contains proprietary and confidential information,
 including trade secrets, belonging to Gaussian, Inc.
  
 This software is provided under written license and may be
 used, copied, transmitted, or stored only in accord with that
 written license.
  
 The following legend is applicable only to US Government
 contracts under FAR:
  
                    RESTRICTED RIGHTS LEGEND
  
 Use, reproduction and disclosure by the US Government is
 subject to restrictions as set forth in subparagraphs (a)
 and (c) of the Commercial Computer Software - Restricted
 Rights clause in FAR 52.227-19.
  
 Gaussian, Inc.
 340 Quinnipiac St., Bldg. 40, Wallingford CT 06492
  
  
 ---------------------------------------------------------------
 Warning -- This program may not be used in any manner that
 competes with the business of Gaussian, Inc. or will provide
 assistance to any competitor of Gaussian, Inc.  The licensee
 of this program is prohibited from giving any competitor of
 Gaussian, Inc. access to this program.  By using this program,
 the user acknowledges that Gaussian, Inc. is engaged in the
 business of creating and licensing software in the field of
 computational chemistry and represents and warrants to the
 licensee that it is not a competitor of Gaussian, Inc. and that
 it will not use this program in any manner prohibited above.
 ---------------------------------------------------------------
  

 Cite this work as:
 Gaussian 16, Revision A.03,
 M. J. Frisch, G. W. Trucks, H. B. Schlegel, G. E. Scuseria, 
 M. A. Robb, J. R. Cheeseman, G. Scalmani, V. Barone, 
 G. A. Petersson, H. Nakatsuji, X. Li, M. Caricato, A. V. Marenich, 
 J. Bloino, B. G. Janesko, R. Gomperts, B. Mennucci, H. P. Hratchian, 
 J. V. Ortiz, A. F. Izmaylov, J. L. Sonnenberg, D. Williams-Young, 
 F. Ding, F. Lipparini, F. Egidi, J. Goings, B. Peng, A. Petrone, 
 T. Henderson, D. Ranasinghe, V. G. Zakrzewski, J. Gao, N. Rega, 
 G. Zheng, W. Liang, M. Hada, M. Ehara, K. Toyota, R. Fukuda, 
 J. Hasegawa, M. Ishida, T. Nakajima, Y. Honda, O. Kitao, H. Nakai, 
 T. Vreven, K. Throssell, J. A. Montgomery, Jr., J. E. Peralta, 
 F. Ogliaro, M. J. Bearpark, J. J. Heyd, E. N. Brothers, K. N. Kudin, 
 V. N. Staroverov, T. A. Keith, R. Kobayashi, J. Normand, 
 K. Raghavachari, A. P. Rendell, J. C. Burant, S. S. Iyengar, 
 J. Tomasi, M. Cossi, J. M. Millam, M. Klene, C. Adamo, R. Cammi, 
 J. W. Ochterski, R. L. Martin, K. Morokuma, O. Farkas, 
 J. B. Foresman, and D. J. Fox, Gaussian, Inc., Wallingford CT, 2016.
 
 ******************************************
 Gaussian 16:  ES64L-G16RevA.03 25-Dec-2016
                 4-Nov-2018 
 ******************************************
 %mem=6000mb
 %nproc=24
 Will use up to   24 processors via shared memory.
 %chk=L_a1-e4_D_PSI.inp_extract_6.chk
 ----------------------------------------------------------------------
 #M062X/6-311++G(2d,2p) opt=ModRedundant freq=noraman SCRF=(Solvent=Wat
 er)
 ----------------------------------------------------------------------
 1/18=120,19=15,26=3,38=1/1,3;
 2/9=110,12=2,17=6,18=5,40=1/2;
 3/5=4,6=6,7=1212,11=2,25=1,30=1,70=2201,71=1,72=1,74=-55/1,2,3;
 4//1;
 5/5=2,38=5,53=1/2;
 6/7=2,8=2,9=2,10=2,28=1/1;
 7//1,2,3,16;
 1/18=20,19=15,26=3/3(2);
 2/9=110/2;
 99//99;
 2/9=110/2;
 3/5=4,6=6,7=1212,11=2,25=1,30=1,70=2205,71=1,72=1,74=-55/1,2,3;
 4/5=5,16=3,69=1/1;
 5/5=2,38=5,53=1/2;
 7//1,2,3,16;
 1/18=20,19=15,26=3/3(-5);
 2/9=110/2;
 6/7=2,8=2,9=2,10=2,19=2,28=1/1;
 99/9=1/99;
 ---------------------------
 L_a1-e4_D_PSI.inp_extract_6
 ---------------------------
 Symbolic Z-matrix:
 Charge =  0 Multiplicity = 1
 C                    -2.46471  -1.21296  -0.75586 
 O                    -1.60086  -1.20363   0.37321 
 C                    -3.23265   1.0901   -0.15738 
 O                     2.84813  -1.32705   0.05427 
 C                    -1.11497   0.05615   0.76155 
 C                    -2.25776   1.02778   1.01944 
 C                     3.43188   0.93769  -0.54975 
 O                    -0.28661   0.60837  -0.21815 
 C                     1.98522   1.35596  -0.27957 
 C                     3.78803  -0.28995   0.2715 
 C                     1.04727   0.166    -0.44684 
 C                     1.53196  -0.98701   0.43644 
 C                    -3.67654  -0.3235   -0.53397 
 H                    -1.91202  -0.89725  -1.63439 
 H                    -2.75172  -2.2464   -0.89268 
 H                    -2.75779   1.56445  -1.0119 
 H                    -4.08986   1.70124   0.10806 
 H                    -0.56307  -0.12317   1.6701 
 H                    -2.78208   0.68018   1.90545 
 H                    -1.84474   2.00437   1.24726 
 H                     4.11416   1.74688  -0.3072 
 H                     3.55982   0.70926  -1.6048 
 H                     1.88942   1.73102   0.73714 
 H                     1.68595   2.15441  -0.95142 
 H                     4.75249  -0.69049  -0.00899 
 H                     3.81067  -0.05028   1.33211 
 H                     1.08139  -0.1806   -1.47393 
 H                     0.93493  -1.8756    0.3034 
 H                     1.52756  -0.71232   1.48653 
 H                    -4.28137  -0.31605  -1.43633 
 H                    -4.28552  -0.74283   0.26363 
 
 The following ModRedundant input section has been read:
 D       5       8      11       9 F                                           
 

 GradGradGradGradGradGradGradGradGradGradGradGradGradGradGradGradGradGrad
 Berny optimization.
 Initialization pass.
                           ----------------------------
                           !    Initial Parameters    !
                           ! (Angstroms and Degrees)  !
 --------------------------                            --------------------------
 ! Name  Definition              Value          Derivative Info.                !
 --------------------------------------------------------------------------------
 ! R1    R(1,2)                  1.4217         estimate D2E/DX2                !
 ! R2    R(1,13)                 1.5195         estimate D2E/DX2                !
 ! R3    R(1,14)                 1.0849         estimate D2E/DX2                !
 ! R4    R(1,15)                 1.0812         estimate D2E/DX2                !
 ! R5    R(2,5)                  1.405          estimate D2E/DX2                !
 ! R6    R(3,6)                  1.5294         estimate D2E/DX2                !
 ! R7    R(3,13)                 1.5288         estimate D2E/DX2                !
 ! R8    R(3,16)                 1.0866         estimate D2E/DX2                !
 ! R9    R(3,17)                 1.0857         estimate D2E/DX2                !
 ! R10   R(4,10)                 1.4164         estimate D2E/DX2                !
 ! R11   R(4,12)                 1.4121         estimate D2E/DX2                !
 ! R12   R(5,6)                  1.522          estimate D2E/DX2                !
 ! R13   R(5,8)                  1.3968         estimate D2E/DX2                !
 ! R14   R(5,18)                 1.0781         estimate D2E/DX2                !
 ! R15   R(6,19)                 1.0866         estimate D2E/DX2                !
 ! R16   R(6,20)                 1.0845         estimate D2E/DX2                !
 ! R17   R(7,9)                  1.53           estimate D2E/DX2                !
 ! R18   R(7,10)                 1.5193         estimate D2E/DX2                !
 ! R19   R(7,21)                 1.0859         estimate D2E/DX2                !
 ! R20   R(7,22)                 1.0871         estimate D2E/DX2                !
 ! R21   R(8,11)                 1.4238         estimate D2E/DX2                !
 ! R22   R(9,11)                 1.5244         estimate D2E/DX2                !
 ! R23   R(9,23)                 1.0879         estimate D2E/DX2                !
 ! R24   R(9,24)                 1.0856         estimate D2E/DX2                !
 ! R25   R(10,25)                1.0813         estimate D2E/DX2                !
 ! R26   R(10,26)                1.0876         estimate D2E/DX2                !
 ! R27   R(11,12)                1.5312         estimate D2E/DX2                !
 ! R28   R(11,27)                1.0845         estimate D2E/DX2                !
 ! R29   R(12,28)                1.0788         estimate D2E/DX2                !
 ! R30   R(12,29)                1.0854         estimate D2E/DX2                !
 ! R31   R(13,30)                1.0863         estimate D2E/DX2                !
 ! R32   R(13,31)                1.0876         estimate D2E/DX2                !
 ! A1    A(2,1,13)             111.3942         estimate D2E/DX2                !
 ! A2    A(2,1,14)             109.3702         estimate D2E/DX2                !
 ! A3    A(2,1,15)             105.5485         estimate D2E/DX2                !
 ! A4    A(13,1,14)            110.7441         estimate D2E/DX2                !
 ! A5    A(13,1,15)            111.4852         estimate D2E/DX2                !
 ! A6    A(14,1,15)            108.1142         estimate D2E/DX2                !
 ! A7    A(1,2,5)              115.8195         estimate D2E/DX2                !
 ! A8    A(6,3,13)             109.6906         estimate D2E/DX2                !
 ! A9    A(6,3,16)             110.1408         estimate D2E/DX2                !
 ! A10   A(6,3,17)             109.7602         estimate D2E/DX2                !
 ! A11   A(13,3,16)            109.6833         estimate D2E/DX2                !
 ! A12   A(13,3,17)            110.5772         estimate D2E/DX2                !
 ! A13   A(16,3,17)            106.9529         estimate D2E/DX2                !
 ! A14   A(10,4,12)            113.6213         estimate D2E/DX2                !
 ! A15   A(2,5,6)              111.0742         estimate D2E/DX2                !
 ! A16   A(2,5,8)              111.4526         estimate D2E/DX2                !
 ! A17   A(2,5,18)             105.1197         estimate D2E/DX2                !
 ! A18   A(6,5,8)              108.1648         estimate D2E/DX2                !
 ! A19   A(6,5,18)             110.3511         estimate D2E/DX2                !
 ! A20   A(8,5,18)             110.6878         estimate D2E/DX2                !
 ! A21   A(3,6,5)              111.9769         estimate D2E/DX2                !
 ! A22   A(3,6,19)             109.4424         estimate D2E/DX2                !
 ! A23   A(3,6,20)             111.5727         estimate D2E/DX2                !
 ! A24   A(5,6,19)             107.232          estimate D2E/DX2                !
 ! A25   A(5,6,20)             108.9347         estimate D2E/DX2                !
 ! A26   A(19,6,20)            107.4898         estimate D2E/DX2                !
 ! A27   A(9,7,10)             110.3099         estimate D2E/DX2                !
 ! A28   A(9,7,21)             110.5445         estimate D2E/DX2                !
 ! A29   A(9,7,22)             109.8842         estimate D2E/DX2                !
 ! A30   A(10,7,21)            109.5185         estimate D2E/DX2                !
 ! A31   A(10,7,22)            109.1012         estimate D2E/DX2                !
 ! A32   A(21,7,22)            107.4239         estimate D2E/DX2                !
 ! A33   A(5,8,11)             123.0536         estimate D2E/DX2                !
 ! A34   A(7,9,11)             110.4269         estimate D2E/DX2                !
 ! A35   A(7,9,23)             110.032          estimate D2E/DX2                !
 ! A36   A(7,9,24)             110.6381         estimate D2E/DX2                !
 ! A37   A(11,9,23)            108.511          estimate D2E/DX2                !
 ! A38   A(11,9,24)            109.671          estimate D2E/DX2                !
 ! A39   A(23,9,24)            107.4899         estimate D2E/DX2                !
 ! A40   A(4,10,7)             110.6822         estimate D2E/DX2                !
 ! A41   A(4,10,25)            106.3121         estimate D2E/DX2                !
 ! A42   A(4,10,26)            108.9495         estimate D2E/DX2                !
 ! A43   A(7,10,25)            111.6023         estimate D2E/DX2                !
 ! A44   A(7,10,26)            110.7283         estimate D2E/DX2                !
 ! A45   A(25,10,26)           108.4218         estimate D2E/DX2                !
 ! A46   A(8,11,9)             108.438          estimate D2E/DX2                !
 ! A47   A(8,11,12)            115.9673         estimate D2E/DX2                !
 ! A48   A(8,11,27)            106.313          estimate D2E/DX2                !
 ! A49   A(9,11,12)            109.2536         estimate D2E/DX2                !
 ! A50   A(9,11,27)            109.5134         estimate D2E/DX2                !
 ! A51   A(12,11,27)           107.1991         estimate D2E/DX2                !
 ! A52   A(4,12,11)            108.6784         estimate D2E/DX2                !
 ! A53   A(4,12,28)            106.5058         estimate D2E/DX2                !
 ! A54   A(4,12,29)            109.0592         estimate D2E/DX2                !
 ! A55   A(11,12,28)           111.9589         estimate D2E/DX2                !
 ! A56   A(11,12,29)           111.4828         estimate D2E/DX2                !
 ! A57   A(28,12,29)           108.9975         estimate D2E/DX2                !
 ! A58   A(1,13,3)             110.223          estimate D2E/DX2                !
 ! A59   A(1,13,30)            109.0714         estimate D2E/DX2                !
 ! A60   A(1,13,31)            109.1444         estimate D2E/DX2                !
 ! A61   A(3,13,30)            111.0966         estimate D2E/DX2                !
 ! A62   A(3,13,31)            109.7819         estimate D2E/DX2                !
 ! A63   A(30,13,31)           107.4606         estimate D2E/DX2                !
 ! D1    D(13,1,2,5)           -57.6646         estimate D2E/DX2                !
 ! D2    D(14,1,2,5)            65.0852         estimate D2E/DX2                !
 ! D3    D(15,1,2,5)          -178.817          estimate D2E/DX2                !
 ! D4    D(2,1,13,3)            54.7515         estimate D2E/DX2                !
 ! D5    D(2,1,13,30)          176.975          estimate D2E/DX2                !
 ! D6    D(2,1,13,31)          -65.8906         estimate D2E/DX2                !
 ! D7    D(14,1,13,3)          -67.2064         estimate D2E/DX2                !
 ! D8    D(14,1,13,30)          55.0171         estimate D2E/DX2                !
 ! D9    D(14,1,13,31)         172.1515         estimate D2E/DX2                !
 ! D10   D(15,1,13,3)          172.3711         estimate D2E/DX2                !
 ! D11   D(15,1,13,30)         -65.4054         estimate D2E/DX2                !
 ! D12   D(15,1,13,31)          51.729          estimate D2E/DX2                !
 ! D13   D(1,2,5,6)             55.6384         estimate D2E/DX2                !
 ! D14   D(1,2,5,8)            -65.0517         estimate D2E/DX2                !
 ! D15   D(1,2,5,18)           174.9909         estimate D2E/DX2                !
 ! D16   D(13,3,6,5)            51.7854         estimate D2E/DX2                !
 ! D17   D(13,3,6,19)          -66.9799         estimate D2E/DX2                !
 ! D18   D(13,3,6,20)          174.1857         estimate D2E/DX2                !
 ! D19   D(16,3,6,5)           -69.0311         estimate D2E/DX2                !
 ! D20   D(16,3,6,19)          172.2036         estimate D2E/DX2                !
 ! D21   D(16,3,6,20)           53.3692         estimate D2E/DX2                !
 ! D22   D(17,3,6,5)           173.468          estimate D2E/DX2                !
 ! D23   D(17,3,6,19)           54.7027         estimate D2E/DX2                !
 ! D24   D(17,3,6,20)          -64.1317         estimate D2E/DX2                !
 ! D25   D(6,3,13,1)           -52.6242         estimate D2E/DX2                !
 ! D26   D(6,3,13,30)         -173.645          estimate D2E/DX2                !
 ! D27   D(6,3,13,31)           67.6347         estimate D2E/DX2                !
 ! D28   D(16,3,13,1)           68.4686         estimate D2E/DX2                !
 ! D29   D(16,3,13,30)         -52.5523         estimate D2E/DX2                !
 ! D30   D(16,3,13,31)        -171.2725         estimate D2E/DX2                !
 ! D31   D(17,3,13,1)         -173.8159         estimate D2E/DX2                !
 ! D32   D(17,3,13,30)          65.1633         estimate D2E/DX2                !
 ! D33   D(17,3,13,31)         -53.5569         estimate D2E/DX2                !
 ! D34   D(12,4,10,7)          -61.5543         estimate D2E/DX2                !
 ! D35   D(12,4,10,25)         177.0794         estimate D2E/DX2                !
 ! D36   D(12,4,10,26)          60.425          estimate D2E/DX2                !
 ! D37   D(10,4,12,11)          63.9503         estimate D2E/DX2                !
 ! D38   D(10,4,12,28)        -175.2611         estimate D2E/DX2                !
 ! D39   D(10,4,12,29)         -57.7717         estimate D2E/DX2                !
 ! D40   D(2,5,6,3)            -52.134          estimate D2E/DX2                !
 ! D41   D(2,5,6,19)            67.9308         estimate D2E/DX2                !
 ! D42   D(2,5,6,20)          -176.025          estimate D2E/DX2                !
 ! D43   D(8,5,6,3)             70.4775         estimate D2E/DX2                !
 ! D44   D(8,5,6,19)          -169.4576         estimate D2E/DX2                !
 ! D45   D(8,5,6,20)           -53.4135         estimate D2E/DX2                !
 ! D46   D(18,5,6,3)          -168.3067         estimate D2E/DX2                !
 ! D47   D(18,5,6,19)          -48.2419         estimate D2E/DX2                !
 ! D48   D(18,5,6,20)           67.8022         estimate D2E/DX2                !
 ! D49   D(2,5,8,11)           -75.2607         estimate D2E/DX2                !
 ! D50   D(6,5,8,11)           162.359          estimate D2E/DX2                !
 ! D51   D(18,5,8,11)           41.3521         estimate D2E/DX2                !
 ! D52   D(10,7,9,11)          -51.3963         estimate D2E/DX2                !
 ! D53   D(10,7,9,23)           68.3656         estimate D2E/DX2                !
 ! D54   D(10,7,9,24)         -173.0046         estimate D2E/DX2                !
 ! D55   D(21,7,9,11)         -172.6724         estimate D2E/DX2                !
 ! D56   D(21,7,9,23)          -52.9105         estimate D2E/DX2                !
 ! D57   D(21,7,9,24)           65.7193         estimate D2E/DX2                !
 ! D58   D(22,7,9,11)           68.9294         estimate D2E/DX2                !
 ! D59   D(22,7,9,23)         -171.3087         estimate D2E/DX2                !
 ! D60   D(22,7,9,24)          -52.6789         estimate D2E/DX2                !
 ! D61   D(9,7,10,4)            53.4271         estimate D2E/DX2                !
 ! D62   D(9,7,10,25)          171.6162         estimate D2E/DX2                !
 ! D63   D(9,7,10,26)          -67.5029         estimate D2E/DX2                !
 ! D64   D(21,7,10,4)          175.3117         estimate D2E/DX2                !
 ! D65   D(21,7,10,25)         -66.4992         estimate D2E/DX2                !
 ! D66   D(21,7,10,26)          54.3817         estimate D2E/DX2                !
 ! D67   D(22,7,10,4)          -67.368          estimate D2E/DX2                !
 ! D68   D(22,7,10,25)          50.8211         estimate D2E/DX2                !
 ! D69   D(22,7,10,26)         171.702          estimate D2E/DX2                !
 ! D70   D(5,8,11,9)          -122.2302         Frozen                          !
 ! D71   D(5,8,11,12)            1.068          estimate D2E/DX2                !
 ! D72   D(5,8,11,27)          120.0956         estimate D2E/DX2                !
 ! D73   D(7,9,11,8)          -178.6169         estimate D2E/DX2                !
 ! D74   D(7,9,11,12)           54.1294         estimate D2E/DX2                !
 ! D75   D(7,9,11,27)          -63.0049         estimate D2E/DX2                !
 ! D76   D(23,9,11,8)           60.7082         estimate D2E/DX2                !
 ! D77   D(23,9,11,12)         -66.5455         estimate D2E/DX2                !
 ! D78   D(23,9,11,27)         176.3202         estimate D2E/DX2                !
 ! D79   D(24,9,11,8)          -56.4383         estimate D2E/DX2                !
 ! D80   D(24,9,11,12)         176.3081         estimate D2E/DX2                !
 ! D81   D(24,9,11,27)          59.1737         estimate D2E/DX2                !
 ! D82   D(8,11,12,4)          178.1903         estimate D2E/DX2                !
 ! D83   D(8,11,12,28)          60.8244         estimate D2E/DX2                !
 ! D84   D(8,11,12,29)         -61.579          estimate D2E/DX2                !
 ! D85   D(9,11,12,4)          -58.9389         estimate D2E/DX2                !
 ! D86   D(9,11,12,28)        -176.3048         estimate D2E/DX2                !
 ! D87   D(9,11,12,29)          61.2918         estimate D2E/DX2                !
 ! D88   D(27,11,12,4)          59.6483         estimate D2E/DX2                !
 ! D89   D(27,11,12,28)        -57.7176         estimate D2E/DX2                !
 ! D90   D(27,11,12,29)        179.879          estimate D2E/DX2                !
 --------------------------------------------------------------------------------
 Trust Radius=3.00D-01 FncErr=1.00D-07 GrdErr=1.00D-06 EigMax=2.50D+02 EigMin=1.00D-04
 Number of steps in this run=    186 maximum allowed number of steps=    186.
 GradGradGradGradGradGradGradGradGradGradGradGradGradGradGradGradGradGrad

                          Input orientation:                          
 ---------------------------------------------------------------------
 Center     Atomic      Atomic             Coordinates (Angstroms)
 Number     Number       Type             X           Y           Z
 ---------------------------------------------------------------------
      1          6           0       -2.464705   -1.212958   -0.755863
      2          8           0       -1.600855   -1.203632    0.373211
      3          6           0       -3.232652    1.090103   -0.157381
      4          8           0        2.848131   -1.327047    0.054273
      5          6           0       -1.114966    0.056153    0.761548
      6          6           0       -2.257762    1.027780    1.019443
      7          6           0        3.431883    0.937687   -0.549745
      8          8           0       -0.286607    0.608373   -0.218150
      9          6           0        1.985220    1.355962   -0.279571
     10          6           0        3.788030   -0.289953    0.271497
     11          6           0        1.047266    0.166002   -0.446840
     12          6           0        1.531956   -0.987010    0.436437
     13          6           0       -3.676535   -0.323497   -0.533974
     14          1           0       -1.912022   -0.897246   -1.634391
     15          1           0       -2.751716   -2.246395   -0.892675
     16          1           0       -2.757785    1.564450   -1.011903
     17          1           0       -4.089859    1.701238    0.108057
     18          1           0       -0.563066   -0.123172    1.670097
     19          1           0       -2.782076    0.680178    1.905447
     20          1           0       -1.844737    2.004374    1.247259
     21          1           0        4.114157    1.746883   -0.307196
     22          1           0        3.559818    0.709259   -1.604804
     23          1           0        1.889424    1.731022    0.737141
     24          1           0        1.685951    2.154412   -0.951415
     25          1           0        4.752487   -0.690486   -0.008986
     26          1           0        3.810674   -0.050280    1.332106
     27          1           0        1.081393   -0.180595   -1.473933
     28          1           0        0.934931   -1.875603    0.303397
     29          1           0        1.527556   -0.712316    1.486526
     30          1           0       -4.281372   -0.316052   -1.436328
     31          1           0       -4.285515   -0.742833    0.263629
 ---------------------------------------------------------------------
                    Distance matrix (angstroms):
                    1          2          3          4          5
     1  C    0.000000
     2  O    1.421665   0.000000
     3  C    2.500403   2.864526   0.000000
     4  O    5.375459   4.462110   6.547010   0.000000
     5  C    2.394781   1.404974   2.529442   4.256714   0.000000
     6  C    2.866260   2.414196   1.529447   5.704990   1.522022
     7  C    6.279929   5.546670   6.677815   2.415497   4.813567
     8  O    2.889722   2.315236   2.985789   3.694137   1.396758
     9  C    5.160236   4.453940   5.226069   2.838064   3.519174
    10  C    6.403445   5.466739   7.167877   1.416390   4.939566
    11  C    3.785626   3.092075   4.388103   2.392368   2.479418
    12  C    4.176833   3.140928   5.231492   1.412088   2.863579
    13  C    1.519509   2.430241   1.528764   6.627550   2.895539
    14  H    1.084871   2.054547   2.806275   5.069060   2.699035
    15  H    1.081242   2.003573   3.450243   5.753277   3.273703
    16  H    2.804541   3.304437   1.086606   6.397170   2.849376
    17  H    3.446741   3.834543   1.085701   7.570278   3.461697
    18  H    3.269426   1.981493   3.455199   3.961877   1.078060
    19  H    3.281350   2.700328   2.150887   6.257398   2.115932
    20  H    3.840323   3.333878   2.176054   5.877465   2.136363
    21  H    7.227959   6.467600   7.377629   3.344029   5.598617
    22  H    6.380478   5.848439   6.955410   2.721319   5.280130
    23  H    5.463929   4.574570   5.238951   3.276769   3.439788
    24  H    5.348399   4.882027   5.094693   3.805605   3.896417
    25  H    7.274521   6.385479   8.182601   2.008926   5.964746
    26  H    6.715044   5.615545   7.288860   2.046822   4.959717
    27  H    3.762474   3.413649   4.686040   2.602139   3.142836
    28  H    3.621968   2.624239   5.135803   2.005819   2.853710
    29  H    4.606202   3.356757   5.348899   2.042832   2.845885
    30  H    2.137230   3.353715   2.170896   7.353490   3.872379
    31  H    2.139096   2.726122   2.155325   7.160589   3.307368
                    6          7          8          9         10
     6  C    0.000000
     7  C    5.902756   0.000000
     8  O    2.364950   3.747742   0.000000
     9  C    4.449499   1.529961   2.392459   0.000000
    10  C    6.232772   1.519335   4.201120   2.502566   0.000000
    11  C    3.716969   2.508483   1.423801   1.524382   2.869789
    12  C    4.331424   2.878669   2.506173   2.491512   2.367058
    13  C    2.500394   7.219449   3.529835   5.911072   7.507972
    14  H    3.296680   5.753326   2.629563   4.701168   6.040845
    15  H    3.823664   6.963683   3.831638   5.982594   6.924683
    16  H    2.159723   6.238462   2.766017   4.803735   6.923411
    17  H    2.154240   7.588960   3.970578   6.097217   8.127281
    18  H    2.149427   4.691773   2.043787   3.533101   4.573394
    19  H    1.086616   6.686372   3.277527   5.287542   6.839389
    20  H    1.084539   5.675365   2.554214   4.173754   6.159879
    21  H    6.548162   1.085876   4.546522   2.164707   2.142416
    22  H    6.390021   1.087059   4.089984   2.157273   2.137992
    23  H    4.215851   2.159777   2.628314   1.087911   2.811738
    24  H    4.550434   2.165649   2.611302   1.085568   3.448068
    25  H    7.290658   2.165032   5.207999   3.452381   1.081330
    26  H    6.171376   2.158917   4.429992   2.811992   1.087588
    27  H    4.339015   2.762152   2.017644   2.145789   3.222479
    28  H    4.374431   3.857100   2.816790   3.447604   3.264273
    29  H    4.192223   3.239656   2.818036   2.757957   2.600852
    30  H    3.454228   7.864617   4.277460   6.588163   8.248187
    31  H    2.796088   7.940022   4.248427   6.634917   8.086241
                   11         12         13         14         15
    11  C    0.000000
    12  C    1.531189   0.000000
    13  C    4.749894   5.339506   0.000000
    14  H    3.361273   4.019623   2.157223   0.000000
    15  H    4.522244   4.658587   2.163676   1.753691   0.000000
    16  H    4.093088   5.197068   2.153337   2.676332   3.812714
    17  H    5.390261   6.240137   2.163930   3.811983   4.286712
    18  H    2.675484   2.580165   3.819915   3.652193   3.983223
    19  H    4.523438   4.852667   2.785354   3.971865   4.049103
    20  H    3.822730   4.583434   3.456481   4.089967   4.844684
    21  H    3.453188   3.833396   8.064291   6.713248   7.964249
    22  H    2.819384   3.340092   7.387697   5.702874   7.005603
    23  H    2.135493   2.757880   6.067675   5.194511   6.325846
    24  H    2.148555   3.437787   5.922039   4.767020   6.250075
    25  H    3.828048   3.264682   8.453325   6.862971   7.714585
    26  H    3.293608   2.621496   7.721088   6.501285   7.268943
    27  H    1.084534   2.121986   4.851992   3.082186   4.392962
    28  H    2.177987   1.078766   4.937190   3.580132   3.893513
    29  H    2.177160   1.085432   5.596085   4.648120   5.130903
    30  H    5.441125   6.144283   1.086336   2.447618   2.522227
    31  H    5.456125   5.825157   1.087598   3.042991   2.439319
                   16         17         18         19         20
    16  H    0.000000
    17  H    1.745693   0.000000
    18  H    3.854605   4.266932   0.000000
    19  H    3.048517   2.446113   2.371659   0.000000
    20  H    2.476086   2.535793   2.519509   1.750803   0.000000
    21  H    6.910389   8.214645   5.411396   7.320634   6.163688
    22  H    6.402733   7.901612   5.330674   7.248609   6.246663
    23  H    4.968244   6.012359   3.212966   4.928704   3.778743
    24  H    4.483135   5.889637   4.137365   5.504388   4.162023
    25  H    7.905363   9.160847   5.603237   7.893885   7.236283
    26  H    7.158658   8.184408   4.387386   6.657826   6.017680
    27  H    4.242398   5.725892   3.548587   5.204568   4.554252
    28  H    5.215374   6.170937   2.680089   4.786932   4.865352
    29  H    5.458018   6.267437   2.179791   4.548347   4.337051
    30  H    2.457182   2.547795   4.849008   3.795764   4.303859
    31  H    3.047047   2.456821   4.027252   2.642131   3.804218
                   21         22         23         24         25
    21  H    0.000000
    22  H    1.751497   0.000000
    23  H    2.457708   3.052691   0.000000
    24  H    2.545051   2.454946   1.752678   0.000000
    25  H    2.537156   2.434827   3.823289   4.287804   0.000000
    26  H    2.451369   3.043890   2.686675   3.819631   1.759376
    27  H    3.778109   2.636581   3.032498   2.467949   3.985347
    28  H    4.858262   4.148828   3.755920   4.287144   4.009466
    29  H    3.994447   3.963242   2.581168   3.766534   3.554886
    30  H    8.718690   7.909735   6.855159   6.476672   9.153585
    31  H    8.779466   8.194441   6.668886   6.747501   9.042264
                   26         27         28         29         30
    26  H    0.000000
    27  H    3.916607   0.000000
    28  H    3.558082   2.460367   0.000000
    29  H    2.382177   3.040741   1.761884   0.000000
    30  H    8.556639   5.364607   5.715650   6.514886   0.000000
    31  H    8.195703   5.669121   5.342079   5.940387   1.752716
                   31
    31  H    0.000000
 Stoichiometry    C10H18O3
 Framework group  C1[X(C10H18O3)]
 Deg. of freedom    87
 Full point group                 C1      NOp   1
 Largest Abelian subgroup         C1      NOp   1
 Largest concise Abelian subgroup C1      NOp   1
                         Standard orientation:                         
 ---------------------------------------------------------------------
 Center     Atomic      Atomic             Coordinates (Angstroms)
 Number     Number       Type             X           Y           Z
 ---------------------------------------------------------------------
      1          6           0       -2.464705   -1.212958   -0.755863
      2          8           0       -1.600855   -1.203632    0.373211
      3          6           0       -3.232652    1.090103   -0.157381
      4          8           0        2.848131   -1.327047    0.054273
      5          6           0       -1.114966    0.056153    0.761548
      6          6           0       -2.257762    1.027780    1.019443
      7          6           0        3.431883    0.937687   -0.549745
      8          8           0       -0.286607    0.608373   -0.218150
      9          6           0        1.985220    1.355962   -0.279571
     10          6           0        3.788030   -0.289953    0.271497
     11          6           0        1.047266    0.166002   -0.446840
     12          6           0        1.531956   -0.987010    0.436437
     13          6           0       -3.676535   -0.323497   -0.533974
     14          1           0       -1.912022   -0.897246   -1.634391
     15          1           0       -2.751716   -2.246395   -0.892675
     16          1           0       -2.757785    1.564450   -1.011903
     17          1           0       -4.089859    1.701238    0.108057
     18          1           0       -0.563066   -0.123172    1.670097
     19          1           0       -2.782076    0.680178    1.905447
     20          1           0       -1.844737    2.004374    1.247259
     21          1           0        4.114157    1.746883   -0.307196
     22          1           0        3.559818    0.709259   -1.604804
     23          1           0        1.889424    1.731022    0.737141
     24          1           0        1.685951    2.154412   -0.951415
     25          1           0        4.752487   -0.690486   -0.008986
     26          1           0        3.810674   -0.050280    1.332106
     27          1           0        1.081393   -0.180595   -1.473933
     28          1           0        0.934931   -1.875603    0.303397
     29          1           0        1.527556   -0.712316    1.486526
     30          1           0       -4.281372   -0.316052   -1.436328
     31          1           0       -4.285515   -0.742833    0.263629
 ---------------------------------------------------------------------
 Rotational constants (GHZ):           2.0271038           0.4070460           0.3731697
 Standard basis: 6-311++G(2d,2p) (5D, 7F)
 There are   557 symmetry adapted cartesian basis functions of A   symmetry.
 There are   531 symmetry adapted basis functions of A   symmetry.
   531 basis functions,   762 primitive gaussians,   557 cartesian basis functions
    51 alpha electrons       51 beta electrons
       nuclear repulsion energy       893.4407652192 Hartrees.
 NAtoms=   31 NActive=   31 NUniq=   31 SFac= 1.00D+00 NAtFMM=   60 NAOKFM=F Big=F
 Integral buffers will be    131072 words long.
 Raffenetti 2 integral format.
 Two-electron integral symmetry is turned on.
 ------------------------------------------------------------------------------
 Polarizable Continuum Model (PCM)
 =================================
 Model                : PCM.
 Atomic radii         : UFF (Universal Force Field).
 Polarization charges : Total charges.
 Charge compensation  : None.
 Solution method      : On-the-fly selection.
 Cavity type          : Scaled VdW (van der Waals Surface) (Alpha=1.100).
 Cavity algorithm     : GePol (No added spheres)
                        Default sphere list used, NSphG=   31.
                        Lebedev-Laikov grids with approx.  5.0 points / Ang**2.
                        Smoothing algorithm: York/Karplus (Gamma=1.0000).
                        Polarization charges: spherical gaussians, with
                                              point-specific exponents (IZeta= 3).
                        Self-potential: point-specific (ISelfS= 7).
                        Self-field    : sphere-specific E.n sum rule (ISelfD= 2).
 1st derivatives      : Analytical E(r).r(x)/FMM algorithm (CHGder, D1EAlg=3).
                        Cavity 1st derivative terms included.
 Solvent              : Water, Eps=  78.355300 Eps(inf)=   1.777849
 ------------------------------------------------------------------------------
 One-electron integrals computed using PRISM.
 NBasis=   531 RedAO= T EigKep=  4.97D-06  NBF=   531
 NBsUse=   531 1.00D-06 EigRej= -1.00D+00 NBFU=   531
 ExpMin= 3.60D-02 ExpMax= 8.59D+03 ExpMxC= 1.30D+03 IAcc=3 IRadAn=         5 AccDes= 0.00D+00
 Harris functional with IExCor= 1009 and IRadAn=       5 diagonalized for initial guess.
 HarFok:  IExCor= 1009 AccDes= 0.00D+00 IRadAn=         5 IDoV= 1 UseB2=F ITyADJ=14
 ICtDFT=  3500011 ScaDFX=  1.000000  1.000000  1.000000  1.000000
 FoFCou: FMM=F IPFlag=           0 FMFlag=      100000 FMFlg1=           0
         NFxFlg=           0 DoJE=T BraDBF=F KetDBF=T FulRan=T
         wScrn=  0.000000 ICntrl=       500 IOpCl=  0 I1Cent=   200000004 NGrid=           0
         NMat0=    1 NMatS0=      1 NMatT0=    0 NMatD0=    1 NMtDS0=    0 NMtDT0=    0
 Petite list used in FoFCou.
 Requested convergence on RMS density matrix=1.00D-08 within 128 cycles.
 Requested convergence on MAX density matrix=1.00D-06.
 Requested convergence on             energy=1.00D-06.
 No special actions if energy rises.
 Inv3:  Mode=1 IEnd=    12854700.
 Iteration    1 A*A^-1 deviation from unit magnitude is 3.77D-15 for   2040.
 Iteration    1 A*A^-1 deviation from orthogonality  is 1.96D-15 for   2034    661.
 Iteration    1 A^-1*A deviation from unit magnitude is 3.77D-15 for   2040.
 Iteration    1 A^-1*A deviation from orthogonality  is 1.53D-15 for   1991   1518.
 Error on total polarization charges =  0.01487
 SCF Done:  E(RM062X) =  -617.495153052     A.U. after   12 cycles
            NFock= 12  Conv=0.63D-08     -V/T= 2.0035

 **********************************************************************

            Population analysis using the SCF density.

 **********************************************************************

 Orbital symmetries:
       Occupied  (A) (A) (A) (A) (A) (A) (A) (A) (A) (A) (A) (A)
                 (A) (A) (A) (A) (A) (A) (A) (A) (A) (A) (A) (A)
                 (A) (A) (A) (A) (A) (A) (A) (A) (A) (A) (A) (A)
                 (A) (A) (A) (A) (A) (A) (A) (A) (A) (A) (A) (A)
                 (A) (A) (A)
       Virtual   (A) (A) (A) (A) (A) (A) (A) (A) (A) (A) (A) (A)
                 (A) (A) (A) (A) (A) (A) (A) (A) (A) (A) (A) (A)
                 (A) (A) (A) (A) (A) (A) (A) (A) (A) (A) (A) (A)
                 (A) (A) (A) (A) (A) (A) (A) (A) (A) (A) (A) (A)
                 (A) (A) (A) (A) (A) (A) (A) (A) (A) (A) (A) (A)
                 (A) (A) (A) (A) (A) (A) (A) (A) (A) (A) (A) (A)
                 (A) (A) (A) (A) (A) (A) (A) (A) (A) (A) (A) (A)
                 (A) (A) (A) (A) (A) (A) (A) (A) (A) (A) (A) (A)
                 (A) (A) (A) (A) (A) (A) (A) (A) (A) (A) (A) (A)
                 (A) (A) (A) (A) (A) (A) (A) (A) (A) (A) (A) (A)
                 (A) (A) (A) (A) (A) (A) (A) (A) (A) (A) (A) (A)
                 (A) (A) (A) (A) (A) (A) (A) (A) (A) (A) (A) (A)
                 (A) (A) (A) (A) (A) (A) (A) (A) (A) (A) (A) (A)
                 (A) (A) (A) (A) (A) (A) (A) (A) (A) (A) (A) (A)
                 (A) (A) (A) (A) (A) (A) (A) (A) (A) (A) (A) (A)
                 (A) (A) (A) (A) (A) (A) (A) (A) (A) (A) (A) (A)
                 (A) (A) (A) (A) (A) (A) (A) (A) (A) (A) (A) (A)
                 (A) (A) (A) (A) (A) (A) (A) (A) (A) (A) (A) (A)
                 (A) (A) (A) (A) (A) (A) (A) (A) (A) (A) (A) (A)
                 (A) (A) (A) (A) (A) (A) (A) (A) (A) (A) (A) (A)
                 (A) (A) (A) (A) (A) (A) (A) (A) (A) (A) (A) (A)
                 (A) (A) (A) (A) (A) (A) (A) (A) (A) (A) (A) (A)
                 (A) (A) (A) (A) (A) (A) (A) (A) (A) (A) (A) (A)
                 (A) (A) (A) (A) (A) (A) (A) (A) (A) (A) (A) (A)
                 (A) (A) (A) (A) (A) (A) (A) (A) (A) (A) (A) (A)
                 (A) (A) (A) (A) (A) (A) (A) (A) (A) (A) (A) (A)
                 (A) (A) (A) (A) (A) (A) (A) (A) (A) (A) (A) (A)
                 (A) (A) (A) (A) (A) (A) (A) (A) (A) (A) (A) (A)
                 (A) (A) (A) (A) (A) (A) (A) (A) (A) (A) (A) (A)
                 (A) (A) (A) (A) (A) (A) (A) (A) (A) (A) (A) (A)
                 (A) (A) (A) (A) (A) (A) (A) (A) (A) (A) (A) (A)
                 (A) (A) (A) (A) (A) (A) (A) (A) (A) (A) (A) (A)
                 (A) (A) (A) (A) (A) (A) (A) (A) (A) (A) (A) (A)
                 (A) (A) (A) (A) (A) (A) (A) (A) (A) (A) (A) (A)
                 (A) (A) (A) (A) (A) (A) (A) (A) (A) (A) (A) (A)
                 (A) (A) (A) (A) (A) (A) (A) (A) (A) (A) (A) (A)
                 (A) (A) (A) (A) (A) (A) (A) (A) (A) (A) (A) (A)
                 (A) (A) (A) (A) (A) (A) (A) (A) (A) (A) (A) (A)
                 (A) (A) (A) (A) (A) (A) (A) (A) (A) (A) (A) (A)
                 (A) (A) (A) (A) (A) (A) (A) (A) (A) (A) (A) (A)
 The electronic state is 1-A.
 Alpha  occ. eigenvalues --  -19.63020 -19.62767 -19.62588 -10.63472 -10.58876
 Alpha  occ. eigenvalues --  -10.58091 -10.57864 -10.57555 -10.53083 -10.53010
 Alpha  occ. eigenvalues --  -10.52928 -10.52890 -10.52709  -1.19911  -1.16850
 Alpha  occ. eigenvalues --   -1.13328  -0.90930  -0.89710  -0.87354  -0.84973
 Alpha  occ. eigenvalues --   -0.75403  -0.74244  -0.72974  -0.70938  -0.66366
 Alpha  occ. eigenvalues --   -0.63319  -0.60487  -0.59006  -0.56781  -0.55385
 Alpha  occ. eigenvalues --   -0.54927  -0.53275  -0.52437  -0.50826  -0.50236
 Alpha  occ. eigenvalues --   -0.48687  -0.47142  -0.45737  -0.45454  -0.44669
 Alpha  occ. eigenvalues --   -0.43495  -0.43159  -0.41261  -0.40458  -0.39644
 Alpha  occ. eigenvalues --   -0.38479  -0.37628  -0.36388  -0.34020  -0.32944
 Alpha  occ. eigenvalues --   -0.32174
 Alpha virt. eigenvalues --   -0.00092   0.00739   0.00799   0.01131   0.02104
 Alpha virt. eigenvalues --    0.02450   0.02593   0.03400   0.03705   0.04374
 Alpha virt. eigenvalues --    0.04545   0.04729   0.05532   0.05827   0.07251
 Alpha virt. eigenvalues --    0.07282   0.07493   0.08536   0.08723   0.09460
 Alpha virt. eigenvalues --    0.10234   0.10569   0.10863   0.11597   0.11859
 Alpha virt. eigenvalues --    0.12327   0.12573   0.12808   0.13046   0.13313
 Alpha virt. eigenvalues --    0.13630   0.13948   0.14391   0.14669   0.14975
 Alpha virt. eigenvalues --    0.15080   0.15190   0.15334   0.15783   0.16279
 Alpha virt. eigenvalues --    0.16828   0.16858   0.17277   0.17713   0.17919
 Alpha virt. eigenvalues --    0.18077   0.18321   0.18829   0.19028   0.19594
 Alpha virt. eigenvalues --    0.19700   0.20076   0.20471   0.20903   0.21252
 Alpha virt. eigenvalues --    0.22411   0.22664   0.23122   0.23606   0.24319
 Alpha virt. eigenvalues --    0.24471   0.24887   0.26212   0.26695   0.26989
 Alpha virt. eigenvalues --    0.27693   0.28074   0.28580   0.28898   0.29519
 Alpha virt. eigenvalues --    0.30237   0.30271   0.30571   0.31514   0.32000
 Alpha virt. eigenvalues --    0.32468   0.32958   0.33220   0.33646   0.34564
 Alpha virt. eigenvalues --    0.34946   0.34981   0.35237   0.35601   0.35977
 Alpha virt. eigenvalues --    0.36452   0.36890   0.37319   0.37761   0.38517
 Alpha virt. eigenvalues --    0.39377   0.39448   0.39858   0.40358   0.40907
 Alpha virt. eigenvalues --    0.41325   0.42439   0.42553   0.43508   0.45257
 Alpha virt. eigenvalues --    0.45781   0.46951   0.49652   0.50275   0.50719
 Alpha virt. eigenvalues --    0.52036   0.52093   0.53267   0.54394   0.54768
 Alpha virt. eigenvalues --    0.56556   0.57038   0.57989   0.58570   0.59098
 Alpha virt. eigenvalues --    0.59875   0.60813   0.61045   0.61423   0.61988
 Alpha virt. eigenvalues --    0.62163   0.62861   0.63013   0.63857   0.64295
 Alpha virt. eigenvalues --    0.64619   0.64919   0.65757   0.65962   0.67607
 Alpha virt. eigenvalues --    0.68297   0.68409   0.69671   0.70257   0.70553
 Alpha virt. eigenvalues --    0.70886   0.71572   0.71973   0.72631   0.72880
 Alpha virt. eigenvalues --    0.73237   0.73545   0.74556   0.75005   0.75942
 Alpha virt. eigenvalues --    0.76092   0.76290   0.77750   0.78344   0.79004
 Alpha virt. eigenvalues --    0.79991   0.82332   0.84231   0.85312   0.85885
 Alpha virt. eigenvalues --    0.86216   0.87924   0.88451   0.88794   0.89277
 Alpha virt. eigenvalues --    0.90002   0.91393   0.91900   0.92438   0.95496
 Alpha virt. eigenvalues --    0.97677   0.99162   1.00199   1.00733   1.01602
 Alpha virt. eigenvalues --    1.01910   1.03543   1.04323   1.05589   1.06398
 Alpha virt. eigenvalues --    1.08435   1.08914   1.10401   1.11195   1.11493
 Alpha virt. eigenvalues --    1.13995   1.14726   1.15322   1.15400   1.17031
 Alpha virt. eigenvalues --    1.17681   1.18271   1.19934   1.20473   1.20794
 Alpha virt. eigenvalues --    1.21659   1.21900   1.22849   1.23567   1.24556
 Alpha virt. eigenvalues --    1.24798   1.25601   1.26469   1.26589   1.27044
 Alpha virt. eigenvalues --    1.28336   1.29112   1.30029   1.31067   1.31589
 Alpha virt. eigenvalues --    1.32153   1.33769   1.34077   1.34675   1.34991
 Alpha virt. eigenvalues --    1.35369   1.35814   1.36331   1.36609   1.38042
 Alpha virt. eigenvalues --    1.38391   1.39389   1.40148   1.41198   1.41827
 Alpha virt. eigenvalues --    1.42361   1.43084   1.43947   1.44502   1.45083
 Alpha virt. eigenvalues --    1.45898   1.45986   1.46950   1.47697   1.48100
 Alpha virt. eigenvalues --    1.49372   1.49600   1.50214   1.51612   1.51706
 Alpha virt. eigenvalues --    1.53213   1.53738   1.54395   1.55076   1.55225
 Alpha virt. eigenvalues --    1.56324   1.56834   1.57379   1.58080   1.58864
 Alpha virt. eigenvalues --    1.59195   1.60395   1.60648   1.61066   1.62435
 Alpha virt. eigenvalues --    1.63383   1.63715   1.64120   1.65400   1.66872
 Alpha virt. eigenvalues --    1.67246   1.68446   1.69861   1.70816   1.71724
 Alpha virt. eigenvalues --    1.73568   1.74981   1.75743   1.76815   1.77784
 Alpha virt. eigenvalues --    1.79084   1.79788   1.81616   1.82371   1.83408
 Alpha virt. eigenvalues --    1.86677   1.88302   1.89400   1.94402   1.99971
 Alpha virt. eigenvalues --    2.02078   2.07080   2.12132   2.17379   2.21897
 Alpha virt. eigenvalues --    2.23082   2.26180   2.33806   2.34919   2.39792
 Alpha virt. eigenvalues --    2.43483   2.43940   2.45179   2.48462   2.54171
 Alpha virt. eigenvalues --    2.62301   2.75691   2.76564   2.77434   2.82401
 Alpha virt. eigenvalues --    2.84225   2.90147   2.92592   2.94128   2.95056
 Alpha virt. eigenvalues --    2.95939   2.97961   3.01161   3.02518   3.03561
 Alpha virt. eigenvalues --    3.05394   3.07765   3.08307   3.09430   3.11724
 Alpha virt. eigenvalues --    3.13870   3.15867   3.17419   3.18957   3.20662
 Alpha virt. eigenvalues --    3.23665   3.27148   3.31715   3.34145   3.34648
 Alpha virt. eigenvalues --    3.36366   3.37288   3.38698   3.39943   3.41186
 Alpha virt. eigenvalues --    3.42754   3.43233   3.44709   3.46555   3.46724
 Alpha virt. eigenvalues --    3.47555   3.48009   3.50447   3.51080   3.52352
 Alpha virt. eigenvalues --    3.53078   3.53639   3.54179   3.54890   3.56038
 Alpha virt. eigenvalues --    3.56785   3.57105   3.58359   3.59339   3.60415
 Alpha virt. eigenvalues --    3.61370   3.61954   3.63633   3.64354   3.65085
 Alpha virt. eigenvalues --    3.67027   3.67251   3.68152   3.69307   3.69751
 Alpha virt. eigenvalues --    3.70224   3.70667   3.72335   3.72724   3.73536
 Alpha virt. eigenvalues --    3.74767   3.75408   3.76605   3.77038   3.77644
 Alpha virt. eigenvalues --    3.78862   3.79818   3.80548   3.82279   3.83844
 Alpha virt. eigenvalues --    3.85886   3.87555   3.88545   3.90728   3.91861
 Alpha virt. eigenvalues --    3.92956   3.93625   3.94427   3.95915   3.98200
 Alpha virt. eigenvalues --    3.99821   4.01604   4.02222   4.03822   4.04260
 Alpha virt. eigenvalues --    4.04787   4.06299   4.06803   4.07295   4.07710
 Alpha virt. eigenvalues --    4.08136   4.09259   4.10227   4.10601   4.12016
 Alpha virt. eigenvalues --    4.12140   4.13543   4.14809   4.14972   4.15845
 Alpha virt. eigenvalues --    4.17071   4.17975   4.18623   4.19607   4.20271
 Alpha virt. eigenvalues --    4.21393   4.23324   4.25720   4.26858   4.28028
 Alpha virt. eigenvalues --    4.28165   4.30811   4.31211   4.32256   4.32889
 Alpha virt. eigenvalues --    4.33295   4.34732   4.35179   4.36941   4.39923
 Alpha virt. eigenvalues --    4.40354   4.43643   4.44038   4.47003   4.49126
 Alpha virt. eigenvalues --    4.57937   4.61303   4.75210   4.77098   4.82365
 Alpha virt. eigenvalues --    4.85091   4.92838   4.95327   4.99080   5.00939
 Alpha virt. eigenvalues --    5.06675   5.07031   5.07606   5.08475   5.11709
 Alpha virt. eigenvalues --    5.12295   5.13955   5.14808   5.31085   5.38336
 Alpha virt. eigenvalues --    5.41637   5.58056   5.59250   5.63845   5.85087
 Alpha virt. eigenvalues --    5.90701   6.03351   7.02290   7.05420   7.05687
 Alpha virt. eigenvalues --    7.09314   7.10576   7.13108   7.16051   7.20045
 Alpha virt. eigenvalues --    7.30602   7.36396   7.41605   7.44093   7.53682
 Alpha virt. eigenvalues --    7.54488   7.64557  23.95359  23.96999  24.06763
 Alpha virt. eigenvalues --   24.08101  24.10941  24.11894  24.14396  24.14913
 Alpha virt. eigenvalues --   24.15990  24.20332  50.16751  50.19168  50.28774
          Condensed to atoms (all electrons):
               1          2          3          4          5          6
     1  C    5.606858   0.104332  -0.009285   0.001928  -0.391565   0.068752
     2  O    0.104332   8.255064   0.015362  -0.000236   0.279154  -0.061252
     3  C   -0.009285   0.015362   5.757568   0.000991  -0.445892   0.138262
     4  O    0.001928  -0.000236   0.000991   8.350445  -0.003949   0.002082
     5  C   -0.391565   0.279154  -0.445892  -0.003949   8.110329  -1.591736
     6  C    0.068752  -0.061252   0.138262   0.002082  -1.591736   7.468698
     7  C   -0.004103   0.000387   0.002401  -0.049093  -0.072064  -0.004972
     8  O   -0.004396  -0.042142  -0.042476   0.004861   0.248864  -0.047310
     9  C   -0.048979  -0.006531  -0.023549  -0.050497   0.499030  -0.064682
    10  C    0.006296   0.002189   0.003001   0.097348  -0.042937   0.002350
    11  C    0.134755   0.034769   0.142791   0.059943  -1.520277   0.195080
    12  C   -0.010889  -0.058350  -0.055785   0.158781   0.426340  -0.203620
    13  C   -0.115072  -0.056286  -0.022871  -0.000062   0.311875  -0.157242
    14  H    0.464001  -0.041538  -0.001930   0.000041   0.011381   0.036488
    15  H    0.442227  -0.070147   0.014214   0.000382  -0.016748  -0.005953
    16  H    0.003651   0.002387   0.515703   0.000046  -0.027762  -0.045395
    17  H    0.001414  -0.004312   0.426575   0.000003   0.003997  -0.041450
    18  H   -0.053622  -0.077856  -0.045598  -0.001119   0.512864  -0.093959
    19  H    0.016659  -0.004660   0.009391   0.000177  -0.160479   0.518021
    20  H    0.009691   0.007709  -0.042659  -0.000102  -0.002091   0.415896
    21  H   -0.000479   0.000009   0.000121   0.006285   0.002643  -0.001543
    22  H    0.000363  -0.000193   0.000098  -0.003855  -0.005849   0.001819
    23  H    0.003638   0.001335  -0.000255   0.000627  -0.033599   0.003810
    24  H   -0.001324  -0.000918   0.001018  -0.001726   0.016255  -0.004957
    25  H    0.000096   0.000261   0.000145  -0.072361  -0.003048   0.000623
    26  H    0.000403  -0.000282  -0.000275  -0.035435  -0.002806  -0.000357
    27  H    0.016548   0.002020   0.006017  -0.008096  -0.083609  -0.008352
    28  H   -0.003180  -0.000046  -0.006688  -0.065729   0.063526  -0.023686
    29  H    0.005776   0.002805   0.015759  -0.045465  -0.075183   0.024392
    30  H   -0.025815   0.010394  -0.052003   0.000004   0.014704  -0.014075
    31  H   -0.098995  -0.002862  -0.013887  -0.000011  -0.005254  -0.002386
               7          8          9         10         11         12
     1  C   -0.004103  -0.004396  -0.048979   0.006296   0.134755  -0.010889
     2  O    0.000387  -0.042142  -0.006531   0.002189   0.034769  -0.058350
     3  C    0.002401  -0.042476  -0.023549   0.003001   0.142791  -0.055785
     4  O   -0.049093   0.004861  -0.050497   0.097348   0.059943   0.158781
     5  C   -0.072064   0.248864   0.499030  -0.042937  -1.520277   0.426340
     6  C   -0.004972  -0.047310  -0.064682   0.002350   0.195080  -0.203620
     7  C    5.650710  -0.021262  -0.306323   0.097969   0.354032  -0.099217
     8  O   -0.021262   8.399444  -0.168889   0.006691   0.046234   0.015278
     9  C   -0.306323  -0.168889   7.152814  -0.166003  -1.838284   0.566265
    10  C    0.097969   0.006691  -0.166003   5.370183   0.193832  -0.191596
    11  C    0.354032   0.046234  -1.838284   0.193832   8.627128  -0.936309
    12  C   -0.099217   0.015278   0.566265  -0.191596  -0.936309   6.047001
    13  C    0.001043  -0.003247   0.019623  -0.000149  -0.040259   0.002861
    14  H    0.000275   0.006291   0.007599  -0.001956  -0.036117   0.004441
    15  H   -0.000288   0.001583  -0.001720   0.000599   0.010889   0.002604
    16  H   -0.001441  -0.004222   0.003361  -0.000296  -0.003018  -0.001123
    17  H    0.000208   0.000581  -0.002780   0.000138   0.011460  -0.003198
    18  H   -0.000420  -0.019294   0.041614  -0.009312  -0.047126   0.032047
    19  H    0.000166   0.011252  -0.005105   0.000394   0.015701  -0.003035
    20  H   -0.001926  -0.006628   0.011310  -0.000567  -0.020441   0.006173
    21  H    0.429425  -0.004064  -0.022383  -0.041620  -0.010829   0.003314
    22  H    0.486950  -0.000075  -0.021604  -0.074033  -0.008903   0.000145
    23  H   -0.035729  -0.002210   0.436925  -0.011459   0.068057  -0.054033
    24  H   -0.019505  -0.002761   0.440749   0.005564  -0.067608   0.019647
    25  H   -0.040643   0.000521   0.003122   0.429528   0.009042   0.010521
    26  H   -0.050377  -0.000236  -0.024498   0.478091   0.047214  -0.040686
    27  H    0.019133  -0.067349  -0.104922   0.016161   0.630502  -0.120012
    28  H    0.005281  -0.001497   0.061259  -0.005083  -0.167810   0.505855
    29  H    0.039516  -0.000217  -0.191545   0.010040   0.223902   0.307416
    30  H   -0.000000   0.000668  -0.000514   0.000140   0.003231   0.001061
    31  H    0.000012  -0.000480   0.001621  -0.000198  -0.005175  -0.000919
              13         14         15         16         17         18
     1  C   -0.115072   0.464001   0.442227   0.003651   0.001414  -0.053622
     2  O   -0.056286  -0.041538  -0.070147   0.002387  -0.004312  -0.077856
     3  C   -0.022871  -0.001930   0.014214   0.515703   0.426575  -0.045598
     4  O   -0.000062   0.000041   0.000382   0.000046   0.000003  -0.001119
     5  C    0.311875   0.011381  -0.016748  -0.027762   0.003997   0.512864
     6  C   -0.157242   0.036488  -0.005953  -0.045395  -0.041450  -0.093959
     7  C    0.001043   0.000275  -0.000288  -0.001441   0.000208  -0.000420
     8  O   -0.003247   0.006291   0.001583  -0.004222   0.000581  -0.019294
     9  C    0.019623   0.007599  -0.001720   0.003361  -0.002780   0.041614
    10  C   -0.000149  -0.001956   0.000599  -0.000296   0.000138  -0.009312
    11  C   -0.040259  -0.036117   0.010889  -0.003018   0.011460  -0.047126
    12  C    0.002861   0.004441   0.002604  -0.001123  -0.003198   0.032047
    13  C    5.729886  -0.076937  -0.030551  -0.060579  -0.017823   0.035748
    14  H   -0.076937   0.506453  -0.016094  -0.004102  -0.000848   0.001702
    15  H   -0.030551  -0.016094   0.481058  -0.001935   0.001351  -0.001121
    16  H   -0.060579  -0.004102  -0.001935   0.458801  -0.005779  -0.003335
    17  H   -0.017823  -0.000848   0.001351  -0.005779   0.467779   0.002628
    18  H    0.035748   0.001702  -0.001121  -0.003335   0.002628   0.493955
    19  H   -0.015172  -0.002252   0.000842   0.003235  -0.003926  -0.020441
    20  H   -0.013025   0.000364   0.001209  -0.002939  -0.009917  -0.009851
    21  H    0.000065   0.000092  -0.000012  -0.000064  -0.000001   0.000180
    22  H   -0.000114   0.000179  -0.000020   0.000098   0.000005   0.000098
    23  H   -0.001450  -0.000688   0.000071   0.000398   0.000163  -0.003438
    24  H   -0.000133   0.000905   0.000052  -0.000822  -0.000100   0.000113
    25  H    0.000086  -0.000132   0.000014  -0.000017   0.000009  -0.000288
    26  H   -0.000278   0.000119   0.000009   0.000031  -0.000015   0.000386
    27  H   -0.003900  -0.010704   0.001372   0.000409   0.000380  -0.002223
    28  H   -0.002933   0.003573  -0.003679   0.000252  -0.000386   0.000980
    29  H   -0.004172   0.000297   0.000660  -0.000608   0.000312  -0.026542
    30  H    0.432683  -0.001039  -0.008459  -0.004631  -0.007942   0.000992
    31  H    0.496553   0.005270  -0.007207   0.001435  -0.001474   0.001641
              19         20         21         22         23         24
     1  C    0.016659   0.009691  -0.000479   0.000363   0.003638  -0.001324
     2  O   -0.004660   0.007709   0.000009  -0.000193   0.001335  -0.000918
     3  C    0.009391  -0.042659   0.000121   0.000098  -0.000255   0.001018
     4  O    0.000177  -0.000102   0.006285  -0.003855   0.000627  -0.001726
     5  C   -0.160479  -0.002091   0.002643  -0.005849  -0.033599   0.016255
     6  C    0.518021   0.415896  -0.001543   0.001819   0.003810  -0.004957
     7  C    0.000166  -0.001926   0.429425   0.486950  -0.035729  -0.019505
     8  O    0.011252  -0.006628  -0.004064  -0.000075  -0.002210  -0.002761
     9  C   -0.005105   0.011310  -0.022383  -0.021604   0.436925   0.440749
    10  C    0.000394  -0.000567  -0.041620  -0.074033  -0.011459   0.005564
    11  C    0.015701  -0.020441  -0.010829  -0.008903   0.068057  -0.067608
    12  C   -0.003035   0.006173   0.003314   0.000145  -0.054033   0.019647
    13  C   -0.015172  -0.013025   0.000065  -0.000114  -0.001450  -0.000133
    14  H   -0.002252   0.000364   0.000092   0.000179  -0.000688   0.000905
    15  H    0.000842   0.001209  -0.000012  -0.000020   0.000071   0.000052
    16  H    0.003235  -0.002939  -0.000064   0.000098   0.000398  -0.000822
    17  H   -0.003926  -0.009917  -0.000001   0.000005   0.000163  -0.000100
    18  H   -0.020441  -0.009851   0.000180   0.000098  -0.003438   0.000113
    19  H    0.453990  -0.004327  -0.000058   0.000006   0.000373  -0.000258
    20  H   -0.004327   0.481098   0.000223  -0.000021  -0.001373   0.001257
    21  H   -0.000058   0.000223   0.495259  -0.009725  -0.005027  -0.008290
    22  H    0.000006  -0.000021  -0.009725   0.476270   0.002724  -0.006877
    23  H    0.000373  -0.001373  -0.005027   0.002724   0.455264  -0.016391
    24  H   -0.000258   0.001257  -0.008290  -0.006877  -0.016391   0.477453
    25  H    0.000032  -0.000092  -0.009272  -0.002447  -0.000972   0.000601
    26  H   -0.000067   0.000264   0.004221   0.001882  -0.003606  -0.000488
    27  H    0.000234  -0.000365  -0.003044  -0.002899   0.009332  -0.008452
    28  H   -0.001126   0.000358   0.002508  -0.001712  -0.001891  -0.000058
    29  H    0.001802  -0.000166  -0.002132   0.000136   0.001489  -0.002717
    30  H   -0.002118   0.001489   0.000003  -0.000025   0.000019  -0.000010
    31  H   -0.002734  -0.001951   0.000005   0.000012  -0.000046   0.000001
              25         26         27         28         29         30
     1  C    0.000096   0.000403   0.016548  -0.003180   0.005776  -0.025815
     2  O    0.000261  -0.000282   0.002020  -0.000046   0.002805   0.010394
     3  C    0.000145  -0.000275   0.006017  -0.006688   0.015759  -0.052003
     4  O   -0.072361  -0.035435  -0.008096  -0.065729  -0.045465   0.000004
     5  C   -0.003048  -0.002806  -0.083609   0.063526  -0.075183   0.014704
     6  C    0.000623  -0.000357  -0.008352  -0.023686   0.024392  -0.014075
     7  C   -0.040643  -0.050377   0.019133   0.005281   0.039516  -0.000000
     8  O    0.000521  -0.000236  -0.067349  -0.001497  -0.000217   0.000668
     9  C    0.003122  -0.024498  -0.104922   0.061259  -0.191545  -0.000514
    10  C    0.429528   0.478091   0.016161  -0.005083   0.010040   0.000140
    11  C    0.009042   0.047214   0.630502  -0.167810   0.223902   0.003231
    12  C    0.010521  -0.040686  -0.120012   0.505855   0.307416   0.001061
    13  C    0.000086  -0.000278  -0.003900  -0.002933  -0.004172   0.432683
    14  H   -0.000132   0.000119  -0.010704   0.003573   0.000297  -0.001039
    15  H    0.000014   0.000009   0.001372  -0.003679   0.000660  -0.008459
    16  H   -0.000017   0.000031   0.000409   0.000252  -0.000608  -0.004631
    17  H    0.000009  -0.000015   0.000380  -0.000386   0.000312  -0.007942
    18  H   -0.000288   0.000386  -0.002223   0.000980  -0.026542   0.000992
    19  H    0.000032  -0.000067   0.000234  -0.001126   0.001802  -0.002118
    20  H   -0.000092   0.000264  -0.000365   0.000358  -0.000166   0.001489
    21  H   -0.009272   0.004221  -0.003044   0.002508  -0.002132   0.000003
    22  H   -0.002447   0.001882  -0.002899  -0.001712   0.000136  -0.000025
    23  H   -0.000972  -0.003606   0.009332  -0.001891   0.001489   0.000019
    24  H    0.000601  -0.000488  -0.008452  -0.000058  -0.002717  -0.000010
    25  H    0.471035  -0.004079  -0.000860   0.001932  -0.000063   0.000001
    26  H   -0.004079   0.490016   0.001251  -0.004236   0.003361  -0.000005
    27  H   -0.000860   0.001251   0.471322  -0.009284   0.003195   0.000883
    28  H    0.001932  -0.004236  -0.009284   0.465335  -0.033191   0.000013
    29  H   -0.000063   0.003361   0.003195  -0.033191   0.525388   0.000031
    30  H    0.000001  -0.000005   0.000883   0.000013   0.000031   0.490576
    31  H   -0.000003   0.000005  -0.000499   0.000649  -0.000532  -0.013568
              31
     1  C   -0.098995
     2  O   -0.002862
     3  C   -0.013887
     4  O   -0.000011
     5  C   -0.005254
     6  C   -0.002386
     7  C    0.000012
     8  O   -0.000480
     9  C    0.001621
    10  C   -0.000198
    11  C   -0.005175
    12  C   -0.000919
    13  C    0.496553
    14  H    0.005270
    15  H   -0.007207
    16  H    0.001435
    17  H   -0.001474
    18  H    0.001641
    19  H   -0.002734
    20  H   -0.001951
    21  H    0.000005
    22  H    0.000012
    23  H   -0.000046
    24  H    0.000001
    25  H   -0.000003
    26  H    0.000005
    27  H   -0.000499
    28  H    0.000649
    29  H   -0.000532
    30  H   -0.013568
    31  H    0.486881
 Mulliken charges:
               1
     1  C   -0.119683
     2  O   -0.290565
     3  C   -0.286263
     4  O   -0.346209
     5  C   -0.016115
     6  C   -0.503345
     7  C   -0.380143
     8  O   -0.303516
     9  C   -0.196483
    10  C   -0.175305
    11  C   -0.106408
    12  C   -0.330978
    13  C   -0.408169
    14  H    0.144867
    15  H    0.204798
    16  H    0.178259
    17  H    0.182948
    18  H    0.290598
    19  H    0.193480
    20  H    0.181400
    21  H    0.174190
    22  H    0.167569
    23  H    0.187940
    24  H    0.179779
    25  H    0.206710
    26  H    0.140472
    27  H    0.255812
    28  H    0.220695
    29  H    0.216258
    30  H    0.173312
    31  H    0.164096
 Sum of Mulliken charges =  -0.00000
 Mulliken charges with hydrogens summed into heavy atoms:
               1
     1  C    0.229982
     2  O   -0.290565
     3  C    0.074943
     4  O   -0.346209
     5  C    0.274484
     6  C   -0.128465
     7  C   -0.038384
     8  O   -0.303516
     9  C    0.171236
    10  C    0.171877
    11  C    0.149404
    12  C    0.105974
    13  C   -0.070761
 Electronic spatial extent (au):  <R**2>=           3101.2382
 Charge=             -0.0000 electrons
 Dipole moment (field-independent basis, Debye):
    X=             -0.3340    Y=              2.2979    Z=              0.4347  Tot=              2.3623
 Quadrupole moment (field-independent basis, Debye-Ang):
   XX=            -71.5336   YY=            -85.2326   ZZ=            -77.4675
   XY=              5.5884   XZ=              2.2900   YZ=              2.2269
 Traceless Quadrupole moment (field-independent basis, Debye-Ang):
   XX=              6.5443   YY=             -7.1547   ZZ=              0.6104
   XY=              5.5884   XZ=              2.2900   YZ=              2.2269
 Octapole moment (field-independent basis, Debye-Ang**2):
  XXX=              5.7625  YYY=              1.0670  ZZZ=              1.8494  XYY=             -8.2460
  XXY=             18.2830  XXZ=             -1.3881  XZZ=              0.4557  YZZ=             -1.1309
  YYZ=             -2.4731  XYZ=             -6.4660
 Hexadecapole moment (field-independent basis, Debye-Ang**3):
 XXXX=          -3080.2330 YYYY=           -584.8230 ZZZZ=           -293.8931 XXXY=             46.8229
 XXXZ=             14.3400 YYYX=             22.0257 YYYZ=              5.6098 ZZZX=              1.2662
 ZZZY=             -1.9984 XXYY=           -665.2577 XXZZ=           -585.6552 YYZZ=           -149.3432
 XXYZ=             10.7811 YYXZ=              5.6739 ZZXY=             -0.1292
 N-N= 8.934407652192D+02 E-N=-3.228733321875D+03  KE= 6.153370488294D+02
 D1PCM: PCM CHGder 1st derivatives, ID1Alg=3 FixD1E=F DoIter=F DoCFld=F I1PDM=0.
 Calling FoFJK, ICntrl=      2127 FMM=F ISym2X=0 I1Cent= 0 IOpClX= 0 NMat=1 NMatS=1 NMatT=0.
 ***** Axes restored to original set *****
 -------------------------------------------------------------------
 Center     Atomic                   Forces (Hartrees/Bohr)
 Number     Number              X              Y              Z
 -------------------------------------------------------------------
      1        6          -0.001623126    0.005372307    0.003410794
      2        8           0.002732995   -0.009930046    0.005906743
      3        6           0.001473419   -0.003271200    0.001496923
      4        8           0.002728676   -0.008267387   -0.003236337
      5        6          -0.003025904    0.000217557   -0.007257420
      6        6           0.000318264    0.000229644   -0.002680202
      7        6          -0.001272923    0.000067402    0.002512645
      8        8          -0.003397332    0.011319611   -0.004713496
      9        6           0.002555244   -0.003686239   -0.002392713
     10        6          -0.005591309    0.002588607   -0.003032992
     11        6          -0.001601144   -0.000686964    0.008599375
     12        6           0.003224847    0.004742521   -0.005226715
     13        6           0.002197258    0.001301896   -0.001030292
     14        1           0.002761997    0.002870734   -0.004882032
     15        1          -0.001303446   -0.004191470   -0.000435285
     16        1           0.002485605    0.000855192   -0.002488931
     17        1          -0.002059429    0.001384027    0.000723294
     18        1           0.003635231   -0.002381110    0.007069373
     19        1          -0.001686581   -0.001660797    0.002488063
     20        1           0.001371382    0.002831938    0.000301822
     21        1           0.001722706    0.002432647    0.000398394
     22        1           0.000083557   -0.001265897   -0.002965318
     23        1          -0.000850414    0.000466850    0.003873334
     24        1          -0.001408013    0.001959428   -0.001802129
     25        1           0.003878335   -0.001601910   -0.001280928
     26        1           0.000069761    0.002497200    0.005669572
     27        1           0.001650402   -0.002594566   -0.005458832
     28        1          -0.004923167   -0.003743087   -0.000664607
     29        1          -0.001113423    0.003177704    0.006523324
     30        1          -0.001768348    0.000289170   -0.002224188
     31        1          -0.001265122   -0.001323762    0.002798761
 -------------------------------------------------------------------
 Cartesian Forces:  Max     0.011319611 RMS     0.003539585

 GradGradGradGradGradGradGradGradGradGradGradGradGradGradGradGradGradGrad
 Berny optimization.
 FormGI is forming the generalized inverse of G from B-inverse, IUseBI=4.
 Internal  Forces:  Max     0.017370501 RMS     0.002268040
 Search for a local minimum.
 Step number   1 out of a maximum of  186
 All quantities printed in internal units (Hartrees-Bohrs-Radians)
 Mixed Optimization -- RFO/linear search
 Second derivative matrix not updated -- first step.
 ITU=  0
     Eigenvalues ---    0.00621   0.00645   0.00718   0.00723   0.01414
     Eigenvalues ---    0.01447   0.01735   0.02702   0.02750   0.03076
     Eigenvalues ---    0.03112   0.04002   0.04085   0.04623   0.04748
     Eigenvalues ---    0.04853   0.04891   0.05105   0.05144   0.05200
     Eigenvalues ---    0.05287   0.05663   0.05685   0.06027   0.06170
     Eigenvalues ---    0.06232   0.06582   0.07073   0.07621   0.07859
     Eigenvalues ---    0.07954   0.07967   0.07974   0.08078   0.08238
     Eigenvalues ---    0.08824   0.09184   0.09323   0.10691   0.11561
     Eigenvalues ---    0.11594   0.11691   0.11764   0.12396   0.12498
     Eigenvalues ---    0.14643   0.14675   0.16467   0.16519   0.17453
     Eigenvalues ---    0.19093   0.21369   0.21951   0.25000   0.28120
     Eigenvalues ---    0.28632   0.28750   0.28849   0.28930   0.29136
     Eigenvalues ---    0.30048   0.30298   0.35055   0.35092   0.35093
     Eigenvalues ---    0.35155   0.35207   0.35208   0.35240   0.35294
     Eigenvalues ---    0.35314   0.35330   0.35346   0.35412   0.35451
     Eigenvalues ---    0.35452   0.35834   0.35845   0.36144   0.36230
     Eigenvalues ---    0.40832   0.41423   0.41893   0.42094   0.43278
     Eigenvalues ---    0.461621000.000001000.000001000.000001000.00000
     Eigenvalues --- 1000.000001000.000001000.000001000.000001000.00000
     Eigenvalues --- 1000.000001000.000001000.000001000.000001000.00000
     Eigenvalues --- 1000.000001000.000001000.000001000.000001000.00000
     Eigenvalues --- 1000.000001000.000001000.000001000.000001000.00000
     Eigenvalues --- 1000.000001000.000001000.000001000.000001000.00000
     Eigenvalues --- 1000.000001000.000001000.000001000.000001000.00000
     Eigenvalues --- 1000.000001000.000001000.000001000.000001000.00000
     Eigenvalues --- 1000.000001000.000001000.000001000.000001000.00000
     Eigenvalues --- 1000.000001000.000001000.000001000.000001000.00000
     Eigenvalues --- 1000.000001000.000001000.000001000.000001000.00000
     Eigenvalues --- 1000.000001000.000001000.000001000.000001000.00000
     Eigenvalues --- 1000.000001000.000001000.000001000.000001000.00000
     Eigenvalues --- 1000.000001000.000001000.000001000.000001000.00000
     Eigenvalues --- 1000.000001000.000001000.000001000.000001000.00000
     Eigenvalues --- 1000.000001000.000001000.000001000.000001000.00000
     Eigenvalues --- 1000.000001000.000001000.000001000.000001000.00000
     Eigenvalues --- 1000.000001000.000001000.000001000.000001000.00000
     Eigenvalues --- 1000.000001000.000001000.000001000.000001000.00000
     Eigenvalues --- 1000.000001000.000001000.000001000.000001000.00000
 RFO step:  Lambda=-4.08795250D-03 EMin= 6.21330406D-03
 Linear search not attempted -- first point.
 Iteration  1 RMS(Cart)=  0.06972680 RMS(Int)=  0.00108562
 Iteration  2 RMS(Cart)=  0.00338749 RMS(Int)=  0.00005136
 Iteration  3 RMS(Cart)=  0.00000351 RMS(Int)=  0.00005133
 Iteration  4 RMS(Cart)=  0.00000000 RMS(Int)=  0.00005133
 Iteration  1 RMS(Cart)=  0.00002175 RMS(Int)=  0.00000513
 Iteration  2 RMS(Cart)=  0.00001206 RMS(Int)=  0.00000572
 Iteration  3 RMS(Cart)=  0.00000669 RMS(Int)=  0.00000648
 Iteration  4 RMS(Cart)=  0.00000371 RMS(Int)=  0.00000699
 Iteration  5 RMS(Cart)=  0.00000206 RMS(Int)=  0.00000729
 Iteration  6 RMS(Cart)=  0.00000114 RMS(Int)=  0.00000746
 Iteration  7 RMS(Cart)=  0.00000063 RMS(Int)=  0.00000756
 Variable       Old X    -DE/DX   Delta X   Delta X   Delta X     New X
                                 (Linear)    (Quad)   (Total)
    R1        2.68656   0.00288   0.00000   0.00666   0.00667   2.69323
    R2        2.87146   0.00024   0.00000   0.00109   0.00111   2.87257
    R3        2.05011   0.00620   0.00000   0.01731   0.01731   2.06741
    R4        2.04325   0.00441   0.00000   0.01215   0.01215   2.05541
    R5        2.65502   0.00411   0.00000   0.00886   0.00888   2.66390
    R6        2.89024  -0.00143   0.00000  -0.00465  -0.00466   2.88558
    R7        2.88895  -0.00067   0.00000  -0.00186  -0.00187   2.88707
    R8        2.05339   0.00341   0.00000   0.00959   0.00959   2.06297
    R9        2.05168   0.00258   0.00000   0.00723   0.00723   2.05891
   R10        2.67659   0.00353   0.00000   0.00855   0.00859   2.68518
   R11        2.66846   0.00361   0.00000   0.00790   0.00793   2.67638
   R12        2.87621  -0.00066   0.00000  -0.00252  -0.00254   2.87367
   R13        2.63949   0.00266   0.00000   0.00571   0.00571   2.64521
   R14        2.03724   0.00822   0.00000   0.02242   0.02242   2.05966
   R15        2.05341   0.00338   0.00000   0.00948   0.00948   2.06289
   R16        2.04948   0.00313   0.00000   0.00874   0.00874   2.05822
   R17        2.89121  -0.00073   0.00000  -0.00211  -0.00214   2.88907
   R18        2.87113   0.00083   0.00000   0.00245   0.00246   2.87359
   R19        2.05201   0.00299   0.00000   0.00836   0.00836   2.06037
   R20        2.05424   0.00315   0.00000   0.00886   0.00886   2.06311
   R21        2.69059   0.00017   0.00000   0.00041   0.00041   2.69101
   R22        2.88067  -0.00141   0.00000  -0.00520  -0.00524   2.87542
   R23        2.05585   0.00386   0.00000   0.01088   0.01088   2.06673
   R24        2.05143   0.00294   0.00000   0.00824   0.00824   2.05966
   R25        2.04342   0.00439   0.00000   0.01210   0.01210   2.05552
   R26        2.05524   0.00608   0.00000   0.01712   0.01712   2.07237
   R27        2.89353  -0.00146   0.00000  -0.00461  -0.00462   2.88891
   R28        2.04947   0.00605   0.00000   0.01687   0.01687   2.06634
   R29        2.03857   0.00589   0.00000   0.01611   0.01611   2.05469
   R30        2.05117   0.00712   0.00000   0.01990   0.01990   2.07107
   R31        2.05288   0.00283   0.00000   0.00795   0.00795   2.06083
   R32        2.05526   0.00327   0.00000   0.00921   0.00921   2.06448
    A1        1.94420   0.00223   0.00000   0.00598   0.00596   1.95015
    A2        1.90887   0.00021   0.00000   0.00175   0.00180   1.91067
    A3        1.84217  -0.00128   0.00000  -0.00198  -0.00199   1.84018
    A4        1.93285  -0.00166   0.00000  -0.00784  -0.00788   1.92497
    A5        1.94578  -0.00024   0.00000  -0.00184  -0.00179   1.94399
    A6        1.88695   0.00075   0.00000   0.00431   0.00429   1.89124
    A7        2.02143  -0.00566   0.00000  -0.03515  -0.03505   1.98639
    A8        1.91446   0.00187   0.00000  -0.00134  -0.00135   1.91311
    A9        1.92232  -0.00097   0.00000  -0.00616  -0.00616   1.91616
   A10        1.91568  -0.00052   0.00000   0.00143   0.00142   1.91710
   A11        1.91434  -0.00079   0.00000  -0.00164  -0.00172   1.91261
   A12        1.92994  -0.00029   0.00000   0.00181   0.00187   1.93181
   A13        1.86668   0.00064   0.00000   0.00599   0.00600   1.87268
   A14        1.98307  -0.00411   0.00000  -0.02772  -0.02762   1.95545
   A15        1.93861   0.00327   0.00000   0.01319   0.01304   1.95165
   A16        1.94522   0.00053   0.00000   0.00060   0.00073   1.94595
   A17        1.83468  -0.00251   0.00000  -0.01524  -0.01524   1.81944
   A18        1.88783  -0.00304   0.00000  -0.01326  -0.01319   1.87464
   A19        1.92599   0.00025   0.00000   0.00426   0.00433   1.93032
   A20        1.93187   0.00166   0.00000   0.01115   0.01114   1.94301
   A21        1.95437  -0.00168   0.00000  -0.01475  -0.01487   1.93950
   A22        1.91013   0.00109   0.00000   0.00639   0.00647   1.91660
   A23        1.94731  -0.00020   0.00000  -0.00095  -0.00103   1.94628
   A24        1.87155   0.00014   0.00000   0.00350   0.00350   1.87505
   A25        1.90127   0.00072   0.00000  -0.00021  -0.00019   1.90108
   A26        1.87605   0.00001   0.00000   0.00706   0.00704   1.88309
   A27        1.92527  -0.00114   0.00000  -0.00556  -0.00561   1.91966
   A28        1.92936  -0.00034   0.00000  -0.00021  -0.00020   1.92916
   A29        1.91784   0.00089   0.00000   0.00110   0.00110   1.91894
   A30        1.91146   0.00079   0.00000   0.00456   0.00458   1.91604
   A31        1.90418  -0.00010   0.00000  -0.00247  -0.00247   1.90171
   A32        1.87490  -0.00006   0.00000   0.00280   0.00280   1.87770
   A33        2.14769  -0.01737   0.00000  -0.06836  -0.06836   2.07933
   A34        1.92731   0.00109   0.00000  -0.00478  -0.00485   1.92246
   A35        1.92042  -0.00035   0.00000   0.00313   0.00310   1.92352
   A36        1.93100   0.00041   0.00000   0.00685   0.00686   1.93786
   A37        1.89387  -0.00099   0.00000  -0.00690  -0.00688   1.88699
   A38        1.91412  -0.00057   0.00000  -0.00230  -0.00226   1.91187
   A39        1.87605   0.00035   0.00000   0.00397   0.00392   1.87997
   A40        1.93177   0.00177   0.00000   0.01043   0.01047   1.94224
   A41        1.85550  -0.00122   0.00000  -0.00423  -0.00424   1.85126
   A42        1.90153   0.00079   0.00000   0.00662   0.00665   1.90818
   A43        1.94783  -0.00033   0.00000  -0.00331  -0.00334   1.94449
   A44        1.93257  -0.00153   0.00000  -0.01008  -0.01012   1.92246
   A45        1.89232   0.00056   0.00000   0.00096   0.00092   1.89324
   A46        1.89260   0.00106   0.00000   0.00945   0.00937   1.90197
   A47        2.02401  -0.00226   0.00000  -0.01881  -0.01876   2.00525
   A48        1.85551   0.00094   0.00000   0.01409   0.01401   1.86952
   A49        1.90684   0.00053   0.00000  -0.00162  -0.00162   1.90521
   A50        1.91137  -0.00011   0.00000   0.00081   0.00073   1.91209
   A51        1.87098  -0.00011   0.00000  -0.00303  -0.00299   1.86798
   A52        1.89680   0.00135   0.00000   0.00967   0.00971   1.90651
   A53        1.85888   0.00011   0.00000   0.01319   0.01322   1.87210
   A54        1.90344   0.00133   0.00000   0.00890   0.00896   1.91240
   A55        1.95405  -0.00116   0.00000  -0.01214  -0.01229   1.94177
   A56        1.94574  -0.00221   0.00000  -0.01643  -0.01654   1.92920
   A57        1.90237   0.00075   0.00000  -0.00121  -0.00149   1.90088
   A58        1.92375  -0.00090   0.00000  -0.00490  -0.00508   1.91867
   A59        1.90366   0.00057   0.00000   0.00331   0.00335   1.90701
   A60        1.90493   0.00002   0.00000  -0.00118  -0.00112   1.90381
   A61        1.93900  -0.00053   0.00000  -0.00190  -0.00187   1.93713
   A62        1.91605   0.00085   0.00000   0.00152   0.00159   1.91764
   A63        1.87554   0.00001   0.00000   0.00337   0.00334   1.87888
    D1       -1.00644   0.00053   0.00000  -0.01312  -0.01301  -1.01945
    D2        1.13595   0.00007   0.00000  -0.01782  -0.01776   1.11820
    D3       -3.12095   0.00037   0.00000  -0.01301  -0.01294  -3.13389
    D4        0.95559   0.00130   0.00000   0.01859   0.01863   0.97423
    D5        3.08880   0.00044   0.00000   0.01525   0.01524   3.10404
    D6       -1.15001   0.00079   0.00000   0.02051   0.02053  -1.12948
    D7       -1.17297   0.00065   0.00000   0.01770   0.01775  -1.15522
[...]
 157850,0.06904897,-0.03186608,-0.07423014,0.00037815,0.00006400,0.0000
 2865,-0.00064252,-0.00013871,0.00005442,0.00000008,0.00000124,-0.00000
 213,0.00000141,0.00000242,0.00000053,-0.00000223,-0.00000198,-0.000000
 41,0.00000112,-0.00000098,0.00000181,-0.00000262,0.00000033,-0.0000003
 9,-0.00001002,-0.00000484,0.00001167,-0.00000801,0.00000213,0.00000182
 ,0.00000052,-0.00000023,-0.00000140,0.00052931,-0.00046954,0.00043651,
 -0.00013892,-0.00095304,0.00097145,-0.00025051,0.00017228,0.00024672,-
 0.00087169,0.00039153,0.00029078,-0.06953229,0.03229334,0.07238208,-0.
 00000330,0.00000280,-0.00000231,-0.00000479,-0.00000407,0.00000120,0.0
 0000303,-0.00000450,-0.00000331,-0.01080942,-0.01626112,-0.02533289,0.
 00003136,0.00000741,-0.00008533,0.00000371,0.00000007,0.00002263,0.000
 90821,0.00010492,-0.00686857,-0.00012101,0.00025358,-0.00001115,0.0004
 1950,-0.00075345,-0.00071974,-0.05375591,0.00575896,0.00466587,-0.0004
 8256,0.00014116,0.00020903,0.00361695,-0.00193972,-0.00474485,0.000000
 19,-0.00000072,0.00000076,0.00000085,-0.00000010,0.00000080,0.00000080
 ,0.00000035,0.00000148,0.00000005,-0.00000035,0.00000114,0.00000183,-0
 .00000010,0.00000203,0.00001260,-0.00000301,0.00003026,-0.00000364,0.0
 0000008,-0.00000041,-0.00000043,-0.00000132,-0.00000038,0.00032457,0.0
 0002896,0.00022355,0.00085741,0.00073009,-0.00078462,0.00006563,0.0001
 7418,0.00006090,0.00008073,-0.00003027,0.00015765,0.00226993,0.0051150
 6,0.02674520,0.05611631,0.00003496,0.00000880,0.00004874,-0.00011647,-
 0.00003131,-0.00002508,-0.00000686,0.00000810,0.00001131,-0.01461366,-
 0.01601779,-0.02877387,0.00015788,0.00005952,-0.00006926,-0.00001258,-
 0.00001864,-0.00001551,0.00058165,0.00531010,0.02888445,-0.00022327,0.
 00029241,-0.00004204,-0.00109393,0.00142184,0.00014249,0.00324731,-0.0
 5711388,-0.04396390,-0.00021325,-0.00035592,0.00049308,0.00419746,-0.0
 0020287,-0.00127321,-0.00000183,0.00000266,-0.00000949,0.00000210,0.00
 000260,-0.00000144,-0.00000623,-0.00000477,-0.00000426,0.00000183,-0.0
 0000313,0.00000205,-0.00000869,0.00000152,-0.00000409,0.00000550,-0.00
 001054,-0.00002803,-0.00001256,0.00000249,0.00000324,-0.00000052,0.000
 00190,-0.00000053,-0.00041298,0.00108462,-0.00098997,0.00199607,-0.004
 26764,0.00333524,0.00016296,-0.00014539,-0.00060493,-0.00024041,-0.000
 04825,-0.00033323,0.00049954,-0.00142774,-0.01262027,0.00632689,0.0709
 3350,0.00004240,0.00000877,0.00005048,-0.00012395,-0.00006522,-0.00001
 720,-0.00000444,0.00000857,0.00001271,-0.00752514,-0.00982244,-0.00336
 673,0.00015835,0.00012723,-0.00015435,-0.00001676,-0.00002931,-0.00000
 171,0.00162141,-0.00262967,-0.01890872,-0.00048943,0.00008601,0.000088
 58,0.00040223,-0.00103772,0.00076736,0.00129147,-0.04537054,-0.2868485
 0,0.00013624,-0.00016431,0.00023003,0.00161885,0.00080570,0.00136909,-
 0.00000023,0.00000289,-0.00001033,0.00000187,0.00000433,0.00000005,-0.
 00000709,-0.00000580,-0.00000398,0.00000254,-0.00000391,0.00000325,-0.
 00001006,0.00000180,-0.00000490,-0.00001075,-0.00001705,-0.00001415,-0
 .00001856,0.00000612,0.00000603,-0.00000089,0.00000290,-0.00000144,0.0
 0018835,0.00029381,0.00032689,-0.00096082,0.00329426,-0.00076547,-0.00
 073101,0.00018299,0.00025725,0.00005883,0.00021297,0.00032184,0.000786
 83,-0.00091537,-0.00709298,0.00503195,0.05460751,0.31331012,0.00034120
 ,-0.00007583,0.00065581,-0.00044273,-0.00135959,-0.00075231,0.00002776
 ,0.00003072,0.00016795,0.00126252,-0.00025012,-0.00059779,0.00156693,0
 .00749889,-0.00017776,-0.00079640,-0.00095243,0.00100847,0.00125393,-0
 .00001093,-0.00060910,-0.02026873,0.01178575,0.03748856,0.00002084,-0.
 00685216,-0.02025547,-0.00030399,-0.00023852,-0.00008504,-0.04421525,-
 0.00468936,-0.00917325,0.00044760,-0.00144056,-0.00736403,0.00002579,0
 .00011614,-0.00014026,0.00001182,0.00012152,-0.00023787,-0.00003730,-0
 .00002378,-0.00010803,0.00001943,-0.00001466,-0.00004259,-0.00008449,0
 .00001893,-0.00007160,-0.00039531,-0.00025911,0.00047324,-0.00056432,0
 .00019433,0.00003959,0.00005109,-0.00010381,-0.00003888,0.00015507,0.0
 0000110,0.00020520,-0.00029268,-0.00003522,0.00037010,-0.00242576,-0.0
 0338877,-0.00055053,0.00071908,0.00039915,0.00075573,-0.00002640,0.000
 05543,-0.00005061,-0.00001105,-0.00000645,0.00015324,0.06408130,-0.000
 16329,0.00000100,0.00001069,0.00023399,0.00058982,0.00003070,-0.000033
 22,-0.00000109,-0.00003339,-0.00202349,0.00142433,-0.00131979,-0.00159
 028,-0.00295121,0.00089904,0.00020123,0.00024547,-0.00039621,0.0010456
 2,0.00052036,-0.00017998,0.01070908,-0.00068292,-0.01107908,-0.0032968
 8,-0.00907823,-0.02673778,-0.00014958,-0.00022546,0.00005397,-0.004556
 10,-0.07328637,-0.07060491,0.00185833,0.00554605,0.02866694,-0.0000211
 3,0.00000207,-0.00001416,0.00011517,0.00006005,-0.00006035,0.00002520,
 0.00001634,0.00000322,-0.00000534,0.00000265,0.00000102,0.00002476,-0.
 00001315,0.00001013,0.00034168,0.00015218,-0.00046857,0.00019050,-0.00
 005851,0.00000434,-0.00000099,0.00003689,0.00000946,0.00001811,-0.0000
 0348,0.00045649,-0.00038448,0.00035682,0.00046527,-0.00348748,-0.00328
 410,-0.00080106,0.00100692,0.00104481,0.00031190,0.00001637,0.00009977
 ,-0.00005225,-0.00005042,-0.00008344,-0.00002819,-0.00192593,0.0818859
 3,-0.00011801,0.00010543,-0.00016781,0.00052006,0.00063105,0.00014823,
 0.00002631,-0.00009973,-0.00004209,-0.00002918,-0.00088123,0.00298502,
 -0.00161005,-0.00289795,0.00143196,0.00019473,0.00037768,-0.00025217,-
 0.00010571,-0.00002179,0.00002492,0.01063340,-0.00248743,-0.00273065,-
 0.00051664,-0.00128504,-0.00382975,-0.00002551,0.00014271,0.00013787,-
 0.00620052,-0.07042285,-0.28096745,-0.00082858,-0.00460273,-0.02250073
 ,-0.00003104,-0.00003586,0.00003919,0.00033403,0.00009982,-0.00004716,
 0.00001985,0.00001574,0.00002814,0.00001592,0.00003137,-0.00004787,0.0
 0006587,0.00000671,0.00002679,-0.00009835,0.00006753,0.00003655,0.0002
 0253,-0.00007294,-0.00003098,-0.00003196,0.00002981,0.00002310,-0.0002
 1771,0.00005760,0.00018392,-0.00040837,0.00019081,0.00011152,-0.000224
 42,-0.00037514,0.00102075,-0.00012254,-0.00026498,0.00065167,-0.000044
 49,0.00000065,-0.00000523,0.00020821,-0.00003523,-0.00011780,-0.000791
 60,0.07852769,0.30427007,-0.00038071,-0.00017266,-0.00018612,-0.004183
 34,0.00003079,-0.00017597,0.00002875,-0.00002320,-0.00004998,-0.031646
 38,-0.02485069,-0.00267946,0.00056304,0.00096884,0.00034118,-0.0000781
 8,-0.00014389,0.00016000,-0.00065012,-0.00019365,-0.00016817,0.0004816
 1,-0.00152611,0.00008175,-0.00068608,0.00246350,-0.00171735,-0.0025869
 9,0.00435372,0.00308752,0.00905171,0.00798644,0.00263869,-0.13792487,-
 0.12632921,-0.01992939,-0.00004180,0.00003567,0.00000186,0.00011316,0.
 00000931,0.00001187,0.00000693,0.00001446,0.00001905,-0.00000536,0.000
 00218,0.00000261,0.00002485,-0.00001417,0.00001349,0.00016600,-0.00009
 777,0.00007554,-0.00001306,0.00001026,-0.00000207,0.00003358,-0.000053
 84,-0.00000972,0.00012709,-0.00020970,0.00010021,0.00006855,-0.0000262
 0,0.00001988,-0.00010824,-0.00011955,-0.00005574,0.00061822,0.00078554
 ,-0.00011358,-0.00117836,-0.00118858,-0.00001820,0.00012330,0.00004824
 ,-0.00018636,0.00019378,-0.00054478,0.00021756,0.16655512,0.00048976,0
 .00026401,0.00094034,-0.00244487,0.00128187,-0.00003526,-0.00003827,-0
 .00003754,0.00005145,0.00998831,0.01348266,0.00193015,0.00025769,-0.00
 229091,-0.00018633,0.00012687,0.00016204,-0.00014301,0.00072132,0.0002
 1777,-0.00016745,0.00093169,0.00131866,-0.00073787,0.00283004,-0.00288
 850,0.00411348,0.00261883,0.00011432,-0.00065582,-0.01613534,-0.019040
 07,-0.00472082,-0.13446136,-0.23175105,-0.02847443,-0.00011316,-0.0000
 0724,-0.00024780,0.00005858,0.00000048,-0.00010400,-0.00004056,-0.0000
 5649,-0.00004494,0.00000534,0.00000598,-0.00001448,-0.00002168,0.00002
 390,-0.00001284,-0.00000124,-0.00010897,-0.00010566,0.00003393,-0.0000
 1743,-0.00000752,-0.00004667,0.00008110,0.00001387,-0.00017709,0.00011
 861,-0.00009420,-0.00007991,0.00003996,0.00003139,0.00021016,0.0003349
 1,0.00002447,-0.00123459,-0.00125766,-0.00000845,0.00049420,0.00040894
 ,0.00003489,0.00004467,0.00000411,0.00011125,0.00011379,0.00126579,0.0
 0002514,0.13950556,0.24286426,0.00007671,0.00003225,0.00021707,-0.0002
 0830,-0.00001700,-0.00009498,-0.00000820,0.00001387,0.00002058,0.01069
 569,0.00885609,0.00197504,-0.00016773,0.00005601,0.00040774,-0.0000331
 1,-0.00003932,-0.00003969,0.00000982,0.00008725,0.00008453,-0.00011616
 ,-0.00119890,0.00035554,-0.00188897,0.00192764,-0.00185932,0.00058617,
 -0.00097965,-0.00061191,0.01243667,0.01727658,0.00250546,-0.02437587,-
 0.03167902,-0.05933405,-0.00000942,0.00002804,-0.00006329,0.00005097,0
 .00002537,-0.00008986,-0.00000273,-0.00001152,-0.00000754,0.00000027,0
 .00000045,-0.00000607,-0.00001028,0.00000071,-0.00001289,-0.00036855,0
 .00003997,-0.00012837,-0.00001068,0.00000409,0.00000616,-0.00000342,0.
 00000817,0.00000569,0.00001349,0.00002803,-0.00003561,0.00003460,-0.00
 005522,-0.00001661,0.00009602,0.00032259,0.00030104,0.00053808,0.00091
 267,0.00032562,0.00022738,0.00022104,0.00038899,0.00024963,0.00033376,
 0.00047659,0.00044026,-0.00077748,0.00087771,0.01948348,0.02898490,0.0
 5641072,0.00004209,0.00000392,-0.00012021,0.00021525,0.00006079,0.0006
 3544,0.00003249,-0.00000431,-0.00001323,-0.01675255,0.01277664,0.03817
 706,-0.00115036,0.00039105,-0.00011412,0.00000369,0.00007751,0.0000502
 0,-0.00045999,-0.00038551,-0.00031546,0.00037405,-0.00064476,0.0012975
 2,0.00011155,-0.00072883,0.00074544,0.00390834,0.00403777,0.00420598,0
 .00189036,-0.00402277,-0.01067541,-0.04980071,-0.00934989,-0.02130682,
 0.00001033,-0.00000679,0.00003520,0.00002603,-0.00001250,0.00002630,0.
 00000814,0.00000683,0.00001583,0.00000107,-0.00000104,-0.00000195,0.00
 000925,-0.00000277,0.00000901,-0.00332820,0.00098900,0.00001521,-0.000
 00348,0.00000575,-0.00000613,-0.00000972,0.00000908,-0.00000487,0.0001
 2877,-0.00026338,0.00001532,-0.00008293,0.00007502,-0.00014516,0.00022
 217,0.00011313,0.00035465,-0.00012062,0.00002047,0.00010457,0.00012612
 ,0.00006039,-0.00032516,0.00035508,-0.00028557,-0.00140042,-0.00029311
 ,0.00241417,-0.00106164,0.00127872,-0.00354495,-0.01773159,0.06325301,
 0.00004868,-0.00000775,0.00009057,-0.00042189,0.00015673,0.00026415,0.
 00000229,-0.00002697,-0.00000390,0.00809545,-0.00238965,-0.01432210,0.
 00058878,-0.00014288,-0.00124747,0.00002355,0.00008472,0.00006615,0.00
 011552,-0.00015082,0.00013449,-0.00079199,0.00068719,-0.00142915,0.000
 35876,0.00197438,0.00080209,-0.00199076,-0.00035825,0.00177797,0.00066
 927,0.00611037,0.02669269,-0.00794872,-0.06937619,-0.05902811,-0.00001
 160,-0.00000961,-0.00002313,-0.00000519,-0.00001202,-0.00000021,0.0000
 0190,0.00000297,-0.00000007,0.00000251,-0.00000115,0.00001346,0.000002
 93,-0.00000166,0.00001318,0.00184256,0.00006295,0.00022487,0.00001721,
 -0.00001189,0.00000008,-0.00000653,0.00000090,-0.00000186,-0.00004394,
 0.00010108,-0.00006557,-0.00001080,-0.00005124,-0.00017150,0.00004784,
 -0.00040119,-0.00046590,0.00010687,0.00010420,-0.00038758,0.00011041,0
 .00000387,0.00018558,0.00036013,0.00059647,0.00033154,0.00133951,-0.00
 357848,0.00315971,-0.00071082,-0.00459848,-0.02439836,-0.00178842,0.07
 122290,0.00004721,0.00011887,-0.00002067,-0.00043290,0.00006426,0.0002
 1510,0.00014601,-0.00014970,-0.00012268,0.01304593,-0.00664348,-0.0102
 6239,0.00095804,-0.00011097,-0.00229676,0.00009317,0.00001299,0.000733
 67,0.00030913,0.00011408,0.00010454,-0.00131586,0.00050584,0.00081868,
 -0.00028035,-0.00141144,0.00085729,-0.00203884,-0.00077332,0.00119318,
 -0.00156292,-0.00575000,-0.02032255,-0.01751270,-0.05783304,-0.2794769
 6,-0.00002730,-0.00002439,0.00000186,0.00002408,-0.00000130,0.00004173
 ,0.00001623,-0.00000024,0.00004225,-0.00000250,-0.00001015,0.00002336,
 0.00005236,0.00000061,0.00006916,0.00130716,-0.00045128,0.00155418,-0.
 00006091,0.00003712,0.00000192,0.00000393,-0.00002247,-0.00001299,0.00
 008476,0.00008974,-0.00004231,-0.00018571,-0.00008273,-0.00009412,0.00
 051116,0.00070301,0.00050425,-0.00018383,0.00009147,0.00041266,0.00016
 912,0.00018144,0.00047358,0.00094139,0.00093310,0.00008822,-0.00068862
 ,0.00310498,-0.00125236,-0.00095598,-0.00049798,-0.00205641,0.00753601
 ,0.06778962,0.30882263,-0.01157800,-0.00343603,-0.02398654,-0.00705402
 ,0.00335923,-0.00124173,-0.00451791,-0.00060015,-0.00538333,-0.0001693
 3,-0.00002571,-0.00000517,0.00128381,0.00201207,0.00049989,0.00092584,
 -0.00166305,0.00042275,-0.00000511,-0.00003386,-0.00001687,-0.00053540
 ,-0.00038495,0.00032479,-0.00003959,0.00004105,0.00002804,0.00002892,0
 .00004921,0.00002959,0.00032471,-0.00004772,-0.00012762,0.00007159,0.0
 0007471,0.00003673,-0.12466108,-0.00115414,-0.11820774,0.00077106,-0.0
 0087024,0.00057454,0.00084134,0.00024312,0.00015982,0.00006472,0.00024
 416,0.00004692,0.00034796,-0.00019491,0.00029321,-0.00002397,-0.000194
 75,-0.00006867,-0.00008569,0.00006952,-0.00030246,-0.00003955,0.000146
 14,-0.00040618,-0.00001800,-0.00000166,0.00000298,-0.00000214,0.000003
 11,0.00000379,0.00000154,0.00000203,-0.00000361,-0.00000062,-0.0000097
 0,0.00000193,-0.00001598,-0.00000518,-0.00000189,0.00000009,-0.0000058
 8,-0.00000650,-0.00004540,0.00001630,0.00002784,0.00002736,-0.00009458
 ,-0.00001517,0.00000991,-0.00000556,0.00000413,0.13344246,0.00607148,0
 .00103335,0.01665784,0.00629905,-0.00102556,0.00109226,-0.01822787,0.0
 0054216,-0.02786043,0.00005565,0.00004879,0.00000959,0.00014810,-0.002
 17269,-0.00042522,-0.00110148,-0.00673117,-0.00050996,-0.00000012,-0.0
 0000082,0.00000280,0.00001751,0.00044977,-0.00004717,-0.00000060,0.000
 00740,-0.00000497,0.00000015,-0.00002045,-0.00000830,-0.00002847,-0.00
 003091,0.00003701,-0.00004125,-0.00010295,-0.00002197,-0.00062870,-0.0
 4667804,-0.00249909,-0.00036051,0.00064335,-0.00033267,-0.00101874,0.0
 0010249,-0.00001976,0.00024512,0.00144771,0.00069232,0.00080290,0.0013
 2945,0.00034858,-0.00005777,0.00032362,0.00015308,0.00019539,0.0000303
 1,-0.00000759,-0.00142209,0.00003313,-0.00154590,0.00000036,0.00000196
 ,-0.00000091,-0.00000033,0.00000002,-0.00000066,0.00000110,-0.00000070
 ,0.00000100,0.00000163,0.00000225,-0.00000034,0.00000583,0.00000443,0.
 00000010,0.00000025,0.00000150,0.00000160,-0.00001627,0.00000366,0.000
 00488,0.00000073,0.00006606,0.00000495,-0.00000359,0.00000789,0.000010
 69,0.00166849,0.05121135,0.00321935,0.00055643,0.00320704,0.00074994,-
 0.00077184,0.00169391,-0.00255242,0.00064236,-0.00556781,-0.00006094,0
 .00001132,-0.00000178,0.00076101,-0.00009167,-0.00014938,-0.00016345,-
 0.00217365,0.00111987,-0.00000282,-0.00001839,-0.00000861,-0.00030465,
 0.00000546,0.00010084,-0.00002248,0.00002460,0.00001193,0.00001525,0.0
 0001650,0.00001187,0.00016773,-0.00002981,-0.00004503,0.00001922,-0.00
 001067,0.00001305,-0.12051832,-0.00273799,-0.23909336,-0.00051054,0.00
 043921,0.00033265,-0.00049988,0.00026537,0.00012514,0.00001588,-0.0002
 6067,0.00068595,0.00024958,-0.00004984,-0.00006583,-0.00003395,0.00011
 929,-0.00001278,0.00024584,0.00003322,0.00035343,-0.00065383,0.0001419
 2,-0.00032787,-0.00000972,0.00000004,0.00000113,-0.00000060,0.00000142
 ,0.00000163,0.00000103,0.00000002,-0.00000168,0.00000068,-0.00000314,0
 .00000078,-0.00000539,-0.00000050,-0.00000074,0.00000020,-0.00000271,-
 0.00000289,-0.00002585,0.00001248,0.00001653,0.00000690,-0.00001714,-0
 .00000209,-0.00000022,0.,0.00000464,0.13224015,0.00419804,0.25640661,-
 0.01818169,-0.01017910,0.02298799,0.00297294,-0.00069622,-0.00073364,-
 0.00429916,-0.00313357,0.00518224,-0.00002820,0.00001842,-0.00000380,-
 0.00026809,-0.00003016,0.00013689,-0.00005774,0.00007456,0.00059632,0.
 00000067,-0.00000986,-0.00000253,-0.00007335,-0.00007205,-0.00019639,-
 0.00000726,0.00001275,-0.00000734,0.00001082,0.00000504,0.00000716,0.0
 0017484,-0.00002711,-0.00003109,0.00002230,-0.00003591,0.00001935,-0.1
 2712196,-0.05775375,0.10193071,-0.00395436,0.00340801,0.00041076,0.001
 30553,-0.00010315,-0.00065323,0.00062783,-0.00128720,-0.00038481,0.000
 51997,0.00005942,-0.00041958,-0.00006677,-0.00002543,-0.00001179,-0.00
 020095,-0.00010319,-0.00031184,0.00010784,0.00004866,-0.00015979,-0.00
 000632,0.00000022,0.00000059,-0.00000119,0.00000133,0.00000062,-0.0000
 0420,-0.00000371,-0.00000115,0.00000066,-0.00000163,0.00000072,-0.0000
 0230,0.00000102,-0.00000049,-0.00000002,-0.00000126,-0.00000211,0.0000
 2477,0.00001594,0.,0.00002174,0.00000355,0.00001095,-0.00000473,0.0000
 0207,-0.00000139,0.01065049,0.00739408,-0.01232772,0.13783792,0.012473
 77,0.00714403,-0.01655936,-0.00213852,0.00030045,0.00021741,-0.0181024
 4,-0.01558199,0.02411201,-0.00002009,0.00000823,-0.00000074,0.00001549
 ,-0.00035601,-0.00017307,0.00075883,0.00128865,0.00114187,-0.00000144,
 -0.00000427,-0.00000285,-0.00005641,0.00019138,0.00012230,-0.00000981,
 0.00000839,0.00001594,0.00000362,0.00000434,0.00000197,-0.00001137,0.0
 0001883,-0.00008991,-0.00002674,-0.00000198,0.00000353,-0.05828857,-0.
 08860893,0.07673460,0.00392255,-0.00143690,-0.00002349,-0.00092874,0.0
 0099449,-0.00012616,-0.00176047,-0.00562971,-0.00239327,0.00073943,0.0
 0129940,0.00017174,-0.00008790,0.00009635,0.00003109,-0.00008797,0.000
 28617,-0.00074597,0.00042563,0.00008637,-0.00022910,-0.00000182,0.0000
 0015,0.00000050,-0.00000030,0.00000020,0.00000032,0.00000491,0.0000029
 8,-0.00000160,0.00000156,0.00000034,-0.00000089,-0.00000131,-0.0000004
 2,0.00000003,-0.00000041,-0.00000087,-0.00000073,-0.00003178,-0.000007
 57,0.00000855,-0.00001042,-0.00000108,-0.00000796,0.00000358,0.0000016
 2,0.00000467,0.00079893,-0.00052735,-0.00029965,0.06241822,0.10042469,
 0.00200061,0.00153904,-0.00576582,0.00003307,0.00013876,0.00216953,-0.
 00525093,-0.00306175,0.00574837,0.00005105,-0.00000598,-0.00000111,-0.
 00020827,-0.00051443,-0.00006297,-0.00021790,-0.00015807,0.00106647,0.
 00000459,0.00001572,0.00000683,0.00036547,0.00017601,-0.00005634,0.000
 01837,-0.00002060,-0.00000705,-0.00001281,-0.00001320,-0.00001128,-0.0
 0021812,0.00006844,0.00004269,-0.00002630,0.00000692,-0.00000567,0.103
 98617,0.07589112,-0.18810117,0.00067597,-0.00104963,0.00119561,-0.0000
 1363,-0.00028875,0.00016066,-0.00092124,-0.00171044,0.00072689,0.00010
 281,0.00068021,0.00041832,0.00006920,0.00006286,0.00000195,0.00037516,
 0.00001572,0.00002501,0.00014456,0.00006883,0.00013488,0.00000815,0.00
 000025,-0.00000104,0.00000026,-0.00000134,-0.00000102,0.00000066,-0.00
 000053,0.00000186,-0.00000028,0.00000180,-0.00000131,0.00000473,0.0000
 0026,0.00000058,-0.00000035,0.00000209,0.00000269,0.00000306,-0.000015
 11,-0.00002190,-0.00001349,0.00001463,0.00000021,-0.00000135,-0.000001
 24,-0.00000269,0.01507637,0.01007022,-0.01880713,-0.11603562,-0.081911
 78,0.20114395\\0.00001022,0.00000493,0.00000741,-0.00000571,-0.0000281
 6,-0.00000766,-0.00001077,0.00000689,-0.00000192,-0.00000281,-0.000017
 14,-0.00000336,0.00050577,0.00091597,0.00097924,-0.00000875,0.00000447
 ,0.00000193,0.00000134,-0.00000645,0.00000549,-0.00072455,-0.00143069,
 -0.00105066,0.00011190,-0.00027405,0.00114173,0.00000508,0.00001541,0.
 00000339,0.00009605,0.00082517,-0.00106809,-0.00000331,-0.00001386,0.0
 0000362,-0.00000067,0.00000541,-0.00000201,-0.00000441,0.00000009,-0.0
 0000127,-0.00000055,0.00000292,-0.00000198,0.00000106,-0.00000155,0.00
 000739,0.00000307,0.00000201,-0.00000308,0.00000496,-0.00000380,-0.000
 01521,0.00000136,0.00000129,-0.00000788,0.00000371,-0.00000008,0.00000
 692,0.00000852,-0.00000259,0.00000138,-0.00000195,0.00000107,0.0000049
 0,0.00000011,-0.00000247,-0.00000142,0.00000529,-0.00000114,0.00000514
 ,-0.00000495,-0.00000242,-0.00000047,0.00000102,-0.00000366,-0.0000041
 4,0.00000271,-0.00000400,0.00000587,0.00000735,0.00000504,0.00000251,-
 0.00000238,0.00000118,-0.00000128,-0.00000101,-0.00000448,-0.00000320,
 0.00000231,0.00000469,-0.00000332\\\@


 ONLY THE DAY DAWNS TO WHICH YOU ARE AWAKE.

                                 -- THOREAU
 Job cpu time:       0 days 14 hours 24 minutes 15.8 seconds.
 Elapsed time:       0 days  0 hours 54 minutes  2.4 seconds.
 File lengths (MBytes):  RWF=    690 Int=      0 D2E=      0 Chk=     33 Scr=      1
 Normal termination of Gaussian 16 at Sun Nov  4 22:49:06 2018.
