 Entering Gaussian System, Link 0=g16
 Initial command:
 /apps/gaussian/g16a03/g16/l1.exe "/jobfs/local/2012064.r-man2/Gau-21698.inp" -scrdir="/jobfs/local/2012064.r-man2/"
 Entering Link 1 = /apps/gaussian/g16a03/g16/l1.exe PID=     21699.
  
 Copyright (c) 1988,1990,1992,1993,1995,1998,2003,2009,2016,
            Gaussian, Inc.  All Rights Reserved.
  
 This is part of the Gaussian(R) 16 program.  It is based on
 the Gaussian(R) 09 system (copyright 2009, Gaussian, Inc.),
 the Gaussian(R) 03 system (copyright 2003, Gaussian, Inc.),
 the Gaussian(R) 98 system (copyright 1998, Gaussian, Inc.),
 the Gaussian(R) 94 system (copyright 1995, Gaussian, Inc.),
 the Gaussian 92(TM) system (copyright 1992, Gaussian, Inc.),
 the Gaussian 90(TM) system (copyright 1990, Gaussian, Inc.),
 the Gaussian 88(TM) system (copyright 1988, Gaussian, Inc.),
 the Gaussian 86(TM) system (copyright 1986, Carnegie Mellon
 University), and the Gaussian 82(TM) system (copyright 1983,
 Carnegie Mellon University). Gaussian is a federally registered
 trademark of Gaussian, Inc.
  
 This software contains proprietary and confidential information,
 including trade secrets, belonging to Gaussian, Inc.
  
 This software is provided under written license and may be
 used, copied, transmitted, or stored only in accord with that
 written license.
  
 The following legend is applicable only to US Government
 contracts under FAR:
  
                    RESTRICTED RIGHTS LEGEND
  
 Use, reproduction and disclosure by the US Government is
 subject to restrictions as set forth in subparagraphs (a)
 and (c) of the Commercial Computer Software - Restricted
 Rights clause in FAR 52.227-19.
  
 Gaussian, Inc.
 340 Quinnipiac St., Bldg. 40, Wallingford CT 06492
  
  
 ---------------------------------------------------------------
 Warning -- This program may not be used in any manner that
 competes with the business of Gaussian, Inc. or will provide
 assistance to any competitor of Gaussian, Inc.  The licensee
 of this program is prohibited from giving any competitor of
 Gaussian, Inc. access to this program.  By using this program,
 the user acknowledges that Gaussian, Inc. is engaged in the
 business of creating and licensing software in the field of
 computational chemistry and represents and warrants to the
 licensee that it is not a competitor of Gaussian, Inc. and that
 it will not use this program in any manner prohibited above.
 ---------------------------------------------------------------
  

 Cite this work as:
 Gaussian 16, Revision A.03,
 M. J. Frisch, G. W. Trucks, H. B. Schlegel, G. E. Scuseria, 
 M. A. Robb, J. R. Cheeseman, G. Scalmani, V. Barone, 
 G. A. Petersson, H. Nakatsuji, X. Li, M. Caricato, A. V. Marenich, 
 J. Bloino, B. G. Janesko, R. Gomperts, B. Mennucci, H. P. Hratchian, 
 J. V. Ortiz, A. F. Izmaylov, J. L. Sonnenberg, D. Williams-Young, 
 F. Ding, F. Lipparini, F. Egidi, J. Goings, B. Peng, A. Petrone, 
 T. Henderson, D. Ranasinghe, V. G. Zakrzewski, J. Gao, N. Rega, 
 G. Zheng, W. Liang, M. Hada, M. Ehara, K. Toyota, R. Fukuda, 
 J. Hasegawa, M. Ishida, T. Nakajima, Y. Honda, O. Kitao, H. Nakai, 
 T. Vreven, K. Throssell, J. A. Montgomery, Jr., J. E. Peralta, 
 F. Ogliaro, M. J. Bearpark, J. J. Heyd, E. N. Brothers, K. N. Kudin, 
 V. N. Staroverov, T. A. Keith, R. Kobayashi, J. Normand, 
 K. Raghavachari, A. P. Rendell, J. C. Burant, S. S. Iyengar, 
 J. Tomasi, M. Cossi, J. M. Millam, M. Klene, C. Adamo, R. Cammi, 
 J. W. Ochterski, R. L. Martin, K. Morokuma, O. Farkas, 
 J. B. Foresman, and D. J. Fox, Gaussian, Inc., Wallingford CT, 2016.
 
 ******************************************
 Gaussian 16:  ES64L-G16RevA.03 25-Dec-2016
                 4-Nov-2018 
 ******************************************
 %mem=6000mb
 %nproc=24
 Will use up to   24 processors via shared memory.
 %chk=L_a1-e4_D_PSI.inp_extract_11.chk
 ----------------------------------------------------------------------
 #M062X/6-311++G(2d,2p) opt=ModRedundant freq=noraman SCRF=(Solvent=Wat
 er)
 ----------------------------------------------------------------------
 1/18=120,19=15,26=3,38=1/1,3;
 2/9=110,12=2,17=6,18=5,40=1/2;
 3/5=4,6=6,7=1212,11=2,25=1,30=1,70=2201,71=1,72=1,74=-55/1,2,3;
 4//1;
 5/5=2,38=5,53=1/2;
 6/7=2,8=2,9=2,10=2,28=1/1;
 7//1,2,3,16;
 1/18=20,19=15,26=3/3(2);
 2/9=110/2;
 99//99;
 2/9=110/2;
 3/5=4,6=6,7=1212,11=2,25=1,30=1,70=2205,71=1,72=1,74=-55/1,2,3;
 4/5=5,16=3,69=1/1;
 5/5=2,38=5,53=1/2;
 7//1,2,3,16;
 1/18=20,19=15,26=3/3(-5);
 2/9=110/2;
 6/7=2,8=2,9=2,10=2,19=2,28=1/1;
 99/9=1/99;
 ----------------------------
 L_a1-e4_D_PSI.inp_extract_11
 ----------------------------
 Symbolic Z-matrix:
 Charge =  0 Multiplicity = 1
 C                    -2.10787  -1.44231   0.35166 
 O                    -1.3112   -0.51378   1.076 
 C                    -3.32195   0.46163  -0.71635 
 O                     2.80298  -1.28793  -0.56053 
 C                    -1.09761   0.73046   0.46303 
 C                    -2.41503   1.39436   0.08698 
 C                     3.34419   0.94499   0.205 
 O                    -0.32093   0.61738  -0.69553 
 C                     1.85071   1.26257   0.33533 
 C                     3.58542  -0.54848   0.35961 
 C                     1.07889   0.38046  -0.6412 
 C                     1.41288  -1.09027  -0.40001 
 C                    -3.47527  -0.86629   0.02487 
 H                    -1.59019  -1.73164  -0.55601 
 H                    -2.1859   -2.3138    0.98688 
 H                    -2.8992    0.28423  -1.70166 
 H                    -4.28989   0.92997  -0.86636 
 H                    -0.58099   1.31935   1.20269 
 H                    -2.91217   1.66961   1.01328 
 H                    -2.2047    2.31057  -0.45387 
 H                     3.91095   1.47962   0.96128 
 H                     3.71067   1.26748  -0.76609 
 H                     1.54055   1.0645    1.35667 
 H                     1.65883   2.31088   0.128 
 H                     4.61633  -0.80456   0.15694 
 H                     3.344    -0.87187   1.36971 
 H                     1.4097    0.6198   -1.64456 
 H                     0.92193  -1.71821  -1.13017 
 H                     1.1156   -1.40672   0.5937 
 H                    -4.02916  -1.58602  -0.57124 
 H                    -4.02931  -0.71127   0.94785 
 
 The following ModRedundant input section has been read:
 D       5       8      11       9 F                                           
 

 GradGradGradGradGradGradGradGradGradGradGradGradGradGradGradGradGradGrad
 Berny optimization.
 Initialization pass.
                           ----------------------------
                           !    Initial Parameters    !
                           ! (Angstroms and Degrees)  !
 --------------------------                            --------------------------
 ! Name  Definition              Value          Derivative Info.                !
 --------------------------------------------------------------------------------
 ! R1    R(1,2)                  1.4218         estimate D2E/DX2                !
 ! R2    R(1,13)                 1.5193         estimate D2E/DX2                !
 ! R3    R(1,14)                 1.0842         estimate D2E/DX2                !
 ! R4    R(1,15)                 1.0812         estimate D2E/DX2                !
 ! R5    R(2,5)                  1.4034         estimate D2E/DX2                !
 ! R6    R(3,6)                  1.529          estimate D2E/DX2                !
 ! R7    R(3,13)                 1.5285         estimate D2E/DX2                !
 ! R8    R(3,16)                 1.0867         estimate D2E/DX2                !
 ! R9    R(3,17)                 1.0857         estimate D2E/DX2                !
 ! R10   R(4,10)                 1.4162         estimate D2E/DX2                !
 ! R11   R(4,12)                 1.4132         estimate D2E/DX2                !
 ! R12   R(5,6)                  1.5224         estimate D2E/DX2                !
 ! R13   R(5,8)                  1.3994         estimate D2E/DX2                !
 ! R14   R(5,18)                 1.0774         estimate D2E/DX2                !
 ! R15   R(6,19)                 1.0867         estimate D2E/DX2                !
 ! R16   R(6,20)                 1.0845         estimate D2E/DX2                !
 ! R17   R(7,9)                  1.5324         estimate D2E/DX2                !
 ! R18   R(7,10)                 1.5207         estimate D2E/DX2                !
 ! R19   R(7,21)                 1.0858         estimate D2E/DX2                !
 ! R20   R(7,22)                 1.0869         estimate D2E/DX2                !
 ! R21   R(8,11)                 1.4208         estimate D2E/DX2                !
 ! R22   R(9,11)                 1.5256         estimate D2E/DX2                !
 ! R23   R(9,23)                 1.0856         estimate D2E/DX2                !
 ! R24   R(9,24)                 1.0857         estimate D2E/DX2                !
 ! R25   R(10,25)                1.0814         estimate D2E/DX2                !
 ! R26   R(10,26)                1.0877         estimate D2E/DX2                !
 ! R27   R(11,12)                1.5273         estimate D2E/DX2                !
 ! R28   R(11,27)                1.0833         estimate D2E/DX2                !
 ! R29   R(12,28)                1.081          estimate D2E/DX2                !
 ! R30   R(12,29)                1.0844         estimate D2E/DX2                !
 ! R31   R(13,30)                1.0864         estimate D2E/DX2                !
 ! R32   R(13,31)                1.0876         estimate D2E/DX2                !
 ! A1    A(2,1,13)             111.4864         estimate D2E/DX2                !
 ! A2    A(2,1,14)             109.4645         estimate D2E/DX2                !
 ! A3    A(2,1,15)             105.5158         estimate D2E/DX2                !
 ! A4    A(13,1,14)            110.538          estimate D2E/DX2                !
 ! A5    A(13,1,15)            111.5304         estimate D2E/DX2                !
 ! A6    A(14,1,15)            108.1309         estimate D2E/DX2                !
 ! A7    A(1,2,5)              116.2165         estimate D2E/DX2                !
 ! A8    A(6,3,13)             109.5537         estimate D2E/DX2                !
 ! A9    A(6,3,16)             110.1941         estimate D2E/DX2                !
 ! A10   A(6,3,17)             109.7706         estimate D2E/DX2                !
 ! A11   A(13,3,16)            109.6864         estimate D2E/DX2                !
 ! A12   A(13,3,17)            110.6304         estimate D2E/DX2                !
 ! A13   A(16,3,17)            106.9752         estimate D2E/DX2                !
 ! A14   A(10,4,12)            113.3674         estimate D2E/DX2                !
 ! A15   A(2,5,6)              111.2731         estimate D2E/DX2                !
 ! A16   A(2,5,8)              111.9895         estimate D2E/DX2                !
 ! A17   A(2,5,18)             104.935          estimate D2E/DX2                !
 ! A18   A(6,5,8)              108.121          estimate D2E/DX2                !
 ! A19   A(6,5,18)             110.2526         estimate D2E/DX2                !
 ! A20   A(8,5,18)             110.268          estimate D2E/DX2                !
 ! A21   A(3,6,5)              112.1501         estimate D2E/DX2                !
 ! A22   A(3,6,19)             109.3298         estimate D2E/DX2                !
 ! A23   A(3,6,20)             111.6153         estimate D2E/DX2                !
 ! A24   A(5,6,19)             107.2044         estimate D2E/DX2                !
 ! A25   A(5,6,20)             108.8903         estimate D2E/DX2                !
 ! A26   A(19,6,20)            107.4472         estimate D2E/DX2                !
 ! A27   A(9,7,10)             110.456          estimate D2E/DX2                !
 ! A28   A(9,7,21)             110.3299         estimate D2E/DX2                !
 ! A29   A(9,7,22)             110.0662         estimate D2E/DX2                !
 ! A30   A(10,7,21)            109.2655         estimate D2E/DX2                !
 ! A31   A(10,7,22)            109.1929         estimate D2E/DX2                !
 ! A32   A(21,7,22)            107.4696         estimate D2E/DX2                !
 ! A33   A(5,8,11)             121.9144         estimate D2E/DX2                !
 ! A34   A(7,9,11)             108.5898         estimate D2E/DX2                !
 ! A35   A(7,9,23)             108.7013         estimate D2E/DX2                !
 ! A36   A(7,9,24)             110.8613         estimate D2E/DX2                !
 ! A37   A(11,9,23)            110.6199         estimate D2E/DX2                !
 ! A38   A(11,9,24)            110.2827         estimate D2E/DX2                !
 ! A39   A(23,9,24)            107.7775         estimate D2E/DX2                !
 ! A40   A(4,10,7)             111.0437         estimate D2E/DX2                !
 ! A41   A(4,10,25)            106.3372         estimate D2E/DX2                !
 ! A42   A(4,10,26)            108.995          estimate D2E/DX2                !
 ! A43   A(7,10,25)            111.3914         estimate D2E/DX2                !
 ! A44   A(7,10,26)            110.5596         estimate D2E/DX2                !
 ! A45   A(25,10,26)           108.3741         estimate D2E/DX2                !
 ! A46   A(8,11,9)             115.2467         estimate D2E/DX2                !
 ! A47   A(8,11,12)            112.4613         estimate D2E/DX2                !
 ! A48   A(8,11,27)            103.2158         estimate D2E/DX2                !
 ! A49   A(9,11,12)            110.1859         estimate D2E/DX2                !
 ! A50   A(9,11,27)            108.0976         estimate D2E/DX2                !
 ! A51   A(12,11,27)           106.9922         estimate D2E/DX2                !
 ! A52   A(4,12,11)            109.3805         estimate D2E/DX2                !
 ! A53   A(4,12,28)            106.7846         estimate D2E/DX2                !
 ! A54   A(4,12,29)            109.4456         estimate D2E/DX2                !
 ! A55   A(11,12,28)           110.6951         estimate D2E/DX2                !
 ! A56   A(11,12,29)           111.4545         estimate D2E/DX2                !
 ! A57   A(28,12,29)           108.9622         estimate D2E/DX2                !
 ! A58   A(1,13,3)             110.0845         estimate D2E/DX2                !
 ! A59   A(1,13,30)            109.0095         estimate D2E/DX2                !
 ! A60   A(1,13,31)            109.2676         estimate D2E/DX2                !
 ! A61   A(3,13,30)            111.1393         estimate D2E/DX2                !
 ! A62   A(3,13,31)            109.8039         estimate D2E/DX2                !
 ! A63   A(30,13,31)           107.4791         estimate D2E/DX2                !
 ! D1    D(13,1,2,5)           -56.9788         estimate D2E/DX2                !
 ! D2    D(14,1,2,5)            65.637          estimate D2E/DX2                !
 ! D3    D(15,1,2,5)          -178.2175         estimate D2E/DX2                !
 ! D4    D(2,1,13,3)            54.9164         estimate D2E/DX2                !
 ! D5    D(2,1,13,30)          177.0643         estimate D2E/DX2                !
 ! D6    D(2,1,13,31)          -65.7446         estimate D2E/DX2                !
 ! D7    D(14,1,13,3)          -67.0815         estimate D2E/DX2                !
 ! D8    D(14,1,13,30)          55.0663         estimate D2E/DX2                !
 ! D9    D(14,1,13,31)         172.2575         estimate D2E/DX2                !
 ! D10   D(15,1,13,3)          172.5843         estimate D2E/DX2                !
 ! D11   D(15,1,13,30)         -65.2679         estimate D2E/DX2                !
 ! D12   D(15,1,13,31)          51.9233         estimate D2E/DX2                !
 ! D13   D(1,2,5,6)             54.4378         estimate D2E/DX2                !
 ! D14   D(1,2,5,8)            -66.7051         estimate D2E/DX2                !
 ! D15   D(1,2,5,18)           173.6672         estimate D2E/DX2                !
 ! D16   D(13,3,6,5)            51.9426         estimate D2E/DX2                !
 ! D17   D(13,3,6,19)          -66.8226         estimate D2E/DX2                !
 ! D18   D(13,3,6,20)          174.4421         estimate D2E/DX2                !
 ! D19   D(16,3,6,5)           -68.8239         estimate D2E/DX2                !
 ! D20   D(16,3,6,19)          172.411          estimate D2E/DX2                !
 ! D21   D(16,3,6,20)           53.6757         estimate D2E/DX2                !
 ! D22   D(17,3,6,5)           173.61           estimate D2E/DX2                !
 ! D23   D(17,3,6,19)           54.8448         estimate D2E/DX2                !
 ! D24   D(17,3,6,20)          -63.8905         estimate D2E/DX2                !
 ! D25   D(6,3,13,1)           -53.1719         estimate D2E/DX2                !
 ! D26   D(6,3,13,30)         -174.0501         estimate D2E/DX2                !
 ! D27   D(6,3,13,31)           67.1661         estimate D2E/DX2                !
 ! D28   D(16,3,13,1)           67.9021         estimate D2E/DX2                !
 ! D29   D(16,3,13,30)         -52.9762         estimate D2E/DX2                !
 ! D30   D(16,3,13,31)        -171.7599         estimate D2E/DX2                !
 ! D31   D(17,3,13,1)         -174.3212         estimate D2E/DX2                !
 ! D32   D(17,3,13,30)          64.8006         estimate D2E/DX2                !
 ! D33   D(17,3,13,31)         -53.9832         estimate D2E/DX2                !
 ! D34   D(12,4,10,7)          -60.3167         estimate D2E/DX2                !
 ! D35   D(12,4,10,25)         178.3497         estimate D2E/DX2                !
 ! D36   D(12,4,10,26)          61.7148         estimate D2E/DX2                !
 ! D37   D(10,4,12,11)          61.6673         estimate D2E/DX2                !
 ! D38   D(10,4,12,28)        -178.5048         estimate D2E/DX2                !
 ! D39   D(10,4,12,29)         -60.7025         estimate D2E/DX2                !
 ! D40   D(2,5,6,3)            -51.4026         estimate D2E/DX2                !
 ! D41   D(2,5,6,19)            68.6083         estimate D2E/DX2                !
 ! D42   D(2,5,6,20)          -175.435          estimate D2E/DX2                !
 ! D43   D(8,5,6,3)             71.9781         estimate D2E/DX2                !
 ! D44   D(8,5,6,19)          -168.011          estimate D2E/DX2                !
 ! D45   D(8,5,6,20)           -52.0543         estimate D2E/DX2                !
 ! D46   D(18,5,6,3)          -167.4076         estimate D2E/DX2                !
 ! D47   D(18,5,6,19)          -47.3966         estimate D2E/DX2                !
 ! D48   D(18,5,6,20)           68.56           estimate D2E/DX2                !
 ! D49   D(2,5,8,11)           -74.3338         estimate D2E/DX2                !
 ! D50   D(6,5,8,11)           162.7202         estimate D2E/DX2                !
 ! D51   D(18,5,8,11)           42.1155         estimate D2E/DX2                !
 ! D52   D(10,7,9,11)          -53.0412         estimate D2E/DX2                !
 ! D53   D(10,7,9,23)           67.3642         estimate D2E/DX2                !
 ! D54   D(10,7,9,24)         -174.3445         estimate D2E/DX2                !
 ! D55   D(21,7,9,11)         -173.955          estimate D2E/DX2                !
 ! D56   D(21,7,9,23)          -53.5495         estimate D2E/DX2                !
 ! D57   D(21,7,9,24)           64.7418         estimate D2E/DX2                !
 ! D58   D(22,7,9,11)           67.6095         estimate D2E/DX2                !
 ! D59   D(22,7,9,23)         -171.9851         estimate D2E/DX2                !
 ! D60   D(22,7,9,24)          -53.6937         estimate D2E/DX2                !
 ! D61   D(9,7,10,4)            55.0866         estimate D2E/DX2                !
 ! D62   D(9,7,10,25)          173.407          estimate D2E/DX2                !
 ! D63   D(9,7,10,26)          -66.0294         estimate D2E/DX2                !
 ! D64   D(21,7,10,4)          176.6323         estimate D2E/DX2                !
 ! D65   D(21,7,10,25)         -65.0474         estimate D2E/DX2                !
 ! D66   D(21,7,10,26)          55.5163         estimate D2E/DX2                !
 ! D67   D(22,7,10,4)          -66.0843         estimate D2E/DX2                !
 ! D68   D(22,7,10,25)          52.236          estimate D2E/DX2                !
 ! D69   D(22,7,10,26)         172.7997         estimate D2E/DX2                !
 ! D70   D(5,8,11,9)           -47.2301         Frozen                          !
 ! D71   D(5,8,11,12)           80.199          estimate D2E/DX2                !
 ! D72   D(5,8,11,27)         -164.845          estimate D2E/DX2                !
 ! D73   D(7,9,11,8)          -176.3547         estimate D2E/DX2                !
 ! D74   D(7,9,11,12)           55.079          estimate D2E/DX2                !
 ! D75   D(7,9,11,27)          -61.5186         estimate D2E/DX2                !
 ! D76   D(23,9,11,8)           64.4364         estimate D2E/DX2                !
 ! D77   D(23,9,11,12)         -64.1299         estimate D2E/DX2                !
 ! D78   D(23,9,11,27)         179.2726         estimate D2E/DX2                !
 ! D79   D(24,9,11,8)          -54.6969         estimate D2E/DX2                !
 ! D80   D(24,9,11,12)         176.7368         estimate D2E/DX2                !
 ! D81   D(24,9,11,27)          60.1393         estimate D2E/DX2                !
 ! D82   D(8,11,12,4)          171.123          estimate D2E/DX2                !
 ! D83   D(8,11,12,28)          53.7278         estimate D2E/DX2                !
 ! D84   D(8,11,12,29)         -67.7172         estimate D2E/DX2                !
 ! D85   D(9,11,12,4)          -58.8068         estimate D2E/DX2                !
 ! D86   D(9,11,12,28)        -176.202          estimate D2E/DX2                !
 ! D87   D(9,11,12,29)          62.353          estimate D2E/DX2                !
 ! D88   D(27,11,12,4)          58.4784         estimate D2E/DX2                !
 ! D89   D(27,11,12,28)        -58.9168         estimate D2E/DX2                !
 ! D90   D(27,11,12,29)        179.6382         estimate D2E/DX2                !
 --------------------------------------------------------------------------------
 Trust Radius=3.00D-01 FncErr=1.00D-07 GrdErr=1.00D-06 EigMax=2.50D+02 EigMin=1.00D-04
 Number of steps in this run=    186 maximum allowed number of steps=    186.
 GradGradGradGradGradGradGradGradGradGradGradGradGradGradGradGradGradGrad

                          Input orientation:                          
 ---------------------------------------------------------------------
 Center     Atomic      Atomic             Coordinates (Angstroms)
 Number     Number       Type             X           Y           Z
 ---------------------------------------------------------------------
      1          6           0       -2.107875   -1.442306    0.351655
      2          8           0       -1.311197   -0.513782    1.075997
      3          6           0       -3.321949    0.461632   -0.716351
      4          8           0        2.802979   -1.287928   -0.560526
      5          6           0       -1.097608    0.730460    0.463027
      6          6           0       -2.415030    1.394358    0.086981
      7          6           0        3.344187    0.944986    0.205001
      8          8           0       -0.320926    0.617376   -0.695528
      9          6           0        1.850708    1.262571    0.335325
     10          6           0        3.585422   -0.548484    0.359607
     11          6           0        1.078889    0.380461   -0.641199
     12          6           0        1.412877   -1.090265   -0.400009
     13          6           0       -3.475266   -0.866289    0.024866
     14          1           0       -1.590193   -1.731638   -0.556009
     15          1           0       -2.185900   -2.313796    0.986882
     16          1           0       -2.899203    0.284234   -1.701657
     17          1           0       -4.289890    0.929971   -0.866356
     18          1           0       -0.580990    1.319349    1.202685
     19          1           0       -2.912171    1.669606    1.013280
     20          1           0       -2.204697    2.310571   -0.453868
     21          1           0        3.910945    1.479617    0.961275
     22          1           0        3.710668    1.267484   -0.766085
     23          1           0        1.540548    1.064502    1.356671
     24          1           0        1.658829    2.310883    0.128002
     25          1           0        4.616331   -0.804564    0.156942
     26          1           0        3.343996   -0.871873    1.369709
     27          1           0        1.409698    0.619799   -1.644562
     28          1           0        0.921926   -1.718210   -1.130173
     29          1           0        1.115602   -1.406718    0.593698
     30          1           0       -4.029164   -1.586024   -0.571239
     31          1           0       -4.029310   -0.711273    0.947845
 ---------------------------------------------------------------------
                    Distance matrix (angstroms):
                    1          2          3          4          5
     1  C    0.000000
     2  O    1.421803   0.000000
     3  C    2.497918   2.864798   0.000000
     4  O    4.997239   4.494881   6.371812   0.000000
     5  C    2.398740   1.403385   2.531974   4.509560   0.000000
     6  C    2.865495   2.416112   1.528994   5.902672   1.522423
     7  C    5.953625   4.955728   6.746843   2.421744   4.454452
     8  O    2.920971   2.323458   3.005134   3.661583   1.399383
     9  C    4.794477   3.701576   5.338905   2.866080   2.998669
    10  C    5.763038   4.948868   7.063271   1.416206   4.855632
    11  C    3.803118   3.075865   4.402228   2.400524   2.465553
    12  C    3.617268   3.151429   4.992698   1.413230   3.219069
    13  C    1.519324   2.431529   1.528490   6.319559   2.897387
    14  H    1.084233   2.055348   2.799129   4.415525   2.709797
    15  H    1.081247   2.003272   3.448856   5.323137   3.275103
    16  H    2.797004   3.297568   1.086744   6.024015   2.851442
    17  H    3.445640   3.837938   1.085704   7.437836   3.463774
    18  H    3.268389   1.977276   3.454162   4.621477   1.077394
    19  H    3.281560   2.708179   2.149126   6.624712   2.115990
    20  H    3.839574   3.334036   2.176172   6.167446   2.136140
    21  H    6.718293   5.590847   7.494363   3.347054   5.088722
    22  H    6.515194   5.637846   7.078812   2.719611   4.991856
    23  H    4.539288   3.271423   5.320221   3.286838   2.805361
    24  H    5.322077   4.206956   5.379666   3.838566   3.194984
    25  H    6.757187   6.005398   8.085925   2.009141   5.924448
    26  H    5.575368   4.678175   7.110886   2.047342   4.808055
    27  H    4.539877   4.011199   4.824425   2.599190   3.277310
    28  H    3.384026   3.362242   4.788887   2.011964   3.551449
    29  H    3.232747   2.630456   4.989872   2.047825   3.079432
    30  H    2.136291   3.354167   2.171199   6.838651   3.876832
    31  H    2.140506   2.728290   2.155369   7.020533   3.302805
                    6          7          8          9         10
     6  C    0.000000
     7  C    5.777927   0.000000
     8  O    2.366705   3.788315   0.000000
     9  C    4.274993   1.532424   2.488961   0.000000
    10  C    6.313033   1.520707   4.210949   2.507936   0.000000
    11  C    3.710216   2.483207   1.420761   1.525589   2.854340
    12  C    4.589486   2.870234   2.451416   2.503647   2.364423
    13  C    2.497696   7.058194   3.559507   5.744078   7.075759
    14  H    3.296308   5.664941   2.673644   4.647533   5.387504
    15  H    3.822660   6.466286   3.860104   5.432231   6.067780
    16  H    2.160098   6.561391   2.787614   5.260047   6.855114
    17  H    2.153975   7.708902   3.984918   6.265908   8.106131
    18  H    2.148051   4.067252   2.040493   2.582381   4.643121
    19  H    1.086711   6.349835   3.277463   4.828076   6.896806
    20  H    1.084529   5.752308   2.544386   4.262328   6.508565
    21  H    6.386675   1.085815   4.625709   2.164139   2.140365
    22  H    6.186113   1.086886   4.084283   2.161615   2.140236
    23  H    4.167435   2.143302   2.806515   1.085623   2.788794
    24  H    4.175886   2.170722   2.732325   1.085706   3.455630
    25  H    7.367509   2.163697   5.208179   3.457389   1.081399
    26  H    6.320409   2.158129   4.462591   2.802804   1.087738
    27  H    4.269277   2.696086   1.973761   2.127815   3.180464
    28  H    4.722798   3.839616   2.681149   3.448967   3.268320
    29  H    4.535212   3.263156   2.796904   2.780691   2.625143
    30  H    3.452732   7.834211   4.315258   6.596154   7.741116
    31  H    2.789385   7.593647   4.268266   6.232644   7.639154
                   11         12         13         14         15
    11  C    0.000000
    12  C    1.527336   0.000000
    13  C    4.768475   4.911683   0.000000
    14  H    3.404735   3.074756   2.154007   0.000000
    15  H    4.535253   4.046195   2.164074   1.753365   0.000000
    16  H    4.118136   4.709307   2.153238   2.662660   3.806153
    17  H    5.401522   6.067980   2.164356   3.803793   4.287574
    18  H    2.652662   3.514310   3.813280   3.663334   3.977694
    19  H    4.508631   5.321683   2.779353   3.972248   4.049155
    20  H    3.813444   4.965423   3.454848   4.089927   4.843644
    21  H    3.434619   3.833762   7.806167   6.548040   7.180679
    22  H    2.780048   3.312527   7.537655   6.094095   7.118144
    23  H    2.161603   2.783028   5.537152   4.612839   5.043417
    24  H    2.157436   3.450666   6.038542   5.231251   6.075136
    25  H    3.815077   3.264037   8.092910   6.315751   7.016903
    26  H    3.277621   2.628463   6.950609   5.365986   5.727604
    27  H    1.083261   2.115004   5.371994   3.964032   5.334679
    28  H    2.160591   1.080966   4.625493   2.576934   3.807260
    29  H    2.172631   1.084421   4.657435   2.957825   3.446346
    30  H    5.473953   5.467258   1.086353   2.443361   2.520916
    31  H    5.459912   5.619408   1.087605   3.041712   2.442901
                   16         17         18         19         20
    16  H    0.000000
    17  H    1.746057   0.000000
    18  H    3.857561   4.264796   0.000000
    19  H    3.048000   2.445036   2.364944   0.000000
    20  H    2.478983   2.534607   2.522521   1.750394   0.000000
    21  H    7.409336   8.419979   4.501271   6.825959   6.331997
    22  H    6.747775   8.008302   4.721978   6.869486   6.014736
    23  H    5.447346   6.241310   2.142331   4.506748   4.342534
    24  H    5.313249   6.187320   2.674859   4.699893   3.907097
    25  H    7.818128   9.131075   5.711106   7.970770   7.523535
    26  H    7.053184   8.156154   4.498318   6.762084   6.651419
    27  H    4.322325   5.760826   3.543871   5.181194   4.164170
    28  H    4.351713   5.851964   4.114334   5.547250   5.144340
    29  H    4.924087   6.067225   3.268139   5.085546   5.093134
    30  H    2.460187   2.546626   4.845400   3.789129   4.304173
    31  H    3.047628   2.460266   4.009898   2.630754   3.798099
                   21         22         23         24         25
    21  H    0.000000
    22  H    1.751823   0.000000
    23  H    2.438737   3.042485   0.000000
    24  H    2.541136   2.469436   1.754162   0.000000
    25  H    2.522301   2.442455   3.793837   4.295773   0.000000
    26  H    2.453111   3.045146   2.646156   3.809404   1.759025
    27  H    3.712938   2.546700   3.036821   2.462481   3.944201
    28  H    4.851236   4.101708   3.782932   4.284813   4.017467
    29  H    4.034846   3.966703   2.620999   3.785832   3.578889
    30  H    8.648242   8.251392   6.462493   6.930230   8.711229
    31  H    8.236979   8.170697   5.860361   6.493111   8.682243
                   26         27         28         29         30
    26  H    0.000000
    27  H    3.879745   0.000000
    28  H    3.582195   2.443114   0.000000
    29  H    2.419502   3.033656   1.762461   0.000000
    30  H    7.657727   5.966481   4.984293   5.278053   0.000000
    31  H    7.387111   6.170505   5.463224   5.203766   1.752942
                   31
    31  H    0.000000
 Stoichiometry    C10H18O3
 Framework group  C1[X(C10H18O3)]
 Deg. of freedom    87
 Full point group                 C1      NOp   1
 Largest Abelian subgroup         C1      NOp   1
 Largest concise Abelian subgroup C1      NOp   1
                         Standard orientation:                         
 ---------------------------------------------------------------------
 Center     Atomic      Atomic             Coordinates (Angstroms)
 Number     Number       Type             X           Y           Z
 ---------------------------------------------------------------------
      1          6           0        2.107875    1.442306    0.351655
      2          8           0        1.311197    0.513782    1.075997
      3          6           0        3.321949   -0.461632   -0.716351
      4          8           0       -2.802979    1.287928   -0.560526
      5          6           0        1.097608   -0.730460    0.463027
      6          6           0        2.415030   -1.394358    0.086981
      7          6           0       -3.344187   -0.944986    0.205001
      8          8           0        0.320926   -0.617376   -0.695528
      9          6           0       -1.850708   -1.262571    0.335325
     10          6           0       -3.585422    0.548484    0.359607
     11          6           0       -1.078889   -0.380461   -0.641199
     12          6           0       -1.412877    1.090265   -0.400009
     13          6           0        3.475266    0.866289    0.024866
     14          1           0        1.590193    1.731638   -0.556009
     15          1           0        2.185900    2.313796    0.986882
     16          1           0        2.899203   -0.284234   -1.701657
     17          1           0        4.289890   -0.929971   -0.866356
     18          1           0        0.580990   -1.319349    1.202685
     19          1           0        2.912171   -1.669606    1.013280
     20          1           0        2.204697   -2.310571   -0.453868
     21          1           0       -3.910945   -1.479617    0.961275
     22          1           0       -3.710668   -1.267484   -0.766085
     23          1           0       -1.540548   -1.064502    1.356671
     24          1           0       -1.658829   -2.310883    0.128002
     25          1           0       -4.616331    0.804564    0.156942
     26          1           0       -3.343996    0.871873    1.369709
     27          1           0       -1.409698   -0.619799   -1.644562
     28          1           0       -0.921926    1.718210   -1.130173
     29          1           0       -1.115602    1.406718    0.593698
     30          1           0        4.029164    1.586024   -0.571239
     31          1           0        4.029310    0.711273    0.947845
 ---------------------------------------------------------------------
 Rotational constants (GHZ):           1.9267415           0.4356343           0.3943007
 Standard basis: 6-311++G(2d,2p) (5D, 7F)
 There are   557 symmetry adapted cartesian basis functions of A   symmetry.
 There are   531 symmetry adapted basis functions of A   symmetry.
   531 basis functions,   762 primitive gaussians,   557 cartesian basis functions
    51 alpha electrons       51 beta electrons
       nuclear repulsion energy       900.4931707888 Hartrees.
 NAtoms=   31 NActive=   31 NUniq=   31 SFac= 1.00D+00 NAtFMM=   60 NAOKFM=F Big=F
 Integral buffers will be    131072 words long.
 Raffenetti 2 integral format.
 Two-electron integral symmetry is turned on.
 ------------------------------------------------------------------------------
 Polarizable Continuum Model (PCM)
 =================================
 Model                : PCM.
 Atomic radii         : UFF (Universal Force Field).
 Polarization charges : Total charges.
 Charge compensation  : None.
 Solution method      : On-the-fly selection.
 Cavity type          : Scaled VdW (van der Waals Surface) (Alpha=1.100).
 Cavity algorithm     : GePol (No added spheres)
                        Default sphere list used, NSphG=   31.
                        Lebedev-Laikov grids with approx.  5.0 points / Ang**2.
                        Smoothing algorithm: York/Karplus (Gamma=1.0000).
                        Polarization charges: spherical gaussians, with
                                              point-specific exponents (IZeta= 3).
                        Self-potential: point-specific (ISelfS= 7).
                        Self-field    : sphere-specific E.n sum rule (ISelfD= 2).
 1st derivatives      : Analytical E(r).r(x)/FMM algorithm (CHGder, D1EAlg=3).
                        Cavity 1st derivative terms included.
 Solvent              : Water, Eps=  78.355300 Eps(inf)=   1.777849
 ------------------------------------------------------------------------------
 One-electron integrals computed using PRISM.
 NBasis=   531 RedAO= T EigKep=  4.53D-06  NBF=   531
 NBsUse=   531 1.00D-06 EigRej= -1.00D+00 NBFU=   531
 ExpMin= 3.60D-02 ExpMax= 8.59D+03 ExpMxC= 1.30D+03 IAcc=3 IRadAn=         5 AccDes= 0.00D+00
 Harris functional with IExCor= 1009 and IRadAn=       5 diagonalized for initial guess.
 HarFok:  IExCor= 1009 AccDes= 0.00D+00 IRadAn=         5 IDoV= 1 UseB2=F ITyADJ=14
 ICtDFT=  3500011 ScaDFX=  1.000000  1.000000  1.000000  1.000000
 FoFCou: FMM=F IPFlag=           0 FMFlag=      100000 FMFlg1=           0
         NFxFlg=           0 DoJE=T BraDBF=F KetDBF=T FulRan=T
         wScrn=  0.000000 ICntrl=       500 IOpCl=  0 I1Cent=   200000004 NGrid=           0
         NMat0=    1 NMatS0=      1 NMatT0=    0 NMatD0=    1 NMtDS0=    0 NMtDT0=    0
 Petite list used in FoFCou.
 Requested convergence on RMS density matrix=1.00D-08 within 128 cycles.
 Requested convergence on MAX density matrix=1.00D-06.
 Requested convergence on             energy=1.00D-06.
 No special actions if energy rises.
 Inv3:  Mode=1 IEnd=    12448107.
 Iteration    1 A*A^-1 deviation from unit magnitude is 6.44D-15 for   2021.
 Iteration    1 A*A^-1 deviation from orthogonality  is 2.91D-15 for   1633    575.
 Iteration    1 A^-1*A deviation from unit magnitude is 6.44D-15 for   2021.
 Iteration    1 A^-1*A deviation from orthogonality  is 1.85D-15 for   2032   2031.
 Error on total polarization charges =  0.01469
 SCF Done:  E(RM062X) =  -617.498485737     A.U. after   13 cycles
            NFock= 13  Conv=0.21D-08     -V/T= 2.0035

 **********************************************************************

            Population analysis using the SCF density.

 **********************************************************************

 Orbital symmetries:
       Occupied  (A) (A) (A) (A) (A) (A) (A) (A) (A) (A) (A) (A)
                 (A) (A) (A) (A) (A) (A) (A) (A) (A) (A) (A) (A)
                 (A) (A) (A) (A) (A) (A) (A) (A) (A) (A) (A) (A)
                 (A) (A) (A) (A) (A) (A) (A) (A) (A) (A) (A) (A)
                 (A) (A) (A)
       Virtual   (A) (A) (A) (A) (A) (A) (A) (A) (A) (A) (A) (A)
                 (A) (A) (A) (A) (A) (A) (A) (A) (A) (A) (A) (A)
                 (A) (A) (A) (A) (A) (A) (A) (A) (A) (A) (A) (A)
                 (A) (A) (A) (A) (A) (A) (A) (A) (A) (A) (A) (A)
                 (A) (A) (A) (A) (A) (A) (A) (A) (A) (A) (A) (A)
                 (A) (A) (A) (A) (A) (A) (A) (A) (A) (A) (A) (A)
                 (A) (A) (A) (A) (A) (A) (A) (A) (A) (A) (A) (A)
                 (A) (A) (A) (A) (A) (A) (A) (A) (A) (A) (A) (A)
                 (A) (A) (A) (A) (A) (A) (A) (A) (A) (A) (A) (A)
                 (A) (A) (A) (A) (A) (A) (A) (A) (A) (A) (A) (A)
                 (A) (A) (A) (A) (A) (A) (A) (A) (A) (A) (A) (A)
                 (A) (A) (A) (A) (A) (A) (A) (A) (A) (A) (A) (A)
                 (A) (A) (A) (A) (A) (A) (A) (A) (A) (A) (A) (A)
                 (A) (A) (A) (A) (A) (A) (A) (A) (A) (A) (A) (A)
                 (A) (A) (A) (A) (A) (A) (A) (A) (A) (A) (A) (A)
                 (A) (A) (A) (A) (A) (A) (A) (A) (A) (A) (A) (A)
                 (A) (A) (A) (A) (A) (A) (A) (A) (A) (A) (A) (A)
                 (A) (A) (A) (A) (A) (A) (A) (A) (A) (A) (A) (A)
                 (A) (A) (A) (A) (A) (A) (A) (A) (A) (A) (A) (A)
                 (A) (A) (A) (A) (A) (A) (A) (A) (A) (A) (A) (A)
                 (A) (A) (A) (A) (A) (A) (A) (A) (A) (A) (A) (A)
                 (A) (A) (A) (A) (A) (A) (A) (A) (A) (A) (A) (A)
                 (A) (A) (A) (A) (A) (A) (A) (A) (A) (A) (A) (A)
                 (A) (A) (A) (A) (A) (A) (A) (A) (A) (A) (A) (A)
                 (A) (A) (A) (A) (A) (A) (A) (A) (A) (A) (A) (A)
                 (A) (A) (A) (A) (A) (A) (A) (A) (A) (A) (A) (A)
                 (A) (A) (A) (A) (A) (A) (A) (A) (A) (A) (A) (A)
                 (A) (A) (A) (A) (A) (A) (A) (A) (A) (A) (A) (A)
                 (A) (A) (A) (A) (A) (A) (A) (A) (A) (A) (A) (A)
                 (A) (A) (A) (A) (A) (A) (A) (A) (A) (A) (A) (A)
                 (A) (A) (A) (A) (A) (A) (A) (A) (A) (A) (A) (A)
                 (A) (A) (A) (A) (A) (A) (A) (A) (A) (A) (A) (A)
                 (A) (A) (A) (A) (A) (A) (A) (A) (A) (A) (A) (A)
                 (A) (A) (A) (A) (A) (A) (A) (A) (A) (A) (A) (A)
                 (A) (A) (A) (A) (A) (A) (A) (A) (A) (A) (A) (A)
                 (A) (A) (A) (A) (A) (A) (A) (A) (A) (A) (A) (A)
                 (A) (A) (A) (A) (A) (A) (A) (A) (A) (A) (A) (A)
                 (A) (A) (A) (A) (A) (A) (A) (A) (A) (A) (A) (A)
                 (A) (A) (A) (A) (A) (A) (A) (A) (A) (A) (A) (A)
                 (A) (A) (A) (A) (A) (A) (A) (A) (A) (A) (A) (A)
 The electronic state is 1-A.
 Alpha  occ. eigenvalues --  -19.63025 -19.62807 -19.62670 -10.63327 -10.58828
 Alpha  occ. eigenvalues --  -10.57874 -10.57619 -10.57601 -10.53358 -10.53267
 Alpha  occ. eigenvalues --  -10.52929 -10.52883 -10.52741  -1.19960  -1.16638
 Alpha  occ. eigenvalues --   -1.13480  -0.90934  -0.89749  -0.87649  -0.84720
 Alpha  occ. eigenvalues --   -0.75297  -0.74059  -0.73377  -0.70955  -0.66970
 Alpha  occ. eigenvalues --   -0.62614  -0.60371  -0.58726  -0.56939  -0.56193
 Alpha  occ. eigenvalues --   -0.53970  -0.53450  -0.52126  -0.51252  -0.49864
 Alpha  occ. eigenvalues --   -0.49358  -0.46598  -0.46141  -0.45402  -0.45171
 Alpha  occ. eigenvalues --   -0.43907  -0.42942  -0.40734  -0.40631  -0.39164
 Alpha  occ. eigenvalues --   -0.38574  -0.37931  -0.35979  -0.35096  -0.33188
 Alpha  occ. eigenvalues --   -0.31612
 Alpha virt. eigenvalues --   -0.00081   0.00770   0.00839   0.01046   0.02203
 Alpha virt. eigenvalues --    0.02498   0.02629   0.03497   0.03581   0.04371
 Alpha virt. eigenvalues --    0.04604   0.04866   0.05606   0.05880   0.07195
 Alpha virt. eigenvalues --    0.07350   0.07942   0.08400   0.09041   0.09238
 Alpha virt. eigenvalues --    0.10269   0.10656   0.11159   0.11447   0.12176
 Alpha virt. eigenvalues --    0.12483   0.12766   0.13144   0.13287   0.13460
 Alpha virt. eigenvalues --    0.13677   0.14047   0.14262   0.14909   0.15038
 Alpha virt. eigenvalues --    0.15169   0.15341   0.15591   0.15908   0.16108
 Alpha virt. eigenvalues --    0.16633   0.17092   0.17488   0.17599   0.17754
 Alpha virt. eigenvalues --    0.17857   0.18250   0.18735   0.18922   0.19360
 Alpha virt. eigenvalues --    0.19423   0.20600   0.21035   0.21181   0.21778
 Alpha virt. eigenvalues --    0.22202   0.22452   0.23268   0.23518   0.24088
 Alpha virt. eigenvalues --    0.24363   0.25315   0.26106   0.26545   0.27131
 Alpha virt. eigenvalues --    0.27351   0.28141   0.28735   0.29187   0.29546
 Alpha virt. eigenvalues --    0.30001   0.30654   0.31088   0.31737   0.32198
 Alpha virt. eigenvalues --    0.32475   0.32658   0.33531   0.34335   0.34679
 Alpha virt. eigenvalues --    0.35101   0.35231   0.35719   0.36002   0.36183
 Alpha virt. eigenvalues --    0.36733   0.37191   0.37468   0.37660   0.38411
 Alpha virt. eigenvalues --    0.38577   0.39171   0.39653   0.40236   0.40585
 Alpha virt. eigenvalues --    0.41749   0.41973   0.43062   0.44608   0.45780
 Alpha virt. eigenvalues --    0.46174   0.46487   0.48651   0.49655   0.50554
 Alpha virt. eigenvalues --    0.50861   0.52666   0.53153   0.53875   0.54524
 Alpha virt. eigenvalues --    0.56372   0.56992   0.58347   0.58584   0.59333
 Alpha virt. eigenvalues --    0.60099   0.60526   0.60877   0.61618   0.62160
 Alpha virt. eigenvalues --    0.62609   0.62842   0.63210   0.64080   0.64565
 Alpha virt. eigenvalues --    0.64834   0.65465   0.65799   0.66512   0.67305
 Alpha virt. eigenvalues --    0.68119   0.68440   0.69771   0.70073   0.70608
 Alpha virt. eigenvalues --    0.71592   0.71867   0.72021   0.72589   0.73051
 Alpha virt. eigenvalues --    0.73629   0.74770   0.74803   0.75195   0.76241
 Alpha virt. eigenvalues --    0.76425   0.76665   0.77892   0.78303   0.78699
 Alpha virt. eigenvalues --    0.80084   0.81528   0.82576   0.84400   0.85935
 Alpha virt. eigenvalues --    0.86744   0.87298   0.87669   0.88112   0.89663
 Alpha virt. eigenvalues --    0.90319   0.92283   0.92746   0.94115   0.94838
 Alpha virt. eigenvalues --    0.95547   0.98091   0.99232   1.00335   1.01496
 Alpha virt. eigenvalues --    1.02294   1.03523   1.05314   1.05908   1.07396
 Alpha virt. eigenvalues --    1.08161   1.09405   1.09984   1.11164   1.13270
 Alpha virt. eigenvalues --    1.13843   1.14515   1.15129   1.16289   1.17033
 Alpha virt. eigenvalues --    1.17486   1.18002   1.19565   1.19878   1.20959
 Alpha virt. eigenvalues --    1.21541   1.22313   1.22948   1.23452   1.24512
 Alpha virt. eigenvalues --    1.25255   1.25818   1.26076   1.27685   1.27793
 Alpha virt. eigenvalues --    1.28385   1.29489   1.29823   1.30667   1.31561
 Alpha virt. eigenvalues --    1.33046   1.33294   1.33638   1.34335   1.34654
 Alpha virt. eigenvalues --    1.35854   1.36211   1.37112   1.37626   1.38005
 Alpha virt. eigenvalues --    1.39109   1.40657   1.41476   1.41899   1.42476
 Alpha virt. eigenvalues --    1.42831   1.43359   1.44515   1.44968   1.45230
 Alpha virt. eigenvalues --    1.45782   1.46495   1.47471   1.47775   1.48759
 Alpha virt. eigenvalues --    1.48809   1.49463   1.50884   1.51782   1.52767
 Alpha virt. eigenvalues --    1.53257   1.54433   1.54848   1.55789   1.56262
 Alpha virt. eigenvalues --    1.56624   1.57757   1.57818   1.58599   1.59114
 Alpha virt. eigenvalues --    1.59537   1.60196   1.61185   1.62275   1.62917
 Alpha virt. eigenvalues --    1.63753   1.65017   1.65405   1.65637   1.66109
 Alpha virt. eigenvalues --    1.67189   1.68944   1.70075   1.70800   1.72511
 Alpha virt. eigenvalues --    1.73970   1.75240   1.75871   1.76262   1.77499
 Alpha virt. eigenvalues --    1.78549   1.78909   1.79939   1.81577   1.84150
 Alpha virt. eigenvalues --    1.84967   1.88731   1.90446   1.93743   1.97609
 Alpha virt. eigenvalues --    2.02502   2.06549   2.14105   2.18181   2.18854
 Alpha virt. eigenvalues --    2.25958   2.26359   2.29354   2.35191   2.39980
 Alpha virt. eigenvalues --    2.41344   2.45576   2.46037   2.47329   2.55234
 Alpha virt. eigenvalues --    2.58669   2.75819   2.77197   2.81043   2.81697
 Alpha virt. eigenvalues --    2.84372   2.89761   2.93044   2.93759   2.94532
 Alpha virt. eigenvalues --    2.95911   2.98049   3.01733   3.02960   3.05104
 Alpha virt. eigenvalues --    3.06703   3.08114   3.08312   3.09754   3.11296
 Alpha virt. eigenvalues --    3.13495   3.14802   3.16846   3.17623   3.21545
 Alpha virt. eigenvalues --    3.24749   3.28447   3.32487   3.33078   3.34062
 Alpha virt. eigenvalues --    3.35518   3.37386   3.38792   3.39362   3.40321
 Alpha virt. eigenvalues --    3.43303   3.44347   3.44662   3.45922   3.46689
 Alpha virt. eigenvalues --    3.48592   3.49594   3.49829   3.51519   3.52663
 Alpha virt. eigenvalues --    3.52820   3.53375   3.54326   3.55399   3.56329
 Alpha virt. eigenvalues --    3.56336   3.57399   3.58349   3.59440   3.59987
 Alpha virt. eigenvalues --    3.61150   3.61245   3.62117   3.63985   3.64935
 Alpha virt. eigenvalues --    3.65590   3.66647   3.67156   3.68122   3.68257
 Alpha virt. eigenvalues --    3.70520   3.71065   3.71689   3.73045   3.74079
 Alpha virt. eigenvalues --    3.75116   3.75495   3.76644   3.76836   3.78060
 Alpha virt. eigenvalues --    3.78699   3.80265   3.80722   3.83241   3.84476
 Alpha virt. eigenvalues --    3.87222   3.88261   3.88636   3.90278   3.91707
 Alpha virt. eigenvalues --    3.93165   3.93828   3.95773   3.96407   3.97764
 Alpha virt. eigenvalues --    3.99407   4.00742   4.02794   4.03522   4.04371
 Alpha virt. eigenvalues --    4.05314   4.06498   4.06792   4.07602   4.08335
 Alpha virt. eigenvalues --    4.09203   4.09524   4.10004   4.10977   4.11657
 Alpha virt. eigenvalues --    4.12820   4.13180   4.14141   4.15612   4.16196
 Alpha virt. eigenvalues --    4.17006   4.18071   4.19045   4.19787   4.20966
 Alpha virt. eigenvalues --    4.21633   4.24498   4.25793   4.26882   4.27979
 Alpha virt. eigenvalues --    4.28251   4.29990   4.31106   4.32321   4.32847
 Alpha virt. eigenvalues --    4.34298   4.36199   4.36875   4.38026   4.39784
 Alpha virt. eigenvalues --    4.41336   4.43456   4.44561   4.46002   4.47285
 Alpha virt. eigenvalues --    4.57470   4.60616   4.75854   4.76222   4.83578
 Alpha virt. eigenvalues --    4.85767   4.92809   4.95435   4.99720   5.01419
 Alpha virt. eigenvalues --    5.06730   5.07157   5.07619   5.08572   5.12319
 Alpha virt. eigenvalues --    5.12496   5.14205   5.15710   5.30970   5.39190
 Alpha virt. eigenvalues --    5.39780   5.58366   5.60183   5.63809   5.85101
 Alpha virt. eigenvalues --    5.88374   6.01711   7.02010   7.04673   7.06315
 Alpha virt. eigenvalues --    7.07680   7.10977   7.13072   7.14645   7.20213
 Alpha virt. eigenvalues --    7.27389   7.36756   7.40676   7.48275   7.54494
 Alpha virt. eigenvalues --    7.54716   7.66123  23.96605  23.96843  24.06848
 Alpha virt. eigenvalues --   24.07479  24.11259  24.11513  24.14237  24.15835
 Alpha virt. eigenvalues --   24.16661  24.20652  50.16689  50.19289  50.24840
          Condensed to atoms (all electrons):
               1          2          3          4          5          6
     1  C    5.555235   0.079669   0.045194   0.004987  -0.463197   0.169854
     2  O    0.079669   8.232485   0.015808  -0.000482   0.271881  -0.084184
     3  C    0.045194   0.015808   5.760523   0.000551  -0.336856  -0.008783
     4  O    0.004987  -0.000482   0.000551   8.327369  -0.010548   0.002117
     5  C   -0.463197   0.271881  -0.336856  -0.010548   7.264683  -0.910715
     6  C    0.169854  -0.084184  -0.008783   0.002117  -0.910715   6.656383
     7  C    0.004851   0.002360   0.004739  -0.016592  -0.072174   0.022219
     8  O    0.007521  -0.065274  -0.028997   0.000682   0.312175  -0.082696
     9  C    0.019443  -0.062406  -0.036181  -0.040927   0.198007  -0.183113
    10  C   -0.011192  -0.003652   0.003115   0.070741   0.005593  -0.007690
    11  C    0.117847   0.099465   0.130500   0.032546  -0.842988   0.236221
    12  C   -0.061436   0.008366  -0.031175   0.178668   0.199290  -0.035523
    13  C   -0.168828  -0.061297  -0.043209  -0.000599   0.249130  -0.118232
    14  H    0.466045  -0.030406  -0.003937   0.001648  -0.004796   0.023019
    15  H    0.434284  -0.075913   0.006888   0.000723  -0.003942  -0.000293
    16  H   -0.000891   0.004191   0.516018   0.000020  -0.003695  -0.061605
    17  H    0.008928  -0.005595   0.428366   0.000014   0.013590  -0.051006
    18  H   -0.047722  -0.065841  -0.040974  -0.000879   0.547530  -0.084372
    19  H    0.015852  -0.004940  -0.003946  -0.000036  -0.145831   0.516812
    20  H    0.007506   0.007472  -0.031629  -0.000022  -0.035685   0.430421
    21  H   -0.000559  -0.000395  -0.000432   0.008739  -0.001080  -0.001467
    22  H    0.001233   0.000084   0.000236  -0.009218  -0.004199   0.001829
    23  H    0.006455  -0.002539   0.005388   0.000117  -0.030845  -0.005021
    24  H   -0.001320   0.000993  -0.001240  -0.000778   0.013167  -0.004714
    25  H   -0.000683  -0.000172   0.000198  -0.071605   0.000646   0.000153
    26  H    0.000999   0.001454   0.000138  -0.037507  -0.005098  -0.000044
    27  H    0.005465   0.004882   0.004611   0.004543  -0.038467   0.004884
    28  H   -0.016075  -0.005531  -0.007847  -0.067340   0.032025   0.001402
    29  H    0.025246  -0.001479   0.000597  -0.034348  -0.059751  -0.009314
    30  H   -0.030320   0.009396  -0.046963  -0.000003   0.006039  -0.002492
    31  H   -0.090860   0.001720  -0.030118  -0.000011   0.003549  -0.008820
               7          8          9         10         11         12
     1  C    0.004851   0.007521   0.019443  -0.011192   0.117847  -0.061436
     2  O    0.002360  -0.065274  -0.062406  -0.003652   0.099465   0.008366
     3  C    0.004739  -0.028997  -0.036181   0.003115   0.130500  -0.031175
     4  O   -0.016592   0.000682  -0.040927   0.070741   0.032546   0.178668
     5  C   -0.072174   0.312175   0.198007   0.005593  -0.842988   0.199290
     6  C    0.022219  -0.082696  -0.183113  -0.007690   0.236221  -0.035523
     7  C    5.742524  -0.016746  -0.244270   0.125846   0.099464  -0.011987
     8  O   -0.016746   8.347042   0.026138   0.006671  -0.072063  -0.026753
     9  C   -0.244270   0.026138   6.557820  -0.087241  -1.049721   0.323371
    10  C    0.125846   0.006671  -0.087241   5.423957   0.051439  -0.180765
    11  C    0.099464  -0.072063  -1.049721   0.051439   7.450851  -0.614015
    12  C   -0.011987  -0.026753   0.323371  -0.180765  -0.614015   5.912705
    13  C   -0.004418  -0.016300  -0.010709  -0.000605  -0.047135   0.045657
    14  H   -0.002488   0.012674   0.009751   0.000983  -0.034716   0.012411
    15  H   -0.000006   0.001649   0.003573  -0.001296  -0.004830   0.004589
    16  H    0.000313  -0.004228  -0.000169  -0.000125  -0.005830   0.002186
    17  H    0.000153  -0.000083  -0.002653   0.000050   0.007469  -0.001525
    18  H   -0.021740  -0.017116   0.054381   0.002706  -0.095769   0.027054
    19  H    0.001421   0.008373  -0.003084  -0.000552   0.006826   0.003117
    20  H   -0.001976  -0.001712   0.007997   0.000178  -0.002202  -0.003581
    21  H    0.440939  -0.001191  -0.047979  -0.034150   0.000049   0.004785
    22  H    0.479470  -0.000058  -0.010905  -0.086082  -0.010160   0.001943
    23  H   -0.032865  -0.010511   0.444440  -0.016048   0.065341  -0.055768
    24  H    0.001951   0.003146   0.427494   0.001737  -0.060796   0.009695
    25  H   -0.036503   0.000225   0.001227   0.435487   0.001532   0.009951
    26  H   -0.038796  -0.001301  -0.019192   0.452915   0.035390  -0.019716
    27  H   -0.000070  -0.085337  -0.076319   0.002123   0.600943  -0.117172
    28  H    0.004978   0.006039   0.003992   0.002355  -0.092242   0.467873
    29  H    0.015298  -0.010442  -0.098823  -0.006338   0.149102   0.350397
    30  H    0.000103   0.000482   0.001671  -0.000006   0.000329  -0.000195
    31  H   -0.000304  -0.000944  -0.002051   0.000140  -0.002626   0.000492
              13         14         15         16         17         18
     1  C   -0.168828   0.466045   0.434284  -0.000891   0.008928  -0.047722
     2  O   -0.061297  -0.030406  -0.075913   0.004191  -0.005595  -0.065841
     3  C   -0.043209  -0.003937   0.006888   0.516018   0.428366  -0.040974
     4  O   -0.000599   0.001648   0.000723   0.000020   0.000014  -0.000879
     5  C    0.249130  -0.004796  -0.003942  -0.003695   0.013590   0.547530
     6  C   -0.118232   0.023019  -0.000293  -0.061605  -0.051006  -0.084372
     7  C   -0.004418  -0.002488  -0.000006   0.000313   0.000153  -0.021740
     8  O   -0.016300   0.012674   0.001649  -0.004228  -0.000083  -0.017116
     9  C   -0.010709   0.009751   0.003573  -0.000169  -0.002653   0.054381
    10  C   -0.000605   0.000983  -0.001296  -0.000125   0.000050   0.002706
    11  C   -0.047135  -0.034716  -0.004830  -0.005830   0.007469  -0.095769
    12  C    0.045657   0.012411   0.004589   0.002186  -0.001525   0.027054
    13  C    5.849024  -0.074156  -0.017656  -0.067223  -0.020773   0.028298
    14  H   -0.074156   0.532214  -0.019184  -0.002060  -0.001665   0.000067
    15  H   -0.017656  -0.019184   0.482722  -0.002707   0.001318  -0.000671
    16  H   -0.067223  -0.002060  -0.002707   0.458085  -0.006965  -0.002511
    17  H   -0.020773  -0.001665   0.001318  -0.006965   0.465582   0.001717
    18  H    0.028298   0.000067  -0.000671  -0.002511   0.001717   0.504648
    19  H   -0.013332  -0.001387   0.000463   0.002516  -0.003720  -0.016112
    20  H   -0.009825   0.000025   0.001275  -0.001865  -0.009204  -0.011651
    21  H    0.000248  -0.000012  -0.000016   0.000020  -0.000010   0.002753
    22  H   -0.000128  -0.000137   0.000044  -0.000049   0.000013  -0.000621
    23  H   -0.001082  -0.001207   0.000976  -0.000196   0.000019  -0.013479
    24  H    0.000457   0.000359  -0.000142   0.000076  -0.000065  -0.001931
    25  H   -0.000034  -0.000005  -0.000037  -0.000010   0.000005  -0.000801
    26  H   -0.000081   0.000118  -0.000255   0.000054   0.000001   0.001925
    27  H   -0.002871  -0.000072  -0.000143   0.000018   0.000221  -0.008317
    28  H    0.010323  -0.007654   0.001387   0.000865  -0.000208   0.001732
    29  H   -0.014914  -0.001196  -0.005252   0.000715  -0.000022  -0.006773
    30  H    0.432334  -0.000209  -0.008577  -0.003422  -0.007895   0.001163
    31  H    0.499074   0.002069  -0.006497   0.002046  -0.001341   0.001313
              19         20         21         22         23         24
     1  C    0.015852   0.007506  -0.000559   0.001233   0.006455  -0.001320
     2  O   -0.004940   0.007472  -0.000395   0.000084  -0.002539   0.000993
     3  C   -0.003946  -0.031629  -0.000432   0.000236   0.005388  -0.001240
     4  O   -0.000036  -0.000022   0.008739  -0.009218   0.000117  -0.000778
     5  C   -0.145831  -0.035685  -0.001080  -0.004199  -0.030845   0.013167
     6  C    0.516812   0.430421  -0.001467   0.001829  -0.005021  -0.004714
     7  C    0.001421  -0.001976   0.440939   0.479470  -0.032865   0.001951
     8  O    0.008373  -0.001712  -0.001191  -0.000058  -0.010511   0.003146
     9  C   -0.003084   0.007997  -0.047979  -0.010905   0.444440   0.427494
    10  C   -0.000552   0.000178  -0.034150  -0.086082  -0.016048   0.001737
    11  C    0.006826  -0.002202   0.000049  -0.010160   0.065341  -0.060796
    12  C    0.003117  -0.003581   0.004785   0.001943  -0.055768   0.009695
    13  C   -0.013332  -0.009825   0.000248  -0.000128  -0.001082   0.000457
    14  H   -0.001387   0.000025  -0.000012  -0.000137  -0.001207   0.000359
    15  H    0.000463   0.001275  -0.000016   0.000044   0.000976  -0.000142
    16  H    0.002516  -0.001865   0.000020  -0.000049  -0.000196   0.000076
    17  H   -0.003720  -0.009204  -0.000010   0.000013   0.000019  -0.000065
    18  H   -0.016112  -0.011651   0.002753  -0.000621  -0.013479  -0.001931
    19  H    0.452701  -0.002419   0.000028  -0.000036   0.000643  -0.000083
    20  H   -0.002419   0.471267  -0.000091   0.000137   0.001078  -0.001230
    21  H    0.000028  -0.000091   0.490412  -0.009928  -0.006434  -0.009946
    22  H   -0.000036   0.000137  -0.009928   0.476806   0.002128  -0.005513
    23  H    0.000643   0.001078  -0.006434   0.002128   0.471443  -0.022432
    24  H   -0.000083  -0.001230  -0.009946  -0.005513  -0.022432   0.461408
    25  H    0.000007  -0.000018  -0.009351  -0.003580  -0.000114   0.000941
    26  H   -0.000062  -0.000028   0.006150   0.001906  -0.008633   0.000389
    27  H   -0.000001   0.000556  -0.002059  -0.000529   0.010603  -0.004995
    28  H    0.000327  -0.000359   0.001425   0.000234  -0.001430  -0.000413
    29  H    0.000021  -0.000296  -0.001143  -0.000776  -0.000452  -0.001183
    30  H   -0.001892   0.001059   0.000005   0.000000   0.000150  -0.000043
    31  H   -0.002693  -0.001434  -0.000007   0.000000  -0.000445   0.000096
              25         26         27         28         29         30
     1  C   -0.000683   0.000999   0.005465  -0.016075   0.025246  -0.030320
     2  O   -0.000172   0.001454   0.004882  -0.005531  -0.001479   0.009396
     3  C    0.000198   0.000138   0.004611  -0.007847   0.000597  -0.046963
     4  O   -0.071605  -0.037507   0.004543  -0.067340  -0.034348  -0.000003
     5  C    0.000646  -0.005098  -0.038467   0.032025  -0.059751   0.006039
     6  C    0.000153  -0.000044   0.004884   0.001402  -0.009314  -0.002492
     7  C   -0.036503  -0.038796  -0.000070   0.004978   0.015298   0.000103
     8  O    0.000225  -0.001301  -0.085337   0.006039  -0.010442   0.000482
     9  C    0.001227  -0.019192  -0.076319   0.003992  -0.098823   0.001671
    10  C    0.435487   0.452915   0.002123   0.002355  -0.006338  -0.000006
    11  C    0.001532   0.035390   0.600943  -0.092242   0.149102   0.000329
    12  C    0.009951  -0.019716  -0.117172   0.467873   0.350397  -0.000195
    13  C   -0.000034  -0.000081  -0.002871   0.010323  -0.014914   0.432334
    14  H   -0.000005   0.000118  -0.000072  -0.007654  -0.001196  -0.000209
    15  H   -0.000037  -0.000255  -0.000143   0.001387  -0.005252  -0.008577
    16  H   -0.000010   0.000054   0.000018   0.000865   0.000715  -0.003422
    17  H    0.000005   0.000001   0.000221  -0.000208  -0.000022  -0.007895
    18  H   -0.000801   0.001925  -0.008317   0.001732  -0.006773   0.001163
    19  H    0.000007  -0.000062  -0.000001   0.000327   0.000021  -0.001892
    20  H   -0.000018  -0.000028   0.000556  -0.000359  -0.000296   0.001059
    21  H   -0.009351   0.006150  -0.002059   0.001425  -0.001143   0.000005
    22  H   -0.003580   0.001906  -0.000529   0.000234  -0.000776   0.000000
    23  H   -0.000114  -0.008633   0.010603  -0.001430  -0.000452   0.000150
    24  H    0.000941   0.000389  -0.004995  -0.000413  -0.001183  -0.000043
    25  H    0.466112  -0.006534  -0.001832   0.002944  -0.001770   0.000000
    26  H   -0.006534   0.495887   0.001369  -0.002515   0.002966  -0.000015
    27  H   -0.001832   0.001369   0.436895  -0.007679   0.009525  -0.000227
    28  H    0.002944  -0.002515  -0.007679   0.474622  -0.023833  -0.000025
    29  H   -0.001770   0.002966   0.009525  -0.023833   0.486771   0.000059
    30  H    0.000000  -0.000015  -0.000227  -0.000025   0.000059   0.487821
    31  H    0.000003   0.000018  -0.000050   0.000785  -0.000220  -0.011460
              31
     1  C   -0.090860
     2  O    0.001720
     3  C   -0.030118
     4  O   -0.000011
     5  C    0.003549
     6  C   -0.008820
     7  C   -0.000304
     8  O   -0.000944
     9  C   -0.002051
    10  C    0.000140
    11  C   -0.002626
    12  C    0.000492
    13  C    0.499074
    14  H    0.002069
    15  H   -0.006497
    16  H    0.002046
    17  H   -0.001341
    18  H    0.001313
    19  H   -0.002693
    20  H   -0.001434
    21  H   -0.000007
    22  H    0.000000
    23  H   -0.000445
    24  H    0.000096
    25  H    0.000003
    26  H    0.000018
    27  H   -0.000050
    28  H    0.000785
    29  H   -0.000220
    30  H   -0.011460
    31  H    0.480625
 Mulliken charges:
               1
     1  C   -0.083530
     2  O   -0.270123
     3  C   -0.270582
     4  O   -0.342571
     5  C   -0.147435
     6  C   -0.405230
     7  C   -0.445696
     8  O   -0.291061
     9  C   -0.103562
    10  C   -0.150291
    11  C   -0.150220
    12  C   -0.402940
    13  C   -0.421134
    14  H    0.123905
    15  H    0.207525
    16  H    0.176429
    17  H    0.185284
    18  H    0.261993
    19  H    0.191019
    20  H    0.186257
    21  H    0.170699
    22  H    0.175856
    23  H    0.200723
    24  H    0.194915
    25  H    0.213619
    26  H    0.138098
    27  H    0.259501
    28  H    0.219841
    29  H    0.237627
    30  H    0.173131
    31  H    0.167952
 Sum of Mulliken charges =  -0.00000
 Mulliken charges with hydrogens summed into heavy atoms:
               1
     1  C    0.247900
     2  O   -0.270123
     3  C    0.091131
     4  O   -0.342571
     5  C    0.114559
     6  C   -0.027954
     7  C   -0.099141
     8  O   -0.291061
     9  C    0.292075
    10  C    0.201426
    11  C    0.109281
    12  C    0.054529
    13  C   -0.080051
 Electronic spatial extent (au):  <R**2>=           2958.8875
 Charge=             -0.0000 electrons
 Dipole moment (field-independent basis, Debye):
    X=              0.7161    Y=             -1.6442    Z=              0.9838  Tot=              2.0455
 Quadrupole moment (field-independent basis, Debye-Ang):
   XX=            -72.8831   YY=            -79.2106   ZZ=            -83.1441
   XY=              6.4054   XZ=             -4.8291   YZ=             -0.7288
 Traceless Quadrupole moment (field-independent basis, Debye-Ang):
   XX=              5.5295   YY=             -0.7980   ZZ=             -4.7315
   XY=              6.4054   XZ=             -4.8291   YZ=             -0.7288
 Octapole moment (field-independent basis, Debye-Ang**2):
  XXX=             -0.2959  YYY=              0.2724  ZZZ=             -2.4700  XYY=             12.2569
  XXY=            -13.4276  XXZ=             13.1494  XZZ=             -4.1058  YZZ=             -0.7696
  YYZ=              3.8084  XYZ=             -7.0743
 Hexadecapole moment (field-independent basis, Debye-Ang**3):
 XXXX=          -2899.9406 YYYY=           -624.0135 ZZZZ=           -289.0847 XXXY=             32.8504
 XXXZ=            -37.8630 YYYX=             19.5343 YYYZ=              6.5373 ZZZX=              2.6911
 ZZZY=             -2.4037 XXYY=           -622.9359 XXZZ=           -563.0170 YYZZ=           -148.7026
 XXYZ=             15.1756 YYXZ=             -3.1941 ZZXY=              3.7531
 N-N= 9.004931707888D+02 E-N=-3.242811564547D+03  KE= 6.153388187759D+02
 D1PCM: PCM CHGder 1st derivatives, ID1Alg=3 FixD1E=F DoIter=F DoCFld=F I1PDM=0.
 Calling FoFJK, ICntrl=      2127 FMM=F ISym2X=0 I1Cent= 0 IOpClX= 0 NMat=1 NMatS=1 NMatT=0.
 ***** Axes restored to original set *****
 -------------------------------------------------------------------
 Center     Atomic                   Forces (Hartrees/Bohr)
 Number     Number              X              Y              Z
 -------------------------------------------------------------------
      1        6          -0.003034822    0.006031817   -0.000811592
      2        8           0.004761054   -0.002860196    0.010446092
      3        6           0.002019107   -0.001013354    0.003215101
      4        8           0.004424741   -0.005616938   -0.006870263
      5        6          -0.002685751   -0.003850178   -0.005352731
      6        6           0.000229818   -0.001669565   -0.002089975
      7        6          -0.001729210   -0.001139893    0.002302862
      8        8          -0.005501985    0.001985081   -0.009953865
      9        6           0.001870183   -0.003286570   -0.003423120
     10        6          -0.005090985    0.003852736   -0.002692181
     11        6          -0.002748182   -0.000879621    0.008720687
     12        6           0.004789420    0.005827749    0.000484633
     13        6           0.001975205    0.000568578   -0.001950060
     14        1           0.002675915   -0.001065366   -0.006125997
     15        1          -0.000385959   -0.003521916    0.002630554
     16        1           0.002339384   -0.000684009   -0.002628594
     17        1          -0.002317896    0.001100824   -0.000250189
     18        1           0.003911706    0.004167461    0.006278726
     19        1          -0.001455488    0.000278511    0.003068897
     20        1           0.000810654    0.002412861   -0.001806348
     21        1           0.001513976    0.001807152    0.001951480
     22        1           0.000644837    0.000406181   -0.003134700
     23        1          -0.001716158   -0.001792790    0.004131902
     24        1          -0.001038758    0.002977398   -0.000751713
     25        1           0.004178238   -0.000905154   -0.000919470
     26        1          -0.001456803   -0.000634281    0.006012568
     27        1           0.003068452    0.000833557   -0.005140174
     28        1          -0.003124951   -0.002300978   -0.003556129
     29        1          -0.004213776   -0.000146157    0.006769053
     30        1          -0.001659947   -0.001627720   -0.001613571
     31        1          -0.001052018    0.000744778    0.003058120
 -------------------------------------------------------------------
 Cartesian Forces:  Max     0.010446092 RMS     0.003532869

 GradGradGradGradGradGradGradGradGradGradGradGradGradGradGradGradGradGrad
 Berny optimization.
 FormGI is forming the generalized inverse of G from B-inverse, IUseBI=4.
 Internal  Forces:  Max     0.017927566 RMS     0.002324446
 Search for a local minimum.
 Step number   1 out of a maximum of  186
 All quantities printed in internal units (Hartrees-Bohrs-Radians)
 Mixed Optimization -- RFO/linear search
 Second derivative matrix not updated -- first step.
 ITU=  0
     Eigenvalues ---    0.00627   0.00641   0.00723   0.00728   0.01406
     Eigenvalues ---    0.01431   0.01700   0.02600   0.02700   0.03077
     Eigenvalues ---    0.03132   0.03815   0.04087   0.04592   0.04749
     Eigenvalues ---    0.04862   0.04891   0.05144   0.05165   0.05245
     Eigenvalues ---    0.05297   0.05697   0.05760   0.06139   0.06183
     Eigenvalues ---    0.06370   0.06512   0.07016   0.07591   0.07651
     Eigenvalues ---    0.07839   0.07946   0.07975   0.07994   0.08266
     Eigenvalues ---    0.08839   0.09174   0.09450   0.10736   0.11556
     Eigenvalues ---    0.11609   0.11710   0.11763   0.12404   0.12485
     Eigenvalues ---    0.14723   0.14885   0.16498   0.16510   0.17987
     Eigenvalues ---    0.19126   0.21561   0.21969   0.25000   0.28331
     Eigenvalues ---    0.28530   0.28641   0.28871   0.28954   0.29051
     Eigenvalues ---    0.30044   0.30291   0.35075   0.35091   0.35175
     Eigenvalues ---    0.35192   0.35196   0.35238   0.35301   0.35314
     Eigenvalues ---    0.35314   0.35323   0.35453   0.35465   0.35488
     Eigenvalues ---    0.35603   0.35826   0.35844   0.35878   0.36311
     Eigenvalues ---    0.40824   0.41471   0.41995   0.42346   0.43543
     Eigenvalues ---    0.457231000.000001000.000001000.000001000.00000
     Eigenvalues --- 1000.000001000.000001000.000001000.000001000.00000
     Eigenvalues --- 1000.000001000.000001000.000001000.000001000.00000
     Eigenvalues --- 1000.000001000.000001000.000001000.000001000.00000
     Eigenvalues --- 1000.000001000.000001000.000001000.000001000.00000
     Eigenvalues --- 1000.000001000.000001000.000001000.000001000.00000
     Eigenvalues --- 1000.000001000.000001000.000001000.000001000.00000
     Eigenvalues --- 1000.000001000.000001000.000001000.000001000.00000
     Eigenvalues --- 1000.000001000.000001000.000001000.000001000.00000
     Eigenvalues --- 1000.000001000.000001000.000001000.000001000.00000
     Eigenvalues --- 1000.000001000.000001000.000001000.000001000.00000
     Eigenvalues --- 1000.000001000.000001000.000001000.000001000.00000
     Eigenvalues --- 1000.000001000.000001000.000001000.000001000.00000
     Eigenvalues --- 1000.000001000.000001000.000001000.000001000.00000
     Eigenvalues --- 1000.000001000.000001000.000001000.000001000.00000
     Eigenvalues --- 1000.000001000.000001000.000001000.000001000.00000
     Eigenvalues --- 1000.000001000.000001000.000001000.000001000.00000
     Eigenvalues --- 1000.000001000.000001000.000001000.000001000.00000
     Eigenvalues --- 1000.000001000.000001000.000001000.000001000.00000
     Eigenvalues --- 1000.000001000.000001000.000001000.000001000.00000
 RFO step:  Lambda=-4.60860789D-03 EMin= 6.26819786D-03
 Linear search not attempted -- first point.
 Iteration  1 RMS(Cart)=  0.09984449 RMS(Int)=  0.00174141
 Iteration  2 RMS(Cart)=  0.00507679 RMS(Int)=  0.00006609
 Iteration  3 RMS(Cart)=  0.00000779 RMS(Int)=  0.00006593
 Iteration  4 RMS(Cart)=  0.00000000 RMS(Int)=  0.00006593
 Iteration  1 RMS(Cart)=  0.00002047 RMS(Int)=  0.00000472
 Iteration  2 RMS(Cart)=  0.00001132 RMS(Int)=  0.00000527
 Iteration  3 RMS(Cart)=  0.00000625 RMS(Int)=  0.00000596
 Iteration  4 RMS(Cart)=  0.00000346 RMS(Int)=  0.00000642
 Iteration  5 RMS(Cart)=  0.00000191 RMS(Int)=  0.00000670
 Iteration  6 RMS(Cart)=  0.00000106 RMS(Int)=  0.00000686
 Iteration  7 RMS(Cart)=  0.00000058 RMS(Int)=  0.00000695
 Variable       Old X    -DE/DX   Delta X   Delta X   Delta X     New X
                                 (Linear)    (Quad)   (Total)
    R1        2.68682   0.00288   0.00000   0.00660   0.00660   2.69342
    R2        2.87111   0.00027   0.00000   0.00100   0.00101   2.87212
    R3        2.04890   0.00669   0.00000   0.01861   0.01861   2.06751
    R4        2.04326   0.00441   0.00000   0.01215   0.01215   2.05541
    R5        2.65201   0.00415   0.00000   0.00872   0.00874   2.66075
    R6        2.88938  -0.00132   0.00000  -0.00422  -0.00423   2.88515
    R7        2.88843  -0.00067   0.00000  -0.00162  -0.00163   2.88680
    R8        2.05365   0.00341   0.00000   0.00956   0.00956   2.06320
    R9        2.05168   0.00258   0.00000   0.00720   0.00720   2.05888
   R10        2.67624   0.00335   0.00000   0.00756   0.00754   2.68379
   R11        2.67062   0.00389   0.00000   0.00884   0.00887   2.67949
   R12        2.87696  -0.00067   0.00000  -0.00236  -0.00236   2.87460
   R13        2.64445   0.00153   0.00000   0.00331   0.00331   2.64776
   R14        2.03598   0.00846   0.00000   0.02302   0.02302   2.05900
   R15        2.05359   0.00335   0.00000   0.00940   0.00940   2.06298
   R16        2.04946   0.00310   0.00000   0.00863   0.00863   2.05809
   R17        2.89586  -0.00075   0.00000  -0.00257  -0.00260   2.89326
   R18        2.87372   0.00060   0.00000   0.00166   0.00164   2.87536
   R19        2.05189   0.00304   0.00000   0.00850   0.00850   2.06039
   R20        2.05392   0.00314   0.00000   0.00880   0.00880   2.06272
   R21        2.68485  -0.00030   0.00000  -0.00070  -0.00070   2.68415
   R22        2.88295  -0.00201   0.00000  -0.00643  -0.00640   2.87654
   R23        2.05153   0.00471   0.00000   0.01315   0.01315   2.06468
   R24        2.05169   0.00320   0.00000   0.00895   0.00895   2.06064
   R25        2.04355   0.00437   0.00000   0.01204   0.01204   2.05559
   R26        2.05553   0.00610   0.00000   0.01716   0.01716   2.07269
   R27        2.88625  -0.00074   0.00000  -0.00216  -0.00214   2.88411
   R28        2.04707   0.00588   0.00000   0.01631   0.01631   2.06338
   R29        2.04273   0.00516   0.00000   0.01419   0.01419   2.05692
   R30        2.04926   0.00740   0.00000   0.02060   0.02060   2.06986
   R31        2.05291   0.00281   0.00000   0.00787   0.00787   2.06078
   R32        2.05528   0.00324   0.00000   0.00910   0.00910   2.06438
    A1        1.94580   0.00218   0.00000   0.00557   0.00553   1.95134
    A2        1.91052   0.00017   0.00000   0.00160   0.00166   1.91218
    A3        1.84160  -0.00128   0.00000  -0.00214  -0.00216   1.83944
    A4        1.92925  -0.00153   0.00000  -0.00665  -0.00670   1.92255
    A5        1.94657  -0.00020   0.00000  -0.00166  -0.00159   1.94498
    A6        1.88724   0.00066   0.00000   0.00357   0.00355   1.89079
    A7        2.02836  -0.00574   0.00000  -0.03626  -0.03614   1.99222
    A8        1.91207   0.00207   0.00000  -0.00008  -0.00006   1.91201
    A9        1.92325  -0.00097   0.00000  -0.00632  -0.00633   1.91692
   A10        1.91586  -0.00061   0.00000   0.00155   0.00154   1.91740
   A11        1.91439  -0.00097   0.00000  -0.00223  -0.00231   1.91208
   A12        1.93087  -0.00024   0.00000   0.00177   0.00182   1.93268
   A13        1.86707   0.00065   0.00000   0.00534   0.00535   1.87242
   A14        1.97864  -0.00481   0.00000  -0.02774  -0.02766   1.95097
   A15        1.94208   0.00355   0.00000   0.01435   0.01416   1.95624
   A16        1.95459  -0.00051   0.00000  -0.00814  -0.00800   1.94658
   A17        1.83146  -0.00230   0.00000  -0.01191  -0.01195   1.81951
   A18        1.88707  -0.00250   0.00000  -0.01194  -0.01185   1.87522
   A19        1.92427   0.00028   0.00000   0.00749   0.00754   1.93181
   A20        1.92454   0.00160   0.00000   0.01098   0.01096   1.93550
   A21        1.95739  -0.00189   0.00000  -0.01526  -0.01536   1.94202
   A22        1.90817   0.00130   0.00000   0.00751   0.00759   1.91576
   A23        1.94805  -0.00026   0.00000  -0.00148  -0.00158   1.94648
   A24        1.87107   0.00007   0.00000   0.00374   0.00374   1.87481
   A25        1.90049   0.00090   0.00000  -0.00028  -0.00027   1.90022
   A26        1.87531  -0.00003   0.00000   0.00690   0.00688   1.88218
   A27        1.92782  -0.00102   0.00000  -0.00633  -0.00641   1.92141
   A28        1.92562  -0.00026   0.00000   0.00057   0.00060   1.92622
   A29        1.92102   0.00068   0.00000  -0.00004  -0.00004   1.92098
   A30        1.90704   0.00069   0.00000   0.00448   0.00448   1.91153
   A31        1.90578  -0.00004   0.00000  -0.00167  -0.00164   1.90413
   A32        1.87570  -0.00002   0.00000   0.00328   0.00326   1.87896
   A33        2.12781  -0.01793   0.00000  -0.07041  -0.07041   2.05740
   A34        1.89525   0.00128   0.00000  -0.00100  -0.00097   1.89428
   A35        1.89720  -0.00044   0.00000   0.00002  -0.00004   1.89716
   A36        1.93489   0.00020   0.00000   0.00650   0.00651   1.94140
   A37        1.93068  -0.00096   0.00000  -0.00760  -0.00760   1.92308
   A38        1.92480  -0.00054   0.00000  -0.00164  -0.00167   1.92312
   A39        1.88107   0.00043   0.00000   0.00373   0.00371   1.88479
   A40        1.93808   0.00212   0.00000   0.00905   0.00908   1.94716
   A41        1.85594  -0.00125   0.00000  -0.00344  -0.00343   1.85250
   A42        1.90232   0.00064   0.00000   0.00683   0.00684   1.90916
   A43        1.94415  -0.00034   0.00000  -0.00315  -0.00316   1.94099
   A44        1.92963  -0.00176   0.00000  -0.01020  -0.01024   1.91939
   A45        1.89149   0.00061   0.00000   0.00131   0.00127   1.89276
   A46        2.01143  -0.00062   0.00000  -0.00928  -0.00960   2.00184
   A47        1.96282  -0.00080   0.00000  -0.01368  -0.01391   1.94891
   A48        1.80145   0.00121   0.00000   0.02223   0.02233   1.82378
   A49        1.92311  -0.00021   0.00000  -0.00817  -0.00835   1.91475
   A50        1.88666   0.00059   0.00000   0.00686   0.00694   1.89360
   A51        1.86737   0.00006   0.00000   0.00650   0.00654   1.87391
   A52        1.90905   0.00176   0.00000   0.01087   0.01096   1.92001
   A53        1.86374  -0.00049   0.00000   0.00412   0.00413   1.86787
   A54        1.91019   0.00194   0.00000   0.01894   0.01904   1.92922
   A55        1.93199  -0.00091   0.00000  -0.01008  -0.01024   1.92176
   A56        1.94525  -0.00300   0.00000  -0.02151  -0.02164   1.92360
   A57        1.90175   0.00085   0.00000  -0.00089  -0.00120   1.90055
   A58        1.92134  -0.00091   0.00000  -0.00397  -0.00417   1.91717
   A59        1.90257   0.00054   0.00000   0.00319   0.00324   1.90581
   A60        1.90708   0.00001   0.00000  -0.00209  -0.00203   1.90504
   A61        1.93975  -0.00053   0.00000  -0.00193  -0.00190   1.93785
   A62        1.91644   0.00090   0.00000   0.00165   0.00173   1.91817
   A63        1.87586   0.00002   0.00000   0.00332   0.00329   1.87915
    D1       -0.99447   0.00049   0.00000  -0.01535  -0.01522  -1.00969
    D2        1.14558   0.00013   0.00000  -0.01892  -0.01884   1.12674
    D3       -3.11048   0.00030   0.00000  -0.01513  -0.01504  -3.12552
    D4        0.95847   0.00133   0.00000   0.01806   0.01812   0.97659
    D5        3.09035   0.00045   0.00000   0.01520   0.01520   3.10555
    D6       -1.14746   0.00078   0.00000   0.01982   0.01984  -1.12762
    D7       -1.17079   0.00068   0.00000   0.01682   0.01689  -1.15390
[...]
 31606,-0.00000285,0.00000107,0.00002343,0.00002203,0.00001995,0.000037
 48,-0.00000789,-0.00000410,0.00001138,0.00000259,-0.00000005,0.0000023
 0,-0.00000453,0.00000171,-0.00000218,-0.00002648,0.00000437,0.00002441
 ,-0.00001355,0.00000114,0.00000028,-0.00000117,0.,-0.00000056,0.000087
 72,-0.00000927,0.00010862,-0.00053920,-0.00052456,0.00037692,-0.000481
 99,0.00009512,0.00020915,0.00014271,-0.00003298,0.00031964,-0.04019772
 ,0.01705609,0.06246864,-0.00003923,-0.00004498,-0.00000953,0.00012585,
 -0.00001037,-0.00001782,0.00000539,-0.00000615,-0.00000350,0.00116473,
 0.00171214,-0.02444922,-0.00004958,0.00004883,0.00000088,-0.00000319,0
 .00001117,0.00000656,0.00126748,0.00210244,-0.00217907,0.00003060,0.00
 011458,0.00005965,0.00067448,0.00010479,-0.00096489,-0.07986732,-0.023
 67922,0.07280046,-0.00050891,0.00013235,0.00007261,0.00407749,0.000568
 63,-0.00394931,0.00000053,0.00000240,-0.00000306,-0.00001276,-0.000000
 78,-0.00001104,0.00000184,0.00000462,-0.00000007,-0.00000157,0.0000004
 1,-0.00000131,0.00000504,0.00000094,0.00000264,-0.00000661,0.00001135,
 0.00001486,0.00000428,-0.00000122,-0.00000110,0.00000231,-0.00000253,0
 .00000237,0.00019974,-0.00022597,0.00015303,0.00110264,0.00037479,-0.0
 0032917,0.00027138,0.00013252,0.00008148,0.00005504,-0.00012339,0.0000
 3738,-0.00733559,-0.01035264,0.02627812,0.07826812,0.00002463,0.000019
 06,-0.00000458,-0.00005852,0.00002918,-0.00000182,-0.00000125,-0.00000
 016,0.00000259,-0.00035712,0.00511149,-0.02264879,0.00001154,-0.000037
 35,0.00000559,-0.00000150,0.00000120,0.00000255,-0.01122266,-0.0129829
 3,0.03102236,0.00005355,0.00021895,0.00006833,-0.00121105,0.00166872,0
 .00053878,-0.02422236,-0.07827190,0.07581534,-0.00024909,-0.00035142,0
 .00003419,0.00271724,0.00010291,-0.00049295,-0.00000020,-0.00000381,0.
 00000401,0.00000772,0.00000121,0.00000618,-0.00000060,-0.00000218,0.00
 000147,0.00000127,-0.00000029,-0.00000049,-0.00000110,0.00000059,-0.00
 000180,-0.00000105,0.00000129,0.00000643,-0.00000178,0.,0.00000003,-0.
 00000190,0.00000088,-0.00000075,-0.00020959,0.00119151,-0.00058953,0.0
 0140989,-0.00646135,0.00046340,0.00071238,-0.00006588,-0.00052458,-0.0
 0010103,0.00014931,-0.00051824,0.00281956,0.00381815,-0.00830046,0.029
 70723,0.08612979,0.00005788,0.00004279,-0.00001515,-0.00015576,-0.0000
 4038,0.00008160,-0.00000460,0.00001008,0.00000661,-0.00654398,-0.00365
 469,-0.03598438,0.00014912,0.00001253,-0.00030480,-0.00001302,-0.00001
 085,0.00004192,0.00252011,0.00163504,-0.00111149,-0.00054568,0.0004040
 2,0.00013408,-0.00023044,-0.00057123,0.00018872,0.06869201,0.07513597,
 -0.23930044,-0.00020648,-0.00054418,0.00015741,0.00449898,0.00003461,0
 .00064993,-0.00000080,-0.00000282,0.00001108,0.00001811,0.00001286,0.0
 0002338,-0.00000893,-0.00001023,0.00000625,0.00000408,0.00000008,0.000
 00501,-0.00000991,-0.00000169,-0.00000437,0.00000076,0.00000436,0.0000
 2118,-0.00002723,0.00000443,0.00000111,-0.00000074,-0.00000098,-0.0000
 0148,0.00001060,0.00079910,0.00025024,0.00020055,0.00006836,0.00114926
 ,-0.00054560,0.00026436,-0.00006731,-0.00009574,0.00004810,0.00018813,
 0.00275877,0.00204949,-0.00283520,-0.06901363,-0.07562558,0.27572702,0
 .00039140,0.00043987,0.00025536,-0.00043171,-0.00151447,0.00115227,0.0
 0005410,0.00012990,0.00009600,0.00154427,0.00070972,-0.00065368,-0.002
 71999,-0.00001933,-0.00579814,-0.00042459,0.00019088,0.00148551,0.0011
 4596,0.00002518,-0.00096778,-0.03367490,-0.00098114,0.03606603,0.00504
 047,0.00329120,-0.01504674,-0.00020788,-0.00008697,-0.00028806,-0.0709
 5690,-0.02250540,0.07306005,0.00121824,0.00016357,-0.00135860,0.000025
 33,-0.00002820,-0.00008993,-0.00004605,0.00001082,-0.00006184,-0.00005
 240,-0.00008847,-0.00000145,0.00002101,-0.00003821,-0.00000366,-0.0000
 8421,-0.00004705,-0.00005095,0.00004525,0.00014949,0.00028946,-0.00053
 069,0.00020263,-0.00009595,0.00000410,0.00004233,-0.00005090,0.0001453
 8,0.00000788,0.00007554,-0.00025715,-0.00034099,-0.00000500,-0.0013654
 7,-0.00180047,-0.00258887,0.00032035,0.00007106,0.00067264,-0.00000027
 ,0.00005151,-0.00000991,-0.00011670,-0.00010028,0.00015784,0.10056259,
 0.00008375,-0.00004423,-0.00010666,0.00002787,0.00053196,-0.00043618,-
 0.00000304,-0.00003715,-0.00001185,-0.00103933,0.00311127,-0.00186514,
 0.00157225,-0.00016037,0.00056102,0.00014484,0.00003399,-0.00034143,0.
 00088545,0.00050345,0.00051785,0.00781257,0.00342543,-0.00983100,0.004
 82482,0.00420418,-0.01921669,0.00000652,-0.00016408,-0.00006841,-0.024
 73076,-0.06634309,0.05976085,-0.01120221,-0.01486473,0.03394070,-0.000
 00395,0.00000405,0.00004951,0.00008089,0.00000443,0.00007533,0.0000071
 8,0.00002336,0.00000219,-0.00000420,0.00001107,0.00000610,0.00001397,0
 .00002011,0.00001199,-0.00016299,0.00004506,0.00003071,0.00012044,-0.0
 0004358,0.00001506,-0.00001813,-0.00000671,0.00001634,0.00016811,-0.00
 019204,0.00019479,-0.00019659,0.00002714,0.00029344,-0.00211005,-0.001
 17726,-0.00282125,0.00075547,0.00067952,0.00054844,0.00003506,0.000069
 21,0.00002151,-0.00015810,-0.00005994,-0.00004580,0.02155515,0.0749837
 2,-0.00011479,-0.00011697,-0.00004937,0.00010221,0.00000769,0.00010412
 ,0.00002904,-0.00004199,-0.00000111,-0.00108938,-0.00085045,0.00088557
 ,-0.00141233,0.00016238,0.00230655,0.00000308,0.00010102,-0.00008761,0
 .00123006,0.00041504,0.00041024,0.00190258,-0.00155964,0.00393344,0.00
 571729,0.00463426,-0.02402382,-0.00026531,0.00003378,-0.00004490,0.081
 01590,0.05833389,-0.26277633,0.00239364,0.00203499,-0.00470648,-0.0000
 0077,0.00000997,0.00001618,-0.00002029,0.00000111,-0.00002168,0.000014
 40,0.00002249,-0.00000529,-0.00000519,-0.00000017,-0.00002408,0.000032
 16,0.00001532,0.00000825,-0.00020025,0.00010148,0.00002242,0.00005151,
 -0.00001007,-0.00000487,0.00001072,0.00000711,-0.00000553,-0.00010980,
 -0.00024372,0.00042819,-0.00090202,0.00011546,0.00036314,-0.00238522,-
 0.00265818,-0.00206397,0.00024239,-0.00017817,0.00097174,-0.00001587,0
 .00008312,-0.00001247,0.00014981,-0.00007590,-0.00006321,-0.08632038,-
 0.06133931,0.28251100,-0.00056862,-0.00016961,-0.00001415,0.00026605,-
 0.00008258,-0.00046166,0.00001292,-0.00000074,-0.00000110,-0.03017043,
 -0.01808842,-0.02852867,-0.00008413,0.00003270,0.00025507,-0.00000775,
 0.00001327,-0.00002522,-0.00052567,0.00001740,-0.00046012,0.00147733,-
 0.00080213,0.00023893,0.00011873,0.00199553,0.00009315,-0.00406628,0.0
 0293790,0.00415545,0.00285224,0.00162688,0.00400784,-0.09646163,-0.059
 64526,-0.08004059,-0.00004958,-0.00004060,0.00008847,-0.00148217,0.000
 13025,0.00084286,0.00000322,-0.00003416,0.00000099,0.00000148,-0.00000
 024,-0.00001287,0.00000582,-0.00000306,0.00000145,-0.00000820,-0.00001
 743,-0.00002842,0.00001037,-0.00000016,-0.00000699,-0.00000060,-0.0000
 0199,0.00000034,0.00008733,-0.00028149,0.00000922,0.00004035,-0.000036
 60,0.00005352,-0.00007518,-0.00008209,-0.00024245,0.00042575,0.0003643
 2,0.00021122,-0.00114595,-0.00094125,-0.00119115,0.00013311,0.00008536
 ,-0.00032963,0.00019954,-0.00040332,-0.00017348,0.12290141,-0.00005698
 ,-0.00024327,-0.00043541,0.00010089,0.00027606,0.00001887,0.00001259,-
 0.00002981,-0.00000056,0.00426307,0.00637254,0.00723868,0.00013026,-0.
 00015222,-0.00002643,0.00003284,0.00004750,-0.00004817,0.00075903,0.00
 016291,0.00016451,-0.00045716,0.00278524,0.00070777,0.00224936,-0.0059
 0311,0.00254914,0.00214293,0.00022643,0.00043702,-0.01573731,-0.017880
 91,-0.02541137,-0.06578855,-0.12566628,-0.10246549,-0.00002821,-0.0000
 2043,0.00014397,0.00000913,0.00035521,0.00023835,-0.00005547,-0.000008
 51,0.00008270,0.00000348,-0.00000113,0.00000576,0.00000026,0.00001637,
 0.00000258,-0.00010869,0.00004202,0.00014112,0.00001581,-0.00000839,-0
 .00000019,-0.00001178,0.00000413,-0.00000274,-0.00014415,0.00011803,-0
 .00004760,-0.00012018,0.00004997,0.00004679,0.00015133,0.00012335,-0.0
 0002068,-0.00116903,-0.00117107,-0.00140491,0.00037427,0.00033849,0.00
 014092,-0.00004942,-0.00007594,-0.00022516,-0.00013821,0.00154049,0.00
 033098,0.06850675,0.13240321,-0.00032159,-0.00046394,-0.00094978,0.000
 70148,0.00013366,0.00010398,-0.00002144,-0.00004241,0.00000054,0.00141
 707,0.00350137,0.00524025,-0.00020329,-0.00013850,0.00012578,0.0000131
 8,-0.00000894,-0.00003091,0.00017259,0.00007014,-0.00004047,0.00135731
 ,-0.00060707,-0.00006612,-0.00020919,0.00046920,0.00079886,0.00102281,
 0.00067721,0.00126453,0.00187092,0.00445026,0.00346797,-0.08946232,-0.
 10315214,-0.19664548,-0.00000975,0.00009191,0.00038989,0.00048945,0.00
 014828,0.00052698,-0.00002939,0.00000003,0.00011463,0.00001706,-0.0000
 0120,0.00000795,-0.00000548,0.00003062,-0.00000648,-0.00000378,0.00004
 488,-0.00001731,0.00000995,0.00000181,0.00000398,0.00000514,0.00001401
 ,0.00000197,-0.00005593,0.00000672,-0.00004540,0.00000037,-0.00003029,
 0.00000133,0.00010317,0.00022088,0.00036982,-0.00014003,0.00005883,0.0
 0023460,-0.00010146,-0.00019933,0.00022411,0.00016888,0.00002060,0.000
 46208,0.00025575,-0.00053651,0.00082956,0.09584220,0.11033020,0.201808
 37,-0.00102455,0.00003611,0.00009073,-0.00283973,0.00068491,0.00136547
 ,0.00005118,0.00001406,-0.00003968,-0.03180064,-0.00710262,0.03173759,
 0.00010229,0.00115615,-0.00049217,-0.00005012,-0.00004290,0.00009139,-
 0.00041322,-0.00020035,-0.00063269,0.00049940,-0.00174334,0.00075178,-
 0.00027402,-0.00043712,0.00021149,0.00282749,0.00114421,0.00596014,0.0
 0415751,0.00152363,-0.00547903,-0.06660856,-0.02597671,0.05844923,-0.0
 0003830,0.00000456,-0.00003306,0.00006576,-0.00003593,-0.00029511,0.00
 003990,-0.00008885,0.00005745,-0.00000729,0.00000158,0.00000704,0.0000
 1588,-0.00002739,0.00002581,-0.00000636,-0.00005919,0.00004366,-0.0000
 0332,0.00000134,-0.00000361,0.00003401,-0.00002743,0.00001537,0.000094
 93,-0.00025290,-0.00008199,-0.00001253,0.00013389,-0.00004494,0.000057
 25,-0.00021122,0.00017004,-0.00003239,0.00002893,-0.00000987,0.0001950
 9,0.00023693,-0.00039467,0.00054229,0.00019597,-0.00132021,0.00020933,
 0.00195400,0.00009286,0.00612595,0.00517371,-0.01275463,0.08799344,0.0
 0057639,0.00072806,0.00031720,-0.00062821,0.00073350,-0.00067142,-0.00
 000102,-0.00000153,0.00003846,0.00501693,0.00564732,-0.00833233,0.0002
 2979,-0.00148967,0.00134388,0.00010124,0.00004429,-0.00024342,0.000029
 97,-0.00015970,0.00005466,0.00131773,0.00155532,-0.00224186,0.00032452
 ,0.00203843,0.00141946,-0.00108140,-0.00038299,-0.00011096,-0.01122628
 ,-0.01108066,0.03202746,-0.02416306,-0.07801756,0.07094341,-0.00004384
 ,-0.00014264,-0.00008017,0.00013655,-0.00006122,-0.00022047,0.00001460
 ,-0.00008786,0.00002586,-0.00000259,-0.00000311,-0.00001433,-0.0000124
 3,0.00000169,-0.00000719,0.00001448,0.00000794,-0.00010434,0.00005968,
 -0.00001325,0.00000744,-0.00004625,0.00004132,-0.00003370,-0.00007438,
 0.00007670,-0.00002844,0.00011978,0.00003103,-0.00004685,-0.00011097,-
 0.00014824,-0.00093158,0.00035021,0.00027780,-0.00035797,-0.00000041,-
 0.00005834,-0.00009470,-0.00037300,-0.00013235,0.00020567,0.00066773,-
 0.00613651,0.00066007,0.00491897,0.00627396,-0.01514782,0.02393808,0.0
 8044779,-0.00058946,-0.00051299,0.00002264,0.00356748,-0.00162505,-0.0
 0068948,0.00001363,0.00001935,-0.00005097,0.00789553,-0.00179376,0.000
 35529,0.00004692,0.00099226,-0.00088199,-0.00004955,-0.00011311,0.0001
 8741,0.00011873,-0.00013154,-0.00003345,-0.00132332,0.00065266,0.00087
 294,-0.00024984,-0.00058161,0.00086649,-0.00174606,-0.00066669,0.00257
 198,0.00183707,0.00010990,-0.00447474,0.06129537,0.07276195,-0.2624264
 3,0.00001532,-0.00001272,-0.00014986,-0.00022438,0.00007061,-0.0003472
 2,-0.00009321,0.00008482,0.00000298,-0.00000486,0.00000387,0.00000755,
 0.00001068,-0.00002324,0.00001439,-0.00004565,-0.00003708,0.00004677,-
 0.00004179,0.00000944,-0.00000275,0.00005333,-0.00004992,0.00003352,0.
 00006026,0.00002525,-0.00000927,-0.00009420,0.00004219,-0.00023797,0.0
 0038552,0.00030850,0.00045576,-0.00014449,0.00004033,0.00013120,0.0000
 5305,-0.00006722,0.00040046,0.00110215,0.00079469,0.00058465,-0.000186
 86,0.00058408,0.00110144,0.00571683,0.00751654,-0.01814803,-0.07748276
 ,-0.07836062,0.27974287,-0.01058633,-0.02434922,-0.01485311,-0.0086927
 7,-0.00026844,-0.00245620,-0.00018490,0.00026495,0.00134919,-0.0001281
 0,0.00003384,0.00003103,0.00054963,0.00232829,-0.00137232,0.00111952,0
 .00055635,0.00023276,0.00001397,-0.00002179,-0.00000907,-0.00040476,-0
 .00023460,0.00056586,-0.00004043,0.00003202,-0.00001381,0.00002603,0.0
 0001055,0.00003667,0.00032892,0.00000007,-0.00008455,0.00005414,-0.000
 01213,-0.00008742,-0.10870335,-0.08910198,-0.06314876,0.00099956,-0.00
 008759,0.00099370,0.00101833,0.00042147,-0.00016704,0.00001916,-0.0001
 5015,-0.00006101,0.00025519,-0.00012379,0.00047425,0.00006357,-0.00024
 028,0.00010790,-0.00012489,-0.00021461,-0.00025031,0.00027621,0.000120
 61,-0.00015951,-0.00001759,-0.00000022,-0.00000456,-0.00001199,0.00000
 392,0.00000653,0.00003439,0.00000593,0.00003331,-0.00000386,-0.0000068
 3,0.00000401,-0.00000969,0.00000393,-0.00000293,0.00000435,-0.00000263
 ,-0.00000664,-0.00004759,-0.00000065,0.00001810,-0.00000040,-0.0000047
 4,0.00002112,0.00004623,-0.00006097,0.00002873,0.11586243,0.00357986,0
 .00749848,0.00543233,0.00345726,0.00147711,0.00121395,-0.01339077,-0.0
 1934350,-0.01515995,-0.00004350,0.00002879,-0.00001572,0.00113550,-0.0
 0083614,0.00051419,0.00059396,-0.00404318,0.00499466,0.00000461,-0.000
 01124,-0.00000945,-0.00033547,0.00018995,-0.00008447,-0.00004175,0.000
 03040,0.00000107,0.00000555,-0.00000047,0.00001738,0.00014861,-0.00001
 645,0.00002968,-0.00000432,-0.00004704,0.00001756,-0.09035727,-0.18415
 255,-0.09864825,-0.00058313,0.00040147,-0.00026190,-0.00092934,0.00013
 487,-0.00002535,-0.00004423,0.00123634,0.00007273,0.00057215,0.0008836
 5,-0.00051358,-0.00012148,0.00022445,-0.00012089,0.00026846,0.00024067
 ,0.00006933,-0.00133853,-0.00113856,-0.00089916,-0.00000975,0.00000090
 ,-0.00000207,-0.00000384,0.00000129,0.00000245,-0.00000574,-0.00000970
 ,0.00000903,0.00000673,-0.00000038,-0.00000491,-0.00000378,0.00000224,
 -0.00000169,0.00000100,-0.00000036,-0.00000327,-0.00003655,0.00000629,
 0.00000897,-0.00000131,-0.00000052,-0.00000920,0.00001420,0.00000670,-
 0.00000294,0.09901573,0.20071440,-0.00045597,-0.00480738,-0.00463209,-
 0.00292195,-0.00035784,0.00091431,0.01052756,0.01421867,0.01004206,-0.
 00007142,-0.00000721,0.00001609,0.00000541,0.00101318,-0.00075130,-0.0
 0026366,0.00315675,-0.00181605,0.00000388,-0.00000625,-0.00000454,-0.0
 0009851,-0.00019508,0.00024075,-0.00000514,0.00000405,-0.00000388,0.00
 001234,0.00001088,0.00002192,0.00009342,0.00002587,-0.00004768,0.00002
 844,0.00002389,-0.00004866,-0.06501515,-0.09936846,-0.11778772,-0.0001
 8103,0.00022092,0.00033192,0.00024557,0.00015289,-0.00003187,0.0000883
 9,-0.00087202,0.00084597,-0.00019921,-0.00095777,0.00051493,0.00005188
 ,-0.00014897,0.00000518,0.00002128,0.00020805,0.00020334,0.00046451,0.
 00080298,0.00055124,-0.00000496,-0.00000118,-0.00000164,-0.00000296,0.
 00000075,0.00000211,0.00001004,0.00000309,0.00000962,-0.00000378,-0.00
 000407,0.00000095,-0.00000487,-0.00000073,-0.00000236,0.00000243,-0.00
 000098,-0.00000325,-0.00000922,-0.00000323,0.00000541,0.00000388,-0.00
 000402,-0.00000557,0.00001655,-0.00002481,0.00003384,0.07125257,0.1055
 5583,0.12482731,-0.01854527,0.00718285,0.02910346,0.00336179,-0.000448
 99,-0.00045854,-0.00007159,-0.00007892,-0.00065818,-0.00019602,-0.0000
 8367,-0.00006522,-0.00032381,0.00011522,0.00009021,-0.00018465,0.00003
 697,0.00034033,0.00000328,-0.00000608,-0.00001821,0.00002296,-0.000247
 19,-0.00005435,-0.00000450,-0.00001034,0.00001111,0.00001723,0.0000397
 5,0.00007857,0.00012274,0.00008271,-0.00002067,0.00012358,0.00009625,0
 .00010295,-0.10950888,0.01720893,0.10713877,-0.00539527,0.00181562,-0.
 00176872,0.00149231,-0.00035374,-0.00042225,0.00099021,0.00030690,-0.0
 0008541,0.00038616,-0.00045009,-0.00015275,-0.00003542,-0.00006487,0.0
 0002751,-0.00015720,-0.00026507,0.00004919,0.00001258,-0.00005929,-0.0
 0010317,-0.00000778,-0.00000593,-0.00000266,-0.00000213,0.00000077,0.0
 0000330,-0.00000293,-0.00000102,0.00000133,-0.00000423,-0.00001103,-0.
 00000698,-0.00001600,-0.00000667,-0.00001167,0.00000478,-0.00000261,-0
 .00000980,-0.00001082,-0.00001503,0.00000933,-0.00001499,-0.00005587,-
 0.00015015,0.00005311,0.00000816,0.00007582,0.00828502,-0.00155286,-0.
 01359030,0.11960576,0.00571286,-0.00400584,-0.01123998,-0.00088379,0.0
 0108500,0.00107621,-0.01452629,0.00332286,0.02598583,0.00010631,0.0000
 3316,0.00002551,-0.00003075,-0.00054514,0.00035609,0.00002631,0.001748
 13,0.00060326,-0.00000373,-0.00000041,0.00000426,0.00010030,0.00019460
 ,-0.00017350,-0.00001479,0.00000996,0.00000279,-0.00001070,-0.00001854
 ,-0.00003990,-0.00008694,-0.00007316,-0.00003853,-0.00007895,-0.000035
 32,-0.00004234,0.01846063,-0.05481195,-0.03537372,0.00247683,0.0004076
 7,0.00111528,-0.00046295,0.00014610,-0.00030749,-0.00051706,-0.0045979
 3,0.00309931,0.00034848,0.00120300,-0.00077954,-0.00004294,0.00008593,
 -0.00006216,0.00014999,-0.00025931,-0.00046630,0.00037165,0.00011094,-
 0.00017895,0.00000274,0.00000335,0.00000150,0.00000226,-0.00000064,-0.
 00000212,-0.00000036,0.00000049,-0.00000321,0.00000347,0.00000615,0.00
 000403,0.00000807,0.00000271,0.00000520,-0.00000243,0.00000161,0.00000
 499,0.00001682,0.00000496,-0.00000457,0.00000316,0.00002571,0.00006674
 ,-0.00003627,0.00000380,-0.00003798,0.01208294,-0.00347789,-0.01863780
 ,-0.02317489,0.05943001,-0.00464452,0.00071335,0.00612159,0.00110201,0
 .00114867,0.00079583,0.00824562,-0.00188821,-0.01730145,0.00000542,-0.
 00003916,-0.00000262,-0.00006900,-0.00002372,0.00011964,-0.00046429,-0
 .00100854,0.00072053,-0.00000385,0.00000932,0.00000442,0.00026087,-0.0
 0001615,-0.00008773,0.00003594,-0.00002219,0.00000761,-0.00000572,0.00
 000653,-0.00000272,-0.00015071,0.00005705,0.00003246,-0.00002439,0.000
 04864,0.00000379,0.10916090,-0.03563702,-0.24019676,-0.00176222,0.0001
 3858,0.00086573,0.00066405,-0.00029155,0.00072143,-0.00023215,0.003644
 54,-0.00062091,-0.00040963,-0.00021399,0.00049587,0.00012130,-0.000006
 35,-0.00001111,0.00033824,0.00038717,0.00050581,-0.00023800,0.00013500
 ,0.00023938,0.00000825,-0.00000141,0.00000157,0.00000389,-0.00000180,-
 0.00000222,-0.00000321,0.00000399,-0.00000930,-0.00000204,0.,0.0000007
 7,0.00000078,-0.00000314,-0.00000138,-0.00000062,-0.00000005,0.0000014
 1,0.00002147,-0.00000646,-0.00000655,-0.00000491,-0.00000317,-0.000021
 63,-0.00002216,0.00000938,0.00002002,0.00752151,-0.00217638,-0.0134303
 5,-0.11945284,0.03503707,0.26103686\\-0.00000402,0.00000229,0.00000054
 ,-0.00000434,-0.00001924,0.00002200,0.00000003,0.00000382,0.00000382,0
 .00000773,0.00000576,-0.00001151,-0.00045265,-0.00202426,-0.00021278,0
 .00000944,-0.00001546,0.00000845,0.00000051,0.00000334,0.00000027,0.00
 083588,0.00359723,-0.00034808,0.00039710,0.00130685,-0.00128717,-0.000
 00475,0.00000182,0.00001357,-0.00076606,-0.00286161,0.00181303,-0.0000
 0683,0.00000312,0.00001822,0.00000003,-0.00001111,-0.00000307,0.000006
 23,0.00000042,-0.00001069,0.00000511,-0.00000230,-0.00000064,0.0000020
 6,-0.00000495,-0.00000594,0.00000207,0.00000497,-0.00000245,-0.0000099
 2,0.00000057,0.00001310,-0.00000644,0.00000326,0.00000516,-0.00000497,
 0.00000194,-0.00000294,-0.00000204,0.00000065,-0.00000015,-0.00000025,
 0.00000741,-0.00000214,0.00000111,0.00000009,-0.00000174,-0.00000287,0
 .00000338,-0.00000351,-0.00000014,-0.00000184,-0.00000263,-0.00000149,
 -0.00000170,0.00000282,0.00000078,-0.00000018,0.,-0.00000149,-0.000000
 43,-0.00000491,0.00000317,-0.00000363,-0.00000202,-0.00000091,0.000000
 20,0.00000029,-0.00000206,-0.00000041,0.00000108\\\@


 LET US PLACE AT THE END OF EVERY CHAPTER.....THE
 TWO LETTERS USED BY THE ROMAN JUDGES WHEN THEY DID
 NOT UNDERSTAND A PLEADING.
 N. L. -NON LIQUET- IT IS NOT CLEAR.
                                              -- VOLTAIRE
 Job cpu time:       0 days 14 hours 48 minutes 33.6 seconds.
 Elapsed time:       0 days  0 hours 55 minutes 33.5 seconds.
 File lengths (MBytes):  RWF=    686 Int=      0 D2E=      0 Chk=     32 Scr=      1
 Normal termination of Gaussian 16 at Sun Nov  4 23:01:08 2018.
