 Entering Gaussian System, Link 0=g16
 Initial command:
 /apps/gaussian/g16a03/g16/l1.exe "/jobfs/local/2012087.r-man2/Gau-12076.inp" -scrdir="/jobfs/local/2012087.r-man2/"
 Entering Link 1 = /apps/gaussian/g16a03/g16/l1.exe PID=     12077.
  
 Copyright (c) 1988,1990,1992,1993,1995,1998,2003,2009,2016,
            Gaussian, Inc.  All Rights Reserved.
  
 This is part of the Gaussian(R) 16 program.  It is based on
 the Gaussian(R) 09 system (copyright 2009, Gaussian, Inc.),
 the Gaussian(R) 03 system (copyright 2003, Gaussian, Inc.),
 the Gaussian(R) 98 system (copyright 1998, Gaussian, Inc.),
 the Gaussian(R) 94 system (copyright 1995, Gaussian, Inc.),
 the Gaussian 92(TM) system (copyright 1992, Gaussian, Inc.),
 the Gaussian 90(TM) system (copyright 1990, Gaussian, Inc.),
 the Gaussian 88(TM) system (copyright 1988, Gaussian, Inc.),
 the Gaussian 86(TM) system (copyright 1986, Carnegie Mellon
 University), and the Gaussian 82(TM) system (copyright 1983,
 Carnegie Mellon University). Gaussian is a federally registered
 trademark of Gaussian, Inc.
  
 This software contains proprietary and confidential information,
 including trade secrets, belonging to Gaussian, Inc.
  
 This software is provided under written license and may be
 used, copied, transmitted, or stored only in accord with that
 written license.
  
 The following legend is applicable only to US Government
 contracts under FAR:
  
                    RESTRICTED RIGHTS LEGEND
  
 Use, reproduction and disclosure by the US Government is
 subject to restrictions as set forth in subparagraphs (a)
 and (c) of the Commercial Computer Software - Restricted
 Rights clause in FAR 52.227-19.
  
 Gaussian, Inc.
 340 Quinnipiac St., Bldg. 40, Wallingford CT 06492
  
  
 ---------------------------------------------------------------
 Warning -- This program may not be used in any manner that
 competes with the business of Gaussian, Inc. or will provide
 assistance to any competitor of Gaussian, Inc.  The licensee
 of this program is prohibited from giving any competitor of
 Gaussian, Inc. access to this program.  By using this program,
 the user acknowledges that Gaussian, Inc. is engaged in the
 business of creating and licensing software in the field of
 computational chemistry and represents and warrants to the
 licensee that it is not a competitor of Gaussian, Inc. and that
 it will not use this program in any manner prohibited above.
 ---------------------------------------------------------------
  

 Cite this work as:
 Gaussian 16, Revision A.03,
 M. J. Frisch, G. W. Trucks, H. B. Schlegel, G. E. Scuseria, 
 M. A. Robb, J. R. Cheeseman, G. Scalmani, V. Barone, 
 G. A. Petersson, H. Nakatsuji, X. Li, M. Caricato, A. V. Marenich, 
 J. Bloino, B. G. Janesko, R. Gomperts, B. Mennucci, H. P. Hratchian, 
 J. V. Ortiz, A. F. Izmaylov, J. L. Sonnenberg, D. Williams-Young, 
 F. Ding, F. Lipparini, F. Egidi, J. Goings, B. Peng, A. Petrone, 
 T. Henderson, D. Ranasinghe, V. G. Zakrzewski, J. Gao, N. Rega, 
 G. Zheng, W. Liang, M. Hada, M. Ehara, K. Toyota, R. Fukuda, 
 J. Hasegawa, M. Ishida, T. Nakajima, Y. Honda, O. Kitao, H. Nakai, 
 T. Vreven, K. Throssell, J. A. Montgomery, Jr., J. E. Peralta, 
 F. Ogliaro, M. J. Bearpark, J. J. Heyd, E. N. Brothers, K. N. Kudin, 
 V. N. Staroverov, T. A. Keith, R. Kobayashi, J. Normand, 
 K. Raghavachari, A. P. Rendell, J. C. Burant, S. S. Iyengar, 
 J. Tomasi, M. Cossi, J. M. Millam, M. Klene, C. Adamo, R. Cammi, 
 J. W. Ochterski, R. L. Martin, K. Morokuma, O. Farkas, 
 J. B. Foresman, and D. J. Fox, Gaussian, Inc., Wallingford CT, 2016.
 
 ******************************************
 Gaussian 16:  ES64L-G16RevA.03 25-Dec-2016
                 4-Nov-2018 
 ******************************************
 %mem=6000mb
 %nproc=24
 Will use up to   24 processors via shared memory.
 %chk=L_a1-e4_D_PSI.inp_extract_4.chk
 ----------------------------------------------------------------------
 #M062X/6-311++G(2d,2p) opt=ModRedundant freq=noraman SCRF=(Solvent=Wat
 er)
 ----------------------------------------------------------------------
 1/18=120,19=15,26=3,38=1/1,3;
 2/9=110,12=2,17=6,18=5,40=1/2;
 3/5=4,6=6,7=1212,11=2,25=1,30=1,70=2201,71=1,72=1,74=-55/1,2,3;
 4//1;
 5/5=2,38=5,53=1/2;
 6/7=2,8=2,9=2,10=2,28=1/1;
 7//1,2,3,16;
 1/18=20,19=15,26=3/3(2);
 2/9=110/2;
 99//99;
 2/9=110/2;
 3/5=4,6=6,7=1212,11=2,25=1,30=1,70=2205,71=1,72=1,74=-55/1,2,3;
 4/5=5,16=3,69=1/1;
 5/5=2,38=5,53=1/2;
 7//1,2,3,16;
 1/18=20,19=15,26=3/3(-5);
 2/9=110/2;
 6/7=2,8=2,9=2,10=2,19=2,28=1/1;
 99/9=1/99;
 ---------------------------
 L_a1-e4_D_PSI.inp_extract_4
 ---------------------------
 Symbolic Z-matrix:
 Charge =  0 Multiplicity = 1
 C                    -2.36132  -0.93865  -1.11947 
 O                    -1.5766   -1.26516   0.02061 
 C                    -3.23773   1.0701    0.08285 
 O                     2.87556  -1.268     0.1689 
 C                    -1.16329  -0.18065   0.81097 
 C                    -2.34557   0.6661    1.25738 
 C                     3.34573   0.91486  -0.7471 
 O                    -0.27252   0.64358   0.11729 
 C                     1.93425   1.35451  -0.35621 
 C                     3.81411  -0.20782   0.16226 
 C                     0.99594   0.15494  -0.29421 
 C                     1.5985   -0.89686   0.64152 
 C                    -3.61223  -0.16938  -0.72977 
 H                    -1.76075  -0.36527  -1.81762 
 H                    -2.60558  -1.88431  -1.58324 
 H                    -2.71902   1.78176  -0.55369 
 H                    -4.12884   1.56742   0.45334 
 H                    -0.67761  -0.62489   1.66497 
 H                    -2.92048   0.06988   1.9607 
 H                    -1.9746    1.53308   1.79324 
 H                     4.03583   1.75029  -0.67759 
 H                     3.35614   0.56804  -1.77718 
 H                     1.95154   1.82535   0.62367 
 H                     1.55095   2.08474  -1.06234 
 H                     4.74908  -0.63231  -0.17673 
 H                     3.94844   0.15202   1.17974 
 H                     0.891    -0.29012  -1.27858 
 H                     1.01496  -1.80445   0.66572 
 H                     1.6822   -0.50555   1.65254 
 H                    -4.15553   0.103    -1.63016 
 H                    -4.25957  -0.81479  -0.14048 
 
 The following ModRedundant input section has been read:
 D       5       8      11       9 F                                           
 

 GradGradGradGradGradGradGradGradGradGradGradGradGradGradGradGradGradGrad
 Berny optimization.
 Initialization pass.
                           ----------------------------
                           !    Initial Parameters    !
                           ! (Angstroms and Degrees)  !
 --------------------------                            --------------------------
 ! Name  Definition              Value          Derivative Info.                !
 --------------------------------------------------------------------------------
 ! R1    R(1,2)                  1.422          estimate D2E/DX2                !
 ! R2    R(1,13)                 1.5194         estimate D2E/DX2                !
 ! R3    R(1,14)                 1.0848         estimate D2E/DX2                !
 ! R4    R(1,15)                 1.0812         estimate D2E/DX2                !
 ! R5    R(2,5)                  1.4042         estimate D2E/DX2                !
 ! R6    R(3,6)                  1.5293         estimate D2E/DX2                !
 ! R7    R(3,13)                 1.5287         estimate D2E/DX2                !
 ! R8    R(3,16)                 1.0866         estimate D2E/DX2                !
 ! R9    R(3,17)                 1.0857         estimate D2E/DX2                !
 ! R10   R(4,10)                 1.4159         estimate D2E/DX2                !
 ! R11   R(4,12)                 1.4114         estimate D2E/DX2                !
 ! R12   R(5,6)                  1.5212         estimate D2E/DX2                !
 ! R13   R(5,8)                  1.3979         estimate D2E/DX2                !
 ! R14   R(5,18)                 1.0782         estimate D2E/DX2                !
 ! R15   R(6,19)                 1.0866         estimate D2E/DX2                !
 ! R16   R(6,20)                 1.0846         estimate D2E/DX2                !
 ! R17   R(7,9)                  1.5292         estimate D2E/DX2                !
 ! R18   R(7,10)                 1.5188         estimate D2E/DX2                !
 ! R19   R(7,21)                 1.0858         estimate D2E/DX2                !
 ! R20   R(7,22)                 1.087          estimate D2E/DX2                !
 ! R21   R(8,11)                 1.4202         estimate D2E/DX2                !
 ! R22   R(9,11)                 1.5242         estimate D2E/DX2                !
 ! R23   R(9,23)                 1.0873         estimate D2E/DX2                !
 ! R24   R(9,24)                 1.0857         estimate D2E/DX2                !
 ! R25   R(10,25)                1.0813         estimate D2E/DX2                !
 ! R26   R(10,26)                1.0876         estimate D2E/DX2                !
 ! R27   R(11,12)                1.5313         estimate D2E/DX2                !
 ! R28   R(11,27)                1.0854         estimate D2E/DX2                !
 ! R29   R(12,28)                1.0793         estimate D2E/DX2                !
 ! R30   R(12,29)                1.0873         estimate D2E/DX2                !
 ! R31   R(13,30)                1.0863         estimate D2E/DX2                !
 ! R32   R(13,31)                1.0876         estimate D2E/DX2                !
 ! A1    A(2,1,13)             111.4043         estimate D2E/DX2                !
 ! A2    A(2,1,14)             109.3788         estimate D2E/DX2                !
 ! A3    A(2,1,15)             105.5292         estimate D2E/DX2                !
 ! A4    A(13,1,14)            110.6865         estimate D2E/DX2                !
 ! A5    A(13,1,15)            111.522          estimate D2E/DX2                !
 ! A6    A(14,1,15)            108.1383         estimate D2E/DX2                !
 ! A7    A(1,2,5)              115.8718         estimate D2E/DX2                !
 ! A8    A(6,3,13)             109.6936         estimate D2E/DX2                !
 ! A9    A(6,3,16)             110.1479         estimate D2E/DX2                !
 ! A10   A(6,3,17)             109.7404         estimate D2E/DX2                !
 ! A11   A(13,3,16)            109.6691         estimate D2E/DX2                !
 ! A12   A(13,3,17)            110.5939         estimate D2E/DX2                !
 ! A13   A(16,3,17)            106.9603         estimate D2E/DX2                !
 ! A14   A(10,4,12)            113.8557         estimate D2E/DX2                !
 ! A15   A(2,5,6)              111.4895         estimate D2E/DX2                !
 ! A16   A(2,5,8)              111.325          estimate D2E/DX2                !
 ! A17   A(2,5,18)             105.0815         estimate D2E/DX2                !
 ! A18   A(6,5,8)              108.2209         estimate D2E/DX2                !
 ! A19   A(6,5,18)             110.3031         estimate D2E/DX2                !
 ! A20   A(8,5,18)             110.4228         estimate D2E/DX2                !
 ! A21   A(3,6,5)              112.0285         estimate D2E/DX2                !
 ! A22   A(3,6,19)             109.4759         estimate D2E/DX2                !
 ! A23   A(3,6,20)             111.5806         estimate D2E/DX2                !
 ! A24   A(5,6,19)             107.2022         estimate D2E/DX2                !
 ! A25   A(5,6,20)             108.9113         estimate D2E/DX2                !
 ! A26   A(19,6,20)            107.4444         estimate D2E/DX2                !
 ! A27   A(9,7,10)             110.129          estimate D2E/DX2                !
 ! A28   A(9,7,21)             110.4306         estimate D2E/DX2                !
 ! A29   A(9,7,22)             110.0492         estimate D2E/DX2                !
 ! A30   A(10,7,21)            109.5363         estimate D2E/DX2                !
 ! A31   A(10,7,22)            109.1836         estimate D2E/DX2                !
 ! A32   A(21,7,22)            107.4618         estimate D2E/DX2                !
 ! A33   A(5,8,11)             120.6671         estimate D2E/DX2                !
 ! A34   A(7,9,11)             110.631          estimate D2E/DX2                !
 ! A35   A(7,9,23)             109.8893         estimate D2E/DX2                !
 ! A36   A(7,9,24)             110.6703         estimate D2E/DX2                !
 ! A37   A(11,9,23)            108.2968         estimate D2E/DX2                !
 ! A38   A(11,9,24)            109.7826         estimate D2E/DX2                !
 ! A39   A(23,9,24)            107.4874         estimate D2E/DX2                !
 ! A40   A(4,10,7)             110.601          estimate D2E/DX2                !
 ! A41   A(4,10,25)            106.2999         estimate D2E/DX2                !
 ! A42   A(4,10,26)            108.979          estimate D2E/DX2                !
 ! A43   A(7,10,25)            111.6622         estimate D2E/DX2                !
 ! A44   A(7,10,26)            110.7119         estimate D2E/DX2                !
 ! A45   A(25,10,26)           108.4441         estimate D2E/DX2                !
 ! A46   A(8,11,9)             106.9074         estimate D2E/DX2                !
 ! A47   A(8,11,12)            114.2494         estimate D2E/DX2                !
 ! A48   A(8,11,27)            108.5112         estimate D2E/DX2                !
 ! A49   A(9,11,12)            108.8557         estimate D2E/DX2                !
 ! A50   A(9,11,27)            110.2022         estimate D2E/DX2                !
 ! A51   A(12,11,27)           108.0947         estimate D2E/DX2                !
 ! A52   A(4,12,11)            109.3927         estimate D2E/DX2                !
 ! A53   A(4,12,28)            105.9973         estimate D2E/DX2                !
 ! A54   A(4,12,29)            109.6544         estimate D2E/DX2                !
 ! A55   A(11,12,28)           112.2442         estimate D2E/DX2                !
 ! A56   A(11,12,29)           110.5655         estimate D2E/DX2                !
 ! A57   A(28,12,29)           108.8686         estimate D2E/DX2                !
 ! A58   A(1,13,3)             110.1922         estimate D2E/DX2                !
 ! A59   A(1,13,30)            109.0336         estimate D2E/DX2                !
 ! A60   A(1,13,31)            109.181          estimate D2E/DX2                !
 ! A61   A(3,13,30)            111.089          estimate D2E/DX2                !
 ! A62   A(3,13,31)            109.813          estimate D2E/DX2                !
 ! A63   A(30,13,31)           107.4706         estimate D2E/DX2                !
 ! D1    D(13,1,2,5)           -57.3191         estimate D2E/DX2                !
 ! D2    D(14,1,2,5)            65.3705         estimate D2E/DX2                !
 ! D3    D(15,1,2,5)          -178.5096         estimate D2E/DX2                !
 ! D4    D(2,1,13,3)            55.0023         estimate D2E/DX2                !
 ! D5    D(2,1,13,30)          177.172          estimate D2E/DX2                !
 ! D6    D(2,1,13,31)          -65.6823         estimate D2E/DX2                !
 ! D7    D(14,1,13,3)          -66.9333         estimate D2E/DX2                !
 ! D8    D(14,1,13,30)          55.2364         estimate D2E/DX2                !
 ! D9    D(14,1,13,31)         172.3821         estimate D2E/DX2                !
 ! D10   D(15,1,13,3)          172.6281         estimate D2E/DX2                !
 ! D11   D(15,1,13,30)         -65.2021         estimate D2E/DX2                !
 ! D12   D(15,1,13,31)          51.9436         estimate D2E/DX2                !
 ! D13   D(1,2,5,6)             54.9121         estimate D2E/DX2                !
 ! D14   D(1,2,5,8)            -66.0477         estimate D2E/DX2                !
 ! D15   D(1,2,5,18)           174.4042         estimate D2E/DX2                !
 ! D16   D(13,3,6,5)            51.5003         estimate D2E/DX2                !
 ! D17   D(13,3,6,19)          -67.2821         estimate D2E/DX2                !
 ! D18   D(13,3,6,20)          173.9133         estimate D2E/DX2                !
 ! D19   D(16,3,6,5)           -69.305          estimate D2E/DX2                !
 ! D20   D(16,3,6,19)          171.9126         estimate D2E/DX2                !
 ! D21   D(16,3,6,20)           53.108          estimate D2E/DX2                !
 ! D22   D(17,3,6,5)           173.1928         estimate D2E/DX2                !
 ! D23   D(17,3,6,19)           54.4104         estimate D2E/DX2                !
 ! D24   D(17,3,6,20)          -64.3942         estimate D2E/DX2                !
 ! D25   D(6,3,13,1)           -52.8698         estimate D2E/DX2                !
 ! D26   D(6,3,13,30)         -173.8174         estimate D2E/DX2                !
 ! D27   D(6,3,13,31)           67.4349         estimate D2E/DX2                !
 ! D28   D(16,3,13,1)           68.2247         estimate D2E/DX2                !
 ! D29   D(16,3,13,30)         -52.7229         estimate D2E/DX2                !
 ! D30   D(16,3,13,31)        -171.4707         estimate D2E/DX2                !
 ! D31   D(17,3,13,1)         -174.0494         estimate D2E/DX2                !
 ! D32   D(17,3,13,30)          65.003          estimate D2E/DX2                !
 ! D33   D(17,3,13,31)         -53.7448         estimate D2E/DX2                !
 ! D34   D(12,4,10,7)          -60.9849         estimate D2E/DX2                !
 ! D35   D(12,4,10,25)         177.6303         estimate D2E/DX2                !
 ! D36   D(12,4,10,26)          60.9414         estimate D2E/DX2                !
 ! D37   D(10,4,12,11)          63.0773         estimate D2E/DX2                !
 ! D38   D(10,4,12,28)        -175.697          estimate D2E/DX2                !
 ! D39   D(10,4,12,29)         -58.3334         estimate D2E/DX2                !
 ! D40   D(2,5,6,3)            -51.4636         estimate D2E/DX2                !
 ! D41   D(2,5,6,19)            68.6537         estimate D2E/DX2                !
 ! D42   D(2,5,6,20)          -175.3833         estimate D2E/DX2                !
 ! D43   D(8,5,6,3)             71.2922         estimate D2E/DX2                !
 ! D44   D(8,5,6,19)          -168.5905         estimate D2E/DX2                !
 ! D45   D(8,5,6,20)           -52.6275         estimate D2E/DX2                !
 ! D46   D(18,5,6,3)          -167.8111         estimate D2E/DX2                !
 ! D47   D(18,5,6,19)          -47.6938         estimate D2E/DX2                !
 ! D48   D(18,5,6,20)           68.2692         estimate D2E/DX2                !
 ! D49   D(2,5,8,11)           -63.9873         estimate D2E/DX2                !
 ! D50   D(6,5,8,11)           173.1568         estimate D2E/DX2                !
 ! D51   D(18,5,8,11)           52.3345         estimate D2E/DX2                !
 ! D52   D(10,7,9,11)          -52.2866         estimate D2E/DX2                !
 ! D53   D(10,7,9,23)           67.2475         estimate D2E/DX2                !
 ! D54   D(10,7,9,24)         -174.1953         estimate D2E/DX2                !
 ! D55   D(21,7,9,11)         -173.3908         estimate D2E/DX2                !
 ! D56   D(21,7,9,23)          -53.8567         estimate D2E/DX2                !
 ! D57   D(21,7,9,24)           64.7005         estimate D2E/DX2                !
 ! D58   D(22,7,9,11)           68.1317         estimate D2E/DX2                !
 ! D59   D(22,7,9,23)         -172.3342         estimate D2E/DX2                !
 ! D60   D(22,7,9,24)          -53.7771         estimate D2E/DX2                !
 ! D61   D(9,7,10,4)            53.8185         estimate D2E/DX2                !
 ! D62   D(9,7,10,25)          171.9777         estimate D2E/DX2                !
 ! D63   D(9,7,10,26)          -67.0837         estimate D2E/DX2                !
 ! D64   D(21,7,10,4)          175.4561         estimate D2E/DX2                !
 ! D65   D(21,7,10,25)         -66.3847         estimate D2E/DX2                !
 ! D66   D(21,7,10,26)          54.554          estimate D2E/DX2                !
 ! D67   D(22,7,10,4)          -67.1198         estimate D2E/DX2                !
 ! D68   D(22,7,10,25)          51.0394         estimate D2E/DX2                !
 ! D69   D(22,7,10,26)         171.978          estimate D2E/DX2                !
 ! D70   D(5,8,11,9)          -152.2302         Frozen                          !
 ! D71   D(5,8,11,12)          -31.7395         estimate D2E/DX2                !
 ! D72   D(5,8,11,27)           88.9276         estimate D2E/DX2                !
 ! D73   D(7,9,11,8)           178.0538         estimate D2E/DX2                !
 ! D74   D(7,9,11,12)           54.1766         estimate D2E/DX2                !
 ! D75   D(7,9,11,27)          -64.2078         estimate D2E/DX2                !
 ! D76   D(23,9,11,8)           57.5653         estimate D2E/DX2                !
 ! D77   D(23,9,11,12)         -66.3118         estimate D2E/DX2                !
 ! D78   D(23,9,11,27)         175.3038         estimate D2E/DX2                !
 ! D79   D(24,9,11,8)          -59.5174         estimate D2E/DX2                !
 ! D80   D(24,9,11,12)         176.6054         estimate D2E/DX2                !
 ! D81   D(24,9,11,27)          58.221          estimate D2E/DX2                !
 ! D82   D(8,11,12,4)         -177.5537         estimate D2E/DX2                !
 ! D83   D(8,11,12,28)          65.083          estimate D2E/DX2                !
 ! D84   D(8,11,12,29)         -56.6953         estimate D2E/DX2                !
 ! D85   D(9,11,12,4)          -58.1543         estimate D2E/DX2                !
 ! D86   D(9,11,12,28)        -175.5176         estimate D2E/DX2                !
 ! D87   D(9,11,12,29)          62.7041         estimate D2E/DX2                !
 ! D88   D(27,11,12,4)          61.5479         estimate D2E/DX2                !
 ! D89   D(27,11,12,28)        -55.8153         estimate D2E/DX2                !
 ! D90   D(27,11,12,29)       -177.5936         estimate D2E/DX2                !
 --------------------------------------------------------------------------------
 Trust Radius=3.00D-01 FncErr=1.00D-07 GrdErr=1.00D-06 EigMax=2.50D+02 EigMin=1.00D-04
 Number of steps in this run=    186 maximum allowed number of steps=    186.
 GradGradGradGradGradGradGradGradGradGradGradGradGradGradGradGradGradGrad

                          Input orientation:                          
 ---------------------------------------------------------------------
 Center     Atomic      Atomic             Coordinates (Angstroms)
 Number     Number       Type             X           Y           Z
 ---------------------------------------------------------------------
      1          6           0       -2.361319   -0.938652   -1.119472
      2          8           0       -1.576600   -1.265161    0.020609
      3          6           0       -3.237729    1.070096    0.082847
      4          8           0        2.875558   -1.268004    0.168895
      5          6           0       -1.163287   -0.180650    0.810966
      6          6           0       -2.345566    0.666099    1.257383
      7          6           0        3.345725    0.914858   -0.747095
      8          8           0       -0.272519    0.643576    0.117286
      9          6           0        1.934249    1.354508   -0.356208
     10          6           0        3.814109   -0.207822    0.162257
     11          6           0        0.995940    0.154939   -0.294205
     12          6           0        1.598497   -0.896856    0.641517
     13          6           0       -3.612233   -0.169383   -0.729766
     14          1           0       -1.760746   -0.365267   -1.817617
     15          1           0       -2.605578   -1.884309   -1.583236
     16          1           0       -2.719020    1.781763   -0.553688
     17          1           0       -4.128836    1.567422    0.453338
     18          1           0       -0.677608   -0.624885    1.664971
     19          1           0       -2.920482    0.069884    1.960701
     20          1           0       -1.974604    1.533078    1.793239
     21          1           0        4.035834    1.750289   -0.677588
     22          1           0        3.356138    0.568038   -1.777177
     23          1           0        1.951535    1.825348    0.623667
     24          1           0        1.550951    2.084736   -1.062335
     25          1           0        4.749075   -0.632312   -0.176732
     26          1           0        3.948443    0.152018    1.179739
     27          1           0        0.890997   -0.290118   -1.278575
     28          1           0        1.014963   -1.804447    0.665724
     29          1           0        1.682198   -0.505549    1.652535
     30          1           0       -4.155527    0.102998   -1.630157
     31          1           0       -4.259567   -0.814793   -0.140479
 ---------------------------------------------------------------------
                    Distance matrix (angstroms):
                    1          2          3          4          5
     1  C    0.000000
     2  O    1.422033   0.000000
     3  C    2.499747   2.866470   0.000000
     4  O    5.403077   4.454628   6.545716   0.000000
     5  C    2.395086   1.404157   2.529394   4.231650   0.000000
     6  C    2.867911   2.418819   1.529282   5.673244   1.521202
     7  C    6.012031   5.437935   6.637377   2.413500   4.894781
     8  O    2.897603   2.313709   2.995927   3.683367   1.397858
     9  C    4.928799   4.396671   5.198367   2.835377   3.648799
    10  C    6.349240   5.495250   7.167133   1.415948   5.019565
    11  C    3.626044   2.955293   4.347831   2.402539   2.448731
    12  C    4.333933   3.256135   5.250723   1.411385   2.858166
    13  C    1.519352   2.430554   1.528693   6.641234   2.893323
    14  H    1.084834   2.054944   2.802411   5.124108   2.701942
    15  H    1.081206   2.003611   3.450211   5.787283   3.273356
    16  H    2.801557   3.304344   1.086603   6.412683   2.851956
    17  H    3.446484   3.837276   1.085665   7.561884   3.460944
    18  H    3.269014   1.980421   3.454026   3.908559   1.078218
    19  H    3.288962   2.711516   2.151140   6.212455   2.114803
    20  H    3.839646   3.336280   2.176069   5.831691   2.135406
    21  H    6.953361   6.409355   7.344770   3.342584   5.742402
    22  H    5.949118   5.560985   6.869558   2.718309   5.261580
    23  H    5.411002   4.728918   5.271750   3.260286   3.709613
    24  H    4.944694   4.709156   5.027165   3.809380   4.001040
    25  H    7.179158   6.360315   8.170350   2.008389   6.011287
    26  H    6.803604   5.820488   7.327149   2.046790   5.135800
    27  H    3.320161   2.954255   4.555220   2.643844   2.932277
    28  H    3.916096   2.724555   5.166056   1.999106   2.720769
    29  H    4.921548   3.722896   5.399283   2.051008   2.985060
    30  H    2.136590   3.353767   2.170717   7.385959   3.872084
    31  H    2.139419   2.725269   2.155652   7.156195   3.300657
                    6          7          8          9         10
     6  C    0.000000
     7  C    6.039090   0.000000
     8  O    2.365978   3.729938   0.000000
     9  C    4.625408   1.529166   2.366315   0.000000
    10  C    6.317012   1.518787   4.174617   2.498711   0.000000
    11  C    3.719459   2.510792   1.420239   1.524216   2.877852
    12  C    4.286928   2.874605   2.479607   2.485322   2.369260
    13  C    2.500247   7.041950   3.540069   5.764135   7.479822
    14  H    3.295657   5.372223   2.641294   4.329703   5.918082
    15  H    3.826396   6.629666   3.837335   5.710128   6.860739
    16  H    2.159665   6.129442   2.780475   4.677014   6.866790
    17  H    2.153816   7.598417   3.979649   6.120596   8.144114
    18  H    2.148221   4.937214   2.041671   3.850319   4.754746
    19  H    1.086580   6.878335   3.277043   5.530528   6.976119
    20  H    1.084623   5.928018   2.548946   4.464431   6.260993
    21  H    6.755875   1.085830   4.518688   2.162542   2.142125
    22  H    6.459690   1.086951   4.094124   2.158577   2.138481
    23  H    4.495612   2.156791   2.568934   1.087265   2.795686
    24  H    4.751470   2.165457   2.606433   1.085710   3.446351
    25  H    7.353672   2.165281   5.189484   3.450060   1.081326
    26  H    6.315446   2.158213   4.380292   2.803942   1.087566
    27  H    4.221466   2.785701   2.043033   2.154978   3.259962
    28  H    4.212697   3.850082   2.819789   3.445059   3.261581
    29  H    4.213287   3.247014   2.738320   2.749253   2.618132
    30  H    3.454118   7.596558   4.292264   6.346227   8.174623
    31  H    2.794720   7.823052   4.253215   6.566259   8.102117
                   11         12         13         14         15
    11  C    0.000000
    12  C    1.531314   0.000000
    13  C    4.640060   5.437034   0.000000
    14  H    3.192290   4.196956   2.156338   0.000000
    15  H    4.334866   4.857863   2.163963   1.753900   0.000000
    16  H    4.063842   5.219623   2.153092   2.669371   3.809583
    17  H    5.368171   6.237822   2.164048   3.807936   4.287470
    18  H    2.692073   2.510394   3.815006   3.656365   3.981716
    19  H    4.519978   4.805830   2.788258   3.976183   4.059252
    20  H    3.883403   4.471923   3.456263   4.085062   4.845332
    21  H    3.454429   3.832496   7.885480   6.274997   7.624884
    22  H    2.817870   3.329459   7.085129   5.201461   6.449316
    23  H    2.132116   2.745059   6.063518   4.953755   6.276883
    24  H    2.149925   3.434423   5.643591   4.188114   5.770736
    25  H    3.836611   3.265832   8.392355   6.718749   7.591882
    26  H    3.299969   2.629081   7.804699   6.468892   7.398368
    27  H    1.085391   2.134348   4.538155   2.707020   3.854906
    28  H    2.181976   1.079268   5.102134   3.992841   4.262923
    29  H    2.167254   1.087329   5.815442   4.890347   5.545829
    30  H    5.322131   6.266498   1.086307   2.447323   2.520701
    31  H    5.346435   5.910598   1.087591   3.042856   2.441535
                   16         17         18         19         20
    16  H    0.000000
    17  H    1.745745   0.000000
    18  H    3.857689   4.264415   0.000000
    19  H    3.048486   2.444357   2.366568   0.000000
    20  H    2.474685   2.537170   2.521003   1.750333   0.000000
    21  H    6.756064   8.244651   5.774562   7.627232   6.502117
    22  H    6.314871   7.873932   5.435306   7.322284   6.488142
    23  H    4.816861   6.088222   3.741704   5.348445   4.107053
    24  H    4.310820   5.901259   4.443728   5.761258   4.570357
    25  H    7.857627   9.168049   5.730690   7.992734   7.333318
    26  H    7.079258   8.232464   4.715864   6.913666   6.112789
    27  H    4.224970   5.625718   3.352171   5.014966   4.579493
    28  H    5.318881   6.154127   2.292304   4.547286   4.620376
    29  H    5.428622   6.285173   2.362854   4.648737   4.189033
    30  H    2.457761   2.546802   4.845988   3.797459   4.303626
    31  H    3.047315   2.458589   4.015737   2.644004   3.804316
                   21         22         23         24         25
    21  H    0.000000
    22  H    1.751799   0.000000
    23  H    2.458292   3.052506   0.000000
    24  H    2.536637   2.463752   1.752242   0.000000
    25  H    2.536998   2.437732   3.808801   4.288897   0.000000
    26  H    2.451891   3.044216   2.663999   3.809234   1.759602
    27  H    3.796636   2.657434   3.036192   2.474314   4.026900
    28  H    4.854513   4.132499   3.748913   4.289431   4.003402
    29  H    4.007229   3.964541   2.562068   3.754640   3.573237
    30  H    8.409480   7.527482   6.733678   6.067421   9.052351
    31  H    8.699529   7.911382   6.792058   6.558903   9.010563
                   26         27         28         29         30
    26  H    0.000000
    27  H    3.948008   0.000000
    28  H    3.563323   2.467561   0.000000
    29  H    2.406615   3.043652   1.762423   0.000000
    30  H    8.577427   5.074008   5.970208   6.724985   0.000000
    31  H    8.369536   5.300835   5.426790   6.214105   1.752799
                   31
    31  H    0.000000
 Stoichiometry    C10H18O3
 Framework group  C1[X(C10H18O3)]
 Deg. of freedom    87
 Full point group                 C1      NOp   1
 Largest Abelian subgroup         C1      NOp   1
 Largest concise Abelian subgroup C1      NOp   1
                         Standard orientation:                         
 ---------------------------------------------------------------------
 Center     Atomic      Atomic             Coordinates (Angstroms)
 Number     Number       Type             X           Y           Z
 ---------------------------------------------------------------------
      1          6           0       -2.361319   -0.938652   -1.119472
      2          8           0       -1.576600   -1.265161    0.020609
      3          6           0       -3.237729    1.070096    0.082847
      4          8           0        2.875558   -1.268004    0.168895
      5          6           0       -1.163287   -0.180650    0.810966
      6          6           0       -2.345566    0.666099    1.257383
      7          6           0        3.345725    0.914858   -0.747095
      8          8           0       -0.272519    0.643576    0.117286
      9          6           0        1.934249    1.354508   -0.356208
     10          6           0        3.814109   -0.207822    0.162257
     11          6           0        0.995940    0.154939   -0.294205
     12          6           0        1.598497   -0.896856    0.641517
     13          6           0       -3.612233   -0.169383   -0.729766
     14          1           0       -1.760746   -0.365267   -1.817617
     15          1           0       -2.605578   -1.884309   -1.583236
     16          1           0       -2.719020    1.781763   -0.553688
     17          1           0       -4.128836    1.567422    0.453338
     18          1           0       -0.677608   -0.624885    1.664971
     19          1           0       -2.920482    0.069884    1.960701
     20          1           0       -1.974604    1.533078    1.793239
     21          1           0        4.035834    1.750289   -0.677588
     22          1           0        3.356138    0.568038   -1.777177
     23          1           0        1.951535    1.825348    0.623667
     24          1           0        1.550951    2.084736   -1.062335
     25          1           0        4.749075   -0.632312   -0.176732
     26          1           0        3.948443    0.152018    1.179739
     27          1           0        0.890997   -0.290118   -1.278575
     28          1           0        1.014963   -1.804447    0.665724
     29          1           0        1.682198   -0.505549    1.652535
     30          1           0       -4.155527    0.102998   -1.630157
     31          1           0       -4.259567   -0.814793   -0.140479
 ---------------------------------------------------------------------
 Rotational constants (GHZ):           1.9995471           0.4025177           0.3827784
 Standard basis: 6-311++G(2d,2p) (5D, 7F)
 There are   557 symmetry adapted cartesian basis functions of A   symmetry.
 There are   531 symmetry adapted basis functions of A   symmetry.
   531 basis functions,   762 primitive gaussians,   557 cartesian basis functions
    51 alpha electrons       51 beta electrons
       nuclear repulsion energy       894.3675105291 Hartrees.
 NAtoms=   31 NActive=   31 NUniq=   31 SFac= 1.00D+00 NAtFMM=   60 NAOKFM=F Big=F
 Integral buffers will be    131072 words long.
 Raffenetti 2 integral format.
 Two-electron integral symmetry is turned on.
 ------------------------------------------------------------------------------
 Polarizable Continuum Model (PCM)
 =================================
 Model                : PCM.
 Atomic radii         : UFF (Universal Force Field).
 Polarization charges : Total charges.
 Charge compensation  : None.
 Solution method      : On-the-fly selection.
 Cavity type          : Scaled VdW (van der Waals Surface) (Alpha=1.100).
 Cavity algorithm     : GePol (No added spheres)
                        Default sphere list used, NSphG=   31.
                        Lebedev-Laikov grids with approx.  5.0 points / Ang**2.
                        Smoothing algorithm: York/Karplus (Gamma=1.0000).
                        Polarization charges: spherical gaussians, with
                                              point-specific exponents (IZeta= 3).
                        Self-potential: point-specific (ISelfS= 7).
                        Self-field    : sphere-specific E.n sum rule (ISelfD= 2).
 1st derivatives      : Analytical E(r).r(x)/FMM algorithm (CHGder, D1EAlg=3).
                        Cavity 1st derivative terms included.
 Solvent              : Water, Eps=  78.355300 Eps(inf)=   1.777849
 ------------------------------------------------------------------------------
 One-electron integrals computed using PRISM.
 NBasis=   531 RedAO= T EigKep=  4.78D-06  NBF=   531
 NBsUse=   531 1.00D-06 EigRej= -1.00D+00 NBFU=   531
 ExpMin= 3.60D-02 ExpMax= 8.59D+03 ExpMxC= 1.30D+03 IAcc=3 IRadAn=         5 AccDes= 0.00D+00
 Harris functional with IExCor= 1009 and IRadAn=       5 diagonalized for initial guess.
 HarFok:  IExCor= 1009 AccDes= 0.00D+00 IRadAn=         5 IDoV= 1 UseB2=F ITyADJ=14
 ICtDFT=  3500011 ScaDFX=  1.000000  1.000000  1.000000  1.000000
 FoFCou: FMM=F IPFlag=           0 FMFlag=      100000 FMFlg1=           0
         NFxFlg=           0 DoJE=T BraDBF=F KetDBF=T FulRan=T
         wScrn=  0.000000 ICntrl=       500 IOpCl=  0 I1Cent=   200000004 NGrid=           0
         NMat0=    1 NMatS0=      1 NMatT0=    0 NMatD0=    1 NMtDS0=    0 NMtDT0=    0
 Petite list used in FoFCou.
 Requested convergence on RMS density matrix=1.00D-08 within 128 cycles.
 Requested convergence on MAX density matrix=1.00D-06.
 Requested convergence on             energy=1.00D-06.
 No special actions if energy rises.
 Inv3:  Mode=1 IEnd=    12558348.
 Iteration    1 A*A^-1 deviation from unit magnitude is 6.66D-15 for   2041.
 Iteration    1 A*A^-1 deviation from orthogonality  is 2.62D-15 for   2043    909.
 Iteration    1 A^-1*A deviation from unit magnitude is 6.66D-15 for   2041.
 Iteration    1 A^-1*A deviation from orthogonality  is 1.83D-15 for   2029    874.
 Error on total polarization charges =  0.01484
 SCF Done:  E(RM062X) =  -617.499451340     A.U. after   12 cycles
            NFock= 12  Conv=0.53D-08     -V/T= 2.0035

 **********************************************************************

            Population analysis using the SCF density.

 **********************************************************************

 Orbital symmetries:
       Occupied  (A) (A) (A) (A) (A) (A) (A) (A) (A) (A) (A) (A)
                 (A) (A) (A) (A) (A) (A) (A) (A) (A) (A) (A) (A)
                 (A) (A) (A) (A) (A) (A) (A) (A) (A) (A) (A) (A)
                 (A) (A) (A) (A) (A) (A) (A) (A) (A) (A) (A) (A)
                 (A) (A) (A)
       Virtual   (A) (A) (A) (A) (A) (A) (A) (A) (A) (A) (A) (A)
                 (A) (A) (A) (A) (A) (A) (A) (A) (A) (A) (A) (A)
                 (A) (A) (A) (A) (A) (A) (A) (A) (A) (A) (A) (A)
                 (A) (A) (A) (A) (A) (A) (A) (A) (A) (A) (A) (A)
                 (A) (A) (A) (A) (A) (A) (A) (A) (A) (A) (A) (A)
                 (A) (A) (A) (A) (A) (A) (A) (A) (A) (A) (A) (A)
                 (A) (A) (A) (A) (A) (A) (A) (A) (A) (A) (A) (A)
                 (A) (A) (A) (A) (A) (A) (A) (A) (A) (A) (A) (A)
                 (A) (A) (A) (A) (A) (A) (A) (A) (A) (A) (A) (A)
                 (A) (A) (A) (A) (A) (A) (A) (A) (A) (A) (A) (A)
                 (A) (A) (A) (A) (A) (A) (A) (A) (A) (A) (A) (A)
                 (A) (A) (A) (A) (A) (A) (A) (A) (A) (A) (A) (A)
                 (A) (A) (A) (A) (A) (A) (A) (A) (A) (A) (A) (A)
                 (A) (A) (A) (A) (A) (A) (A) (A) (A) (A) (A) (A)
                 (A) (A) (A) (A) (A) (A) (A) (A) (A) (A) (A) (A)
                 (A) (A) (A) (A) (A) (A) (A) (A) (A) (A) (A) (A)
                 (A) (A) (A) (A) (A) (A) (A) (A) (A) (A) (A) (A)
                 (A) (A) (A) (A) (A) (A) (A) (A) (A) (A) (A) (A)
                 (A) (A) (A) (A) (A) (A) (A) (A) (A) (A) (A) (A)
                 (A) (A) (A) (A) (A) (A) (A) (A) (A) (A) (A) (A)
                 (A) (A) (A) (A) (A) (A) (A) (A) (A) (A) (A) (A)
                 (A) (A) (A) (A) (A) (A) (A) (A) (A) (A) (A) (A)
                 (A) (A) (A) (A) (A) (A) (A) (A) (A) (A) (A) (A)
                 (A) (A) (A) (A) (A) (A) (A) (A) (A) (A) (A) (A)
                 (A) (A) (A) (A) (A) (A) (A) (A) (A) (A) (A) (A)
                 (A) (A) (A) (A) (A) (A) (A) (A) (A) (A) (A) (A)
                 (A) (A) (A) (A) (A) (A) (A) (A) (A) (A) (A) (A)
                 (A) (A) (A) (A) (A) (A) (A) (A) (A) (A) (A) (A)
                 (A) (A) (A) (A) (A) (A) (A) (A) (A) (A) (A) (A)
                 (A) (A) (A) (A) (A) (A) (A) (A) (A) (A) (A) (A)
                 (A) (A) (A) (A) (A) (A) (A) (A) (A) (A) (A) (A)
                 (A) (A) (A) (A) (A) (A) (A) (A) (A) (A) (A) (A)
                 (A) (A) (A) (A) (A) (A) (A) (A) (A) (A) (A) (A)
                 (A) (A) (A) (A) (A) (A) (A) (A) (A) (A) (A) (A)
                 (A) (A) (A) (A) (A) (A) (A) (A) (A) (A) (A) (A)
                 (A) (A) (A) (A) (A) (A) (A) (A) (A) (A) (A) (A)
                 (A) (A) (A) (A) (A) (A) (A) (A) (A) (A) (A) (A)
                 (A) (A) (A) (A) (A) (A) (A) (A) (A) (A) (A) (A)
                 (A) (A) (A) (A) (A) (A) (A) (A) (A) (A) (A) (A)
                 (A) (A) (A) (A) (A) (A) (A) (A) (A) (A) (A) (A)
 The electronic state is 1-A.
 Alpha  occ. eigenvalues --  -19.63053 -19.62994 -19.62764 -10.63456 -10.58845
 Alpha  occ. eigenvalues --  -10.58114 -10.57874 -10.57653 -10.53150 -10.53097
 Alpha  occ. eigenvalues --  -10.52987 -10.52936 -10.52755  -1.20183  -1.16880
 Alpha  occ. eigenvalues --   -1.13482  -0.91055  -0.89781  -0.87377  -0.84999
 Alpha  occ. eigenvalues --   -0.75525  -0.74258  -0.72981  -0.70885  -0.66052
 Alpha  occ. eigenvalues --   -0.63735  -0.60471  -0.59175  -0.57064  -0.55752
 Alpha  occ. eigenvalues --   -0.54595  -0.53203  -0.52805  -0.51060  -0.50109
 Alpha  occ. eigenvalues --   -0.48447  -0.47215  -0.45752  -0.45567  -0.44798
 Alpha  occ. eigenvalues --   -0.43842  -0.43311  -0.40818  -0.40425  -0.39603
 Alpha  occ. eigenvalues --   -0.38527  -0.37580  -0.36376  -0.34703  -0.33219
 Alpha  occ. eigenvalues --   -0.32158
 Alpha virt. eigenvalues --   -0.00089   0.00745   0.00832   0.01093   0.02134
 Alpha virt. eigenvalues --    0.02435   0.02625   0.03480   0.03577   0.04409
 Alpha virt. eigenvalues --    0.04562   0.04677   0.05658   0.05763   0.07143
 Alpha virt. eigenvalues --    0.07209   0.07560   0.08007   0.08693   0.09744
 Alpha virt. eigenvalues --    0.10127   0.10546   0.11394   0.11612   0.12043
 Alpha virt. eigenvalues --    0.12208   0.12483   0.12860   0.13135   0.13301
 Alpha virt. eigenvalues --    0.13509   0.14197   0.14310   0.14631   0.14996
 Alpha virt. eigenvalues --    0.15058   0.15237   0.15311   0.15776   0.16094
 Alpha virt. eigenvalues --    0.16777   0.16929   0.17129   0.17591   0.17994
 Alpha virt. eigenvalues --    0.18157   0.18494   0.18595   0.19089   0.19422
 Alpha virt. eigenvalues --    0.19705   0.20016   0.20493   0.21383   0.21926
 Alpha virt. eigenvalues --    0.22193   0.22397   0.22967   0.23585   0.23983
 Alpha virt. eigenvalues --    0.24785   0.25293   0.26329   0.26545   0.27155
 Alpha virt. eigenvalues --    0.27622   0.28107   0.28702   0.28944   0.29727
 Alpha virt. eigenvalues --    0.30198   0.30432   0.30681   0.31219   0.31646
 Alpha virt. eigenvalues --    0.32164   0.32991   0.33305   0.34051   0.34093
 Alpha virt. eigenvalues --    0.34605   0.34654   0.35445   0.35782   0.36311
 Alpha virt. eigenvalues --    0.36600   0.36858   0.37365   0.37637   0.38586
 Alpha virt. eigenvalues --    0.38887   0.39425   0.39817   0.40495   0.40751
 Alpha virt. eigenvalues --    0.41810   0.42680   0.43674   0.43786   0.44483
 Alpha virt. eigenvalues --    0.46439   0.47057   0.49643   0.50209   0.50854
 Alpha virt. eigenvalues --    0.51420   0.52445   0.53067   0.53951   0.54260
 Alpha virt. eigenvalues --    0.56533   0.57157   0.57834   0.58290   0.59280
 Alpha virt. eigenvalues --    0.59689   0.60469   0.60768   0.61668   0.62008
 Alpha virt. eigenvalues --    0.62320   0.62695   0.62998   0.63216   0.63937
 Alpha virt. eigenvalues --    0.64830   0.65502   0.65541   0.66334   0.67499
 Alpha virt. eigenvalues --    0.68630   0.69183   0.69357   0.69949   0.70226
 Alpha virt. eigenvalues --    0.70808   0.71164   0.72102   0.72537   0.73258
 Alpha virt. eigenvalues --    0.73682   0.74369   0.74567   0.75108   0.75488
 Alpha virt. eigenvalues --    0.75928   0.76649   0.77522   0.78049   0.78610
 Alpha virt. eigenvalues --    0.79356   0.82789   0.83018   0.84781   0.86220
 Alpha virt. eigenvalues --    0.86717   0.87037   0.88071   0.88364   0.89251
 Alpha virt. eigenvalues --    0.90660   0.91266   0.92096   0.94109   0.96341
 Alpha virt. eigenvalues --    0.98099   0.98256   0.99510   1.00890   1.01295
 Alpha virt. eigenvalues --    1.02549   1.04022   1.04618   1.05104   1.06596
 Alpha virt. eigenvalues --    1.07431   1.09636   1.10158   1.11155   1.11972
 Alpha virt. eigenvalues --    1.12440   1.13352   1.15371   1.16188   1.16834
 Alpha virt. eigenvalues --    1.17376   1.18613   1.19189   1.19837   1.20226
 Alpha virt. eigenvalues --    1.21014   1.21836   1.22701   1.23095   1.24474
 Alpha virt. eigenvalues --    1.24536   1.25900   1.26357   1.27278   1.28391
 Alpha virt. eigenvalues --    1.29042   1.29423   1.29674   1.30663   1.31021
 Alpha virt. eigenvalues --    1.32110   1.33081   1.33838   1.34121   1.34980
 Alpha virt. eigenvalues --    1.35735   1.36411   1.36967   1.37395   1.37723
 Alpha virt. eigenvalues --    1.38335   1.39824   1.40143   1.40854   1.41807
 Alpha virt. eigenvalues --    1.42602   1.43318   1.43812   1.43987   1.44600
 Alpha virt. eigenvalues --    1.45625   1.46772   1.46862   1.47552   1.48433
 Alpha virt. eigenvalues --    1.49312   1.49981   1.50344   1.51143   1.51992
 Alpha virt. eigenvalues --    1.52962   1.53113   1.53506   1.54624   1.56169
 Alpha virt. eigenvalues --    1.56768   1.57237   1.57524   1.58073   1.58878
 Alpha virt. eigenvalues --    1.59478   1.59947   1.60407   1.60991   1.62114
 Alpha virt. eigenvalues --    1.62888   1.63950   1.64767   1.65375   1.66608
 Alpha virt. eigenvalues --    1.67859   1.69099   1.69504   1.72288   1.72687
 Alpha virt. eigenvalues --    1.73531   1.74508   1.75783   1.76987   1.78415
 Alpha virt. eigenvalues --    1.79396   1.79945   1.81283   1.81853   1.83598
 Alpha virt. eigenvalues --    1.86901   1.89258   1.91743   1.93627   1.96739
 Alpha virt. eigenvalues --    2.05133   2.08442   2.11386   2.15388   2.22106
 Alpha virt. eigenvalues --    2.25173   2.27254   2.31431   2.33799   2.39978
 Alpha virt. eigenvalues --    2.41389   2.43125   2.46125   2.48094   2.53883
 Alpha virt. eigenvalues --    2.61901   2.75614   2.76293   2.77040   2.83435
 Alpha virt. eigenvalues --    2.83998   2.89955   2.92740   2.93656   2.94492
 Alpha virt. eigenvalues --    2.95695   2.99285   3.01453   3.02280   3.03510
 Alpha virt. eigenvalues --    3.06355   3.07075   3.08879   3.09286   3.12330
 Alpha virt. eigenvalues --    3.14634   3.15850   3.17290   3.19873   3.21601
 Alpha virt. eigenvalues --    3.24003   3.27478   3.31008   3.33742   3.34727
 Alpha virt. eigenvalues --    3.35518   3.37214   3.39123   3.40108   3.41333
 Alpha virt. eigenvalues --    3.42562   3.43623   3.44831   3.45531   3.46286
 Alpha virt. eigenvalues --    3.47833   3.49142   3.49362   3.51572   3.52238
 Alpha virt. eigenvalues --    3.52579   3.53428   3.54441   3.55712   3.56616
 Alpha virt. eigenvalues --    3.56949   3.57444   3.58707   3.59217   3.60065
 Alpha virt. eigenvalues --    3.60505   3.61635   3.63273   3.64539   3.65735
 Alpha virt. eigenvalues --    3.66267   3.67235   3.67508   3.68874   3.69884
 Alpha virt. eigenvalues --    3.70477   3.71368   3.72191   3.72889   3.73514
 Alpha virt. eigenvalues --    3.74465   3.75370   3.76056   3.76841   3.77583
 Alpha virt. eigenvalues --    3.78949   3.79384   3.80382   3.81872   3.83874
 Alpha virt. eigenvalues --    3.86597   3.87916   3.89549   3.90589   3.92028
 Alpha virt. eigenvalues --    3.92604   3.94112   3.94718   3.95823   3.98544
 Alpha virt. eigenvalues --    3.99417   4.01531   4.02171   4.03142   4.04041
 Alpha virt. eigenvalues --    4.04467   4.06327   4.06478   4.07220   4.07492
 Alpha virt. eigenvalues --    4.07921   4.09073   4.10628   4.11161   4.11653
 Alpha virt. eigenvalues --    4.12109   4.12568   4.14255   4.15665   4.17058
 Alpha virt. eigenvalues --    4.17223   4.17914   4.17999   4.19336   4.20577
 Alpha virt. eigenvalues --    4.21471   4.24103   4.26514   4.27607   4.28034
 Alpha virt. eigenvalues --    4.28620   4.30386   4.31276   4.31600   4.32892
 Alpha virt. eigenvalues --    4.33235   4.34046   4.36228   4.36697   4.38310
 Alpha virt. eigenvalues --    4.39774   4.41613   4.45565   4.47250   4.51721
 Alpha virt. eigenvalues --    4.58408   4.61933   4.75146   4.76627   4.82670
 Alpha virt. eigenvalues --    4.85089   4.93071   4.95424   4.99116   5.02090
 Alpha virt. eigenvalues --    5.06640   5.07153   5.07738   5.08633   5.12032
 Alpha virt. eigenvalues --    5.12277   5.14039   5.15063   5.30817   5.38754
 Alpha virt. eigenvalues --    5.39791   5.59086   5.59464   5.66020   5.85172
 Alpha virt. eigenvalues --    5.90452   6.04834   7.03626   7.04882   7.05688
 Alpha virt. eigenvalues --    7.08122   7.11435   7.12682   7.17827   7.18844
 Alpha virt. eigenvalues --    7.26419   7.36538   7.39938   7.47069   7.54282
 Alpha virt. eigenvalues --    7.55003   7.65803  23.95809  23.97446  24.06817
 Alpha virt. eigenvalues --   24.07539  24.11188  24.11696  24.14395  24.15458
 Alpha virt. eigenvalues --   24.16246  24.21347  50.16608  50.18722  50.27121
          Condensed to atoms (all electrons):
               1          2          3          4          5          6
     1  C    5.546441   0.106880  -0.024408   0.001338  -0.432262   0.143002
     2  O    0.106880   8.201306   0.011005  -0.000404   0.277857  -0.029188
     3  C   -0.024408   0.011005   5.697414   0.000886  -0.328586   0.042605
     4  O    0.001338  -0.000404   0.000886   8.339562  -0.014047  -0.000595
     5  C   -0.432262   0.277857  -0.328586  -0.014047   7.981011  -1.517459
     6  C    0.143002  -0.029188   0.042605  -0.000595  -1.517459   7.417699
     7  C   -0.006258   0.004401   0.001976  -0.027072  -0.095817   0.026905
     8  O    0.000647  -0.042414  -0.027150   0.006891   0.215910  -0.044668
     9  C   -0.045881   0.023401  -0.010139  -0.025656   0.213390   0.022389
    10  C    0.005166  -0.002782   0.003368   0.070171  -0.039253  -0.017504
    11  C    0.126635   0.032614   0.138467   0.038048  -1.220419   0.165836
    12  C   -0.012872  -0.079858  -0.051781   0.180731   0.408081  -0.254243
    13  C   -0.052089  -0.072326  -0.014825  -0.000025   0.369631  -0.208121
    14  H    0.463934  -0.036300   0.005207   0.000481  -0.035853   0.040760
    15  H    0.437482  -0.067130   0.009187   0.000200  -0.002526  -0.005210
    16  H    0.007099   0.001509   0.517416  -0.000032  -0.003727  -0.058524
    17  H    0.002692  -0.004808   0.434313   0.000015   0.000608  -0.042952
    18  H   -0.048007  -0.073212  -0.028328   0.000798   0.512425  -0.089959
    19  H    0.015227  -0.006873   0.002945   0.000147  -0.138850   0.509664
    20  H    0.007666   0.008360  -0.045004  -0.000073   0.002132   0.414053
    21  H   -0.000493   0.000217   0.000286   0.006677  -0.000734   0.001406
    22  H    0.000536   0.000149   0.000305  -0.001381  -0.006840   0.000179
    23  H    0.003589   0.001188   0.000295   0.001407  -0.022973  -0.003643
    24  H   -0.001333  -0.000987  -0.000655  -0.002027   0.008312  -0.002979
    25  H    0.000093  -0.000002   0.000168  -0.074742  -0.003030  -0.000017
    26  H    0.000164  -0.000127  -0.000428  -0.035014  -0.002664  -0.000521
    27  H    0.014942   0.001190   0.003058  -0.021135  -0.065185   0.004127
    28  H   -0.000403   0.006648  -0.001448  -0.063774   0.019553  -0.014478
    29  H    0.002281   0.001014   0.009956  -0.042483  -0.054689   0.027779
    30  H   -0.031109   0.009749  -0.051127   0.000011   0.012822  -0.011653
    31  H   -0.090813  -0.002828  -0.015960  -0.000027  -0.005675  -0.001915
               7          8          9         10         11         12
     1  C   -0.006258   0.000647  -0.045881   0.005166   0.126635  -0.012872
     2  O    0.004401  -0.042414   0.023401  -0.002782   0.032614  -0.079858
     3  C    0.001976  -0.027150  -0.010139   0.003368   0.138467  -0.051781
     4  O   -0.027072   0.006891  -0.025656   0.070171   0.038048   0.180731
     5  C   -0.095817   0.215910   0.213390  -0.039253  -1.220419   0.408081
     6  C    0.026905  -0.044668   0.022389  -0.017504   0.165836  -0.254243
     7  C    5.604187  -0.010913  -0.040128   0.077674   0.157412  -0.129978
     8  O   -0.010913   8.366163  -0.198489   0.010224   0.126113  -0.029599
     9  C   -0.040128  -0.198489   6.737550  -0.241587  -1.203068   0.313013
    10  C    0.077674   0.010224  -0.241587   5.414757   0.246330  -0.181434
    11  C    0.157412   0.126113  -1.203068   0.246330   7.629390  -0.688770
    12  C   -0.129978  -0.029599   0.313013  -0.181434  -0.688770   6.190453
    13  C    0.001164   0.000622   0.028332  -0.000883  -0.069322   0.022695
    14  H    0.003071   0.004201   0.000677  -0.001340   0.003190  -0.008290
    15  H   -0.000118   0.002390   0.001025   0.000224   0.000494   0.004742
    16  H   -0.001899  -0.003782  -0.002963  -0.000141  -0.003139   0.001601
    17  H    0.000381   0.000623  -0.000574   0.000039   0.009965  -0.003081
    18  H   -0.006865  -0.026565   0.036148  -0.002564  -0.066544   0.040505
    19  H    0.000519   0.010513   0.000942   0.000006   0.009598  -0.002787
    20  H   -0.001567  -0.007631  -0.001706  -0.000088  -0.011746   0.008391
    21  H    0.442579  -0.003477  -0.042502  -0.041924   0.002083  -0.001719
    22  H    0.500030  -0.000322  -0.018031  -0.079367  -0.018152   0.001075
    23  H   -0.048854  -0.004201   0.473578  -0.006786   0.017540  -0.039955
    24  H   -0.016940  -0.000233   0.418621   0.004293  -0.036055   0.018753
    25  H   -0.044932   0.000756   0.008060   0.435719   0.003277   0.010384
    26  H   -0.041811   0.000040  -0.026425   0.472646   0.049326  -0.044127
    27  H   -0.005128  -0.047656  -0.028157   0.017363   0.530096  -0.093975
    28  H    0.008587  -0.008430   0.019277   0.000644  -0.084270   0.452920
    29  H    0.030086   0.008967  -0.088943   0.008797   0.102817   0.334160
    30  H   -0.000365   0.001370  -0.001983   0.000234   0.000961   0.002478
    31  H    0.000111  -0.000957   0.001305  -0.000182  -0.003027  -0.002000
              13         14         15         16         17         18
     1  C   -0.052089   0.463934   0.437482   0.007099   0.002692  -0.048007
     2  O   -0.072326  -0.036300  -0.067130   0.001509  -0.004808  -0.073212
     3  C   -0.014825   0.005207   0.009187   0.517416   0.434313  -0.028328
     4  O   -0.000025   0.000481   0.000200  -0.000032   0.000015   0.000798
     5  C    0.369631  -0.035853  -0.002526  -0.003727   0.000608   0.512425
     6  C   -0.208121   0.040760  -0.005210  -0.058524  -0.042952  -0.089959
     7  C    0.001164   0.003071  -0.000118  -0.001899   0.000381  -0.006865
     8  O    0.000622   0.004201   0.002390  -0.003782   0.000623  -0.026565
     9  C    0.028332   0.000677   0.001025  -0.002963  -0.000574   0.036148
    10  C   -0.000883  -0.001340   0.000224  -0.000141   0.000039  -0.002564
    11  C   -0.069322   0.003190   0.000494  -0.003139   0.009965  -0.066544
    12  C    0.022695  -0.008290   0.004742   0.001601  -0.003081   0.040505
    13  C    5.644742  -0.065459  -0.026319  -0.067328  -0.025685   0.029230
    14  H   -0.065459   0.504975  -0.012584  -0.003399  -0.000131   0.001542
    15  H   -0.026319  -0.012584   0.475986  -0.001873   0.000916  -0.001335
    16  H   -0.067328  -0.003399  -0.001873   0.457066  -0.006157  -0.002967
    17  H   -0.025685  -0.000131   0.000916  -0.006157   0.470659   0.003131
    18  H    0.029230   0.001542  -0.001335  -0.002967   0.003131   0.497365
    19  H   -0.016117  -0.001124   0.000729   0.001804  -0.003491  -0.017465
    20  H   -0.005393  -0.000813   0.001071  -0.001547  -0.011202  -0.011049
    21  H    0.000064   0.000154   0.000005  -0.000092   0.000025  -0.000215
    22  H   -0.000092   0.000308  -0.000037   0.000047   0.000010  -0.000280
    23  H   -0.001711  -0.000696  -0.000009   0.000529   0.000079  -0.000468
    24  H    0.001461  -0.000282   0.000202  -0.000570  -0.000154   0.000671
    25  H   -0.000106  -0.000027  -0.000010  -0.000016   0.000007  -0.000130
    26  H    0.000134   0.000031   0.000017   0.000028  -0.000016  -0.000068
    27  H   -0.009499  -0.010306   0.000391   0.000326   0.000333   0.000630
    28  H    0.001848  -0.000609  -0.000855   0.000329  -0.000317  -0.013048
    29  H   -0.004390   0.001817   0.000005  -0.000465   0.000366  -0.015731
    30  H    0.441575  -0.000915  -0.009976  -0.003032  -0.008653   0.000824
    31  H    0.488697   0.004116  -0.005290   0.000422  -0.000790   0.001343
              19         20         21         22         23         24
     1  C    0.015227   0.007666  -0.000493   0.000536   0.003589  -0.001333
     2  O   -0.006873   0.008360   0.000217   0.000149   0.001188  -0.000987
     3  C    0.002945  -0.045004   0.000286   0.000305   0.000295  -0.000655
     4  O    0.000147  -0.000073   0.006677  -0.001381   0.001407  -0.002027
     5  C   -0.138850   0.002132  -0.000734  -0.006840  -0.022973   0.008312
     6  C    0.509664   0.414053   0.001406   0.000179  -0.003643  -0.002979
     7  C    0.000519  -0.001567   0.442579   0.500030  -0.048854  -0.016940
     8  O    0.010513  -0.007631  -0.003477  -0.000322  -0.004201  -0.000233
     9  C    0.000942  -0.001706  -0.042502  -0.018031   0.473578   0.418621
    10  C    0.000006  -0.000088  -0.041924  -0.079367  -0.006786   0.004293
    11  C    0.009598  -0.011746   0.002083  -0.018152   0.017540  -0.036055
    12  C   -0.002787   0.008391  -0.001719   0.001075  -0.039955   0.018753
    13  C   -0.016117  -0.005393   0.000064  -0.000092  -0.001711   0.001461
    14  H   -0.001124  -0.000813   0.000154   0.000308  -0.000696  -0.000282
    15  H    0.000729   0.001071   0.000005  -0.000037  -0.000009   0.000202
    16  H    0.001804  -0.001547  -0.000092   0.000047   0.000529  -0.000570
    17  H   -0.003491  -0.011202   0.000025   0.000010   0.000079  -0.000154
    18  H   -0.017465  -0.011049  -0.000215  -0.000280  -0.000468   0.000671
    19  H    0.448733  -0.002920  -0.000005   0.000033   0.000069   0.000000
    20  H   -0.002920   0.472376   0.000011  -0.000053  -0.000772   0.000559
    21  H   -0.000005   0.000011   0.488875  -0.008319  -0.004897  -0.009480
    22  H    0.000033  -0.000053  -0.008319   0.473727   0.002616  -0.005408
    23  H    0.000069  -0.000772  -0.004897   0.002616   0.444870  -0.015191
    24  H    0.000000   0.000559  -0.009480  -0.005408  -0.015191   0.476167
    25  H   -0.000000  -0.000008  -0.008078  -0.002560  -0.001019   0.000767
    26  H    0.000055  -0.000025   0.003421   0.002693  -0.003470  -0.000625
    27  H   -0.000835   0.000538  -0.001334  -0.008056   0.006890  -0.007199
    28  H    0.000171  -0.000097   0.002009  -0.001687  -0.000659  -0.001065
    29  H    0.000421  -0.000126  -0.000554   0.001208  -0.002747  -0.002311
    30  H   -0.002108   0.001342  -0.000016  -0.000022   0.000042   0.000026
    31  H   -0.002940  -0.001707   0.000006  -0.000003  -0.000030   0.000001
              25         26         27         28         29         30
     1  C    0.000093   0.000164   0.014942  -0.000403   0.002281  -0.031109
     2  O   -0.000002  -0.000127   0.001190   0.006648   0.001014   0.009749
     3  C    0.000168  -0.000428   0.003058  -0.001448   0.009956  -0.051127
     4  O   -0.074742  -0.035014  -0.021135  -0.063774  -0.042483   0.000011
     5  C   -0.003030  -0.002664  -0.065185   0.019553  -0.054689   0.012822
     6  C   -0.000017  -0.000521   0.004127  -0.014478   0.027779  -0.011653
     7  C   -0.044932  -0.041811  -0.005128   0.008587   0.030086  -0.000365
     8  O    0.000756   0.000040  -0.047656  -0.008430   0.008967   0.001370
     9  C    0.008060  -0.026425  -0.028157   0.019277  -0.088943  -0.001983
    10  C    0.435719   0.472646   0.017363   0.000644   0.008797   0.000234
    11  C    0.003277   0.049326   0.530096  -0.084270   0.102817   0.000961
    12  C    0.010384  -0.044127  -0.093975   0.452920   0.334160   0.002478
    13  C   -0.000106   0.000134  -0.009499   0.001848  -0.004390   0.441575
    14  H   -0.000027   0.000031  -0.010306  -0.000609   0.001817  -0.000915
    15  H   -0.000010   0.000017   0.000391  -0.000855   0.000005  -0.009976
    16  H   -0.000016   0.000028   0.000326   0.000329  -0.000465  -0.003032
    17  H    0.000007  -0.000016   0.000333  -0.000317   0.000366  -0.008653
    18  H   -0.000130  -0.000068   0.000630  -0.013048  -0.015731   0.000824
    19  H   -0.000000   0.000055  -0.000835   0.000171   0.000421  -0.002108
    20  H   -0.000008  -0.000025   0.000538  -0.000097  -0.000126   0.001342
    21  H   -0.008078   0.003421  -0.001334   0.002009  -0.000554  -0.000016
    22  H   -0.002560   0.002693  -0.008056  -0.001687   0.001208  -0.000022
    23  H   -0.001019  -0.003470   0.006890  -0.000659  -0.002747   0.000042
    24  H    0.000767  -0.000625  -0.007199  -0.001065  -0.002311   0.000026
    25  H    0.470678  -0.004055  -0.000568   0.003268  -0.000702   0.000003
    26  H   -0.004055   0.491356  -0.001612  -0.004297   0.004163  -0.000006
    27  H   -0.000568  -0.001612   0.484103   0.000734  -0.005891   0.001004
    28  H    0.003268  -0.004297   0.000734   0.468908  -0.024993  -0.000093
    29  H   -0.000702   0.004163  -0.005891  -0.024993   0.492121  -0.000005
    30  H    0.000003  -0.000006   0.001004  -0.000093  -0.000005   0.488373
    31  H   -0.000003   0.000002  -0.000031   0.000384  -0.000244  -0.012066
              31
     1  C   -0.090813
     2  O   -0.002828
     3  C   -0.015960
     4  O   -0.000027
     5  C   -0.005675
     6  C   -0.001915
     7  C    0.000111
     8  O   -0.000957
     9  C    0.001305
    10  C   -0.000182
    11  C   -0.003027
    12  C   -0.002000
    13  C    0.488697
    14  H    0.004116
    15  H   -0.005290
    16  H    0.000422
    17  H   -0.000790
    18  H    0.001343
    19  H   -0.002940
    20  H   -0.001707
    21  H    0.000006
    22  H   -0.000003
    23  H   -0.000030
    24  H    0.000001
    25  H   -0.000003
    26  H    0.000002
    27  H   -0.000031
    28  H    0.000384
    29  H   -0.000244
    30  H   -0.012066
    31  H    0.483657
 Mulliken charges:
               1
     1  C   -0.139884
     2  O   -0.268250
     3  C   -0.279015
     4  O   -0.338875
     5  C   -0.031144
     6  C   -0.512775
     7  C   -0.380439
     8  O   -0.298942
     9  C   -0.321477
    10  C   -0.151820
    11  C    0.014316
    12  C   -0.365515
    13  C   -0.390503
    14  H    0.143663
    15  H    0.198207
    16  H    0.173479
    17  H    0.183848
    18  H    0.280189
    19  H    0.193941
    20  H    0.187029
    21  H    0.176020
    22  H    0.167692
    23  H    0.205388
    24  H    0.173662
    25  H    0.206827
    26  H    0.141216
    27  H    0.240843
    28  H    0.235243
    29  H    0.218317
    30  H    0.172315
    31  H    0.166444
 Sum of Mulliken charges =  -0.00000
 Mulliken charges with hydrogens summed into heavy atoms:
               1
     1  C    0.201986
     2  O   -0.268250
     3  C    0.078312
     4  O   -0.338875
     5  C    0.249045
     6  C   -0.131805
     7  C   -0.036726
     8  O   -0.298942
     9  C    0.057573
    10  C    0.196223
    11  C    0.255160
    12  C    0.088044
    13  C   -0.051744
 Electronic spatial extent (au):  <R**2>=           3084.1356
 Charge=             -0.0000 electrons
 Dipole moment (field-independent basis, Debye):
    X=             -0.5008    Y=              2.2539    Z=              0.1635  Tot=              2.3146
 Quadrupole moment (field-independent basis, Debye-Ang):
   XX=            -71.2896   YY=            -86.4502   ZZ=            -75.9003
   XY=              5.3338   XZ=              1.0950   YZ=              0.5267
 Traceless Quadrupole moment (field-independent basis, Debye-Ang):
   XX=              6.5905   YY=             -8.5702   ZZ=              1.9797
   XY=              5.3338   XZ=              1.0950   YZ=              0.5267
 Octapole moment (field-independent basis, Debye-Ang**2):
  XXX=              6.0083  YYY=              2.9611  ZZZ=              1.6788  XYY=             -4.8624
  XXY=             20.6620  XXZ=             -4.0115  XZZ=             -2.8657  YZZ=             -3.1079
  YYZ=             -1.8846  XYZ=             -3.5928
 Hexadecapole moment (field-independent basis, Debye-Ang**3):
 XXXX=          -3045.6525 YYYY=           -529.0850 ZZZZ=           -369.8632 XXXY=             47.0891
 XXXZ=              0.8429 YYYX=             15.7326 YYYZ=              4.0398 ZZZX=              6.3091
 ZZZY=             -0.2089 XXYY=           -653.2400 XXZZ=           -585.3706 YYZZ=           -145.1574
 XXYZ=             11.9272 YYXZ=              3.4805 ZZXY=              3.0834
 N-N= 8.943675105291D+02 E-N=-3.230580852441D+03  KE= 6.153388656763D+02
 D1PCM: PCM CHGder 1st derivatives, ID1Alg=3 FixD1E=F DoIter=F DoCFld=F I1PDM=0.
 Calling FoFJK, ICntrl=      2127 FMM=F ISym2X=0 I1Cent= 0 IOpClX= 0 NMat=1 NMatS=1 NMatT=0.
 ***** Axes restored to original set *****
 -------------------------------------------------------------------
 Center     Atomic                   Forces (Hartrees/Bohr)
 Number     Number              X              Y              Z
 -------------------------------------------------------------------
      1        6          -0.002184055    0.004214983    0.004783513
      2        8           0.002855384   -0.011013150    0.003118673
      3        6           0.001392801   -0.003594986    0.000441993
      4        8           0.002138077   -0.008811434   -0.002520332
      5        6          -0.004281523    0.001346616   -0.009302027
      6        6           0.000486370    0.001148448   -0.002583831
      7        6          -0.001128481    0.000279331    0.002526347
      8        8          -0.001219468    0.014260682    0.002153518
      9        6           0.001335934   -0.003764789   -0.003987490
     10        6          -0.005965651    0.002278696   -0.002739893
     11        6          -0.000527326   -0.001227750    0.008455040
     12        6           0.003066064    0.004446060   -0.005842683
     13        6           0.002340228    0.001528556   -0.000482502
     14        1           0.003064545    0.004341271   -0.003667353
     15        1          -0.001104326   -0.003869922   -0.001788074
     16        1           0.002612242    0.001600002   -0.001939125
     17        1          -0.002152885    0.001073478    0.000943323
     18        1           0.003394448   -0.004536525    0.006430679
     19        1          -0.001729351   -0.002313885    0.001769619
     20        1           0.001270054    0.002622595    0.001271900
     21        1           0.001662791    0.002479709   -0.000050476
     22        1          -0.000175625   -0.001599891   -0.002787541
     23        1          -0.000445740    0.000814134    0.003820438
     24        1          -0.001579331    0.001784033   -0.001838891
     25        1           0.003733942   -0.001720792   -0.001504371
     26        1           0.000634680    0.003136525    0.005289747
     27        1           0.000938004   -0.003386786   -0.005639066
     28        1          -0.004692782   -0.004220738   -0.000295545
     29        1          -0.000764193    0.003912155    0.005974569
     30        1          -0.001606198    0.000921958   -0.002165047
     31        1          -0.001368626   -0.002128587    0.002154887
 -------------------------------------------------------------------
 Cartesian Forces:  Max     0.014260682 RMS     0.003705647

 GradGradGradGradGradGradGradGradGradGradGradGradGradGradGradGradGradGrad
 Berny optimization.
 FormGI is forming the generalized inverse of G from B-inverse, IUseBI=4.
 Internal  Forces:  Max     0.017185867 RMS     0.002286216
 Search for a local minimum.
 Step number   1 out of a maximum of  186
 All quantities printed in internal units (Hartrees-Bohrs-Radians)
 Mixed Optimization -- RFO/linear search
 Second derivative matrix not updated -- first step.
 ITU=  0
     Eigenvalues ---    0.00623   0.00656   0.00718   0.00727   0.01411
     Eigenvalues ---    0.01442   0.01720   0.02700   0.02802   0.03077
     Eigenvalues ---    0.03122   0.04086   0.04201   0.04644   0.04752
     Eigenvalues ---    0.04868   0.04890   0.05091   0.05144   0.05178
     Eigenvalues ---    0.05282   0.05680   0.05686   0.06035   0.06175
     Eigenvalues ---    0.06233   0.06544   0.07031   0.07607   0.07860
     Eigenvalues ---    0.07944   0.07963   0.07981   0.08084   0.08252
     Eigenvalues ---    0.08834   0.09218   0.09232   0.10764   0.11595
     Eigenvalues ---    0.11603   0.11688   0.11764   0.12399   0.12474
     Eigenvalues ---    0.14503   0.14737   0.16403   0.16486   0.17251
     Eigenvalues ---    0.19150   0.21252   0.21950   0.25000   0.28120
     Eigenvalues ---    0.28657   0.28803   0.28879   0.28946   0.29150
     Eigenvalues ---    0.30081   0.30341   0.35093   0.35095   0.35123
     Eigenvalues ---    0.35131   0.35167   0.35208   0.35211   0.35243
     Eigenvalues ---    0.35299   0.35313   0.35318   0.35351   0.35417
     Eigenvalues ---    0.35441   0.35835   0.35849   0.36083   0.36211
     Eigenvalues ---    0.40788   0.41482   0.42217   0.42424   0.43413
     Eigenvalues ---    0.459771000.000001000.000001000.000001000.00000
     Eigenvalues --- 1000.000001000.000001000.000001000.000001000.00000
     Eigenvalues --- 1000.000001000.000001000.000001000.000001000.00000
     Eigenvalues --- 1000.000001000.000001000.000001000.000001000.00000
     Eigenvalues --- 1000.000001000.000001000.000001000.000001000.00000
     Eigenvalues --- 1000.000001000.000001000.000001000.000001000.00000
     Eigenvalues --- 1000.000001000.000001000.000001000.000001000.00000
     Eigenvalues --- 1000.000001000.000001000.000001000.000001000.00000
     Eigenvalues --- 1000.000001000.000001000.000001000.000001000.00000
     Eigenvalues --- 1000.000001000.000001000.000001000.000001000.00000
     Eigenvalues --- 1000.000001000.000001000.000001000.000001000.00000
     Eigenvalues --- 1000.000001000.000001000.000001000.000001000.00000
     Eigenvalues --- 1000.000001000.000001000.000001000.000001000.00000
     Eigenvalues --- 1000.000001000.000001000.000001000.000001000.00000
     Eigenvalues --- 1000.000001000.000001000.000001000.000001000.00000
     Eigenvalues --- 1000.000001000.000001000.000001000.000001000.00000
     Eigenvalues --- 1000.000001000.000001000.000001000.000001000.00000
     Eigenvalues --- 1000.000001000.000001000.000001000.000001000.00000
     Eigenvalues --- 1000.000001000.000001000.000001000.000001000.00000
     Eigenvalues --- 1000.000001000.000001000.000001000.000001000.00000
 RFO step:  Lambda=-4.11499088D-03 EMin= 6.23287616D-03
 Linear search not attempted -- first point.
 Iteration  1 RMS(Cart)=  0.07071727 RMS(Int)=  0.00109156
 Iteration  2 RMS(Cart)=  0.00370287 RMS(Int)=  0.00005089
 Iteration  3 RMS(Cart)=  0.00000394 RMS(Int)=  0.00005084
 Iteration  4 RMS(Cart)=  0.00000000 RMS(Int)=  0.00005084
 Iteration  1 RMS(Cart)=  0.00001799 RMS(Int)=  0.00000423
 Iteration  2 RMS(Cart)=  0.00000997 RMS(Int)=  0.00000472
 Iteration  3 RMS(Cart)=  0.00000552 RMS(Int)=  0.00000534
 Iteration  4 RMS(Cart)=  0.00000306 RMS(Int)=  0.00000576
 Iteration  5 RMS(Cart)=  0.00000170 RMS(Int)=  0.00000601
 Iteration  6 RMS(Cart)=  0.00000094 RMS(Int)=  0.00000615
 Variable       Old X    -DE/DX   Delta X   Delta X   Delta X     New X
                                 (Linear)    (Quad)   (Total)
    R1        2.68725   0.00301   0.00000   0.00684   0.00685   2.69410
    R2        2.87116   0.00008   0.00000   0.00042   0.00044   2.87160
    R3        2.05004   0.00635   0.00000   0.01773   0.01773   2.06777
    R4        2.04318   0.00440   0.00000   0.01213   0.01213   2.05531
    R5        2.65347   0.00367   0.00000   0.00776   0.00778   2.66125
    R6        2.88992  -0.00132   0.00000  -0.00411  -0.00412   2.88581
    R7        2.88881  -0.00074   0.00000  -0.00197  -0.00199   2.88682
    R8        2.05338   0.00343   0.00000   0.00962   0.00962   2.06300
    R9        2.05161   0.00258   0.00000   0.00723   0.00723   2.05884
   R10        2.67575   0.00376   0.00000   0.00867   0.00871   2.68446
   R11        2.66713   0.00325   0.00000   0.00722   0.00724   2.67437
   R12        2.87466  -0.00065   0.00000  -0.00234  -0.00235   2.87230
   R13        2.64157   0.00271   0.00000   0.00585   0.00585   2.64742
   R14        2.03754   0.00849   0.00000   0.02319   0.02319   2.06073
   R15        2.05334   0.00333   0.00000   0.00936   0.00936   2.06270
   R16        2.04964   0.00316   0.00000   0.00881   0.00881   2.05845
   R17        2.88971  -0.00079   0.00000  -0.00254  -0.00256   2.88715
   R18        2.87009   0.00096   0.00000   0.00240   0.00241   2.87250
   R19        2.05192   0.00296   0.00000   0.00829   0.00829   2.06022
   R20        2.05404   0.00315   0.00000   0.00886   0.00886   2.06290
   R21        2.68386   0.00069   0.00000   0.00161   0.00161   2.68548
   R22        2.88035  -0.00218   0.00000  -0.00716  -0.00720   2.87315
   R23        2.05463   0.00379   0.00000   0.01066   0.01066   2.06530
   R24        2.05169   0.00295   0.00000   0.00827   0.00827   2.05996
   R25        2.04341   0.00438   0.00000   0.01208   0.01208   2.05549
   R26        2.05520   0.00606   0.00000   0.01706   0.01706   2.07227
   R27        2.89376  -0.00184   0.00000  -0.00543  -0.00543   2.88834
   R28        2.05109   0.00641   0.00000   0.01793   0.01793   2.06902
   R29        2.03952   0.00608   0.00000   0.01666   0.01666   2.05619
   R30        2.05475   0.00690   0.00000   0.01941   0.01941   2.07417
   R31        2.05282   0.00283   0.00000   0.00793   0.00793   2.06075
   R32        2.05525   0.00325   0.00000   0.00914   0.00914   2.06439
    A1        1.94437   0.00230   0.00000   0.00578   0.00573   1.95010
    A2        1.90902   0.00021   0.00000   0.00210   0.00216   1.91118
    A3        1.84183  -0.00133   0.00000  -0.00219  -0.00220   1.83963
    A4        1.93184  -0.00168   0.00000  -0.00771  -0.00775   1.92410
    A5        1.94643  -0.00024   0.00000  -0.00186  -0.00180   1.94463
    A6        1.88737   0.00075   0.00000   0.00426   0.00425   1.89161
    A7        2.02234  -0.00573   0.00000  -0.03613  -0.03602   1.98632
    A8        1.91451   0.00189   0.00000  -0.00086  -0.00085   1.91367
    A9        1.92244  -0.00096   0.00000  -0.00632  -0.00634   1.91611
   A10        1.91533  -0.00054   0.00000   0.00148   0.00147   1.91680
   A11        1.91409  -0.00084   0.00000  -0.00194  -0.00202   1.91206
   A12        1.93023  -0.00025   0.00000   0.00185   0.00190   1.93213
   A13        1.86681   0.00064   0.00000   0.00587   0.00588   1.87269
   A14        1.98716  -0.00412   0.00000  -0.02732  -0.02724   1.95991
   A15        1.94586   0.00344   0.00000   0.01360   0.01343   1.95929
   A16        1.94299   0.00028   0.00000  -0.00213  -0.00198   1.94101
   A17        1.83402  -0.00257   0.00000  -0.01490  -0.01492   1.81910
   A18        1.88881  -0.00314   0.00000  -0.01431  -0.01423   1.87458
   A19        1.92515   0.00039   0.00000   0.00654   0.00661   1.93177
   A20        1.92724   0.00173   0.00000   0.01200   0.01200   1.93924
   A21        1.95527  -0.00174   0.00000  -0.01461  -0.01473   1.94054
   A22        1.91071   0.00119   0.00000   0.00703   0.00711   1.91782
   A23        1.94745  -0.00021   0.00000  -0.00095  -0.00104   1.94641
   A24        1.87103   0.00006   0.00000   0.00292   0.00292   1.87395
   A25        1.90086   0.00080   0.00000  -0.00005  -0.00002   1.90084
   A26        1.87526  -0.00002   0.00000   0.00668   0.00665   1.88191
   A27        1.92211  -0.00099   0.00000  -0.00556  -0.00559   1.91653
   A28        1.92738  -0.00050   0.00000  -0.00089  -0.00089   1.92649
   A29        1.92072   0.00097   0.00000   0.00185   0.00185   1.92257
   A30        1.91177   0.00092   0.00000   0.00470   0.00472   1.91649
   A31        1.90561  -0.00033   0.00000  -0.00268  -0.00270   1.90291
   A32        1.87556  -0.00004   0.00000   0.00280   0.00280   1.87836
   A33        2.10604  -0.01719   0.00000  -0.06763  -0.06763   2.03841
   A34        1.93088   0.00068   0.00000  -0.00535  -0.00542   1.92545
   A35        1.91793  -0.00012   0.00000   0.00355   0.00353   1.92146
   A36        1.93156   0.00040   0.00000   0.00653   0.00653   1.93809
   A37        1.89014  -0.00105   0.00000  -0.00715  -0.00715   1.88299
   A38        1.91607  -0.00026   0.00000  -0.00166  -0.00160   1.91446
   A39        1.87601   0.00029   0.00000   0.00406   0.00402   1.88003
   A40        1.93035   0.00164   0.00000   0.01051   0.01052   1.94087
   A41        1.85528  -0.00125   0.00000  -0.00463  -0.00463   1.85066
   A42        1.90204   0.00090   0.00000   0.00695   0.00698   1.90903
   A43        1.94887  -0.00037   0.00000  -0.00356  -0.00358   1.94530
   A44        1.93229  -0.00144   0.00000  -0.00986  -0.00990   1.92239
   A45        1.89271   0.00055   0.00000   0.00098   0.00095   1.89365
   A46        1.86589   0.00031   0.00000   0.00777   0.00780   1.87368
   A47        1.99403  -0.00154   0.00000  -0.01289  -0.01289   1.98114
   A48        1.89388   0.00089   0.00000   0.01181   0.01174   1.90562
   A49        1.89989   0.00147   0.00000   0.00347   0.00347   1.90336
   A50        1.92339  -0.00073   0.00000  -0.00203  -0.00209   1.92130
   A51        1.88661  -0.00042   0.00000  -0.00788  -0.00785   1.87876
   A52        1.90926   0.00112   0.00000   0.00917   0.00925   1.91851
   A53        1.85000  -0.00004   0.00000   0.00872   0.00876   1.85876
   A54        1.91383   0.00161   0.00000   0.01159   0.01163   1.92546
   A55        1.95903  -0.00103   0.00000  -0.01331  -0.01342   1.94561
   A56        1.92973  -0.00242   0.00000  -0.01614  -0.01626   1.91347
   A57        1.90012   0.00094   0.00000   0.00160   0.00134   1.90145
   A58        1.92322  -0.00095   0.00000  -0.00490  -0.00509   1.91812
   A59        1.90300   0.00058   0.00000   0.00335   0.00340   1.90639
   A60        1.90557   0.00002   0.00000  -0.00154  -0.00148   1.90409
   A61        1.93887  -0.00053   0.00000  -0.00193  -0.00190   1.93697
   A62        1.91660   0.00090   0.00000   0.00174   0.00181   1.91841
   A63        1.87572   0.00001   0.00000   0.00350   0.00347   1.87918
    D1       -1.00041   0.00049   0.00000  -0.01589  -0.01578  -1.01619
    D2        1.14093   0.00005   0.00000  -0.02033  -0.02025   1.12068
    D3       -3.11558   0.00032   0.00000  -0.01552  -0.01543  -3.13101
    D4        0.95997   0.00135   0.00000   0.01961   0.01966   0.97963
    D5        3.09224   0.00046   0.00000   0.01626   0.01626   3.10849
    D6       -1.14637   0.00081   0.00000   0.02149   0.02152  -1.12486
    D7       -1.16821   0.00066   0.00000   0.01832   0.01839  -1.14982
[...]
 -0.03946593,-0.08298236,0.00039547,0.00024352,-0.00014895,-0.00043054,
 0.00082922,0.00054126,0.00000175,-0.00000067,0.00000463,0.00000182,-0.
 00000017,0.00000246,-0.00000086,-0.00000073,0.00000067,0.00000081,-0.0
 0000107,0.00000096,-0.00000081,-0.00000034,0.00000006,-0.00002485,-0.0
 0000759,0.00001742,-0.00000637,0.00000220,0.00000142,0.00000074,-0.000
 00050,-0.00000134,0.00068253,-0.00054000,0.00051192,0.00007332,-0.0009
 3236,0.00106625,-0.00015378,0.00018158,0.00025403,-0.00102669,0.000446
 87,0.00038266,-0.08229880,0.03917493,0.08264405,0.00000637,0.00000193,
 0.00000174,-0.00000157,-0.00000769,0.00000536,0.00000047,-0.00000047,-
 0.00000026,-0.01349379,-0.01981483,-0.02129300,0.00004573,0.00004960,-
 0.00005621,-0.00000114,-0.00000692,0.00000825,-0.00015941,-0.00142032,
 -0.00981131,-0.00017572,0.00024950,0.00000415,0.00042844,-0.00095703,-
 0.00067724,-0.05634729,-0.00221377,-0.02131793,-0.00043274,0.00011154,
 0.00026044,0.00324366,-0.00218755,-0.00464169,0.00000020,-0.00000033,0
 .00000048,0.00000124,0.00000024,0.00000120,-0.00000049,-0.00000059,0.0
 0000053,-0.00000015,-0.00000113,0.00000088,-0.00000057,-0.00000042,0.0
 0000041,-0.00000551,-0.00000799,0.00001216,-0.00000371,0.00000049,0.00
 000073,-0.00000030,-0.00000037,0.,0.00037166,0.00007782,0.00022409,0.0
 0051284,0.00110194,-0.00116988,-0.00001073,0.00019715,0.00007757,0.000
 11853,0.00001853,0.00018802,0.00524980,0.00806802,0.02482108,0.0601570
 1,0.00003466,-0.00000446,0.00004649,-0.00010088,-0.00003389,-0.0000493
 6,-0.00000791,0.00000511,0.00001398,-0.01833524,-0.02076957,-0.0249888
 4,0.00019184,0.00010150,-0.00003413,-0.00000956,-0.00001395,-0.0000224
 9,0.00385673,0.00792883,0.02528347,-0.00033558,0.00027382,-0.00006399,
 -0.00104911,0.00127125,0.00028686,-0.00485305,-0.07068556,-0.06969337,
 -0.00010141,-0.00032172,0.00057410,0.00420831,-0.00022004,-0.00164772,
 -0.00000060,0.00000469,-0.00000750,0.00000211,0.00000250,0.00000152,-0
 .00000624,-0.00000418,-0.00000556,0.00000161,-0.00000378,0.00000218,-0
 .00000962,0.00000266,-0.00000434,0.00000727,-0.00000147,-0.00002773,-0
 .00001326,0.00000156,0.00000380,-0.00000031,0.00000247,-0.00000012,-0.
 00052748,0.00095546,-0.00098692,0.00235050,-0.00337715,0.00333198,-0.0
 0001230,-0.00019788,-0.00055700,-0.00027082,-0.00004472,-0.00024434,-0
 .00087671,-0.00297415,-0.01272344,0.01618523,0.08747376,0.00003651,-0.
 00000477,0.00004241,-0.00009459,-0.00005607,-0.00004854,-0.00000567,0.
 00000445,0.00001410,-0.00393914,-0.00544412,0.00436153,0.00014700,0.00
 015210,-0.00004754,-0.00001637,-0.00002927,-0.00001112,-0.00104939,-0.
 00565100,-0.02072278,-0.00045059,-0.00002785,0.00010269,0.00065234,-0.
 00102075,0.00090496,-0.02440488,-0.07132553,-0.27102698,0.00024640,-0.
 00012185,0.00010567,0.00081082,0.00123569,0.00186694,0.00000077,0.0000
 0437,-0.00000627,0.00000314,0.00000224,0.00000256,-0.00000640,-0.00000
 439,-0.00000550,0.00000234,-0.00000408,0.00000160,-0.00000913,0.000003
 34,-0.00000471,-0.00000661,-0.00000647,-0.00001901,-0.00001823,0.00000
 450,0.00000584,-0.00000001,0.00000294,-0.00000015,0.00022510,0.0002246
 8,0.00035252,-0.00148511,0.00346797,-0.00127303,-0.00071782,0.00023714
 ,0.00044203,0.00012481,0.00025379,0.00030488,-0.00057701,-0.00236869,-
 0.00857852,0.03201557,0.08026262,0.29310138,-0.00000103,-0.00049172,0.
 00092424,-0.00042137,-0.00148109,-0.00130428,0.00001798,-0.00000143,0.
 00013033,0.00121963,-0.00048005,0.00009768,0.00325120,0.00562664,0.000
 79558,-0.00051419,-0.00068093,0.00017324,0.00114026,-0.00001377,-0.000
 71899,-0.01150266,0.01695874,0.03604460,-0.00264632,-0.00802232,-0.019
 24936,-0.00024792,-0.00018535,0.00001216,-0.05340540,-0.01909043,-0.03
 993491,-0.00081847,-0.00363494,-0.01084034,0.00002156,0.00026256,-0.00
 016597,-0.00017562,0.00038659,-0.00035849,0.00001946,0.00002375,-0.000
 12874,0.00002417,-0.00000729,-0.00000851,-0.00006417,0.00000697,-0.000
 05132,-0.00036415,-0.00037692,0.00028006,-0.00035106,0.00003333,-0.000
 00625,0.00005012,-0.00013925,-0.00008498,0.00013237,0.00001497,0.00020
 914,-0.00027292,0.00005289,0.00036987,-0.00239020,-0.00336842,0.000198
 99,0.00078066,0.00046795,0.00071020,-0.00004305,0.00005294,-0.00004473
 ,0.00003693,0.00000647,0.00011799,0.06685752,-0.00014485,0.00011943,-0
 .00024393,0.00045239,0.00076010,0.00034395,-0.00003279,0.00000597,-0.0
 0005771,-0.00192498,0.00100965,-0.00117730,-0.00182110,-0.00261046,0.0
 0073913,0.00011685,0.00021762,-0.00025447,0.00099434,0.00052804,-0.000
 32504,0.00959719,-0.00430798,-0.01368340,-0.00615532,-0.01086179,-0.02
 412330,-0.00018079,-0.00021037,0.00007291,-0.01825789,-0.08752680,-0.0
 8614709,0.00494692,0.00762946,0.02454306,-0.00003089,-0.00005808,0.000
 06107,0.00023895,0.00006115,0.00006500,0.00002097,-0.00004425,0.000056
 96,-0.00001299,0.00001059,-0.00000569,0.00002980,-0.00001290,0.0000134
 7,0.00037091,0.00035882,-0.00028998,0.00016925,-0.00002819,0.00000467,
 0.00002609,0.00004791,0.00003190,0.00008386,0.00005628,0.00044961,-0.0
 0034379,0.00040410,0.00046409,-0.00326048,-0.00325050,-0.00002494,0.00
 097701,0.00100364,0.00011091,0.00001200,0.00008982,-0.00005989,-0.0000
 3187,-0.00008296,-0.00000184,0.01227827,0.09837929,0.00003261,0.000298
 53,0.00014058,0.00003329,0.00100071,0.00083870,0.00001945,-0.00009497,
 -0.00009778,-0.00013546,-0.00034510,0.00285452,-0.00225096,-0.00378326
 ,-0.00004865,0.00026099,0.00039207,-0.00007301,-0.00034456,-0.00011076
 ,0.00010551,0.01244996,-0.00644478,-0.00880465,0.00007746,0.00104376,0
 .00213798,0.00016578,0.00031829,0.00010114,-0.03912610,-0.08517171,-0.
 25531966,-0.00424498,-0.00765688,-0.02243384,-0.00008878,-0.00011312,0
 .00003865,0.00043179,0.00005816,0.00015642,0.00000566,-0.00005934,0.00
 003222,-0.00000043,0.00003763,-0.00003421,0.00006213,0.00000172,0.0000
 4066,0.00004643,0.00020818,-0.00000843,0.00022690,-0.00003667,-0.00002
 590,-0.00003094,0.00007306,0.00004760,-0.00020867,0.00007079,0.0001394
 0,-0.00032122,0.00014101,0.00006942,0.00070357,0.00063640,0.00096880,-
 0.00023653,-0.00040070,0.00055760,-0.00004570,-0.00002207,0.00002208,0
 .00017022,-0.00005752,-0.00015305,0.03347489,0.09706845,0.27971499,-0.
 00022945,-0.00010845,-0.00045244,-0.00148666,0.00034064,-0.00022821,-0
 .00003882,0.00004255,-0.00001457,-0.03174016,-0.02556270,0.00398146,-0
 .00123692,0.00168543,0.00171326,-0.00004408,-0.00017242,-0.00015970,-0
 .00067341,-0.00021886,-0.00007964,0.00040800,-0.00154270,-0.00006964,-
 0.00120803,0.00233157,-0.00191080,-0.00237598,0.00471941,0.00278100,0.
 01038769,0.01012358,0.00096325,-0.13141489,-0.12359160,0.00228179,-0.0
 0000846,0.00000495,0.00012794,0.00001966,-0.00004326,0.00009459,0.0000
 1522,0.00001850,0.00002194,-0.00000454,0.00000664,-0.00001024,0.000007
 62,-0.00000679,-0.00001407,-0.00140755,0.00120341,0.00016119,-0.000008
 45,0.00000079,-0.00000065,0.00003249,-0.00004329,-0.00001678,0.0001390
 1,-0.00020333,0.00011630,0.00007764,-0.00002886,0.00001944,-0.00009775
 ,-0.00008222,-0.00001993,0.00058893,0.00084301,-0.00023717,-0.00117728
 ,-0.00120854,0.00030912,0.00012654,0.00005109,-0.00018161,0.00027991,-
 0.00067106,0.00031892,0.16157637,0.00009358,-0.00006140,0.00081989,-0.
 00142283,0.00097450,-0.00044579,-0.00013448,0.00000923,0.00009715,0.00
 989203,0.01362813,-0.00065037,0.00043737,-0.00195731,0.00018519,0.0000
 2128,0.00014386,-0.00042772,0.00063438,0.00020847,-0.00028271,0.001036
 67,0.00109789,-0.00051505,0.00322882,-0.00216363,0.00360664,0.00253147
 ,0.00020654,-0.00086438,-0.01435342,-0.01753003,-0.00109562,-0.1323393
 4,-0.23963399,0.00489272,-0.00008173,0.00008483,-0.00020768,0.00002263
 ,0.00005318,-0.00008119,-0.00003595,-0.00001730,-0.00007229,0.00000789
 ,0.00001349,-0.00001669,-0.00004716,0.00003407,-0.00004440,0.00064981,
 -0.00029784,-0.00078992,0.00003084,-0.00002567,-0.00000120,-0.00002946
 ,0.00005180,0.00003376,-0.00017841,0.00009324,-0.00007668,-0.00006901,
 0.00003792,0.00003937,0.00019566,0.00033722,-0.00001058,-0.00112446,-0
 .00113044,0.00027539,0.00044878,0.00038506,-0.00002958,0.00009057,0.00
 005233,0.00011936,0.00016577,0.00107075,-0.00006221,0.13539868,0.25140
 684,-0.00005219,-0.00002347,-0.00023913,0.00005352,-0.00032238,-0.0003
 6892,0.00000319,0.00003353,0.00001324,0.01356757,0.01062570,-0.0005423
 5,0.00022875,0.00006557,0.00100677,-0.00010330,-0.00012252,-0.00005812
 ,0.00000417,0.00007960,0.00012585,-0.00007718,-0.00074307,0.00033406,-
 0.00241002,0.00174479,-0.00206892,0.00060327,-0.00164600,-0.00067866,0
 .01252154,0.01841901,-0.00059232,-0.00164945,-0.00020444,-0.05347581,0
 .00002313,-0.00000634,0.00006242,-0.00000437,0.00000051,0.00000954,-0.
 00000419,0.00000263,-0.00000144,-0.00000381,-0.00000287,-0.00000530,-0
 .00000510,0.00000047,-0.00001130,0.00033352,-0.00066927,-0.00039986,-0
 .00003267,0.00001045,0.00000773,0.00002222,-0.00002007,-0.00000530,0.0
 0001096,0.00004131,-0.00004534,0.00003408,-0.00005684,-0.00003117,0.00
 011653,0.00029884,0.00025120,0.00064090,0.00100991,0.00015133,0.000376
 55,0.00036989,0.00027329,0.00028383,0.00039511,0.00037314,0.00047315,-
 0.00077172,0.00081358,-0.00868702,-0.00496547,0.05281384,-0.00004879,0
 .00005063,0.00015154,-0.00066276,0.00011527,-0.00015987,0.00004613,-0.
 00002129,-0.00001482,-0.01136000,0.01566385,0.03698807,-0.00021615,-0.
 00056756,-0.00050267,0.00000378,0.00003380,0.00016020,-0.00047071,-0.0
 0042816,-0.00020880,0.00096735,-0.00042644,0.00130064,0.00013985,-0.00
 077791,0.00084039,0.00425021,0.00443370,0.00311197,-0.00005888,-0.0058
 5908,-0.01305710,-0.05548028,-0.01838845,-0.03876064,-0.00003041,-0.00
 002641,-0.00006287,0.00003463,-0.00001460,0.00003013,-0.00001880,-0.00
 001241,-0.00000427,0.00000192,0.00000002,0.00000084,0.00000904,0.00000
 219,0.00001378,-0.00162561,-0.00020630,-0.00020755,-0.00000663,0.00000
 930,-0.00000147,-0.00001592,0.00001984,0.00000173,0.00014084,-0.000246
 29,0.00003278,-0.00010591,0.00004503,-0.00013359,0.00028574,0.00023002
 ,0.00038558,-0.00011118,0.00004462,0.00016941,0.00007524,0.00002836,-0
 .00030914,0.00033453,-0.00037773,-0.00141212,-0.00066426,0.00254075,-0
 .00142184,-0.00055432,-0.00498914,-0.01628489,0.06517297,-0.00002254,0
 .00004670,0.00020866,-0.00052615,0.00013753,0.00005708,0.00001716,-0.0
 0003988,-0.00003613,0.00764139,-0.00427801,-0.01484243,0.00049082,0.00
 031882,-0.00124328,0.00005207,0.00002407,0.00014441,0.00018725,-0.0001
 1139,0.00017261,-0.00183251,0.00064847,-0.00156471,0.00039856,0.001694
 74,0.00070802,-0.00178399,-0.00021713,0.00219416,0.00338274,0.00747127
 ,0.02318046,-0.01676679,-0.08415472,-0.07810760,-0.00002550,0.00002255
 ,-0.00006709,-0.00004672,0.00001437,-0.00004011,0.00001580,0.00000398,
 0.00000419,-0.00000122,-0.00000420,0.00001238,0.00000746,-0.00000736,0
 .00001857,0.00052266,-0.00000433,0.00039464,0.00000801,-0.00000457,0.0
 0000251,-0.00000981,0.00000237,-0.00000075,-0.00004327,0.00009972,-0.0
 0007374,-0.00006251,-0.00007274,-0.00016212,0.00016556,-0.00035209,-0.
 00022014,0.00003204,0.00008224,-0.00034987,0.00016188,0.00006136,0.000
 18191,0.00049831,0.00065862,0.00009092,0.00170483,-0.00277269,0.002956
 91,-0.00325909,-0.00710985,-0.02352350,0.00910197,0.08783245,0.0001111
 7,0.00013989,-0.00001027,0.00004691,0.00000674,0.00043772,0.00005651,-
 0.00005019,-0.00006587,0.01264496,-0.00842207,-0.01264570,0.00041032,0
 .00060376,-0.00082521,-0.00000434,-0.00014857,0.00027951,0.00034798,0.
 00021680,0.00006977,-0.00092397,0.00033374,0.00139999,-0.00011684,-0.0
 0155992,0.00075486,-0.00211619,-0.00121042,0.00086926,-0.00384826,-0.0
 0823479,-0.02166049,-0.03544161,-0.07707036,-0.25554523,-0.00001893,-0
 .00001840,0.00002107,0.00004274,-0.00001366,0.00004624,0.00000742,-0.0
 0001541,0.00002639,0.00000075,-0.00001137,0.00000758,0.00001316,-0.000
 00385,0.00002736,-0.00004246,-0.00026601,0.00060797,-0.00004984,0.0000
 2006,0.00000990,0.00000434,-0.00000802,-0.00000820,0.00006537,0.000100
 71,-0.00006118,-0.00016798,-0.00008809,-0.00002378,0.00050403,0.000802
 72,0.00031794,-0.00011875,0.00014605,0.00046072,0.00020767,0.00023154,
 0.00040265,0.00089099,0.00091303,-0.00008470,-0.00104553,0.00313234,-0
 .00179175,-0.00079551,0.00056514,0.00229406,0.02934604,0.08990015,0.28
 468667,-0.01041360,0.00423597,-0.02534884,-0.00721694,0.00354861,-0.00
 070381,-0.00345076,0.00058858,-0.00436701,-0.00014265,-0.00001249,0.00
 000733,0.00110641,0.00179528,0.00127216,0.00094999,-0.00132206,0.00001
 006,-0.00000440,-0.00003242,-0.00001078,-0.00050945,-0.00045046,0.0001
 1850,-0.00002307,0.00004252,0.00002056,0.00002925,0.00004581,0.0000169
 1,0.00029568,-0.00002420,-0.00014020,0.00006525,0.00002824,-0.00000894
 ,-0.10998813,0.03089020,-0.10549363,0.00077184,-0.00098849,0.00030169,
 0.00091693,0.00015933,0.00026298,0.00004260,0.00020418,0.00003816,0.00
 029748,-0.00030711,0.00022022,-0.00001536,-0.00016635,-0.00013194,-0.0
 0009195,0.00015687,-0.00029821,0.00006935,0.00023450,-0.00027082,-0.00
 001636,-0.00000123,0.00000473,-0.00000144,0.00000360,0.00000341,-0.000
 00349,-0.00000281,-0.00000154,-0.00000149,-0.00001188,0.00000338,-0.00
 001376,-0.00000429,0.00000096,-0.00000044,-0.00000597,-0.00000559,-0.0
 0002303,0.00002669,0.00001448,0.00004928,-0.00008238,0.00001686,-0.000
 02418,-0.00001586,0.00000108,0.11722540,0.00379148,-0.00376895,0.01446
 303,0.00563497,-0.00076372,0.00063351,-0.01503795,0.00780948,-0.024668
 30,0.00005053,0.00002008,0.00000029,0.00001500,-0.00180704,-0.00100413
 ,-0.00078212,-0.00526504,-0.00262187,-0.00000255,0.00000269,0.00000219
 ,0.00011137,0.00042674,0.00009946,-0.00000798,0.00000391,0.00000497,-0
 .00000657,-0.00001816,-0.00000491,-0.00008206,-0.00005613,0.00002372,-
 0.00002763,-0.00002980,0.00002031,0.03211580,-0.06256439,0.05558498,-0
 .00014798,0.00055533,-0.00025880,-0.00082189,0.00004241,-0.00008850,0.
 00015147,0.00123634,0.00088766,0.00063475,0.00114030,0.00078496,-0.000
 05358,0.00020022,0.00021635,0.00011717,0.00005308,-0.00009701,-0.00105
 205,0.00041244,-0.00140155,0.00000214,0.00000161,-0.00000116,0.0000004
 4,-0.00000101,-0.00000077,0.00000386,0.00000358,-0.00000059,0.00000147
 ,0.00000451,-0.00000101,0.00000518,0.00000243,-0.00000086,0.00000031,0
 .00000196,0.00000167,-0.00001374,-0.00000432,0.00001470,-0.00002728,0.
 00004813,-0.00001702,0.00001834,0.00001427,0.00000229,-0.03458261,0.06
 734409,0.00367053,-0.00136063,0.00660131,0.00208882,-0.00134256,0.0016
 5158,-0.00744514,0.00498938,-0.01385594,-0.00005270,0.00001499,0.00000
 004,0.00089297,-0.00053163,-0.00035124,-0.00039850,-0.00433938,-0.0004
 6131,-0.00000400,-0.00002252,-0.00000606,-0.00030633,0.00011077,0.0001
 3278,-0.00002334,0.00003415,0.00001006,0.00001568,0.00001324,0.0000086
 9,0.00013760,-0.00006087,-0.00005304,0.00002429,-0.00001354,0.00002882
 ,-0.10754339,0.05520752,-0.23789790,-0.00056985,0.00043575,0.00037015,
 -0.00074668,0.00023545,0.00017119,0.00002832,-0.00006324,0.00088703,0.
 00049381,0.00032790,0.00021242,-0.00005523,0.00017702,0.00008549,0.000
 26928,-0.00004373,0.00033555,-0.00100156,0.00039526,-0.00080575,-0.000
 01045,0.00000059,0.00000205,-0.00000058,0.00000180,0.00000149,-0.00000
 046,-0.00000247,-0.00000183,0.00000111,-0.00000394,0.00000084,-0.00000
 476,0.00000020,-0.00000062,-0.00000021,-0.00000266,-0.00000252,-0.0000
 1709,0.00001260,0.00001367,-0.00000601,-0.00000660,-0.00000402,0.00000
 307,0.00000542,-0.00000152,0.11835147,-0.05792360,0.25663825,-0.019648
 86,-0.01760971,0.01806709,0.00301501,-0.00039676,-0.00078593,-0.003589
 89,-0.00360030,0.00281245,-0.00003708,0.00001534,-0.00000457,-0.000261
 63,-0.00006616,0.00011471,-0.00009980,-0.00004871,0.00050592,0.0000029
 3,-0.00001265,-0.00000458,-0.00007002,0.00002269,-0.00017237,0.0000013
 7,0.00001762,-0.00003643,0.00001474,0.00000871,0.00000856,0.00013729,-
 0.00001134,0.00003271,0.00002423,-0.00003203,0.00001173,-0.13615734,-0
 .09234455,0.07805948,-0.00423926,0.00314207,0.00112274,0.00134233,0.00
 012620,-0.00054754,0.00078228,-0.00083193,-0.00058175,0.00050639,0.000
 11995,-0.00039292,-0.00006318,-0.00003143,-0.00003323,-0.00021066,-0.0
 0005328,-0.00032743,0.00009544,0.00009084,-0.00012908,-0.00000825,0.00
 000018,0.00000180,-0.00000021,0.00000195,0.00000037,-0.00001172,-0.000
 01277,-0.00000299,0.00000155,-0.00000152,0.00000271,-0.00000386,0.0000
 0110,-0.00000049,-0.00000038,-0.00000205,-0.00000253,0.00007405,-0.000
 01344,-0.00003835,-0.00000162,0.00000155,0.00000044,-0.00000741,0.0000
 0742,-0.00001125,0.01012105,0.00999168,-0.00779066,0.14829253,0.011607
 44,0.01035277,-0.01034159,-0.00197269,0.00032582,-0.00046031,-0.016491
 07,-0.01986858,0.01479361,-0.00003093,0.00000706,0.00000017,0.00007281
 ,-0.00014020,-0.00019184,0.00069232,0.00101407,0.00119232,-0.00000389,
 -0.00000654,-0.00000218,-0.00015770,0.00005604,0.00011105,-0.00001072,
 0.00001229,0.00003274,0.00000391,0.00000706,0.00000286,0.00007927,-0.0
 0000172,-0.00013330,-0.00001180,0.00001339,0.00001912,-0.09358577,-0.1
 4519400,0.08609318,0.00354253,-0.00077352,-0.00043851,-0.00088962,0.00
 101128,0.00008442,-0.00108518,-0.00385522,-0.00395419,0.00064345,0.000
 96973,0.00039706,-0.00010863,0.00006019,0.00004365,-0.00019424,0.00044
 111,-0.00063976,0.00037607,0.00014136,-0.00019924,-0.00000260,0.000000
 11,0.00000102,-0.00000067,0.00000019,0.00000086,0.00000836,0.00000764,
 -0.00000085,0.00000056,-0.00000051,-0.00000294,-0.00000212,-0.00000071
 ,0.00000016,0.00000010,-0.00000103,-0.00000110,-0.00005500,0.00001867,
 0.00003871,0.00000019,-0.00001000,-0.00000236,0.00000408,-0.00000459,0
 .00000618,-0.00394976,-0.00504504,0.00375530,0.10152132,0.16046288,0.0
 0483324,0.00567250,-0.00729622,-0.00050065,-0.00049570,0.00198237,-0.0
 1137243,-0.01168790,0.00937684,0.00003890,-0.00000100,-0.00000284,-0.0
 0015862,-0.00049568,-0.00027858,-0.00008506,-0.00018217,0.00139569,0.0
 0000234,0.00001464,0.00000399,0.00028509,0.00016899,0.00002071,0.00001
 346,-0.00002094,0.00000861,-0.00001152,-0.00001135,-0.00000706,-0.0001
 5992,0.00007150,0.00001159,-0.00002997,0.00000633,0.00000520,0.0799654
 9,0.08538238,-0.12280437,0.00154437,-0.00145334,0.00083381,-0.00020324
 ,-0.00000406,0.00004531,-0.00126607,-0.00327351,-0.00123020,0.00030647
 ,0.00086171,0.00073834,0.00003173,0.00007920,0.00003886,0.00030048,0.0
 0013748,-0.00013272,0.00026471,0.00007282,0.00009980,0.00000757,-0.000
 00023,-0.00000183,0.00000019,-0.00000150,-0.00000069,0.00000518,0.0000
 0439,0.00000207,-0.00000036,0.00000150,-0.00000286,0.00000416,0.000000
 14,-0.00000006,0.00000003,0.00000188,0.00000216,-0.00005261,-0.0000038
 2,-0.00000257,-0.00000623,0.00001153,-0.00000208,0.00000549,-0.0000015
 2,0.00000426,0.01611636,0.01534996,-0.01370967,-0.08987861,-0.09020426
 ,0.13090214\\0.00004138,-0.00001491,0.00006122,-0.00003087,-0.00001433
 ,-0.00005449,-0.00000221,0.00000457,-0.00001156,0.00002139,0.00000438,
 0.00000177,0.00165918,0.00105591,0.00332422,-0.00001643,-0.00000108,0.
 00000406,0.00000330,-0.00000604,-0.00000809,-0.00210632,-0.00169805,-0
 .00385506,0.00088008,-0.00056369,0.00311581,-0.00001552,-0.00000312,0.
 00000478,-0.00044299,0.00123762,-0.00258810,-0.00001173,0.00000157,0.0
 0001809,-0.00001692,0.00000186,0.00000578,-0.00000422,-0.00001010,-0.0
 0000500,0.00000381,-0.00000066,0.00000848,-0.00000192,-0.00000592,-0.0
 0000498,0.00000553,-0.00000677,-0.00001510,0.00000312,0.00000552,-0.00
 000633,0.00001465,0.00000697,-0.00001193,0.00000310,-0.00000054,-0.000
 00941,0.00000377,-0.00000894,0.00000168,0.00000064,-0.00000061,0.00000
 733,-0.00000392,0.00000211,-0.00000895,0.00000177,-0.00000777,0.000002
 20,-0.00001110,0.00000424,0.00001220,0.00000215,0.00001049,-0.00000018
 ,0.00000307,-0.00000569,0.00000983,0.00001496,0.00002029,0.00000842,-0
 .00000894,0.00000651,0.00000110,0.00000730,-0.00001426,-0.00000453,0.0
 0000386,0.00000043,-0.00000328\\\@


 Money is a good servant but a bad master.
                        -- French Proverb
 Job cpu time:       0 days 16 hours 52 minutes 16.4 seconds.
 Elapsed time:       0 days  1 hours  3 minutes 17.8 seconds.
 File lengths (MBytes):  RWF=    689 Int=      0 D2E=      0 Chk=     33 Scr=      1
 Normal termination of Gaussian 16 at Sun Nov  4 22:53:17 2018.
