 Entering Gaussian System, Link 0=g16
 Initial command:
 /apps/gaussian/g16a03/g16/l1.exe "/jobfs/local/2012090.r-man2/Gau-4607.inp" -scrdir="/jobfs/local/2012090.r-man2/"
 Entering Link 1 = /apps/gaussian/g16a03/g16/l1.exe PID=      4608.
  
 Copyright (c) 1988,1990,1992,1993,1995,1998,2003,2009,2016,
            Gaussian, Inc.  All Rights Reserved.
  
 This is part of the Gaussian(R) 16 program.  It is based on
 the Gaussian(R) 09 system (copyright 2009, Gaussian, Inc.),
 the Gaussian(R) 03 system (copyright 2003, Gaussian, Inc.),
 the Gaussian(R) 98 system (copyright 1998, Gaussian, Inc.),
 the Gaussian(R) 94 system (copyright 1995, Gaussian, Inc.),
 the Gaussian 92(TM) system (copyright 1992, Gaussian, Inc.),
 the Gaussian 90(TM) system (copyright 1990, Gaussian, Inc.),
 the Gaussian 88(TM) system (copyright 1988, Gaussian, Inc.),
 the Gaussian 86(TM) system (copyright 1986, Carnegie Mellon
 University), and the Gaussian 82(TM) system (copyright 1983,
 Carnegie Mellon University). Gaussian is a federally registered
 trademark of Gaussian, Inc.
  
 This software contains proprietary and confidential information,
 including trade secrets, belonging to Gaussian, Inc.
  
 This software is provided under written license and may be
 used, copied, transmitted, or stored only in accord with that
 written license.
  
 The following legend is applicable only to US Government
 contracts under FAR:
  
                    RESTRICTED RIGHTS LEGEND
  
 Use, reproduction and disclosure by the US Government is
 subject to restrictions as set forth in subparagraphs (a)
 and (c) of the Commercial Computer Software - Restricted
 Rights clause in FAR 52.227-19.
  
 Gaussian, Inc.
 340 Quinnipiac St., Bldg. 40, Wallingford CT 06492
  
  
 ---------------------------------------------------------------
 Warning -- This program may not be used in any manner that
 competes with the business of Gaussian, Inc. or will provide
 assistance to any competitor of Gaussian, Inc.  The licensee
 of this program is prohibited from giving any competitor of
 Gaussian, Inc. access to this program.  By using this program,
 the user acknowledges that Gaussian, Inc. is engaged in the
 business of creating and licensing software in the field of
 computational chemistry and represents and warrants to the
 licensee that it is not a competitor of Gaussian, Inc. and that
 it will not use this program in any manner prohibited above.
 ---------------------------------------------------------------
  

 Cite this work as:
 Gaussian 16, Revision A.03,
 M. J. Frisch, G. W. Trucks, H. B. Schlegel, G. E. Scuseria, 
 M. A. Robb, J. R. Cheeseman, G. Scalmani, V. Barone, 
 G. A. Petersson, H. Nakatsuji, X. Li, M. Caricato, A. V. Marenich, 
 J. Bloino, B. G. Janesko, R. Gomperts, B. Mennucci, H. P. Hratchian, 
 J. V. Ortiz, A. F. Izmaylov, J. L. Sonnenberg, D. Williams-Young, 
 F. Ding, F. Lipparini, F. Egidi, J. Goings, B. Peng, A. Petrone, 
 T. Henderson, D. Ranasinghe, V. G. Zakrzewski, J. Gao, N. Rega, 
 G. Zheng, W. Liang, M. Hada, M. Ehara, K. Toyota, R. Fukuda, 
 J. Hasegawa, M. Ishida, T. Nakajima, Y. Honda, O. Kitao, H. Nakai, 
 T. Vreven, K. Throssell, J. A. Montgomery, Jr., J. E. Peralta, 
 F. Ogliaro, M. J. Bearpark, J. J. Heyd, E. N. Brothers, K. N. Kudin, 
 V. N. Staroverov, T. A. Keith, R. Kobayashi, J. Normand, 
 K. Raghavachari, A. P. Rendell, J. C. Burant, S. S. Iyengar, 
 J. Tomasi, M. Cossi, J. M. Millam, M. Klene, C. Adamo, R. Cammi, 
 J. W. Ochterski, R. L. Martin, K. Morokuma, O. Farkas, 
 J. B. Foresman, and D. J. Fox, Gaussian, Inc., Wallingford CT, 2016.
 
 ******************************************
 Gaussian 16:  ES64L-G16RevA.03 25-Dec-2016
                 4-Nov-2018 
 ******************************************
 %mem=6000mb
 %nproc=24
 Will use up to   24 processors via shared memory.
 %chk=L_a1-e4_D_PSI.inp_extract_7.chk
 ----------------------------------------------------------------------
 #M062X/6-311++G(2d,2p) opt=ModRedundant freq=noraman SCRF=(Solvent=Wat
 er)
 ----------------------------------------------------------------------
 1/18=120,19=15,26=3,38=1/1,3;
 2/9=110,12=2,17=6,18=5,40=1/2;
 3/5=4,6=6,7=1212,11=2,25=1,30=1,70=2201,71=1,72=1,74=-55/1,2,3;
 4//1;
 5/5=2,38=5,53=1/2;
 6/7=2,8=2,9=2,10=2,28=1/1;
 7//1,2,3,16;
 1/18=20,19=15,26=3/3(2);
 2/9=110/2;
 99//99;
 2/9=110/2;
 3/5=4,6=6,7=1212,11=2,25=1,30=1,70=2205,71=1,72=1,74=-55/1,2,3;
 4/5=5,16=3,69=1/1;
 5/5=2,38=5,53=1/2;
 7//1,2,3,16;
 1/18=20,19=15,26=3/3(-5);
 2/9=110/2;
 6/7=2,8=2,9=2,10=2,19=2,28=1/1;
 99/9=1/99;
 ---------------------------
 L_a1-e4_D_PSI.inp_extract_7
 ---------------------------
 Symbolic Z-matrix:
 Charge =  0 Multiplicity = 1
 C                    -2.38706  -1.33585  -0.51557 
 O                    -1.51843  -1.08759   0.58204 
 C                    -3.25752   1.00039  -0.32013 
 O                     2.79598  -1.35874  -0.06361 
 C                    -1.08877   0.23924   0.73402 
 C                    -2.27364   1.18944   0.8357 
 C                     3.45055   0.94041  -0.39291 
 O                    -0.2942    0.65331  -0.33879 
 C                     1.99552   1.36586  -0.18935 
 C                     3.72132  -0.36414   0.33644 
 C                     1.049     0.21538  -0.51534 
 C                     1.4534   -1.04879   0.24708 
 C                    -3.6374   -0.47586  -0.43739 
 H                    -1.8543   -1.15657  -1.44344 
 H                    -2.62665  -2.38887  -0.46305 
 H                    -2.81054   1.3384   -1.25104 
 H                    -4.14081   1.60934  -0.15361 
 H                    -0.51842   0.24887   1.65045 
 H                    -2.77593   0.97933   1.77608 
 H                    -1.9056    2.2085    0.88325 
 H                     4.12731   1.70822  -0.03002 
 H                     3.65247   0.80226  -1.45215 
 H                     1.83968   1.66394   0.84582 
 H                     1.75225   2.2196   -0.81377 
 H                     4.70373  -0.75293   0.10595 
 H                     3.65027  -0.2259    1.41293 
 H                     1.13305  -0.01564  -1.57128 
 H                     0.86587  -1.89931  -0.05951 
 H                     1.35717  -0.92216   1.32064 
 H                    -4.24651  -0.65424  -1.31903 
 H                    -4.22223  -0.77508   0.42937 
 
 The following ModRedundant input section has been read:
 D       5       8      11       9 F                                           
 

 GradGradGradGradGradGradGradGradGradGradGradGradGradGradGradGradGradGrad
 Berny optimization.
 Initialization pass.
                           ----------------------------
                           !    Initial Parameters    !
                           ! (Angstroms and Degrees)  !
 --------------------------                            --------------------------
 ! Name  Definition              Value          Derivative Info.                !
 --------------------------------------------------------------------------------
 ! R1    R(1,2)                  1.4216         estimate D2E/DX2                !
 ! R2    R(1,13)                 1.5196         estimate D2E/DX2                !
 ! R3    R(1,14)                 1.0849         estimate D2E/DX2                !
 ! R4    R(1,15)                 1.0812         estimate D2E/DX2                !
 ! R5    R(2,5)                  1.4029         estimate D2E/DX2                !
 ! R6    R(3,6)                  1.5296         estimate D2E/DX2                !
 ! R7    R(3,13)                 1.5288         estimate D2E/DX2                !
 ! R8    R(3,16)                 1.0866         estimate D2E/DX2                !
 ! R9    R(3,17)                 1.0857         estimate D2E/DX2                !
 ! R10   R(4,10)                 1.4162         estimate D2E/DX2                !
 ! R11   R(4,12)                 1.4125         estimate D2E/DX2                !
 ! R12   R(5,6)                  1.5222         estimate D2E/DX2                !
 ! R13   R(5,8)                  1.3978         estimate D2E/DX2                !
 ! R14   R(5,18)                 1.0795         estimate D2E/DX2                !
 ! R15   R(6,19)                 1.0866         estimate D2E/DX2                !
 ! R16   R(6,20)                 1.0845         estimate D2E/DX2                !
 ! R17   R(7,9)                  1.5296         estimate D2E/DX2                !
 ! R18   R(7,10)                 1.5189         estimate D2E/DX2                !
 ! R19   R(7,21)                 1.0859         estimate D2E/DX2                !
 ! R20   R(7,22)                 1.0871         estimate D2E/DX2                !
 ! R21   R(8,11)                 1.4238         estimate D2E/DX2                !
 ! R22   R(9,11)                 1.5251         estimate D2E/DX2                !
 ! R23   R(9,23)                 1.0884         estimate D2E/DX2                !
 ! R24   R(9,24)                 1.0853         estimate D2E/DX2                !
 ! R25   R(10,25)                1.0814         estimate D2E/DX2                !
 ! R26   R(10,26)                1.0876         estimate D2E/DX2                !
 ! R27   R(11,12)                1.5307         estimate D2E/DX2                !
 ! R28   R(11,27)                1.0842         estimate D2E/DX2                !
 ! R29   R(12,28)                1.0782         estimate D2E/DX2                !
 ! R30   R(12,29)                1.0853         estimate D2E/DX2                !
 ! R31   R(13,30)                1.0863         estimate D2E/DX2                !
 ! R32   R(13,31)                1.0876         estimate D2E/DX2                !
 ! A1    A(2,1,13)             111.3594         estimate D2E/DX2                !
 ! A2    A(2,1,14)             109.3565         estimate D2E/DX2                !
 ! A3    A(2,1,15)             105.5445         estimate D2E/DX2                !
 ! A4    A(13,1,14)            110.7663         estimate D2E/DX2                !
 ! A5    A(13,1,15)            111.4914         estimate D2E/DX2                !
 ! A6    A(14,1,15)            108.1381         estimate D2E/DX2                !
 ! A7    A(1,2,5)              115.8452         estimate D2E/DX2                !
 ! A8    A(6,3,13)             109.7019         estimate D2E/DX2                !
 ! A9    A(6,3,16)             110.1415         estimate D2E/DX2                !
 ! A10   A(6,3,17)             109.7601         estimate D2E/DX2                !
 ! A11   A(13,3,16)            109.6872         estimate D2E/DX2                !
 ! A12   A(13,3,17)            110.5602         estimate D2E/DX2                !
 ! A13   A(16,3,17)            106.9538         estimate D2E/DX2                !
 ! A14   A(10,4,12)            113.8803         estimate D2E/DX2                !
 ! A15   A(2,5,6)              111.0521         estimate D2E/DX2                !
 ! A16   A(2,5,8)              111.7844         estimate D2E/DX2                !
 ! A17   A(2,5,18)             105.2017         estimate D2E/DX2                !
 ! A18   A(6,5,8)              107.9889         estimate D2E/DX2                !
 ! A19   A(6,5,18)             110.4263         estimate D2E/DX2                !
 ! A20   A(8,5,18)             110.4024         estimate D2E/DX2                !
 ! A21   A(3,6,5)              111.904          estimate D2E/DX2                !
 ! A22   A(3,6,19)             109.4336         estimate D2E/DX2                !
 ! A23   A(3,6,20)             111.5647         estimate D2E/DX2                !
 ! A24   A(5,6,19)             107.2721         estimate D2E/DX2                !
 ! A25   A(5,6,20)             108.9848         estimate D2E/DX2                !
 ! A26   A(19,6,20)            107.4942         estimate D2E/DX2                !
 ! A27   A(9,7,10)             110.1553         estimate D2E/DX2                !
 ! A28   A(9,7,21)             110.5914         estimate D2E/DX2                !
 ! A29   A(9,7,22)             109.9808         estimate D2E/DX2                !
 ! A30   A(10,7,21)            109.6157         estimate D2E/DX2                !
 ! A31   A(10,7,22)            109.0025         estimate D2E/DX2                !
 ! A32   A(21,7,22)            107.4396         estimate D2E/DX2                !
 ! A33   A(5,8,11)             122.7072         estimate D2E/DX2                !
 ! A34   A(7,9,11)             110.6173         estimate D2E/DX2                !
 ! A35   A(7,9,23)             109.8128         estimate D2E/DX2                !
 ! A36   A(7,9,24)             110.8214         estimate D2E/DX2                !
 ! A37   A(11,9,23)            108.7251         estimate D2E/DX2                !
 ! A38   A(11,9,24)            109.3483         estimate D2E/DX2                !
 ! A39   A(23,9,24)            107.4367         estimate D2E/DX2                !
 ! A40   A(4,10,7)             110.553          estimate D2E/DX2                !
 ! A41   A(4,10,25)            106.3131         estimate D2E/DX2                !
 ! A42   A(4,10,26)            109.0368         estimate D2E/DX2                !
 ! A43   A(7,10,25)            111.6161         estimate D2E/DX2                !
 ! A44   A(7,10,26)            110.7594         estimate D2E/DX2                !
 ! A45   A(25,10,26)           108.4209         estimate D2E/DX2                !
 ! A46   A(8,11,9)             109.0859         estimate D2E/DX2                !
 ! A47   A(8,11,12)            116.2004         estimate D2E/DX2                !
 ! A48   A(8,11,27)            105.0371         estimate D2E/DX2                !
 ! A49   A(9,11,12)            110.6465         estimate D2E/DX2                !
 ! A50   A(9,11,27)            108.7125         estimate D2E/DX2                !
 ! A51   A(12,11,27)           106.7775         estimate D2E/DX2                !
 ! A52   A(4,12,11)            108.8317         estimate D2E/DX2                !
 ! A53   A(4,12,28)            106.3978         estimate D2E/DX2                !
 ! A54   A(4,12,29)            109.1148         estimate D2E/DX2                !
 ! A55   A(11,12,28)           111.462          estimate D2E/DX2                !
 ! A56   A(11,12,29)           111.8959         estimate D2E/DX2                !
 ! A57   A(28,12,29)           108.9658         estimate D2E/DX2                !
 ! A58   A(1,13,3)             110.2409         estimate D2E/DX2                !
 ! A59   A(1,13,30)            109.067          estimate D2E/DX2                !
 ! A60   A(1,13,31)            109.1327         estimate D2E/DX2                !
 ! A61   A(3,13,30)            111.1079         estimate D2E/DX2                !
 ! A62   A(3,13,31)            109.7647         estimate D2E/DX2                !
 ! A63   A(30,13,31)           107.4639         estimate D2E/DX2                !
 ! D1    D(13,1,2,5)           -57.7213         estimate D2E/DX2                !
 ! D2    D(14,1,2,5)            65.0238         estimate D2E/DX2                !
 ! D3    D(15,1,2,5)          -178.8592         estimate D2E/DX2                !
 ! D4    D(2,1,13,3)            54.6397         estimate D2E/DX2                !
 ! D5    D(2,1,13,30)          176.8859         estimate D2E/DX2                !
 ! D6    D(2,1,13,31)          -65.9848         estimate D2E/DX2                !
 ! D7    D(14,1,13,3)          -67.2922         estimate D2E/DX2                !
 ! D8    D(14,1,13,30)          54.954          estimate D2E/DX2                !
 ! D9    D(14,1,13,31)         172.0833         estimate D2E/DX2                !
 ! D10   D(15,1,13,3)          172.2358         estimate D2E/DX2                !
 ! D11   D(15,1,13,30)         -65.518          estimate D2E/DX2                !
 ! D12   D(15,1,13,31)          51.6113         estimate D2E/DX2                !
 ! D13   D(1,2,5,6)             55.8383         estimate D2E/DX2                !
 ! D14   D(1,2,5,8)            -64.8389         estimate D2E/DX2                !
 ! D15   D(1,2,5,18)           175.3176         estimate D2E/DX2                !
 ! D16   D(13,3,6,5)            51.7964         estimate D2E/DX2                !
 ! D17   D(13,3,6,19)          -66.9677         estimate D2E/DX2                !
 ! D18   D(13,3,6,20)          174.2031         estimate D2E/DX2                !
 ! D19   D(16,3,6,5)           -69.0326         estimate D2E/DX2                !
 ! D20   D(16,3,6,19)          172.2033         estimate D2E/DX2                !
 ! D21   D(16,3,6,20)           53.3741         estimate D2E/DX2                !
 ! D22   D(17,3,6,5)           173.4651         estimate D2E/DX2                !
 ! D23   D(17,3,6,19)           54.701          estimate D2E/DX2                !
 ! D24   D(17,3,6,20)          -64.1282         estimate D2E/DX2                !
 ! D25   D(6,3,13,1)           -52.5539         estimate D2E/DX2                !
 ! D26   D(6,3,13,30)         -173.5888         estimate D2E/DX2                !
 ! D27   D(6,3,13,31)           67.6908         estimate D2E/DX2                !
 ! D28   D(16,3,13,1)           68.5494         estimate D2E/DX2                !
 ! D29   D(16,3,13,30)         -52.4855         estimate D2E/DX2                !
 ! D30   D(16,3,13,31)        -171.2059         estimate D2E/DX2                !
 ! D31   D(17,3,13,1)         -173.7419         estimate D2E/DX2                !
 ! D32   D(17,3,13,30)          65.2232         estimate D2E/DX2                !
 ! D33   D(17,3,13,31)         -53.4971         estimate D2E/DX2                !
 ! D34   D(12,4,10,7)          -62.5706         estimate D2E/DX2                !
 ! D35   D(12,4,10,25)         176.1197         estimate D2E/DX2                !
 ! D36   D(12,4,10,26)          59.4221         estimate D2E/DX2                !
 ! D37   D(10,4,12,11)          62.6668         estimate D2E/DX2                !
 ! D38   D(10,4,12,28)        -177.1126         estimate D2E/DX2                !
 ! D39   D(10,4,12,29)         -59.6907         estimate D2E/DX2                !
 ! D40   D(2,5,6,3)            -52.28           estimate D2E/DX2                !
 ! D41   D(2,5,6,19)            67.7567         estimate D2E/DX2                !
 ! D42   D(2,5,6,20)          -176.1468         estimate D2E/DX2                !
 ! D43   D(8,5,6,3)             70.6133         estimate D2E/DX2                !
 ! D44   D(8,5,6,19)          -169.3499         estimate D2E/DX2                !
 ! D45   D(8,5,6,20)           -53.2535         estimate D2E/DX2                !
 ! D46   D(18,5,6,3)          -168.5863         estimate D2E/DX2                !
 ! D47   D(18,5,6,19)          -48.5496         estimate D2E/DX2                !
 ! D48   D(18,5,6,20)           67.5469         estimate D2E/DX2                !
 ! D49   D(2,5,8,11)           -73.9567         estimate D2E/DX2                !
 ! D50   D(6,5,8,11)           163.598          estimate D2E/DX2                !
 ! D51   D(18,5,8,11)           42.7827         estimate D2E/DX2                !
 ! D52   D(10,7,9,11)          -50.7459         estimate D2E/DX2                !
 ! D53   D(10,7,9,23)           69.2621         estimate D2E/DX2                !
 ! D54   D(10,7,9,24)         -172.1981         estimate D2E/DX2                !
 ! D55   D(21,7,9,11)         -172.0724         estimate D2E/DX2                !
 ! D56   D(21,7,9,23)          -52.0644         estimate D2E/DX2                !
 ! D57   D(21,7,9,24)           66.4754         estimate D2E/DX2                !
 ! D58   D(22,7,9,11)           69.4209         estimate D2E/DX2                !
 ! D59   D(22,7,9,23)         -170.5712         estimate D2E/DX2                !
 ! D60   D(22,7,9,24)          -52.0314         estimate D2E/DX2                !
 ! D61   D(9,7,10,4)            54.568          estimate D2E/DX2                !
 ! D62   D(9,7,10,25)          172.683          estimate D2E/DX2                !
 ! D63   D(9,7,10,26)          -66.4065         estimate D2E/DX2                !
 ! D64   D(21,7,10,4)          176.4746         estimate D2E/DX2                !
 ! D65   D(21,7,10,25)         -65.4104         estimate D2E/DX2                !
 ! D66   D(21,7,10,26)          55.5001         estimate D2E/DX2                !
 ! D67   D(22,7,10,4)          -66.1875         estimate D2E/DX2                !
 ! D68   D(22,7,10,25)          51.9275         estimate D2E/DX2                !
 ! D69   D(22,7,10,26)         172.838          estimate D2E/DX2                !
 ! D70   D(5,8,11,9)          -107.2299         Frozen                          !
 ! D71   D(5,8,11,12)           18.6505         estimate D2E/DX2                !
 ! D72   D(5,8,11,27)          136.3807         estimate D2E/DX2                !
 ! D73   D(7,9,11,8)          -178.9515         estimate D2E/DX2                !
 ! D74   D(7,9,11,12)           52.0253         estimate D2E/DX2                !
 ! D75   D(7,9,11,27)          -64.9313         estimate D2E/DX2                !
 ! D76   D(23,9,11,8)           60.3907         estimate D2E/DX2                !
 ! D77   D(23,9,11,12)         -68.6326         estimate D2E/DX2                !
 ! D78   D(23,9,11,27)         174.4108         estimate D2E/DX2                !
 ! D79   D(24,9,11,8)          -56.6334         estimate D2E/DX2                !
 ! D80   D(24,9,11,12)         174.3434         estimate D2E/DX2                !
 ! D81   D(24,9,11,27)          57.3868         estimate D2E/DX2                !
 ! D82   D(8,11,12,4)          178.5935         estimate D2E/DX2                !
 ! D83   D(8,11,12,28)          61.5559         estimate D2E/DX2                !
 ! D84   D(8,11,12,29)         -60.7458         estimate D2E/DX2                !
 ! D85   D(9,11,12,4)          -56.3171         estimate D2E/DX2                !
 ! D86   D(9,11,12,28)        -173.3547         estimate D2E/DX2                !
 ! D87   D(9,11,12,29)          64.3435         estimate D2E/DX2                !
 ! D88   D(27,11,12,4)          61.8265         estimate D2E/DX2                !
 ! D89   D(27,11,12,28)        -55.211          estimate D2E/DX2                !
 ! D90   D(27,11,12,29)       -177.5128         estimate D2E/DX2                !
 --------------------------------------------------------------------------------
 Trust Radius=3.00D-01 FncErr=1.00D-07 GrdErr=1.00D-06 EigMax=2.50D+02 EigMin=1.00D-04
 Number of steps in this run=    186 maximum allowed number of steps=    186.
 GradGradGradGradGradGradGradGradGradGradGradGradGradGradGradGradGradGrad

                          Input orientation:                          
 ---------------------------------------------------------------------
 Center     Atomic      Atomic             Coordinates (Angstroms)
 Number     Number       Type             X           Y           Z
 ---------------------------------------------------------------------
      1          6           0       -2.387062   -1.335852   -0.515565
      2          8           0       -1.518427   -1.087589    0.582042
      3          6           0       -3.257515    1.000385   -0.320131
      4          8           0        2.795981   -1.358737   -0.063611
      5          6           0       -1.088773    0.239243    0.734021
      6          6           0       -2.273641    1.189439    0.835695
      7          6           0        3.450552    0.940409   -0.392910
      8          8           0       -0.294204    0.653305   -0.338794
      9          6           0        1.995524    1.365858   -0.189346
     10          6           0        3.721318   -0.364138    0.336442
     11          6           0        1.049001    0.215377   -0.515338
     12          6           0        1.453396   -1.048792    0.247075
     13          6           0       -3.637402   -0.475858   -0.437385
     14          1           0       -1.854303   -1.156572   -1.443444
     15          1           0       -2.626651   -2.388867   -0.463053
     16          1           0       -2.810537    1.338395   -1.251044
     17          1           0       -4.140808    1.609335   -0.153608
     18          1           0       -0.518424    0.248867    1.650450
     19          1           0       -2.775929    0.979329    1.776075
     20          1           0       -1.905596    2.208502    0.883249
     21          1           0        4.127309    1.708217   -0.030023
     22          1           0        3.652470    0.802261   -1.452146
     23          1           0        1.839683    1.663938    0.845816
     24          1           0        1.752245    2.219601   -0.813774
     25          1           0        4.703735   -0.752934    0.105947
     26          1           0        3.650272   -0.225898    1.412929
     27          1           0        1.133052   -0.015640   -1.571279
     28          1           0        0.865865   -1.899308   -0.059513
     29          1           0        1.357170   -0.922157    1.320637
     30          1           0       -4.246513   -0.654244   -1.319027
     31          1           0       -4.222227   -0.775082    0.429369
 ---------------------------------------------------------------------
                    Distance matrix (angstroms):
                    1          2          3          4          5
     1  C    0.000000
     2  O    1.421584   0.000000
     3  C    2.500777   2.863211   0.000000
     4  O    5.202761   4.370870   6.502005   0.000000
     5  C    2.393312   1.402920   2.528639   4.275637   0.000000
     6  C    2.866333   2.412373   1.529602   5.744825   1.522210
     7  C    6.266909   5.454728   6.708730   2.413084   4.729385
     8  O    2.892758   2.318916   2.983626   3.697740   1.397755
     9  C    5.158751   4.354572   5.267361   2.842527   3.410976
    10  C    6.243593   5.295151   7.141227   1.416163   4.864063
    11  C    3.769992   3.081177   4.381829   2.394542   2.476196
    12  C    3.925957   2.990893   5.168513   1.412489   2.891154
    13  C    1.519556   2.429712   1.528841   6.504429   2.894663
    14  H    1.084865   2.054304   2.807721   4.854889   2.697349
    15  H    1.081203   2.003424   3.450427   5.534045   3.271852
    16  H    2.805683   3.303809   1.086572   6.333843   2.848349
    17  H    3.446848   3.832944   1.085706   7.545634   3.461207
    18  H    3.270285   1.981821   3.456962   4.062964   1.079459
    19  H    3.280685   2.697995   2.150918   6.316421   2.116624
    20  H    3.840695   3.332393   2.176087   5.977170   2.137159
    21  H    7.206881   6.329731   7.424339   3.343616   5.472583
    22  H    6.474925   5.869210   7.004899   2.707677   5.251257
    23  H    5.358868   4.349411   5.270784   3.298201   3.258544
    24  H    5.464800   4.856244   5.179562   3.802188   3.793266
    25  H    7.141812   6.249317   8.163159   2.008799   5.910333
    26  H    6.434321   5.305500   7.226672   2.047757   4.809971
    27  H    3.904958   3.579973   4.677046   2.615780   3.211834
    28  H    3.332717   2.599102   5.047614   2.004391   3.003948
    29  H    4.190711   2.973541   5.261521   2.043752   2.770488
    30  H    2.137218   3.353253   2.171107   7.188122   3.871001
    31  H    2.138970   2.726079   2.155157   7.059669   3.307598
                    6          7          8          9         10
     6  C    0.000000
     7  C    5.859853   0.000000
     8  O    2.363268   3.756136   0.000000
     9  C    4.394042   1.529559   2.402690   0.000000
    10  C    6.213082   1.518918   4.197088   2.499541   0.000000
    11  C    3.716724   2.511595   1.423780   1.525052   2.864026
    12  C    4.387135   2.890525   2.508881   2.512947   2.370698
    13  C    2.500758   7.228200   3.530114   5.931551   7.400138
    14  H    3.297588   5.800210   2.632454   4.770386   5.906225
    15  H    3.823040   6.929747   3.835435   5.961323   6.710844
    16  H    2.159844   6.332142   2.762875   4.922010   6.934253
    17  H    2.154378   7.624531   3.967953   6.141264   8.120823
    18  H    2.151578   4.517336   2.042287   3.309449   4.480826
    19  H    1.086625   6.593563   3.276877   5.174848   6.789084
    20  H    1.084531   5.650218   2.551198   4.132704   6.211251
    21  H    6.480028   1.085917   4.556090   2.164971   2.143311
    22  H    6.364190   1.087123   4.103410   2.158188   2.136416
    23  H    4.140614   2.157043   2.641620   1.088439   2.813024
    24  H    4.470989   2.167419   2.620466   1.085344   3.446150
    25  H    7.279363   2.164887   5.211017   3.451215   1.081403
    26  H    6.117935   2.158985   4.404591   2.799851   1.087650
    27  H    4.341808   2.770088   2.000891   2.135915   3.234188
    28  H    4.494247   3.854316   2.817728   3.457498   3.266059
    29  H    4.228096   3.284455   2.821848   2.814704   2.620920
    30  H    3.454594   7.914886   4.276831   6.657328   8.143161
    31  H    2.796682   7.905099   4.249674   6.605063   7.954710
                   11         12         13         14         15
    11  C    0.000000
    12  C    1.530664   0.000000
    13  C    4.737748   5.168458   0.000000
    14  H    3.342574   3.716227   2.157538   0.000000
    15  H    4.505024   4.352800   2.163765   1.753921   0.000000
    16  H    4.086376   5.111179   2.153430   2.678855   3.814083
    17  H    5.385915   6.206553   2.163788   3.813401   4.286496
    18  H    2.673683   2.746171   3.822604   3.651303   3.983611
    19  H    4.523747   4.933387   2.785518   3.971998   4.047311
    20  H    3.828608   4.722024   3.456735   4.091437   4.844404
    21  H    3.455442   3.850674   8.076315   6.781184   7.911358
    22  H    2.828444   3.339113   7.470312   5.844797   7.112592
    23  H    2.139216   2.804748   6.018620   5.180880   6.171427
    24  H    2.144885   3.449218   6.037836   4.980182   6.366766
    25  H    3.831540   3.266826   8.363405   6.750659   7.532237
    26  H    3.267958   2.619663   7.523054   6.270994   6.899095
    27  H    1.084179   2.115759   4.924911   3.200368   4.582111
    28  H    2.170992   1.078224   4.737975   3.141056   3.549673
    29  H    2.181686   1.085279   5.313716   4.243660   4.604739
    30  H    5.426290   5.924298   1.086338   2.447546   2.523006
    31  H    5.446038   5.685142   1.087574   3.043029   2.438561
                   16         17         18         19         20
    16  H    0.000000
    17  H    1.745679   0.000000
    18  H    3.854805   4.269328   0.000000
    19  H    3.048537   2.446115   2.376065   0.000000
    20  H    2.476128   2.535793   2.520518   1.750852   0.000000
    21  H    7.054174   8.269632   5.151362   7.172724   6.122115
    22  H    6.488323   7.941836   5.227686   7.195629   6.190612
    23  H    5.111492   6.063671   2.865402   4.757935   3.784847
    24  H    4.667623   5.961235   3.887432   5.361898   4.032346
    25  H    7.917030   9.158254   5.537151   7.857190   7.284062
    26  H    7.161412   8.156166   4.202362   6.548321   6.088886
    27  H    4.181848   5.697713   3.629997   5.241648   4.494986
    28  H    5.041666   6.114426   3.074880   4.991853   5.044195
    29  H    5.393832   6.229736   2.235604   4.572262   4.542904
    30  H    2.457083   2.548169   4.850985   3.796160   4.304094
    31  H    3.046874   2.456000   4.032080   2.642603   3.804545
                   21         22         23         24         25
    21  H    0.000000
    22  H    1.751760   0.000000
    23  H    2.449957   3.051117   0.000000
    24  H    2.552784   2.455041   1.752326   0.000000
    25  H    2.531407   2.439558   3.819878   4.288723   0.000000
    26  H    2.459771   3.043973   2.677934   3.813290   1.759475
    27  H    3.783217   2.651532   3.026988   2.439983   4.013286
    28  H    4.863345   4.123478   3.803244   4.280186   4.008840
    29  H    4.051768   3.991284   2.673230   3.818696   3.564212
    30  H    8.795661   8.033247   6.863111   6.670784   9.063511
    31  H    8.723105   8.248573   6.547442   6.797635   8.931847
                   26         27         28         29         30
    26  H    0.000000
    27  H    3.909745   0.000000
    28  H    3.566694   2.430027   0.000000
    29  H    2.398252   3.038944   1.760971   0.000000
    30  H    8.366975   5.423206   5.410450   6.200070   0.000000
    31  H    7.952687   5.767006   5.233696   5.652049   1.752735
                   31
    31  H    0.000000
 Stoichiometry    C10H18O3
 Framework group  C1[X(C10H18O3)]
 Deg. of freedom    87
 Full point group                 C1      NOp   1
 Largest Abelian subgroup         C1      NOp   1
 Largest concise Abelian subgroup C1      NOp   1
                         Standard orientation:                         
 ---------------------------------------------------------------------
 Center     Atomic      Atomic             Coordinates (Angstroms)
 Number     Number       Type             X           Y           Z
 ---------------------------------------------------------------------
      1          6           0       -2.387062   -1.335852   -0.515565
      2          8           0       -1.518427   -1.087589    0.582042
      3          6           0       -3.257515    1.000385   -0.320131
      4          8           0        2.795981   -1.358737   -0.063611
      5          6           0       -1.088773    0.239243    0.734021
      6          6           0       -2.273641    1.189439    0.835695
      7          6           0        3.450552    0.940409   -0.392910
      8          8           0       -0.294204    0.653305   -0.338794
      9          6           0        1.995524    1.365858   -0.189346
     10          6           0        3.721318   -0.364138    0.336442
     11          6           0        1.049001    0.215377   -0.515338
     12          6           0        1.453396   -1.048792    0.247075
     13          6           0       -3.637402   -0.475858   -0.437385
     14          1           0       -1.854303   -1.156572   -1.443444
     15          1           0       -2.626651   -2.388867   -0.463053
     16          1           0       -2.810537    1.338395   -1.251044
     17          1           0       -4.140808    1.609335   -0.153608
     18          1           0       -0.518424    0.248867    1.650450
     19          1           0       -2.775929    0.979329    1.776075
     20          1           0       -1.905596    2.208502    0.883249
     21          1           0        4.127309    1.708217   -0.030023
     22          1           0        3.652470    0.802261   -1.452146
     23          1           0        1.839683    1.663938    0.845816
     24          1           0        1.752245    2.219601   -0.813774
     25          1           0        4.703735   -0.752934    0.105947
     26          1           0        3.650272   -0.225898    1.412929
     27          1           0        1.133052   -0.015640   -1.571279
     28          1           0        0.865865   -1.899308   -0.059513
     29          1           0        1.357170   -0.922157    1.320637
     30          1           0       -4.246513   -0.654244   -1.319027
     31          1           0       -4.222227   -0.775082    0.429369
 ---------------------------------------------------------------------
 Rotational constants (GHZ):           2.0132106           0.4182009           0.3765792
 Standard basis: 6-311++G(2d,2p) (5D, 7F)
 There are   557 symmetry adapted cartesian basis functions of A   symmetry.
 There are   531 symmetry adapted basis functions of A   symmetry.
   531 basis functions,   762 primitive gaussians,   557 cartesian basis functions
    51 alpha electrons       51 beta electrons
       nuclear repulsion energy       896.0161008469 Hartrees.
 NAtoms=   31 NActive=   31 NUniq=   31 SFac= 1.00D+00 NAtFMM=   60 NAOKFM=F Big=F
 Integral buffers will be    131072 words long.
 Raffenetti 2 integral format.
 Two-electron integral symmetry is turned on.
 ------------------------------------------------------------------------------
 Polarizable Continuum Model (PCM)
 =================================
 Model                : PCM.
 Atomic radii         : UFF (Universal Force Field).
 Polarization charges : Total charges.
 Charge compensation  : None.
 Solution method      : On-the-fly selection.
 Cavity type          : Scaled VdW (van der Waals Surface) (Alpha=1.100).
 Cavity algorithm     : GePol (No added spheres)
                        Default sphere list used, NSphG=   31.
                        Lebedev-Laikov grids with approx.  5.0 points / Ang**2.
                        Smoothing algorithm: York/Karplus (Gamma=1.0000).
                        Polarization charges: spherical gaussians, with
                                              point-specific exponents (IZeta= 3).
                        Self-potential: point-specific (ISelfS= 7).
                        Self-field    : sphere-specific E.n sum rule (ISelfD= 2).
 1st derivatives      : Analytical E(r).r(x)/FMM algorithm (CHGder, D1EAlg=3).
                        Cavity 1st derivative terms included.
 Solvent              : Water, Eps=  78.355300 Eps(inf)=   1.777849
 ------------------------------------------------------------------------------
 One-electron integrals computed using PRISM.
 NBasis=   531 RedAO= T EigKep=  5.50D-06  NBF=   531
 NBsUse=   531 1.00D-06 EigRej= -1.00D+00 NBFU=   531
 ExpMin= 3.60D-02 ExpMax= 8.59D+03 ExpMxC= 1.30D+03 IAcc=3 IRadAn=         5 AccDes= 0.00D+00
 Harris functional with IExCor= 1009 and IRadAn=       5 diagonalized for initial guess.
 HarFok:  IExCor= 1009 AccDes= 0.00D+00 IRadAn=         5 IDoV= 1 UseB2=F ITyADJ=14
 ICtDFT=  3500011 ScaDFX=  1.000000  1.000000  1.000000  1.000000
 FoFCou: FMM=F IPFlag=           0 FMFlag=      100000 FMFlg1=           0
         NFxFlg=           0 DoJE=T BraDBF=F KetDBF=T FulRan=T
         wScrn=  0.000000 ICntrl=       500 IOpCl=  0 I1Cent=   200000004 NGrid=           0
         NMat0=    1 NMatS0=      1 NMatT0=    0 NMatD0=    1 NMtDS0=    0 NMtDT0=    0
 Petite list used in FoFCou.
 Requested convergence on RMS density matrix=1.00D-08 within 128 cycles.
 Requested convergence on MAX density matrix=1.00D-06.
 Requested convergence on             energy=1.00D-06.
 No special actions if energy rises.
 Inv3:  Mode=1 IEnd=    12472563.
 Iteration    1 A*A^-1 deviation from unit magnitude is 3.55D-15 for   2037.
 Iteration    1 A*A^-1 deviation from orthogonality  is 4.55D-15 for   2039    872.
 Iteration    1 A^-1*A deviation from unit magnitude is 3.55D-15 for   2037.
 Iteration    1 A^-1*A deviation from orthogonality  is 2.58D-15 for   2035    578.
 Error on total polarization charges =  0.01485
 SCF Done:  E(RM062X) =  -617.495802587     A.U. after   12 cycles
            NFock= 12  Conv=0.58D-08     -V/T= 2.0035

 **********************************************************************

            Population analysis using the SCF density.

 **********************************************************************

 Orbital symmetries:
       Occupied  (A) (A) (A) (A) (A) (A) (A) (A) (A) (A) (A) (A)
                 (A) (A) (A) (A) (A) (A) (A) (A) (A) (A) (A) (A)
                 (A) (A) (A) (A) (A) (A) (A) (A) (A) (A) (A) (A)
                 (A) (A) (A) (A) (A) (A) (A) (A) (A) (A) (A) (A)
                 (A) (A) (A)
       Virtual   (A) (A) (A) (A) (A) (A) (A) (A) (A) (A) (A) (A)
                 (A) (A) (A) (A) (A) (A) (A) (A) (A) (A) (A) (A)
                 (A) (A) (A) (A) (A) (A) (A) (A) (A) (A) (A) (A)
                 (A) (A) (A) (A) (A) (A) (A) (A) (A) (A) (A) (A)
                 (A) (A) (A) (A) (A) (A) (A) (A) (A) (A) (A) (A)
                 (A) (A) (A) (A) (A) (A) (A) (A) (A) (A) (A) (A)
                 (A) (A) (A) (A) (A) (A) (A) (A) (A) (A) (A) (A)
                 (A) (A) (A) (A) (A) (A) (A) (A) (A) (A) (A) (A)
                 (A) (A) (A) (A) (A) (A) (A) (A) (A) (A) (A) (A)
                 (A) (A) (A) (A) (A) (A) (A) (A) (A) (A) (A) (A)
                 (A) (A) (A) (A) (A) (A) (A) (A) (A) (A) (A) (A)
                 (A) (A) (A) (A) (A) (A) (A) (A) (A) (A) (A) (A)
                 (A) (A) (A) (A) (A) (A) (A) (A) (A) (A) (A) (A)
                 (A) (A) (A) (A) (A) (A) (A) (A) (A) (A) (A) (A)
                 (A) (A) (A) (A) (A) (A) (A) (A) (A) (A) (A) (A)
                 (A) (A) (A) (A) (A) (A) (A) (A) (A) (A) (A) (A)
                 (A) (A) (A) (A) (A) (A) (A) (A) (A) (A) (A) (A)
                 (A) (A) (A) (A) (A) (A) (A) (A) (A) (A) (A) (A)
                 (A) (A) (A) (A) (A) (A) (A) (A) (A) (A) (A) (A)
                 (A) (A) (A) (A) (A) (A) (A) (A) (A) (A) (A) (A)
                 (A) (A) (A) (A) (A) (A) (A) (A) (A) (A) (A) (A)
                 (A) (A) (A) (A) (A) (A) (A) (A) (A) (A) (A) (A)
                 (A) (A) (A) (A) (A) (A) (A) (A) (A) (A) (A) (A)
                 (A) (A) (A) (A) (A) (A) (A) (A) (A) (A) (A) (A)
                 (A) (A) (A) (A) (A) (A) (A) (A) (A) (A) (A) (A)
                 (A) (A) (A) (A) (A) (A) (A) (A) (A) (A) (A) (A)
                 (A) (A) (A) (A) (A) (A) (A) (A) (A) (A) (A) (A)
                 (A) (A) (A) (A) (A) (A) (A) (A) (A) (A) (A) (A)
                 (A) (A) (A) (A) (A) (A) (A) (A) (A) (A) (A) (A)
                 (A) (A) (A) (A) (A) (A) (A) (A) (A) (A) (A) (A)
                 (A) (A) (A) (A) (A) (A) (A) (A) (A) (A) (A) (A)
                 (A) (A) (A) (A) (A) (A) (A) (A) (A) (A) (A) (A)
                 (A) (A) (A) (A) (A) (A) (A) (A) (A) (A) (A) (A)
                 (A) (A) (A) (A) (A) (A) (A) (A) (A) (A) (A) (A)
                 (A) (A) (A) (A) (A) (A) (A) (A) (A) (A) (A) (A)
                 (A) (A) (A) (A) (A) (A) (A) (A) (A) (A) (A) (A)
                 (A) (A) (A) (A) (A) (A) (A) (A) (A) (A) (A) (A)
                 (A) (A) (A) (A) (A) (A) (A) (A) (A) (A) (A) (A)
                 (A) (A) (A) (A) (A) (A) (A) (A) (A) (A) (A) (A)
                 (A) (A) (A) (A) (A) (A) (A) (A) (A) (A) (A) (A)
 The electronic state is 1-A.
 Alpha  occ. eigenvalues --  -19.62936 -19.62777 -19.62639 -10.63465 -10.58835
 Alpha  occ. eigenvalues --  -10.58009 -10.57833 -10.57588 -10.53053 -10.52974
 Alpha  occ. eigenvalues --  -10.52924 -10.52884 -10.52723  -1.19953  -1.16764
 Alpha  occ. eigenvalues --   -1.13377  -0.90875  -0.89682  -0.87402  -0.84903
 Alpha  occ. eigenvalues --   -0.75252  -0.74302  -0.73062  -0.70970  -0.66409
 Alpha  occ. eigenvalues --   -0.63126  -0.60430  -0.58944  -0.56723  -0.55598
 Alpha  occ. eigenvalues --   -0.54792  -0.53366  -0.52125  -0.50610  -0.50411
 Alpha  occ. eigenvalues --   -0.48968  -0.46964  -0.45778  -0.45401  -0.44711
 Alpha  occ. eigenvalues --   -0.43649  -0.42749  -0.41551  -0.40401  -0.39585
 Alpha  occ. eigenvalues --   -0.38532  -0.37658  -0.36310  -0.33993  -0.33002
 Alpha  occ. eigenvalues --   -0.32042
 Alpha virt. eigenvalues --   -0.00091   0.00737   0.00798   0.01139   0.02111
 Alpha virt. eigenvalues --    0.02486   0.02582   0.03334   0.03679   0.04335
 Alpha virt. eigenvalues --    0.04556   0.04774   0.05502   0.05909   0.07127
 Alpha virt. eigenvalues --    0.07313   0.07639   0.08334   0.08978   0.09170
 Alpha virt. eigenvalues --    0.10150   0.10759   0.11199   0.11547   0.11872
 Alpha virt. eigenvalues --    0.12459   0.12504   0.12819   0.13072   0.13433
 Alpha virt. eigenvalues --    0.13635   0.13913   0.14289   0.14507   0.14858
 Alpha virt. eigenvalues --    0.14970   0.15256   0.15617   0.15637   0.16422
 Alpha virt. eigenvalues --    0.16607   0.16960   0.17221   0.17589   0.17921
 Alpha virt. eigenvalues --    0.18060   0.18375   0.18803   0.18889   0.19423
 Alpha virt. eigenvalues --    0.19871   0.20058   0.20821   0.21124   0.21303
 Alpha virt. eigenvalues --    0.22160   0.22622   0.22767   0.23943   0.24045
 Alpha virt. eigenvalues --    0.24767   0.25160   0.26130   0.26410   0.26740
 Alpha virt. eigenvalues --    0.27920   0.28335   0.28764   0.28957   0.29797
 Alpha virt. eigenvalues --    0.29991   0.30368   0.30729   0.31400   0.31910
 Alpha virt. eigenvalues --    0.32333   0.32872   0.33362   0.33595   0.34606
 Alpha virt. eigenvalues --    0.34943   0.34991   0.35633   0.35767   0.36022
 Alpha virt. eigenvalues --    0.36437   0.37109   0.37439   0.37832   0.38264
 Alpha virt. eigenvalues --    0.38496   0.39299   0.39937   0.40357   0.40821
 Alpha virt. eigenvalues --    0.41472   0.42251   0.42637   0.43615   0.45678
 Alpha virt. eigenvalues --    0.46369   0.47009   0.49032   0.50310   0.50672
 Alpha virt. eigenvalues --    0.52168   0.52299   0.53130   0.54334   0.55147
 Alpha virt. eigenvalues --    0.55756   0.56701   0.57661   0.58576   0.59972
 Alpha virt. eigenvalues --    0.60249   0.60858   0.61358   0.61478   0.61744
 Alpha virt. eigenvalues --    0.62392   0.62854   0.63083   0.64203   0.64511
 Alpha virt. eigenvalues --    0.64907   0.65060   0.65817   0.66462   0.66672
 Alpha virt. eigenvalues --    0.68115   0.68663   0.69066   0.70212   0.71002
 Alpha virt. eigenvalues --    0.71198   0.71892   0.72050   0.72473   0.73130
 Alpha virt. eigenvalues --    0.73382   0.74211   0.74554   0.74877   0.75288
 Alpha virt. eigenvalues --    0.76138   0.76944   0.77769   0.78886   0.79115
 Alpha virt. eigenvalues --    0.80547   0.81511   0.83808   0.84913   0.85907
 Alpha virt. eigenvalues --    0.86853   0.87581   0.88829   0.88944   0.89219
 Alpha virt. eigenvalues --    0.89720   0.90822   0.92483   0.93313   0.95145
 Alpha virt. eigenvalues --    0.96973   0.99591   1.00077   1.00898   1.01589
 Alpha virt. eigenvalues --    1.02394   1.03517   1.04698   1.06251   1.06599
 Alpha virt. eigenvalues --    1.08096   1.09340   1.10369   1.11395   1.12141
 Alpha virt. eigenvalues --    1.13443   1.14246   1.14870   1.15677   1.16702
 Alpha virt. eigenvalues --    1.17793   1.18280   1.19456   1.20315   1.20801
 Alpha virt. eigenvalues --    1.21289   1.21995   1.23132   1.23842   1.24829
 Alpha virt. eigenvalues --    1.25005   1.25308   1.25920   1.26929   1.27918
 Alpha virt. eigenvalues --    1.28077   1.28997   1.29577   1.30219   1.31032
 Alpha virt. eigenvalues --    1.31539   1.32907   1.33388   1.33954   1.34554
 Alpha virt. eigenvalues --    1.35576   1.36221   1.36871   1.37257   1.38435
 Alpha virt. eigenvalues --    1.38764   1.39685   1.40167   1.40920   1.42105
 Alpha virt. eigenvalues --    1.43081   1.43561   1.43635   1.45207   1.45862
 Alpha virt. eigenvalues --    1.46081   1.46286   1.47166   1.48101   1.48655
 Alpha virt. eigenvalues --    1.49382   1.49678   1.50882   1.52028   1.52363
 Alpha virt. eigenvalues --    1.53232   1.53587   1.54325   1.55101   1.56113
 Alpha virt. eigenvalues --    1.56566   1.56908   1.57715   1.58295   1.59105
 Alpha virt. eigenvalues --    1.59331   1.59903   1.60844   1.61377   1.62296
 Alpha virt. eigenvalues --    1.63557   1.64241   1.64545   1.65589   1.67069
 Alpha virt. eigenvalues --    1.67475   1.68186   1.69368   1.71794   1.72655
 Alpha virt. eigenvalues --    1.73900   1.74204   1.75724   1.75853   1.78160
 Alpha virt. eigenvalues --    1.79025   1.80853   1.82002   1.82372   1.83724
 Alpha virt. eigenvalues --    1.86894   1.87860   1.92167   1.96178   1.98817
 Alpha virt. eigenvalues --    2.01554   2.06428   2.12413   2.17065   2.21583
 Alpha virt. eigenvalues --    2.22884   2.26111   2.33901   2.35000   2.39148
 Alpha virt. eigenvalues --    2.43264   2.44197   2.45204   2.49312   2.54655
 Alpha virt. eigenvalues --    2.62419   2.75876   2.76655   2.78886   2.81057
 Alpha virt. eigenvalues --    2.84659   2.89975   2.92600   2.94259   2.94721
 Alpha virt. eigenvalues --    2.95389   2.96832   3.01872   3.03099   3.03815
 Alpha virt. eigenvalues --    3.06297   3.07953   3.08492   3.10080   3.11770
 Alpha virt. eigenvalues --    3.12933   3.14529   3.17261   3.20125   3.21399
 Alpha virt. eigenvalues --    3.25200   3.26990   3.31952   3.33385   3.35322
 Alpha virt. eigenvalues --    3.36197   3.37883   3.38203   3.39757   3.41878
 Alpha virt. eigenvalues --    3.43181   3.43947   3.44460   3.45257   3.47065
 Alpha virt. eigenvalues --    3.47653   3.47773   3.50449   3.51493   3.53018
 Alpha virt. eigenvalues --    3.53510   3.53761   3.54922   3.55447   3.55658
 Alpha virt. eigenvalues --    3.56585   3.57458   3.58443   3.59787   3.60422
 Alpha virt. eigenvalues --    3.61147   3.61976   3.63125   3.65238   3.65698
 Alpha virt. eigenvalues --    3.66210   3.67640   3.68361   3.68658   3.69322
 Alpha virt. eigenvalues --    3.70730   3.70863   3.72102   3.73522   3.74456
 Alpha virt. eigenvalues --    3.74807   3.75189   3.76449   3.76813   3.78391
 Alpha virt. eigenvalues --    3.79620   3.80030   3.80448   3.83670   3.85192
 Alpha virt. eigenvalues --    3.86192   3.87461   3.88578   3.91210   3.92099
 Alpha virt. eigenvalues --    3.93215   3.93467   3.94692   3.96054   3.98006
 Alpha virt. eigenvalues --    4.00599   4.01412   4.03327   4.03667   4.04747
 Alpha virt. eigenvalues --    4.05531   4.06692   4.06912   4.07488   4.07668
 Alpha virt. eigenvalues --    4.08162   4.08321   4.10275   4.10834   4.11673
 Alpha virt. eigenvalues --    4.12198   4.12886   4.13301   4.14983   4.16002
 Alpha virt. eigenvalues --    4.17180   4.17395   4.18530   4.19169   4.20291
 Alpha virt. eigenvalues --    4.21111   4.22636   4.24758   4.26970   4.27393
 Alpha virt. eigenvalues --    4.28842   4.29885   4.31513   4.32065   4.33137
 Alpha virt. eigenvalues --    4.33858   4.34742   4.35187   4.37347   4.38191
 Alpha virt. eigenvalues --    4.40853   4.42562   4.44130   4.46385   4.47607
 Alpha virt. eigenvalues --    4.57968   4.61046   4.75080   4.77435   4.82550
 Alpha virt. eigenvalues --    4.84965   4.92636   4.95300   4.98754   5.00950
 Alpha virt. eigenvalues --    5.06688   5.06934   5.07720   5.08734   5.11824
 Alpha virt. eigenvalues --    5.12348   5.13841   5.14776   5.31228   5.39183
 Alpha virt. eigenvalues --    5.42566   5.58051   5.59353   5.65471   5.84887
 Alpha virt. eigenvalues --    5.90518   6.02994   7.02889   7.04878   7.05881
 Alpha virt. eigenvalues --    7.09288   7.10543   7.13276   7.15021   7.20337
 Alpha virt. eigenvalues --    7.29830   7.37159   7.40996   7.45717   7.53351
 Alpha virt. eigenvalues --    7.54944   7.64533  23.95568  23.96965  24.06876
 Alpha virt. eigenvalues --   24.08425  24.10898  24.11669  24.14268  24.15147
 Alpha virt. eigenvalues --   24.16017  24.20639  50.17099  50.19037  50.29480
          Condensed to atoms (all electrons):
               1          2          3          4          5          6
     1  C    5.592263   0.089931  -0.016189   0.001546  -0.394966   0.062025
     2  O    0.089931   8.271467   0.008058  -0.000948   0.310060  -0.063941
     3  C   -0.016189   0.008058   5.692377   0.000831  -0.314845   0.066449
     4  O    0.001546  -0.000948   0.000831   8.372776  -0.000181   0.001768
     5  C   -0.394966   0.310060  -0.314845  -0.000181   7.470657  -1.191441
     6  C    0.062025  -0.063941   0.066449   0.001768  -1.191441   7.065827
     7  C    0.001507  -0.001286  -0.001309  -0.057095  -0.073177  -0.024008
     8  O   -0.002434  -0.057378  -0.056514   0.006875   0.267092  -0.037545
     9  C   -0.062541  -0.006916  -0.012485  -0.041231   0.459347  -0.064257
    10  C    0.002984   0.007091   0.003290   0.105711  -0.012848   0.022114
    11  C    0.117372   0.004570   0.120765   0.023263  -1.215580   0.183262
    12  C    0.025857  -0.052726  -0.042389   0.163633   0.290191  -0.152795
    13  C   -0.123802  -0.053917  -0.009497  -0.000189   0.225838  -0.108365
    14  H    0.466619  -0.033878  -0.000848   0.000764   0.001831   0.035097
    15  H    0.434877  -0.072137   0.014054   0.000436  -0.022018  -0.004746
    16  H   -0.001633   0.001685   0.513465  -0.000014  -0.023229  -0.044351
    17  H    0.004854  -0.004432   0.426462   0.000005   0.005975  -0.042804
    18  H   -0.040599  -0.067288  -0.023444  -0.001351   0.525344  -0.071372
    19  H    0.017289  -0.005623  -0.002933   0.000046  -0.149782   0.511752
    20  H    0.008649   0.007192  -0.038534  -0.000010  -0.010912   0.414480
    21  H   -0.000467  -0.000018  -0.000071   0.006149   0.002984  -0.002986
    22  H    0.000284  -0.000434   0.000258  -0.004486  -0.005684   0.002005
    23  H    0.003407   0.000756   0.001892   0.001344  -0.033821   0.007318
    24  H   -0.002156  -0.000274   0.001042  -0.001320   0.018905  -0.006945
    25  H   -0.000018   0.000496   0.000037  -0.070411  -0.001696   0.000988
    26  H    0.000371  -0.000303   0.000406  -0.036387   0.000694   0.001329
    27  H    0.015056  -0.000446   0.006022  -0.003573  -0.073477  -0.006632
    28  H    0.001829  -0.009632  -0.008345  -0.080682   0.071525  -0.033573
    29  H    0.006233  -0.002789   0.008275  -0.034330  -0.080168  -0.005137
    30  H   -0.030302   0.010164  -0.045455   0.000001   0.007086  -0.010764
    31  H   -0.096377  -0.001300  -0.016223  -0.000006   0.006382  -0.008985
               7          8          9         10         11         12
     1  C    0.001507  -0.002434  -0.062541   0.002984   0.117372   0.025857
     2  O   -0.001286  -0.057378  -0.006916   0.007091   0.004570  -0.052726
     3  C   -0.001309  -0.056514  -0.012485   0.003290   0.120765  -0.042389
     4  O   -0.057095   0.006875  -0.041231   0.105711   0.023263   0.163633
     5  C   -0.073177   0.267092   0.459347  -0.012848  -1.215580   0.290191
     6  C   -0.024008  -0.037545  -0.064257   0.022114   0.183262  -0.152795
     7  C    5.644738  -0.022255  -0.309994   0.086830   0.367719  -0.071908
     8  O   -0.022255   8.397334  -0.138106   0.005323  -0.011187   0.032383
     9  C   -0.309994  -0.138106   7.276700  -0.142105  -1.956721   0.524275
    10  C    0.086830   0.005323  -0.142105   5.358671   0.157216  -0.187329
    11  C    0.367719  -0.011187  -1.956721   0.157216   8.659377  -0.904668
    12  C   -0.071908   0.032383   0.524275  -0.187329  -0.904668   5.984002
    13  C   -0.000216   0.004737   0.014013   0.000440  -0.006750  -0.013561
    14  H   -0.001671   0.004640   0.008880  -0.000560  -0.036627   0.006573
    15  H   -0.000159   0.001675  -0.003190   0.000457   0.011614   0.002907
    16  H   -0.001164  -0.002217   0.008392  -0.000558  -0.011896   0.000116
    17  H    0.000062  -0.000318  -0.002762   0.000234   0.010497  -0.003397
    18  H    0.000376  -0.025440   0.037584  -0.012979  -0.051520   0.020653
    19  H    0.000053   0.011299  -0.007608   0.000422   0.017846  -0.001438
    20  H   -0.001419  -0.004722   0.013543  -0.000496  -0.022001   0.005997
    21  H    0.423242  -0.003725  -0.014674  -0.042027  -0.012261   0.006115
    22  H    0.494234  -0.000058  -0.026072  -0.076178  -0.013112   0.000673
    23  H   -0.032933  -0.003304   0.416261  -0.015514   0.088567  -0.056482
    24  H   -0.021938  -0.001179   0.455789   0.009015  -0.082681   0.017821
    25  H   -0.044126   0.000621   0.002386   0.430540   0.012333   0.007874
    26  H   -0.048250  -0.000659  -0.018618   0.472574   0.030852  -0.033082
    27  H    0.027386  -0.075950  -0.137522   0.009163   0.644200  -0.111813
    28  H    0.012416   0.002607   0.071778  -0.012814  -0.163598   0.508692
    29  H    0.036439  -0.005361  -0.214143   0.009084   0.260891   0.313617
    30  H    0.000196   0.000189  -0.000624  -0.000007   0.004858   0.000351
    31  H   -0.000086  -0.000069   0.002177  -0.000141  -0.007158   0.000394
              13         14         15         16         17         18
     1  C   -0.123802   0.466619   0.434877  -0.001633   0.004854  -0.040599
     2  O   -0.053917  -0.033878  -0.072137   0.001685  -0.004432  -0.067288
     3  C   -0.009497  -0.000848   0.014054   0.513465   0.426462  -0.023444
     4  O   -0.000189   0.000764   0.000436  -0.000014   0.000005  -0.001351
     5  C    0.225838   0.001831  -0.022018  -0.023229   0.005975   0.525344
     6  C   -0.108365   0.035097  -0.004746  -0.044351  -0.042804  -0.071372
     7  C   -0.000216  -0.001671  -0.000159  -0.001164   0.000062   0.000376
     8  O    0.004737   0.004640   0.001675  -0.002217  -0.000318  -0.025440
     9  C    0.014013   0.008880  -0.003190   0.008392  -0.002762   0.037584
    10  C    0.000440  -0.000560   0.000457  -0.000558   0.000234  -0.012979
    11  C   -0.006750  -0.036627   0.011614  -0.011896   0.010497  -0.051520
    12  C   -0.013561   0.006573   0.002907   0.000116  -0.003397   0.020653
    13  C    5.778794  -0.078675  -0.019133  -0.056067  -0.018112   0.023101
    14  H   -0.078675   0.507135  -0.016695  -0.001775  -0.001354   0.002187
    15  H   -0.019133  -0.016695   0.482544  -0.002383   0.001637  -0.001627
    16  H   -0.056067  -0.001775  -0.002383   0.459021  -0.006420  -0.002702
    17  H   -0.018112  -0.001354   0.001637  -0.006420   0.465275   0.001072
    18  H    0.023101   0.002187  -0.001627  -0.002702   0.001072   0.471320
    19  H   -0.012959  -0.001856   0.000988   0.002547  -0.003157  -0.016947
    20  H   -0.009694  -0.000098   0.001120  -0.003233  -0.008738  -0.008761
    21  H    0.000038   0.000036  -0.000021  -0.000002  -0.000021   0.000701
    22  H   -0.000070   0.000194  -0.000021   0.000060   0.000011  -0.000010
    23  H   -0.001521  -0.000704   0.000115   0.000283   0.000150  -0.009793
    24  H    0.000281   0.000828  -0.000048  -0.000502  -0.000067   0.001460
    25  H    0.000173  -0.000100   0.000017  -0.000025   0.000010  -0.000255
    26  H   -0.000587   0.000333  -0.000037   0.000009  -0.000003  -0.000648
    27  H   -0.001679  -0.010637   0.001612  -0.000249   0.000413  -0.006312
    28  H   -0.012384   0.002132  -0.004736   0.000514  -0.000596   0.008633
    29  H    0.000003  -0.001512   0.001534  -0.000802   0.000289  -0.024544
    30  H    0.433930  -0.002465  -0.007736  -0.004964  -0.007569   0.000921
    31  H    0.489782   0.007084  -0.008342   0.002085  -0.002201   0.001704
              19         20         21         22         23         24
     1  C    0.017289   0.008649  -0.000467   0.000284   0.003407  -0.002156
     2  O   -0.005623   0.007192  -0.000018  -0.000434   0.000756  -0.000274
     3  C   -0.002933  -0.038534  -0.000071   0.000258   0.001892   0.001042
     4  O    0.000046  -0.000010   0.006149  -0.004486   0.001344  -0.001320
     5  C   -0.149782  -0.010912   0.002984  -0.005684  -0.033821   0.018905
     6  C    0.511752   0.414480  -0.002986   0.002005   0.007318  -0.006945
     7  C    0.000053  -0.001419   0.423242   0.494234  -0.032933  -0.021938
     8  O    0.011299  -0.004722  -0.003725  -0.000058  -0.003304  -0.001179
     9  C   -0.007608   0.013543  -0.014674  -0.026072   0.416261   0.455789
    10  C    0.000422  -0.000496  -0.042027  -0.076178  -0.015514   0.009015
    11  C    0.017846  -0.022001  -0.012261  -0.013112   0.088567  -0.082681
    12  C   -0.001438   0.005997   0.006115   0.000673  -0.056482   0.017821
    13  C   -0.012959  -0.009694   0.000038  -0.000070  -0.001521   0.000281
    14  H   -0.001856  -0.000098   0.000036   0.000194  -0.000704   0.000828
    15  H    0.000988   0.001120  -0.000021  -0.000021   0.000115  -0.000048
    16  H    0.002547  -0.003233  -0.000002   0.000060   0.000283  -0.000502
    17  H   -0.003157  -0.008738  -0.000021   0.000011   0.000150  -0.000067
    18  H   -0.016947  -0.008761   0.000701  -0.000010  -0.009793   0.001460
    19  H    0.452161  -0.004914  -0.000069  -0.000018   0.000638  -0.000358
    20  H   -0.004914   0.480574   0.000227   0.000006  -0.001075   0.000683
    21  H   -0.000069   0.000227   0.496427  -0.009660  -0.006204  -0.007750
    22  H   -0.000018   0.000006  -0.009660   0.476209   0.003568  -0.007721
    23  H    0.000638  -0.001075  -0.006204   0.003568   0.469364  -0.019552
    24  H   -0.000358   0.000683  -0.007750  -0.007721  -0.019552   0.477299
    25  H    0.000041  -0.000112  -0.010676  -0.002745  -0.001396   0.000918
    26  H   -0.000159   0.000323   0.004945   0.001887  -0.003349  -0.000521
    27  H    0.000640  -0.000372  -0.003529  -0.000492   0.010984  -0.010240
    28  H   -0.001436   0.000617   0.003028  -0.001641  -0.002542   0.000314
    29  H    0.001526  -0.000629  -0.003228   0.000116   0.007307  -0.003914
    30  H   -0.001931   0.001508   0.000005  -0.000012   0.000037  -0.000053
    31  H   -0.003014  -0.001936   0.000008   0.000010  -0.000080   0.000043
              25         26         27         28         29         30
     1  C   -0.000018   0.000371   0.015056   0.001829   0.006233  -0.030302
     2  O    0.000496  -0.000303  -0.000446  -0.009632  -0.002789   0.010164
     3  C    0.000037   0.000406   0.006022  -0.008345   0.008275  -0.045455
     4  O   -0.070411  -0.036387  -0.003573  -0.080682  -0.034330   0.000001
     5  C   -0.001696   0.000694  -0.073477   0.071525  -0.080168   0.007086
     6  C    0.000988   0.001329  -0.006632  -0.033573  -0.005137  -0.010764
     7  C   -0.044126  -0.048250   0.027386   0.012416   0.036439   0.000196
     8  O    0.000621  -0.000659  -0.075950   0.002607  -0.005361   0.000189
     9  C    0.002386  -0.018618  -0.137522   0.071778  -0.214143  -0.000624
    10  C    0.430540   0.472574   0.009163  -0.012814   0.009084  -0.000007
    11  C    0.012333   0.030852   0.644200  -0.163598   0.260891   0.004858
    12  C    0.007874  -0.033082  -0.111813   0.508692   0.313617   0.000351
    13  C    0.000173  -0.000587  -0.001679  -0.012384   0.000003   0.433930
    14  H   -0.000100   0.000333  -0.010637   0.002132  -0.001512  -0.002465
    15  H    0.000017  -0.000037   0.001612  -0.004736   0.001534  -0.007736
    16  H   -0.000025   0.000009  -0.000249   0.000514  -0.000802  -0.004964
    17  H    0.000010  -0.000003   0.000413  -0.000596   0.000289  -0.007569
    18  H   -0.000255  -0.000648  -0.006312   0.008633  -0.024544   0.000921
    19  H    0.000041  -0.000159   0.000640  -0.001436   0.001526  -0.001931
    20  H   -0.000112   0.000323  -0.000372   0.000617  -0.000629   0.001508
    21  H   -0.010676   0.004945  -0.003529   0.003028  -0.003228   0.000005
    22  H   -0.002745   0.001887  -0.000492  -0.001641   0.000116  -0.000012
    23  H   -0.001396  -0.003349   0.010984  -0.002542   0.007307   0.000037
    24  H    0.000918  -0.000521  -0.010240   0.000314  -0.003914  -0.000053
    25  H    0.469996  -0.005250  -0.001449   0.000956  -0.000114  -0.000003
    26  H   -0.005250   0.494442   0.000822  -0.002527   0.003933  -0.000007
    27  H   -0.001449   0.000822   0.469133  -0.013399   0.013004   0.000960
    28  H    0.000956  -0.002527  -0.013399   0.486651  -0.042678   0.000379
    29  H   -0.000114   0.003933   0.013004  -0.042678   0.526018   0.000146
    30  H   -0.000003  -0.000007   0.000960   0.000379   0.000146   0.489611
    31  H   -0.000003   0.000011  -0.000745   0.000669  -0.000738  -0.013418
              31
     1  C   -0.096377
     2  O   -0.001300
     3  C   -0.016223
     4  O   -0.000006
     5  C    0.006382
     6  C   -0.008985
     7  C   -0.000086
     8  O   -0.000069
     9  C    0.002177
    10  C   -0.000141
    11  C   -0.007158
    12  C    0.000394
    13  C    0.489782
    14  H    0.007084
    15  H   -0.008342
    16  H    0.002085
    17  H   -0.002201
    18  H    0.001704
    19  H   -0.003014
    20  H   -0.001936
    21  H    0.000008
    22  H    0.000010
    23  H   -0.000080
    24  H    0.000043
    25  H   -0.000003
    26  H    0.000011
    27  H   -0.000745
    28  H    0.000669
    29  H   -0.000738
    30  H   -0.013418
    31  H    0.487497
 Mulliken charges:
               1
     1  C   -0.081472
     2  O   -0.275803
     3  C   -0.274603
     4  O   -0.352936
     5  C   -0.060084
     6  C   -0.493768
     7  C   -0.382203
     8  O   -0.286353
     9  C   -0.131555
    10  C   -0.177603
    11  C   -0.219440
    12  C   -0.280537
    13  C   -0.443953
    14  H    0.145122
    15  H    0.207441
    16  H    0.176011
    17  H    0.185002
    18  H    0.270536
    19  H    0.196954
    20  H    0.182736
    21  H    0.173485
    22  H    0.168900
    23  H    0.176280
    24  H    0.182819
    25  H    0.210991
    26  H    0.137457
    27  H    0.259120
    28  H    0.217842
    29  H    0.231673
    30  H    0.174968
    31  H    0.162973
 Sum of Mulliken charges =  -0.00000
 Mulliken charges with hydrogens summed into heavy atoms:
               1
     1  C    0.271091
     2  O   -0.275803
     3  C    0.086411
     4  O   -0.352936
     5  C    0.210451
     6  C   -0.114077
     7  C   -0.039818
     8  O   -0.286353
     9  C    0.227544
    10  C    0.170845
    11  C    0.039679
    12  C    0.168979
    13  C   -0.106012
 Electronic spatial extent (au):  <R**2>=           3058.2435
 Charge=             -0.0000 electrons
 Dipole moment (field-independent basis, Debye):
    X=             -0.4622    Y=              2.1087    Z=              0.4693  Tot=              2.2091
 Quadrupole moment (field-independent basis, Debye-Ang):
   XX=            -71.7289   YY=            -84.0815   ZZ=            -78.7627
   XY=              5.9689   XZ=              2.9625   YZ=              2.6364
 Traceless Quadrupole moment (field-independent basis, Debye-Ang):
   XX=              6.4622   YY=             -5.8905   ZZ=             -0.5717
   XY=              5.9689   XZ=              2.9625   YZ=              2.6364
 Octapole moment (field-independent basis, Debye-Ang**2):
  XXX=              4.6288  YYY=             -0.4884  ZZZ=              1.1399  XYY=            -10.5958
  XXY=             16.1315  XXZ=              2.0143  XZZ=              2.1971  YZZ=              0.1472
  YYZ=             -1.8384  XYZ=             -7.5414
 Hexadecapole moment (field-independent basis, Debye-Ang**3):
 XXXX=          -3029.4082 YYYY=           -613.7604 ZZZZ=           -263.7106 XXXY=             42.3530
 XXXZ=             20.5611 YYYX=             24.9962 YYYZ=              3.2620 ZZZX=             -0.6822
 ZZZY=             -0.7022 XXYY=           -656.9997 XXZZ=           -575.2400 YYZZ=           -151.9407
 XXYZ=              5.7974 YYXZ=              5.4642 ZZXY=             -1.3147
 N-N= 8.960161008469D+02 E-N=-3.233876701528D+03  KE= 6.153371492739D+02
 D1PCM: PCM CHGder 1st derivatives, ID1Alg=3 FixD1E=F DoIter=F DoCFld=F I1PDM=0.
 Calling FoFJK, ICntrl=      2127 FMM=F ISym2X=0 I1Cent= 0 IOpClX= 0 NMat=1 NMatS=1 NMatT=0.
 ***** Axes restored to original set *****
 -------------------------------------------------------------------
 Center     Atomic                   Forces (Hartrees/Bohr)
 Number     Number              X              Y              Z
 -------------------------------------------------------------------
      1        6          -0.001884528    0.005863457    0.002355114
      2        8           0.003588671   -0.008653300    0.007503454
      3        6           0.001658020   -0.002895641    0.002009358
      4        8           0.003300509   -0.007810053   -0.003941148
      5        6          -0.001873589    0.001476956   -0.005068691
      6        6           0.000165912   -0.000179320   -0.002636365
      7        6          -0.001398356   -0.000067889    0.002579179
      8        8          -0.005962871    0.005570570   -0.008986282
      9        6           0.002754866   -0.004526693    0.000349945
     10        6          -0.005384255    0.002873167   -0.003366813
     11        6          -0.001192151    0.001540213    0.006408250
     12        6           0.003591469    0.005472634   -0.004165075
     13        6           0.002168947    0.001185292   -0.001266375
     14        1           0.002686557    0.002081187   -0.005414910
     15        1          -0.001085146   -0.004271865    0.000327991
     16        1           0.002463631    0.000535349   -0.002612673
     17        1          -0.002110079    0.001400162    0.000513819
     18        1           0.003672131   -0.000881945    0.007288860
     19        1          -0.001538035   -0.001289069    0.002761384
     20        1           0.001268130    0.002916129   -0.000194310
     21        1           0.001734702    0.002345820    0.000718242
     22        1           0.000245258   -0.001009819   -0.003060391
     23        1          -0.000980429    0.000247272    0.003933220
     24        1          -0.001250152    0.002131920   -0.001691883
     25        1           0.003951122   -0.001542731   -0.001057778
     26        1          -0.000412458    0.001920805    0.005893332
     27        1           0.001579432   -0.001926842   -0.005525256
     28        1          -0.004578203   -0.003558088   -0.001249825
     29        1          -0.002203189    0.002124876    0.006801872
     30        1          -0.001790206   -0.000171727   -0.002206732
     31        1          -0.001185710   -0.000900828    0.003000488
 -------------------------------------------------------------------
 Cartesian Forces:  Max     0.008986282 RMS     0.003428220

 GradGradGradGradGradGradGradGradGradGradGradGradGradGradGradGradGradGrad
 Berny optimization.
 FormGI is forming the generalized inverse of G from B-inverse, IUseBI=4.
 Internal  Forces:  Max     0.018489554 RMS     0.002351298
 Search for a local minimum.
 Step number   1 out of a maximum of  186
 All quantities printed in internal units (Hartrees-Bohrs-Radians)
 Mixed Optimization -- RFO/linear search
 Second derivative matrix not updated -- first step.
 ITU=  0
     Eigenvalues ---    0.00620   0.00634   0.00710   0.00722   0.01420
     Eigenvalues ---    0.01449   0.01721   0.02704   0.02713   0.03079
     Eigenvalues ---    0.03090   0.03878   0.04086   0.04628   0.04748
     Eigenvalues ---    0.04854   0.04891   0.05110   0.05145   0.05196
     Eigenvalues ---    0.05290   0.05647   0.05686   0.06034   0.06168
     Eigenvalues ---    0.06279   0.06587   0.07088   0.07619   0.07860
     Eigenvalues ---    0.07943   0.07970   0.07992   0.08084   0.08225
     Eigenvalues ---    0.08816   0.09169   0.09492   0.10691   0.11575
     Eigenvalues ---    0.11592   0.11682   0.11762   0.12396   0.12528
     Eigenvalues ---    0.14668   0.14835   0.16468   0.16607   0.17740
     Eigenvalues ---    0.19094   0.21374   0.21956   0.25000   0.28183
     Eigenvalues ---    0.28623   0.28802   0.28834   0.28923   0.29111
     Eigenvalues ---    0.30080   0.30288   0.34994   0.35086   0.35094
     Eigenvalues ---    0.35147   0.35206   0.35212   0.35239   0.35289
     Eigenvalues ---    0.35314   0.35356   0.35364   0.35413   0.35452
     Eigenvalues ---    0.35494   0.35825   0.35849   0.36060   0.36210
     Eigenvalues ---    0.40844   0.41430   0.41896   0.42068   0.43584
     Eigenvalues ---    0.459951000.000001000.000001000.000001000.00000
     Eigenvalues --- 1000.000001000.000001000.000001000.000001000.00000
     Eigenvalues --- 1000.000001000.000001000.000001000.000001000.00000
     Eigenvalues --- 1000.000001000.000001000.000001000.000001000.00000
     Eigenvalues --- 1000.000001000.000001000.000001000.000001000.00000
     Eigenvalues --- 1000.000001000.000001000.000001000.000001000.00000
     Eigenvalues --- 1000.000001000.000001000.000001000.000001000.00000
     Eigenvalues --- 1000.000001000.000001000.000001000.000001000.00000
     Eigenvalues --- 1000.000001000.000001000.000001000.000001000.00000
     Eigenvalues --- 1000.000001000.000001000.000001000.000001000.00000
     Eigenvalues --- 1000.000001000.000001000.000001000.000001000.00000
     Eigenvalues --- 1000.000001000.000001000.000001000.000001000.00000
     Eigenvalues --- 1000.000001000.000001000.000001000.000001000.00000
     Eigenvalues --- 1000.000001000.000001000.000001000.000001000.00000
     Eigenvalues --- 1000.000001000.000001000.000001000.000001000.00000
     Eigenvalues --- 1000.000001000.000001000.000001000.000001000.00000
     Eigenvalues --- 1000.000001000.000001000.000001000.000001000.00000
     Eigenvalues --- 1000.000001000.000001000.000001000.000001000.00000
     Eigenvalues --- 1000.000001000.000001000.000001000.000001000.00000
     Eigenvalues --- 1000.000001000.000001000.000001000.000001000.00000
 RFO step:  Lambda=-4.40595062D-03 EMin= 6.19723266D-03
 Linear search not attempted -- first point.
 Iteration  1 RMS(Cart)=  0.08336169 RMS(Int)=  0.00140046
 Iteration  2 RMS(Cart)=  0.00430491 RMS(Int)=  0.00005520
 Iteration  3 RMS(Cart)=  0.00000563 RMS(Int)=  0.00005511
 Iteration  4 RMS(Cart)=  0.00000000 RMS(Int)=  0.00005511
 Iteration  1 RMS(Cart)=  0.00001796 RMS(Int)=  0.00000419
 Iteration  2 RMS(Cart)=  0.00000997 RMS(Int)=  0.00000468
 Iteration  3 RMS(Cart)=  0.00000554 RMS(Int)=  0.00000529
 Iteration  4 RMS(Cart)=  0.00000308 RMS(Int)=  0.00000571
 Iteration  5 RMS(Cart)=  0.00000171 RMS(Int)=  0.00000596
 Iteration  6 RMS(Cart)=  0.00000095 RMS(Int)=  0.00000610
 Variable       Old X    -DE/DX   Delta X   Delta X   Delta X     New X
                                 (Linear)    (Quad)   (Total)
    R1        2.68641   0.00288   0.00000   0.00663   0.00664   2.69304
    R2        2.87155   0.00028   0.00000   0.00115   0.00117   2.87272
    R3        2.05010   0.00630   0.00000   0.01756   0.01756   2.06766
    R4        2.04318   0.00442   0.00000   0.01217   0.01217   2.05535
    R5        2.65113   0.00400   0.00000   0.00843   0.00845   2.65958
    R6        2.89053  -0.00146   0.00000  -0.00474  -0.00475   2.88578
    R7        2.88909  -0.00062   0.00000  -0.00156  -0.00158   2.88751
    R8        2.05332   0.00342   0.00000   0.00959   0.00959   2.06292
    R9        2.05169   0.00258   0.00000   0.00722   0.00722   2.05890
   R10        2.67616   0.00316   0.00000   0.00802   0.00805   2.68421
   R11        2.66922   0.00387   0.00000   0.00865   0.00868   2.67790
   R12        2.87656  -0.00073   0.00000  -0.00267  -0.00268   2.87388
   R13        2.64137   0.00247   0.00000   0.00531   0.00531   2.64668
   R14        2.03988   0.00812   0.00000   0.02225   0.02225   2.06213
   R15        2.05342   0.00335   0.00000   0.00940   0.00940   2.06282
   R16        2.04947   0.00316   0.00000   0.00881   0.00881   2.05828
   R17        2.89045  -0.00073   0.00000  -0.00229  -0.00232   2.88813
   R18        2.87034   0.00056   0.00000   0.00211   0.00212   2.87246
   R19        2.05209   0.00298   0.00000   0.00834   0.00834   2.06043
   R20        2.05436   0.00315   0.00000   0.00886   0.00886   2.06323
   R21        2.69055  -0.00001   0.00000  -0.00002  -0.00002   2.69053
   R22        2.88193  -0.00103   0.00000  -0.00445  -0.00448   2.87745
   R23        2.05685   0.00395   0.00000   0.01115   0.01115   2.06800
   R24        2.05100   0.00293   0.00000   0.00819   0.00819   2.05919
   R25        2.04356   0.00437   0.00000   0.01205   0.01205   2.05560
   R26        2.05536   0.00611   0.00000   0.01719   0.01719   2.07255
   R27        2.89254  -0.00097   0.00000  -0.00352  -0.00353   2.88901
   R28        2.04880   0.00591   0.00000   0.01646   0.01646   2.06526
   R29        2.03755   0.00566   0.00000   0.01543   0.01543   2.05298
   R30        2.05088   0.00717   0.00000   0.02003   0.02003   2.07091
   R31        2.05288   0.00282   0.00000   0.00791   0.00791   2.06080
   R32        2.05522   0.00328   0.00000   0.00922   0.00922   2.06444
    A1        1.94359   0.00221   0.00000   0.00569   0.00566   1.94925
    A2        1.90863   0.00019   0.00000   0.00157   0.00162   1.91025
    A3        1.84210  -0.00130   0.00000  -0.00214  -0.00215   1.83995
    A4        1.93324  -0.00162   0.00000  -0.00732  -0.00737   1.92586
    A5        1.94589  -0.00020   0.00000  -0.00168  -0.00162   1.94427
    A6        1.88737   0.00073   0.00000   0.00423   0.00422   1.89159
    A7        2.02188  -0.00580   0.00000  -0.03639  -0.03628   1.98561
    A8        1.91466   0.00199   0.00000  -0.00084  -0.00084   1.91381
    A9        1.92233  -0.00101   0.00000  -0.00671  -0.00672   1.91562
   A10        1.91568  -0.00058   0.00000   0.00140   0.00139   1.91706
   A11        1.91440  -0.00087   0.00000  -0.00174  -0.00183   1.91257
   A12        1.92964  -0.00025   0.00000   0.00200   0.00206   1.93170
   A13        1.86670   0.00067   0.00000   0.00598   0.00598   1.87268
   A14        1.98759  -0.00434   0.00000  -0.02665  -0.02655   1.96104
   A15        1.93822   0.00355   0.00000   0.01430   0.01413   1.95235
   A16        1.95101   0.00004   0.00000  -0.00344  -0.00330   1.94771
   A17        1.83612  -0.00256   0.00000  -0.01535  -0.01535   1.82076
   A18        1.88476  -0.00286   0.00000  -0.01266  -0.01257   1.87219
   A19        1.92730   0.00014   0.00000   0.00473   0.00480   1.93210
   A20        1.92689   0.00183   0.00000   0.01314   0.01312   1.94001
   A21        1.95309  -0.00188   0.00000  -0.01567  -0.01578   1.93731
   A22        1.90998   0.00126   0.00000   0.00727   0.00734   1.91732
   A23        1.94717  -0.00021   0.00000  -0.00090  -0.00100   1.94617
   A24        1.87225   0.00009   0.00000   0.00340   0.00339   1.87564
   A25        1.90214   0.00085   0.00000  -0.00016  -0.00014   1.90200
   A26        1.87613  -0.00002   0.00000   0.00714   0.00711   1.88324
   A27        1.92257  -0.00121   0.00000  -0.00605  -0.00610   1.91647
   A28        1.93018  -0.00022   0.00000  -0.00008  -0.00007   1.93012
   A29        1.91953   0.00080   0.00000   0.00104   0.00105   1.92057
   A30        1.91316   0.00068   0.00000   0.00460   0.00462   1.91778
   A31        1.90245   0.00006   0.00000  -0.00220  -0.00220   1.90026
   A32        1.87518  -0.00007   0.00000   0.00290   0.00290   1.87807
   A33        2.14164  -0.01849   0.00000  -0.07268  -0.07268   2.06897
   A34        1.93064   0.00141   0.00000  -0.00376  -0.00382   1.92682
   A35        1.91660  -0.00053   0.00000   0.00171   0.00168   1.91827
   A36        1.93420   0.00033   0.00000   0.00686   0.00688   1.94108
   A37        1.89761  -0.00085   0.00000  -0.00614  -0.00613   1.89148
   A38        1.90849  -0.00081   0.00000  -0.00237  -0.00234   1.90615
   A39        1.87512   0.00040   0.00000   0.00366   0.00363   1.87875
   A40        1.92951   0.00199   0.00000   0.01026   0.01030   1.93981
   A41        1.85551  -0.00123   0.00000  -0.00431  -0.00431   1.85120
   A42        1.90305   0.00063   0.00000   0.00657   0.00659   1.90964
   A43        1.94807  -0.00026   0.00000  -0.00313  -0.00315   1.94492
   A44        1.93312  -0.00166   0.00000  -0.00984  -0.00987   1.92324
   A45        1.89230   0.00056   0.00000   0.00081   0.00078   1.89308
   A46        1.90391   0.00149   0.00000   0.00852   0.00838   1.91229
   A47        2.02808  -0.00270   0.00000  -0.02095  -0.02090   2.00718
   A48        1.83324   0.00104   0.00000   0.01397   0.01390   1.84715
   A49        1.93115  -0.00048   0.00000  -0.00268  -0.00270   1.92845
   A50        1.89739   0.00104   0.00000   0.00329   0.00322   1.90061
   A51        1.86362  -0.00013   0.00000  -0.00024  -0.00019   1.86343
   A52        1.89947   0.00166   0.00000   0.01010   0.01015   1.90962
   A53        1.85699  -0.00010   0.00000   0.01153   0.01155   1.86854
   A54        1.90441   0.00139   0.00000   0.01201   0.01208   1.91649
   A55        1.94538  -0.00108   0.00000  -0.00988  -0.01003   1.93534
   A56        1.95295  -0.00223   0.00000  -0.01731  -0.01744   1.93551
   A57        1.90181   0.00051   0.00000  -0.00442  -0.00471   1.89710
   A58        1.92407  -0.00093   0.00000  -0.00437  -0.00457   1.91950
   A59        1.90358   0.00056   0.00000   0.00325   0.00329   1.90687
   A60        1.90473   0.00003   0.00000  -0.00146  -0.00140   1.90332
   A61        1.93920  -0.00054   0.00000  -0.00214  -0.00211   1.93709
   A62        1.91575   0.00090   0.00000   0.00170   0.00178   1.91753
   A63        1.87560   0.00000   0.00000   0.00323   0.00320   1.87880
    D1       -1.00743   0.00055   0.00000  -0.01379  -0.01366  -1.02109
    D2        1.13488   0.00011   0.00000  -0.01816  -0.01808   1.11680
    D3       -3.12168   0.00036   0.00000  -0.01361  -0.01352  -3.13520
    D4        0.95364   0.00134   0.00000   0.01842   0.01847   0.97212
    D5        3.08724   0.00044   0.00000   0.01508   0.01507   3.10231
    D6       -1.15165   0.00078   0.00000   0.01997   0.01999  -1.13166
    D7       -1.17447   0.00070   0.00000   0.01760   0.01766  -1.15681
[...]
 008537,-0.00076126,-0.00077656,-0.00058269,-0.00000184,-0.00000061,-0.
 00000891,0.00000360,0.00000260,-0.00000168,-0.00000328,-0.00000421,-0.
 00000113,0.00000163,-0.00000052,0.00000237,-0.00000390,0.00000099,-0.0
 0000069,-0.00000717,-0.00000435,0.00001184,-0.00001085,0.00000249,0.00
 000166,-0.00000011,0.00000119,-0.00000122,0.00043111,-0.00044962,0.000
 40940,-0.00024420,-0.00094528,0.00082811,-0.00030554,0.00017068,0.0002
 7283,-0.00073286,0.00034873,0.00028636,-0.05403559,0.02579219,0.064360
 86,-0.00000882,-0.00000495,-0.00001437,0.00001765,0.00000046,0.0000255
 5,0.00000312,-0.00000420,-0.00000140,-0.00714457,-0.01281086,-0.027494
 41,-0.00000921,0.00000943,-0.00004953,0.00000118,0.00000371,0.00001489
 ,0.00124562,0.00092400,-0.00427525,-0.00004002,0.00024367,-0.00000514,
 0.00041288,-0.00052543,-0.00087256,-0.05699501,0.00763503,0.02996358,-
 0.00052663,0.00006267,0.00019247,0.00388742,-0.00132980,-0.00461285,0.
 00000166,-0.00000028,0.00000289,-0.00000013,-0.00000035,0.00000096,0.0
 0000178,0.00000119,0.00000131,0.00000014,0.00000056,0.00000046,0.00000
 234,0.,0.00000128,0.00001669,0.00000545,0.00002726,-0.00000115,-0.0000
 0066,-0.00000075,0.00000023,-0.00000200,-0.00000048,0.00025363,0.00001
 364,0.00015994,0.00101092,0.00034217,-0.00055263,0.00012857,0.00013102
 ,0.00004967,0.00005546,-0.00007283,0.00011175,-0.00073000,0.00269572,0
 .02764997,0.05783850,0.00004309,0.00002048,0.00004783,-0.00012264,-0.0
 0001650,0.00000269,-0.00000640,0.00000738,0.00000918,-0.01044427,-0.01
 170925,-0.03028533,0.00011820,0.00002108,-0.00006574,-0.00000981,-0.00
 001649,-0.00001022,-0.00266083,0.00289674,0.03076923,-0.00013582,0.000
 29888,-0.00002455,-0.00110645,0.00154483,0.00015484,0.00531839,-0.0513
 6710,-0.02265808,-0.00023356,-0.00037818,0.00037642,0.00403883,-0.0000
 8911,-0.00090877,-0.00000176,-0.00000084,-0.00000961,0.00000344,0.0000
 0063,-0.00000063,-0.00000545,-0.00000511,-0.00000312,0.00000273,-0.000
 00210,0.00000186,-0.00000747,0.00000071,-0.00000382,-0.00000537,-0.000
 01393,-0.00002066,-0.00001059,0.00000156,0.00000221,-0.00000087,0.0000
 0234,-0.00000063,-0.00033815,0.00109873,-0.00099105,0.00160923,-0.0048
 8466,0.00316250,0.00025198,-0.00013647,-0.00059202,-0.00022098,-0.0000
 0982,-0.00036668,0.00170511,-0.00035839,-0.01246168,0.00254755,0.06283
 494,0.00006165,0.00002736,0.00006227,-0.00017728,-0.00005440,0.0000143
 5,-0.00000425,0.00000864,0.00001134,-0.00909426,-0.01168716,-0.0109500
 7,0.00016839,0.00008078,-0.00022320,-0.00001326,-0.00002615,0.00001127
 ,0.00346392,-0.00068324,-0.01677399,-0.00051543,0.00016785,0.00008704,
 0.00029440,-0.00112734,0.00068313,0.02634962,-0.02373526,-0.28901724,0
 .00003095,-0.00022996,0.00019947,0.00226098,0.00043852,0.00116935,-0.0
 0000173,-0.00000008,-0.00001294,0.00000370,0.00000360,0.00000003,-0.00
 000743,-0.00000803,-0.00000268,0.00000374,-0.00000301,0.00000462,-0.00
 001050,0.00000107,-0.00000439,-0.00002306,-0.00001647,-0.00000372,-0.0
 0002082,0.00000615,0.00000511,-0.00000177,0.00000335,-0.00000205,0.000
 14388,0.00039382,0.00026382,-0.00054966,0.00299218,-0.00036806,-0.0007
 3120,0.00024405,0.00022440,0.00002889,0.00017248,0.00033537,0.00162525
 ,-0.00002435,-0.00521867,-0.02183597,0.03267043,0.31900316,0.00037323,
 0.00006551,0.00060405,-0.00036244,-0.00126843,-0.00051389,0.00002220,0
 .00006032,0.00014971,0.00130509,-0.00018898,-0.00059113,0.00036279,0.0
 0737718,-0.00093937,-0.00070423,-0.00080119,0.00129256,0.00138882,0.00
 012365,-0.00044753,-0.02246218,0.00792190,0.03908275,0.00102467,-0.005
 35749,-0.02168688,-0.00028558,-0.00022665,-0.00011837,-0.04428771,-0.0
 0097052,0.00234103,0.00091369,-0.00057269,-0.00538163,0.00002498,0.000
 08366,-0.00013793,0.00009833,0.00007237,-0.00022924,-0.00004425,-0.000
 04749,-0.00008616,0.00001836,-0.00002257,-0.00005270,-0.00008474,0.000
 00595,-0.00007806,-0.00038978,-0.00019188,0.00058122,-0.00057845,0.000
 22201,-0.00000008,0.00004708,-0.00005144,-0.00002558,0.00017575,-0.000
 04474,0.00023744,-0.00026782,-0.00001233,0.00038097,-0.00259219,-0.003
 39300,-0.00103165,0.00073572,0.00041456,0.00079833,-0.00001444,0.00006
 136,-0.00004796,-0.00001940,-0.00002363,0.00014816,0.06554002,-0.00010
 375,0.00001017,0.00015241,0.00001811,0.00063671,0.00011580,-0.00001996
 ,-0.00001547,-0.00002308,-0.00182051,0.00155014,-0.00166191,-0.0011509
 0,-0.00293638,0.00113201,0.00020499,0.00022235,-0.00043161,0.00098525,
 0.00048870,0.00001515,0.01028784,0.00030425,-0.01193960,-0.00222861,-0
 .00671275,-0.02699546,-0.00015303,-0.00022021,0.00000772,-0.00068088,-
 0.05939566,-0.04568254,-0.00026924,0.00184931,0.03231156,-0.00002073,0
 .00000381,-0.00003980,0.00012382,0.00004157,-0.00010635,0.00002361,0.0
 0001948,-0.00001153,-0.00000444,0.00000269,0.00000405,0.00002451,-0.00
 000860,0.00001307,0.00018695,0.00004489,-0.00042346,0.00018579,-0.0000
 5494,0.00000626,-0.00000979,0.00002557,-0.00000015,0.00000615,-0.00005
 645,0.00041699,-0.00037024,0.00029550,0.00043165,-0.00354189,-0.003003
 00,-0.00133235,0.00093760,0.00102822,0.00026198,0.00002261,0.00009149,
 -0.00003530,-0.00007107,-0.00008275,-0.00001823,-0.00436050,0.06880900
 ,-0.00014816,-0.00001839,-0.00015023,0.00039160,0.00054200,0.00003133,
 0.00003949,-0.00009728,-0.00000552,-0.00058883,-0.00090521,0.00240855,
 -0.00156971,-0.00245406,0.00232656,0.00015211,0.00031838,-0.00032650,0
 .00004295,0.00004267,0.00001046,0.00944424,-0.00152251,-0.00229257,-0.
 00065558,-0.00232593,-0.00825588,-0.00002153,0.00012869,0.00012669,0.0
 0796940,-0.04619245,-0.29574172,0.00076713,-0.00131012,-0.01983210,-0.
 00001612,-0.00001016,0.00003050,0.00032077,0.00009629,-0.00011289,0.00
 002140,0.00003101,0.00001928,0.00002225,0.00002275,-0.00006326,0.00006
 184,0.00001333,0.00001835,-0.00017351,0.00004879,0.00004321,0.00018369
 ,-0.00006881,-0.00001678,-0.00003046,0.00001636,0.00001547,-0.00022589
 ,0.00003792,0.00021400,-0.00048266,0.00022697,0.00010198,-0.00083591,-
 0.00099725,0.00088561,-0.00000298,-0.00017506,0.00082462,-0.00004261,0
 .00001899,-0.00001594,0.00018390,-0.00004754,-0.00010117,-0.01433948,0
 .05161128,0.31934511,-0.00058367,0.00002501,0.00026884,-0.00474856,0.0
 0068758,0.00139545,0.00005703,0.00000423,-0.00001186,-0.03323188,-0.02
 447772,-0.00938184,0.00028963,0.00070854,0.00025570,-0.00007267,-0.000
 00204,0.00003276,-0.00058763,-0.00016608,-0.00025813,0.00069960,-0.001
 67167,-0.00008197,-0.00029350,0.00224983,-0.00122123,-0.00280285,0.004
 35887,0.00312914,0.00737948,0.00614366,0.00374804,-0.13125115,-0.11735
 384,-0.04792408,-0.00007061,0.00004083,-0.00013051,0.00013401,0.000044
 21,-0.00022521,0.00002663,-0.00009218,0.00000444,-0.00000912,0.0000004
 6,0.00000058,0.00000990,-0.00003126,0.00000683,0.00005591,-0.00007275,
 -0.00000749,0.00000968,-0.00000321,-0.00000281,0.00001707,-0.00002116,
 -0.00000400,0.00011167,-0.00023768,0.00009820,0.00006141,-0.00002610,0
 .00003253,-0.00010677,-0.00011466,-0.00005848,0.00054289,0.00061421,-0
 .00002885,-0.00123126,-0.00118950,-0.00027973,0.00012423,0.00001723,-0
 .00022307,0.00016586,-0.00049801,0.00020188,0.16263271,0.00094487,0.00
 034150,0.00050403,-0.00174755,0.00161911,0.00066604,0.00000244,-0.0000
 5024,0.00003462,0.00861458,0.01179843,0.00422503,-0.00020216,-0.001909
 73,-0.00008911,0.00013098,0.00022420,-0.00011268,0.00070449,0.00017769
 ,-0.00010523,0.00125142,0.00147765,-0.00063319,0.00279731,-0.00337621,
 0.00419436,0.00261855,0.00032191,-0.00023994,-0.01767192,-0.02070847,-
 0.00964078,-0.12519062,-0.21577169,-0.06558163,-0.00008277,-0.00007835
 ,-0.00003070,0.00013462,-0.00007601,0.00006625,0.00000712,-0.00011366,
 -0.00001941,0.00000369,0.00000129,-0.00001284,-0.00001120,0.00002409,-
 0.00000062,-0.00002801,0.00002160,0.00008794,0.00003882,-0.00001503,-0
 .00000799,-0.00004974,0.00007914,-0.00000281,-0.00018058,0.00012937,-0
 .00008650,-0.00009245,0.00004719,0.00003389,0.00021042,0.00026103,-0.0
 0002333,-0.00127600,-0.00133352,-0.00024377,0.00045050,0.00036239,0.00
 007097,0.00002373,-0.00003698,0.00005273,0.00004548,0.00149220,0.00002
 389,0.12987027,0.22613938,0.00029411,0.00014811,0.00071300,-0.00068146
 ,0.00049795,-0.00000131,0.00003487,-0.00005155,0.00000724,0.00792813,0
 .00699011,0.00362188,-0.00036835,-0.00080275,-0.00037347,0.00008672,0.
 00013684,0.00013456,-0.00002565,0.00003676,0.00005078,0.00000574,-0.00
 114686,0.00015575,-0.00136144,0.00209100,-0.00115647,0.00080586,-0.000
 26414,-0.00009034,0.01056073,0.01477667,0.00492123,-0.05210351,-0.0667
 7303,-0.07982074,-0.00004804,0.00002579,-0.00015377,0.00001398,0.00003
 416,-0.00022448,0.00002546,-0.00004438,-0.00002803,-0.00000294,0.00000
 586,-0.00000501,0.00000239,0.00000348,0.00000867,0.00005876,0.00007872
 ,0.00017910,0.00000052,0.00000071,-0.00000313,-0.00003740,0.00003382,-
 0.00000052,0.00000032,0.00000441,-0.00002956,0.00002852,-0.00005133,-0
 .00001469,0.00012538,0.00032785,0.00024202,0.00038727,0.00070009,0.000
 30920,0.00009083,0.00007402,0.00039006,0.00024467,0.00029169,0.0004648
 5,0.00048114,-0.00066361,0.00099656,0.05068833,0.06738842,0.07786576,-
 0.00006677,-0.00007175,-0.00030936,0.00047847,0.00001711,0.00021256,0.
 00001695,-0.00003793,-0.00004019,-0.02196466,0.00781476,0.03798609,-0.
 00120299,0.00094073,-0.00044127,0.00000572,0.00003219,0.00010781,-0.00
 047668,-0.00040874,-0.00039384,0.00036807,-0.00103881,0.00110746,0.000
 00720,-0.00039716,0.00060177,0.00384552,0.00362793,0.00469526,0.002541
 16,-0.00210861,-0.00867868,-0.04793605,-0.00302974,0.00566840,0.000012
 21,0.00000667,0.00009709,0.00001388,-0.00001041,0.00009857,0.00002797,
 0.00001877,0.00002081,-0.00000013,0.00000086,-0.00000048,0.00001664,-0
 .00000144,0.00001961,-0.00180616,0.00122881,0.00024825,-0.00000536,0.0
 0000383,-0.00000873,0.00000591,-0.00001446,-0.00000190,0.00010816,-0.0
 0028201,0.00000952,-0.00005566,0.00008819,-0.00013861,0.00017465,0.000
 10056,0.00026292,-0.00007992,0.00000995,0.00005845,0.00011296,0.000065
 07,-0.00034747,0.00047122,-0.00031371,-0.00136275,-0.00007241,0.002268
 16,-0.00070638,0.00259297,-0.00122567,-0.01722393,0.06285579,-0.000013
 82,-0.00004935,-0.00002842,0.00033418,-0.00015185,-0.00004952,-0.00004
 606,0.00004293,0.00003685,0.00785286,0.00007445,-0.01264137,0.00076346
 ,-0.00026589,0.00002241,-0.00004625,-0.00001587,-0.00019919,0.00011268
 ,-0.00016866,0.00008914,-0.00027598,0.00108678,-0.00162320,0.00034792,
 0.00221054,0.00035590,-0.00181402,-0.00052240,0.00129373,-0.00213460,0
 .00330616,0.03005585,-0.00231792,-0.05607341,-0.02445716,0.00001329,-0
 .00001672,0.00003170,0.00000937,-0.00002625,0.00005575,0.00000218,-0.0
 0000205,-0.00001824,0.00000087,-0.00000024,0.00000430,-0.00001518,-0.0
 0000144,-0.00001350,0.00178257,-0.00063893,-0.00036502,0.00002571,-0.0
 0001718,0.00000423,0.00000327,0.00000465,-0.00000192,-0.00005244,0.000
 10206,-0.00004684,0.00001484,-0.00002710,-0.00013429,-0.00002154,-0.00
 029467,-0.00063341,0.00017205,0.00007137,-0.00043906,0.00008023,-0.000
 01098,0.00012077,0.00018300,0.00037801,0.00034885,0.00111771,-0.004426
 97,0.00293760,0.00121473,-0.00111506,-0.02386070,-0.00728136,0.0565451
 2,0.00002191,-0.00010031,-0.00029501,-0.00005606,-0.00032039,0.0004949
 6,0.00016272,-0.00011956,-0.00008261,0.01266837,-0.00452234,-0.0064945
 3,0.00064273,-0.00002365,-0.00221944,0.00004968,0.00016261,0.00067113,
 0.00022328,-0.00000284,0.00014387,-0.00113503,0.00073646,0.00095898,-0
 .00027882,-0.00080538,0.00077656,-0.00185353,-0.00045169,0.00145615,0.
 00032246,-0.00304411,-0.01739021,0.00830353,-0.02438781,-0.29525354,0.
 00003267,-0.00003296,0.00009482,0.00002341,-0.00000554,0.00008510,0.00
 001683,0.00001630,0.00003874,-0.00000070,-0.00000588,0.00002861,0.0000
 5129,0.00001063,0.00006423,0.00121685,-0.00040550,0.00113469,-0.000058
 90,0.00003159,-0.00000541,0.00000900,-0.00003617,-0.00001031,0.0000891
 0,0.00008284,-0.00002780,-0.00015939,-0.00007525,-0.00014102,0.0005170
 1,0.00055103,0.00040774,-0.00014518,0.00009609,0.00027262,0.00016440,0
 .00014449,0.00047000,0.00108491,0.00096176,0.00013912,-0.00038186,0.00
 288961,-0.00047852,-0.00000931,-0.00050397,-0.00814914,-0.02154495,0.0
 2915529,0.32331037,-0.01175812,-0.00837506,-0.02369879,-0.00742115,0.0
 0267509,-0.00187312,-0.00359307,-0.00148512,-0.00377524,-0.00018176,-0
 .00001513,0.00000608,0.00116531,0.00223446,0.00013303,0.00103406,-0.00
 119485,0.00064408,-0.00000390,-0.00003155,-0.00001951,-0.00050550,-0.0
 0035335,0.00039796,-0.00004087,0.00003328,0.00002051,0.00003279,0.0000
 4855,0.00003937,0.00033009,-0.00003991,-0.00012001,0.00010424,0.000026
 24,0.00001395,-0.12357818,-0.02590686,-0.11476672,0.00079885,-0.000716
 13,0.00071954,0.00084106,0.00030441,0.00010794,0.00004115,0.00017576,-
 0.00002611,0.00031744,-0.00018255,0.00030805,-0.00003165,-0.00022152,-
 0.00004804,-0.00010027,0.00000394,-0.00030746,0.00002350,0.00008417,-0
 .00034952,-0.00001826,-0.00000236,0.00000162,-0.00000331,0.00000296,0.
 00000427,0.00000620,0.00000431,-0.00000069,-0.00000218,-0.00000838,0.0
 0000294,-0.00001576,-0.00000455,-0.00000470,0.00000134,-0.00000618,-0.
 00000818,-0.00004697,0.00000760,0.00002892,0.00001901,-0.00005567,-0.0
 0003523,0.00002933,-0.00000094,0.00002924,0.13235810,0.00594960,0.0040
 3133,0.01531891,0.00595979,-0.00036609,0.00144841,-0.01850270,-0.00543
 375,-0.02816932,0.00004527,0.00004467,-0.00000288,0.00045022,-0.002087
 30,-0.00003483,-0.00068899,-0.00704627,0.00100669,-0.00000014,-0.00000
 524,0.00000056,-0.00008012,0.00041239,-0.00008769,-0.00000816,0.000014
 81,-0.00000038,0.00000036,-0.00001712,-0.00000762,0.00001547,-0.000034
 95,0.00002705,-0.00005105,-0.00007248,-0.00001067,-0.02583735,-0.05611
 216,-0.04173314,-0.00042121,0.00058165,-0.00033860,-0.00105093,0.00010
 475,-0.00002447,0.00017452,0.00151313,0.00053880,0.00078440,0.00135687
 ,0.00010344,-0.00007369,0.00034967,0.00008630,0.00023090,0.00005654,0.
 00003331,-0.00151967,-0.00029151,-0.00156989,-0.00000232,0.00000238,-0
 .00000046,-0.00000085,0.00000074,0.,0.00000317,-0.00000020,-0.00000024
 ,0.00000252,0.00000086,-0.00000023,0.00000410,0.00000410,0.00000127,-0
 .00000018,0.00000119,0.00000156,-0.00002134,0.00000961,0.00000710,0.00
 001049,0.00003621,0.00002379,-0.00001223,-0.00000350,-0.00000283,0.029
 04783,0.06194158,0.00205870,0.00054034,0.00016595,-0.00030824,-0.00033
 758,0.00159567,0.00076691,0.00047530,-0.00053987,-0.00007783,0.0000005
 9,-0.00000544,0.00068666,0.00030404,-0.00012634,0.00008927,-0.00067560
 ,0.00133301,-0.00000203,-0.00001633,-0.00000976,-0.00028516,-0.0000613
 1,0.00011750,-0.00002104,0.00001873,0.00001174,0.00001481,0.00002045,0
 .00001725,0.00016949,-0.00001296,-0.00004682,0.00003604,0.00000662,0.0
 0001668,-0.11716330,-0.04208115,-0.23080801,-0.00046687,0.00036080,0.0
 0033444,-0.00032709,0.00024204,0.00007419,-0.00000470,-0.00041016,0.00
 064152,0.00011238,-0.00030491,-0.00008010,-0.00002778,0.00005231,-0.00
 005264,0.00020885,0.00010332,0.00034362,-0.00039187,0.00010668,-0.0000
 5820,-0.00000961,-0.00000072,0.00000060,-0.00000090,0.00000134,0.00000
 199,0.00000302,0.00000182,-0.00000143,-0.00000069,-0.00000375,0.000001
 09,-0.00000701,-0.00000147,-0.00000175,0.00000062,-0.00000271,-0.00000
 381,-0.00002437,0.00000910,0.00001669,0.00001098,-0.00002660,-0.000008
 70,0.00000367,-0.00000140,0.00000809,0.12837738,0.04618978,0.24702115,
 -0.01839941,-0.00688561,0.02538063,0.00301837,-0.00059636,-0.00060761,
 -0.00330989,-0.00178164,0.00437919,-0.00004918,0.00000815,-0.00001089,
 -0.00026776,0.00000736,0.00016607,-0.00010039,0.00013559,0.00054069,0.
 00000038,-0.00001016,-0.00000479,-0.00005126,-0.00013891,-0.00019947,-
 0.00000957,0.00001005,0.00000142,0.00001224,0.00001323,0.00001241,0.00
 019039,0.00000894,-0.00003485,0.00005946,-0.00001080,0.00000311,-0.122
 11453,-0.04090428,0.10749032,-0.00425921,0.00324908,-0.00020952,0.0013
 4400,-0.00019838,-0.00060755,0.00076971,-0.00100014,-0.00009986,0.0004
 9390,-0.00005291,-0.00042226,-0.00005944,-0.00003480,-0.00000640,-0.00
 017115,-0.00018581,-0.00025280,0.00008824,0.00002214,-0.00015704,-0.00
 000711,-0.00000051,0.00000034,-0.00000116,0.00000147,0.00000124,-0.000
 00167,-0.00000197,-0.00000110,-0.00000093,-0.00000410,0.00000054,-0.00
 000461,-0.00000045,-0.00000077,0.00000036,-0.00000187,-0.00000292,0.00
 001601,0.00002055,0.00000825,0.00005996,-0.00003495,0.00002425,-0.0000
 1799,-0.00001080,-0.00000569,0.01019848,0.00559232,-0.01342028,0.13257
 378,0.01154963,0.00426244,-0.01725227,-0.00189490,0.00024142,0.0005141
 9,-0.01818622,-0.01222989,0.02753421,0.00000853,0.00001638,0.00000378,
 -0.00000564,-0.00047835,-0.00009017,0.00062183,0.00145113,0.00109123,-
 0.00000039,-0.00000280,-0.00000090,-0.00000004,0.00025975,0.00007394,-
 0.00001097,0.00000745,0.00000578,0.00000017,-0.00000460,-0.00000248,-0
 .00005024,-0.00001029,-0.00007974,-0.00005345,-0.00002339,0.00000293,-
 0.04106235,-0.06878423,0.05997342,0.00383119,-0.00116915,0.00043951,-0
 .00086807,0.00084140,-0.00030132,-0.00157059,-0.00625047,-0.00113521,0
 .00067853,0.00142973,-0.00003144,-0.00008544,0.00010376,0.00000981,-0.
 00005357,0.00010728,-0.00081771,0.00044749,0.00008211,-0.00023405,-0.0
 0000060,0.00000097,0.00000022,-0.00000067,0.00000045,-0.00000018,0.000
 00382,0.00000233,-0.00000075,0.00000235,0.00000229,0.00000042,0.000001
 53,0.00000076,0.00000024,-0.00000040,0.00000017,0.00000023,-0.00001680
 ,-0.00001247,0.00000075,-0.00003230,0.00003057,-0.00001187,0.00001047,
 0.00000645,0.00000748,0.00395153,0.00100809,-0.00449661,0.04278559,0.0
 7911072,-0.00021830,-0.00025854,-0.00277279,0.00043930,0.00046780,0.00
 200221,-0.00188434,-0.00006960,0.00133393,0.00006005,-0.00001232,-0.00
 000227,-0.00018704,-0.00043849,0.00004058,-0.00033766,-0.00023632,0.00
 090667,0.00000372,0.00001574,0.00000853,0.00036361,0.00013812,-0.00009
 600,0.00002010,-0.00001818,-0.00000908,-0.00001497,-0.00001317,-0.0000
 1456,-0.00021922,0.00005340,0.00004722,-0.00004224,0.00001970,0.000003
 41,0.10967706,0.05918924,-0.21321984,0.00001905,-0.00056191,0.00130076
 ,0.00016472,-0.00042130,0.00027423,-0.00055764,-0.00046216,0.00125618,
 -0.00006544,0.00048477,0.00030588,0.00008730,0.00004540,-0.00000942,0.
 00038573,-0.00000233,0.00014987,0.00006902,0.00008623,0.00015949,0.000
 00896,0.00000019,-0.00000038,0.00000090,-0.00000143,-0.00000152,-0.000
 00276,-0.00000237,0.00000114,0.00000033,0.00000247,-0.00000171,0.00000
 504,-0.00000003,0.00000104,-0.00000073,0.00000221,0.00000328,0.0000165
 1,-0.00001366,-0.00002191,-0.00002513,0.00001289,-0.00000130,0.0000003
 0,0.00000083,-0.00000820,0.01419844,0.00719624,-0.01995831,-0.12196466
 ,-0.06520343,0.22832290\\0.00001938,0.00000943,0.00001614,-0.00000167,
 -0.00002836,-0.00000467,-0.00000656,0.00000302,-0.00000400,-0.00000556
 ,-0.00001766,0.00000299,-0.00116060,-0.00235976,-0.00172908,-0.0000125
 0,0.00000165,-0.00000262,0.00000434,-0.00000656,0.00000497,0.00169177,
 0.00383125,0.00171617,-0.00007540,0.00084497,-0.00254507,-0.00000188,0
 .00001701,-0.00000180,-0.00047753,-0.00228432,0.00256236,0.00000768,-0
 .00000235,-0.00000185,-0.00000380,0.00000658,-0.00000110,-0.00000337,-
 0.00000335,-0.00000365,-0.00000074,0.00000170,0.00000009,0.00000016,-0
 .00000276,0.00000580,0.00000062,-0.00000200,-0.00000512,0.00000589,-0.
 00000519,-0.00001155,0.00000171,0.00000069,-0.00000981,0.00000311,0.00
 000274,0.00000470,0.00001029,0.00000143,0.00000151,-0.00000148,0.00000
 057,0.00000645,0.00000048,0.00000056,-0.00000163,0.00000196,-0.0000040
 7,0.00000272,-0.00000393,-0.00000017,0.00000002,0.00000200,0.00000196,
 -0.00000367,0.00000398,-0.00000584,0.00000067,0.00000521,0.00000447,0.
 00000362,-0.00000539,0.00000063,0.00000253,-0.00000079,-0.00000824,-0.
 00000202,0.00000262,0.00000197,-0.00000311\\\@


 A COMPLEXITY IS MERELY A DISARRANGEMENT OF SIMPLICITIES.

                                    -- G. O. ABELL IN "EXPLORATION OF THE UNIVERSE"
 Job cpu time:       0 days 15 hours 33 minutes 44.8 seconds.
 Elapsed time:       0 days  0 hours 58 minutes 23.1 seconds.
 File lengths (MBytes):  RWF=    691 Int=      0 D2E=      0 Chk=     33 Scr=      1
 Normal termination of Gaussian 16 at Sun Nov  4 22:53:29 2018.
