 Entering Gaussian System, Link 0=g16
 Initial command:
 /sw/Projects/G16/g16/l1.exe "/nvme/pbs/tmpdir/pbs.74204[10].flm1/Gau-12852.inp" -scrdir="/nvme/pbs/tmpdir/pbs.74204[10].flm1/"
 Entering Link 1 = /sw/Projects/G16/g16/l1.exe PID=     12853.
  
 Copyright (c) 1988-2017, Gaussian, Inc.  All Rights Reserved.
  
 This is part of the Gaussian(R) 16 program.  It is based on
 the Gaussian(R) 09 system (copyright 2009, Gaussian, Inc.),
 the Gaussian(R) 03 system (copyright 2003, Gaussian, Inc.),
 the Gaussian(R) 98 system (copyright 1998, Gaussian, Inc.),
 the Gaussian(R) 94 system (copyright 1995, Gaussian, Inc.),
 the Gaussian 92(TM) system (copyright 1992, Gaussian, Inc.),
 the Gaussian 90(TM) system (copyright 1990, Gaussian, Inc.),
 the Gaussian 88(TM) system (copyright 1988, Gaussian, Inc.),
 the Gaussian 86(TM) system (copyright 1986, Carnegie Mellon
 University), and the Gaussian 82(TM) system (copyright 1983,
 Carnegie Mellon University). Gaussian is a federally registered
 trademark of Gaussian, Inc.
  
 This software contains proprietary and confidential information,
 including trade secrets, belonging to Gaussian, Inc.
  
 This software is provided under written license and may be
 used, copied, transmitted, or stored only in accord with that
 written license.
  
 The following legend is applicable only to US Government
 contracts under FAR:
  
                    RESTRICTED RIGHTS LEGEND
  
 Use, reproduction and disclosure by the US Government is
 subject to restrictions as set forth in subparagraphs (a)
 and (c) of the Commercial Computer Software - Restricted
 Rights clause in FAR 52.227-19.
  
 Gaussian, Inc.
 340 Quinnipiac St., Bldg. 40, Wallingford CT 06492
  
  
 ---------------------------------------------------------------
 Warning -- This program may not be used in any manner that
 competes with the business of Gaussian, Inc. or will provide
 assistance to any competitor of Gaussian, Inc.  The licensee
 of this program is prohibited from giving any competitor of
 Gaussian, Inc. access to this program.  By using this program,
 the user acknowledges that Gaussian, Inc. is engaged in the
 business of creating and licensing software in the field of
 computational chemistry and represents and warrants to the
 licensee that it is not a competitor of Gaussian, Inc. and that
 it will not use this program in any manner prohibited above.
 ---------------------------------------------------------------
  

 Cite this work as:
 Gaussian 16, Revision B.01,
 M. J. Frisch, G. W. Trucks, H. B. Schlegel, G. E. Scuseria, 
 M. A. Robb, J. R. Cheeseman, G. Scalmani, V. Barone, 
 G. A. Petersson, H. Nakatsuji, X. Li, M. Caricato, A. V. Marenich, 
 J. Bloino, B. G. Janesko, R. Gomperts, B. Mennucci, H. P. Hratchian, 
 J. V. Ortiz, A. F. Izmaylov, J. L. Sonnenberg, D. Williams-Young, 
 F. Ding, F. Lipparini, F. Egidi, J. Goings, B. Peng, A. Petrone, 
 T. Henderson, D. Ranasinghe, V. G. Zakrzewski, J. Gao, N. Rega, 
 G. Zheng, W. Liang, M. Hada, M. Ehara, K. Toyota, R. Fukuda, 
 J. Hasegawa, M. Ishida, T. Nakajima, Y. Honda, O. Kitao, H. Nakai, 
 T. Vreven, K. Throssell, J. A. Montgomery, Jr., J. E. Peralta, 
 F. Ogliaro, M. J. Bearpark, J. J. Heyd, E. N. Brothers, K. N. Kudin, 
 V. N. Staroverov, T. A. Keith, R. Kobayashi, J. Normand, 
 K. Raghavachari, A. P. Rendell, J. C. Burant, S. S. Iyengar, 
 J. Tomasi, M. Cossi, J. M. Millam, M. Klene, C. Adamo, R. Cammi, 
 J. W. Ochterski, R. L. Martin, K. Morokuma, O. Farkas, 
 J. B. Foresman, and D. J. Fox, Gaussian, Inc., Wallingford CT, 2016.
 
 ******************************************
 Gaussian 16:  ES64L-G16RevB.01 20-Dec-2017
                 9-Mar-2019 
 ******************************************
 %mem=20gb
 %nproc=12
 Will use up to   12 processors via shared memory.
 %chk=4c1_b1_e3_4c1_PHI.inp_extract_10.chk
 ----------------------------------------------------------------------
 #M062X/6-311++G(2d,2p) opt=ModRedundant freq=noraman SCRF=(SMD,solvent
 =water)
 ----------------------------------------------------------------------
 1/18=120,19=15,26=3,38=1/1,3;
 2/9=110,12=2,17=6,18=5,40=1/2;
 3/5=4,6=6,7=1212,11=2,25=1,30=1,70=32201,71=1,72=1,74=-55/1,2,3;
 4//1;
 5/5=2,38=5,53=1/2;
 6/7=2,8=2,9=2,10=2,28=1/1;
 7//1,2,3,16;
 1/18=20,19=15,26=3/3(2);
 2/9=110/2;
 99//99;
 2/9=110/2;
 3/5=4,6=6,7=1212,11=2,25=1,30=1,70=32205,71=1,72=1,74=-55/1,2,3;
 4/5=5,16=3,69=1/1;
 5/5=2,38=5,53=1/2;
 7//1,2,3,16;
 1/18=20,19=15,26=3/3(-5);
 2/9=110/2;
 6/7=2,8=2,9=2,10=2,19=2,28=1/1;
 99/9=1/99;
 --------------------------------
 4c1_b1_e3_4c1_PHI.inp_extract_10
 --------------------------------
 Symbolic Z-matrix:
 Charge =  0 Multiplicity = 1
 C                     1.90026  -1.23893   0.40528 
 C                     3.0337    1.18241  -0.61661 
 C                    -1.76795   1.27266   0.13437 
 C                     1.00743  -0.0176    0.2243 
 C                     1.84435   1.25149   0.33213 
 O                    -1.61017  -1.13406   0.08334 
 C                    -3.24947   1.18278  -0.24337 
 O                     3.81461   0.02817  -0.37777 
 C                    -3.51768  -0.11133  -1.01161 
 C                    -1.34149   0.00619   0.86252 
 C                    -2.98393  -1.3015   -0.23134 
 C                     3.08784  -1.173    -0.54577 
 O                     0.00107  -0.02178   1.23107 
 H                     2.25954  -1.26936   1.43052 
 H                     1.33944  -2.14995   0.22087 
 H                     3.68795   2.03196  -0.47881 
 H                     2.69789   1.17621  -1.65135 
 H                    -1.16994   1.39945  -0.76227 
 H                    -1.58378   2.12432   0.78143 
 H                     0.54437  -0.0615   -0.75241 
 H                     1.24615   2.12629   0.09738 
 H                     2.20216   1.35614   1.35302 
 H                    -3.53574   2.04701  -0.83406 
 H                    -3.85646   1.1996    0.65969 
 H                    -3.03044  -0.07369  -1.98296 
 H                    -4.58136  -0.24802  -1.18454 
 H                    -1.88463  -0.07797   1.79703 
 H                    -3.5429   -1.43442   0.69206 
 H                    -3.04935  -2.21682  -0.80254 
 H                     2.75494  -1.24497  -1.57892 
 H                     3.77968  -1.98192  -0.35667 
 
 The following ModRedundant input section has been read:
 D       6      10      13       4 F                                           
 

 GradGradGradGradGradGradGradGradGradGradGradGradGradGradGradGradGradGrad
 Berny optimization.
 Initialization pass.
                           ----------------------------
                           !    Initial Parameters    !
                           ! (Angstroms and Degrees)  !
 --------------------------                            --------------------------
 ! Name  Definition              Value          Derivative Info.                !
 --------------------------------------------------------------------------------
 ! R1    R(1,4)                  1.5237         estimate D2E/DX2                !
 ! R2    R(1,12)                 1.5229         estimate D2E/DX2                !
 ! R3    R(1,14)                 1.0868         estimate D2E/DX2                !
 ! R4    R(1,15)                 1.0856         estimate D2E/DX2                !
 ! R5    R(2,5)                  1.523          estimate D2E/DX2                !
 ! R6    R(2,8)                  1.4139         estimate D2E/DX2                !
 ! R7    R(2,16)                 1.0811         estimate D2E/DX2                !
 ! R8    R(2,17)                 1.0879         estimate D2E/DX2                !
 ! R9    R(3,7)                  1.5316         estimate D2E/DX2                !
 ! R10   R(3,10)                 1.5218         estimate D2E/DX2                !
 ! R11   R(3,18)                 1.0852         estimate D2E/DX2                !
 ! R12   R(3,19)                 1.0853         estimate D2E/DX2                !
 ! R13   R(4,5)                  1.524          estimate D2E/DX2                !
 ! R14   R(4,13)                 1.4235         estimate D2E/DX2                !
 ! R15   R(4,20)                 1.0818         estimate D2E/DX2                !
 ! R16   R(5,21)                 1.0855         estimate D2E/DX2                !
 ! R17   R(5,22)                 1.0868         estimate D2E/DX2                !
 ! R18   R(6,10)                 1.4069         estimate D2E/DX2                !
 ! R19   R(6,11)                 1.4192         estimate D2E/DX2                !
 ! R20   R(7,9)                  1.5287         estimate D2E/DX2                !
 ! R21   R(7,23)                 1.0852         estimate D2E/DX2                !
 ! R22   R(7,24)                 1.0882         estimate D2E/DX2                !
 ! R23   R(8,12)                 1.4139         estimate D2E/DX2                !
 ! R24   R(9,11)                 1.5199         estimate D2E/DX2                !
 ! R25   R(9,25)                 1.0874         estimate D2E/DX2                !
 ! R26   R(9,26)                 1.0863         estimate D2E/DX2                !
 ! R27   R(10,13)                1.3925         estimate D2E/DX2                !
 ! R28   R(10,27)                1.0842         estimate D2E/DX2                !
 ! R29   R(11,28)                1.0876         estimate D2E/DX2                !
 ! R30   R(11,29)                1.0809         estimate D2E/DX2                !
 ! R31   R(12,30)                1.0879         estimate D2E/DX2                !
 ! R32   R(12,31)                1.0811         estimate D2E/DX2                !
 ! A1    A(4,1,12)             110.3701         estimate D2E/DX2                !
 ! A2    A(4,1,14)             109.1606         estimate D2E/DX2                !
 ! A3    A(4,1,15)             110.4746         estimate D2E/DX2                !
 ! A4    A(12,1,14)            109.4229         estimate D2E/DX2                !
 ! A5    A(12,1,15)            109.4575         estimate D2E/DX2                !
 ! A6    A(14,1,15)            107.9101         estimate D2E/DX2                !
 ! A7    A(5,2,8)              111.2915         estimate D2E/DX2                !
 ! A8    A(5,2,16)             110.9504         estimate D2E/DX2                !
 ! A9    A(5,2,17)             110.5921         estimate D2E/DX2                !
 ! A10   A(8,2,16)             106.603          estimate D2E/DX2                !
 ! A11   A(8,2,17)             109.057          estimate D2E/DX2                !
 ! A12   A(16,2,17)            108.2111         estimate D2E/DX2                !
 ! A13   A(7,3,10)             109.8917         estimate D2E/DX2                !
 ! A14   A(7,3,18)             109.6417         estimate D2E/DX2                !
 ! A15   A(7,3,19)             110.9311         estimate D2E/DX2                !
 ! A16   A(10,3,18)            109.7634         estimate D2E/DX2                !
 ! A17   A(10,3,19)            108.6763         estimate D2E/DX2                !
 ! A18   A(18,3,19)            107.9021         estimate D2E/DX2                !
 ! A19   A(1,4,5)              109.7122         estimate D2E/DX2                !
 ! A20   A(1,4,13)             109.1417         estimate D2E/DX2                !
 ! A21   A(1,4,20)             108.9981         estimate D2E/DX2                !
 ! A22   A(5,4,13)             109.9152         estimate D2E/DX2                !
 ! A23   A(5,4,20)             109.4347         estimate D2E/DX2                !
 ! A24   A(13,4,20)            109.6215         estimate D2E/DX2                !
 ! A25   A(2,5,4)              110.3045         estimate D2E/DX2                !
 ! A26   A(2,5,21)             109.403          estimate D2E/DX2                !
 ! A27   A(2,5,22)             109.416          estimate D2E/DX2                !
 ! A28   A(4,5,21)             110.6817         estimate D2E/DX2                !
 ! A29   A(4,5,22)             109.1131         estimate D2E/DX2                !
 ! A30   A(21,5,22)            107.877          estimate D2E/DX2                !
 ! A31   A(10,6,11)            113.7817         estimate D2E/DX2                !
 ! A32   A(3,7,9)              110.0808         estimate D2E/DX2                !
 ! A33   A(3,7,23)             110.04           estimate D2E/DX2                !
 ! A34   A(3,7,24)             109.5108         estimate D2E/DX2                !
 ! A35   A(9,7,23)             110.7524         estimate D2E/DX2                !
 ! A36   A(9,7,24)             109.4064         estimate D2E/DX2                !
 ! A37   A(23,7,24)            106.9917         estimate D2E/DX2                !
 ! A38   A(2,8,12)             112.9264         estimate D2E/DX2                !
 ! A39   A(7,9,11)             110.0767         estimate D2E/DX2                !
 ! A40   A(7,9,25)             109.9391         estimate D2E/DX2                !
 ! A41   A(7,9,26)             110.9971         estimate D2E/DX2                !
 ! A42   A(11,9,25)            109.1686         estimate D2E/DX2                !
 ! A43   A(11,9,26)            109.09           estimate D2E/DX2                !
 ! A44   A(25,9,26)            107.5126         estimate D2E/DX2                !
 ! A45   A(3,10,6)             110.8517         estimate D2E/DX2                !
 ! A46   A(3,10,13)            114.4263         estimate D2E/DX2                !
 ! A47   A(3,10,27)            109.6718         estimate D2E/DX2                !
 ! A48   A(6,10,13)            108.3257         estimate D2E/DX2                !
 ! A49   A(6,10,27)            108.5895         estimate D2E/DX2                !
 ! A50   A(13,10,27)           104.6741         estimate D2E/DX2                !
 ! A51   A(6,11,9)             111.1831         estimate D2E/DX2                !
 ! A52   A(6,11,28)            108.8844         estimate D2E/DX2                !
 ! A53   A(6,11,29)            106.0007         estimate D2E/DX2                !
 ! A54   A(9,11,28)            110.5543         estimate D2E/DX2                !
 ! A55   A(9,11,29)            111.7488         estimate D2E/DX2                !
 ! A56   A(28,11,29)           108.3054         estimate D2E/DX2                !
 ! A57   A(1,12,8)             111.3096         estimate D2E/DX2                !
 ! A58   A(1,12,30)            110.5848         estimate D2E/DX2                !
 ! A59   A(1,12,31)            110.9417         estimate D2E/DX2                !
 ! A60   A(8,12,30)            109.047          estimate D2E/DX2                !
 ! A61   A(8,12,31)            106.615          estimate D2E/DX2                !
 ! A62   A(30,12,31)           108.207          estimate D2E/DX2                !
 ! A63   A(4,13,10)            119.6276         estimate D2E/DX2                !
 ! D1    D(12,1,4,5)           -52.4785         estimate D2E/DX2                !
 ! D2    D(12,1,4,13)         -172.9674         estimate D2E/DX2                !
 ! D3    D(12,1,4,20)           67.334          estimate D2E/DX2                !
 ! D4    D(14,1,4,5)            67.8223         estimate D2E/DX2                !
 ! D5    D(14,1,4,13)          -52.6666         estimate D2E/DX2                !
 ! D6    D(14,1,4,20)         -172.3652         estimate D2E/DX2                !
 ! D7    D(15,1,4,5)          -173.6718         estimate D2E/DX2                !
 ! D8    D(15,1,4,13)           65.8393         estimate D2E/DX2                !
 ! D9    D(15,1,4,20)          -53.8593         estimate D2E/DX2                !
 ! D10   D(4,1,12,8)            55.7019         estimate D2E/DX2                !
 ! D11   D(4,1,12,30)          -65.6764         estimate D2E/DX2                !
 ! D12   D(4,1,12,31)          174.251          estimate D2E/DX2                !
 ! D13   D(14,1,12,8)          -64.4413         estimate D2E/DX2                !
 ! D14   D(14,1,12,30)         174.1805         estimate D2E/DX2                !
 ! D15   D(14,1,12,31)          54.1079         estimate D2E/DX2                !
 ! D16   D(15,1,12,8)          177.4983         estimate D2E/DX2                !
 ! D17   D(15,1,12,30)          56.12           estimate D2E/DX2                !
 ! D18   D(15,1,12,31)         -63.9526         estimate D2E/DX2                !
 ! D19   D(8,2,5,4)            -55.8499         estimate D2E/DX2                !
 ! D20   D(8,2,5,21)          -177.8263         estimate D2E/DX2                !
 ! D21   D(8,2,5,22)            64.1894         estimate D2E/DX2                !
 ! D22   D(16,2,5,4)          -174.378          estimate D2E/DX2                !
 ! D23   D(16,2,5,21)           63.6456         estimate D2E/DX2                !
 ! D24   D(16,2,5,22)          -54.3386         estimate D2E/DX2                !
 ! D25   D(17,2,5,4)            65.5338         estimate D2E/DX2                !
 ! D26   D(17,2,5,21)          -56.4426         estimate D2E/DX2                !
 ! D27   D(17,2,5,22)         -174.4269         estimate D2E/DX2                !
 ! D28   D(5,2,8,12)            59.9047         estimate D2E/DX2                !
 ! D29   D(16,2,8,12)         -178.9876         estimate D2E/DX2                !
 ! D30   D(17,2,8,12)          -62.3706         estimate D2E/DX2                !
 ! D31   D(10,3,7,9)           -52.9846         estimate D2E/DX2                !
 ! D32   D(10,3,7,23)         -175.3234         estimate D2E/DX2                !
 ! D33   D(10,3,7,24)           67.3371         estimate D2E/DX2                !
 ! D34   D(18,3,7,9)            67.7422         estimate D2E/DX2                !
 ! D35   D(18,3,7,23)          -54.5965         estimate D2E/DX2                !
 ! D36   D(18,3,7,24)         -171.936          estimate D2E/DX2                !
 ! D37   D(19,3,7,9)          -173.1829         estimate D2E/DX2                !
 ! D38   D(19,3,7,23)           64.4784         estimate D2E/DX2                !
 ! D39   D(19,3,7,24)          -52.8611         estimate D2E/DX2                !
 ! D40   D(7,3,10,6)            56.1099         estimate D2E/DX2                !
 ! D41   D(7,3,10,13)          178.9655         estimate D2E/DX2                !
 ! D42   D(7,3,10,27)          -63.787          estimate D2E/DX2                !
 ! D43   D(18,3,10,6)          -64.5436         estimate D2E/DX2                !
 ! D44   D(18,3,10,13)          58.3121         estimate D2E/DX2                !
 ! D45   D(18,3,10,27)         175.5595         estimate D2E/DX2                !
 ! D46   D(19,3,10,6)          177.6661         estimate D2E/DX2                !
 ! D47   D(19,3,10,13)         -59.4782         estimate D2E/DX2                !
 ! D48   D(19,3,10,27)          57.7692         estimate D2E/DX2                !
 ! D49   D(1,4,5,2)             52.537          estimate D2E/DX2                !
 ! D50   D(1,4,5,21)           173.7551         estimate D2E/DX2                !
 ! D51   D(1,4,5,22)           -67.6847         estimate D2E/DX2                !
 ! D52   D(13,4,5,2)           172.5556         estimate D2E/DX2                !
 ! D53   D(13,4,5,21)          -66.2263         estimate D2E/DX2                !
 ! D54   D(13,4,5,22)           52.3338         estimate D2E/DX2                !
 ! D55   D(20,4,5,2)           -67.0084         estimate D2E/DX2                !
 ! D56   D(20,4,5,21)           54.2097         estimate D2E/DX2                !
 ! D57   D(20,4,5,22)          172.7699         estimate D2E/DX2                !
 ! D58   D(1,4,13,10)         -123.2612         estimate D2E/DX2                !
 ! D59   D(5,4,13,10)          116.3744         estimate D2E/DX2                !
 ! D60   D(20,4,13,10)          -3.9486         estimate D2E/DX2                !
 ! D61   D(11,6,10,3)          -60.3773         estimate D2E/DX2                !
 ! D62   D(11,6,10,13)         173.3019         estimate D2E/DX2                !
 ! D63   D(11,6,10,27)          60.1641         estimate D2E/DX2                !
 ! D64   D(10,6,11,9)           59.8196         estimate D2E/DX2                !
 ! D65   D(10,6,11,28)         -62.2212         estimate D2E/DX2                !
 ! D66   D(10,6,11,29)        -178.5435         estimate D2E/DX2                !
 ! D67   D(3,7,9,11)            52.4015         estimate D2E/DX2                !
 ! D68   D(3,7,9,25)           -67.8948         estimate D2E/DX2                !
 ! D69   D(3,7,9,26)           173.2824         estimate D2E/DX2                !
 ! D70   D(23,7,9,11)          174.3184         estimate D2E/DX2                !
 ! D71   D(23,7,9,25)           54.0221         estimate D2E/DX2                !
 ! D72   D(23,7,9,26)          -64.8007         estimate D2E/DX2                !
 ! D73   D(24,7,9,11)          -67.9833         estimate D2E/DX2                !
 ! D74   D(24,7,9,25)          171.7205         estimate D2E/DX2                !
 ! D75   D(24,7,9,26)           52.8976         estimate D2E/DX2                !
 ! D76   D(2,8,12,1)           -59.8138         estimate D2E/DX2                !
 ! D77   D(2,8,12,30)           62.4573         estimate D2E/DX2                !
 ! D78   D(2,8,12,31)          179.0709         estimate D2E/DX2                !
 ! D79   D(7,9,11,6)           -54.7724         estimate D2E/DX2                !
 ! D80   D(7,9,11,28)           66.2937         estimate D2E/DX2                !
 ! D81   D(7,9,11,29)         -172.9939         estimate D2E/DX2                !
 ! D82   D(25,9,11,6)           65.9879         estimate D2E/DX2                !
 ! D83   D(25,9,11,28)        -172.946          estimate D2E/DX2                !
 ! D84   D(25,9,11,29)         -52.2335         estimate D2E/DX2                !
 ! D85   D(26,9,11,6)         -176.791          estimate D2E/DX2                !
 ! D86   D(26,9,11,28)         -55.7249         estimate D2E/DX2                !
 ! D87   D(26,9,11,29)          64.9875         estimate D2E/DX2                !
 ! D88   D(3,10,13,4)          -63.9837         estimate D2E/DX2                !
 ! D89   D(6,10,13,4)           60.2285         Frozen                          !
 ! D90   D(27,10,13,4)         175.9421         estimate D2E/DX2                !
 --------------------------------------------------------------------------------
 Trust Radius=3.00D-01 FncErr=1.00D-07 GrdErr=1.00D-06 EigMax=2.50D+02 EigMin=1.00D-04
 Number of steps in this run=    186 maximum allowed number of steps=    186.
 GradGradGradGradGradGradGradGradGradGradGradGradGradGradGradGradGradGrad

                          Input orientation:                          
 ---------------------------------------------------------------------
 Center     Atomic      Atomic             Coordinates (Angstroms)
 Number     Number       Type             X           Y           Z
 ---------------------------------------------------------------------
      1          6           0        1.900257   -1.238925    0.405275
      2          6           0        3.033705    1.182412   -0.616610
      3          6           0       -1.767954    1.272657    0.134371
      4          6           0        1.007431   -0.017604    0.224297
      5          6           0        1.844351    1.251489    0.332128
      6          8           0       -1.610172   -1.134061    0.083339
      7          6           0       -3.249470    1.182779   -0.243366
      8          8           0        3.814611    0.028173   -0.377766
      9          6           0       -3.517675   -0.111333   -1.011615
     10          6           0       -1.341488    0.006186    0.862521
     11          6           0       -2.983931   -1.301498   -0.231335
     12          6           0        3.087844   -1.172998   -0.545766
     13          8           0        0.001069   -0.021780    1.231067
     14          1           0        2.259540   -1.269362    1.430521
     15          1           0        1.339443   -2.149952    0.220871
     16          1           0        3.687947    2.031960   -0.478814
     17          1           0        2.697892    1.176213   -1.651346
     18          1           0       -1.169937    1.399453   -0.762267
     19          1           0       -1.583775    2.124324    0.781428
     20          1           0        0.544370   -0.061503   -0.752405
     21          1           0        1.246153    2.126291    0.097382
     22          1           0        2.202157    1.356139    1.353024
     23          1           0       -3.535740    2.047006   -0.834055
     24          1           0       -3.856464    1.199600    0.659688
     25          1           0       -3.030443   -0.073694   -1.982964
     26          1           0       -4.581365   -0.248017   -1.184544
     27          1           0       -1.884628   -0.077972    1.797025
     28          1           0       -3.542898   -1.434423    0.692062
     29          1           0       -3.049346   -2.216818   -0.802543
     30          1           0        2.754938   -1.244972   -1.578923
     31          1           0        3.779678   -1.981921   -0.356669
 ---------------------------------------------------------------------
                    Distance matrix (angstroms):
                    1          2          3          4          5
     1  C    0.000000
     2  C    2.862137   0.000000
     3  C    4.453898   4.860869   0.000000
     4  C    1.523652   2.500590   3.061964   0.000000
     5  C    2.492115   1.522970   3.617776   1.524027   0.000000
     6  O    3.526720   5.236561   2.412424   2.849244   4.205529
     7  C    5.727571   6.294251   1.531552   4.447565   5.126688
     8  O    2.425581   1.413905   5.742478   2.871382   2.425361
     9  C    5.712533   6.689573   2.508034   4.691785   5.693352
    10  C    3.502611   4.765884   1.521849   2.434197   3.461454
    11  C    4.925899   6.521517   2.870299   4.217458   5.490678
    12  C    1.522888   2.357097   5.479287   2.501210   2.862710
    13  O    2.402143   3.749783   2.451072   1.423505   2.413917
    14  H    1.086803   3.286529   4.935846   2.142347   2.780924
    15  H    1.085582   3.830998   4.623597   2.158043   3.440510
    16  H    3.830945   1.081088   5.542508   3.446773   2.160002
    17  H    3.270902   1.087882   4.810599   2.793008   2.160641
    18  H    4.213109   4.211761   1.085201   2.778901   3.210222
    19  H    4.857099   4.915570   1.085330   3.407726   3.565916
    20  H    2.136580   2.786136   2.813041   1.081804   2.142454
    21  H    3.441995   2.143836   3.132874   2.160875   1.085461
    22  H    2.779160   2.145020   4.153777   2.142094   1.086833
    23  H    6.471734   6.629662   2.159290   5.101287   5.562213
    24  H    6.257073   7.007400   2.154801   5.032755   5.710454
    25  H    5.601183   6.341815   2.808852   4.602127   5.556922
    26  H    6.746914   7.769039   3.459374   5.768237   6.770424
    27  H    4.196443   5.621761   2.145281   3.292586   4.221217
    28  H    5.454210   7.198066   3.284772   4.788703   6.030433
    29  H    5.187839   6.970857   3.833563   4.727408   6.104499
    30  H    2.160453   2.626014   5.452558   2.794962   3.273164
    31  H    2.159821   3.261449   6.450552   3.446943   3.830780
                    6          7          8          9         10
     6  O    0.000000
     7  C    2.856883   0.000000
     8  O    5.567017   7.159079   0.000000
     9  C    2.425585   1.528681   7.360954   0.000000
    10  C    1.406940   2.499550   5.303221   2.874367   0.000000
    11  C    1.419249   2.498457   6.928899   1.519938   2.367314
    12  C    4.740110   6.767768   1.413940   6.706492   4.795073
    13  O    2.269481   3.767084   4.139317   4.173632   1.392504
    14  H    4.099741   6.258121   2.715096   6.378187   3.862260
    15  H    3.122688   5.690407   3.350978   5.409860   3.499720
    16  H    6.197562   6.993161   2.010328   7.536483   5.585531
    17  H    5.187091   6.111756   2.046231   6.379679   4.899498
    18  H    2.706945   2.154220   5.184011   2.802949   2.147221
    19  H    3.332431   2.170541   5.905942   3.457331   2.133492
    20  H    2.547724   4.024994   3.292852   4.070612   2.483753
    21  H    4.334592   4.606186   3.350349   5.378745   3.431642
    22  H    4.727266   5.683199   2.712773   6.360933   3.823661
    23  H    3.829962   1.085243   7.636200   2.165706   3.443553
    24  H    3.289982   1.088224   7.829045   2.150948   2.791144
    25  H    2.722344   2.157058   7.031486   1.087350   3.309945
    26  H    3.349715   2.169548   8.439170   1.086289   3.840820
    27  H    2.031593   2.759616   6.101009   3.249064   1.084150
    28  H    2.048461   2.794794   7.577378   2.157248   2.636402
    29  H    2.007080   3.451085   7.234247   2.167051   3.260516
    30  H    4.672216   6.612912   2.046114   6.399426   4.930188
    31  H    5.473843   7.709545   2.010508   7.561707   5.627196
                   11         12         13         14         15
    11  C    0.000000
    12  C    6.081269   0.000000
    13  O    3.561815   3.743076   0.000000
    14  H    5.500617   2.145014   2.587844   0.000000
    15  H    4.428987   2.144546   2.709402   1.756494   0.000000
    16  H    7.462382   3.261344   4.553527   4.072424   4.847001
    17  H    6.359135   2.625483   4.125087   3.958648   4.051414
    18  H    3.296604   4.979265   2.713768   4.867464   4.456661
    19  H    3.836976   5.870077   2.705489   5.168123   5.208538
    20  H    3.775978   2.783412   2.056919   3.027523   2.437422
    21  H    5.454485   3.832854   2.729411   3.786116   4.279043
    22  H    6.038935   3.284262   2.599677   2.627271   3.784008
    23  H    3.446773   7.370441   4.588423   7.050665   6.518799
    24  H    2.794768   7.436784   4.086417   6.640441   6.197541
    25  H    2.139596   6.380238   4.418456   6.408231   5.316356
    26  H    2.137808   7.751154   5.185081   7.394572   6.375619
    27  H    2.611461   5.604751   1.969599   4.327570   4.143911
    28  H    1.087555   6.750356   3.853023   5.851568   4.956940
    29  H    1.080911   6.230618   4.273031   5.836824   4.507030
    30  H    5.895236   1.087851   4.120199   3.050044   2.462087
    31  H    6.798904   1.081087   4.543231   2.452062   2.513272
                   16         17         18         19         20
    16  H    0.000000
    17  H    1.757084   0.000000
    18  H    4.907081   3.974972   0.000000
    19  H    5.421051   5.014975   1.754906   0.000000
    20  H    3.786755   2.641532   2.252407   3.414599   0.000000
    21  H    2.510629   2.463381   2.665479   2.911428   2.449710
    22  H    2.453556   3.050306   3.980873   3.905139   3.031633
    23  H    7.232432   6.347000   2.453875   2.534942   4.593449
    24  H    7.675099   6.949893   3.046198   2.456634   4.790796
    25  H    7.199515   5.872483   2.668660   3.816542   3.780703
    26  H    8.606850   7.431952   3.811865   4.298673   5.147299
    27  H    6.378468   5.870582   3.040320   2.443779   3.521349
    28  H    8.103819   7.159221   3.972011   4.063352   4.547214
    29  H    7.971702   6.727843   4.075686   4.847925   4.190786
    30  H    3.580367   2.422940   4.802557   5.978950   2.640140
    31  H    4.016787   3.580539   6.008069   6.850047   3.783098
                   21         22         23         24         25
    21  H    0.000000
    22  H    1.756051   0.000000
    23  H    4.872408   6.179326   0.000000
    24  H    5.216478   6.100173   1.747063   0.000000
    25  H    5.239947   6.368151   2.464282   3.047490   0.000000
    26  H    6.421887   7.418136   2.546233   2.454031   1.753061
    27  H    4.189195   4.353806   3.763547   2.610338   3.949839
    28  H    5.997278   6.421041   3.801241   2.652819   3.044661
    29  H    6.174445   6.707516   4.291593   3.802824   2.446780
    30  H    4.056087   3.958239   7.138948   7.395806   5.916568
    31  H    4.847919   4.068694   8.365135   8.334610   7.256991
                   26         27         28         29         30
    26  H    0.000000
    27  H    4.023812   0.000000
    28  H    2.451045   2.410552   0.000000
    29  H    2.523724   3.562160   1.757720   0.000000
    30  H    7.414229   5.855296   6.697462   5.936073   0.000000
    31  H    8.578977   6.351990   7.417527   6.847594   1.757012
                   31
    31  H    0.000000
 Stoichiometry    C10H18O3
 Framework group  C1[X(C10H18O3)]
 Deg. of freedom    87
 Full point group                 C1      NOp   1
 Largest Abelian subgroup         C1      NOp   1
 Largest concise Abelian subgroup C1      NOp   1
                         Standard orientation:                         
 ---------------------------------------------------------------------
 Center     Atomic      Atomic             Coordinates (Angstroms)
 Number     Number       Type             X           Y           Z
 ---------------------------------------------------------------------
      1          6           0        1.900257   -1.238925    0.405275
      2          6           0        3.033705    1.182412   -0.616610
      3          6           0       -1.767954    1.272657    0.134371
      4          6           0        1.007431   -0.017604    0.224297
      5          6           0        1.844351    1.251489    0.332128
      6          8           0       -1.610172   -1.134061    0.083339
      7          6           0       -3.249470    1.182779   -0.243366
      8          8           0        3.814611    0.028173   -0.377766
      9          6           0       -3.517675   -0.111333   -1.011615
     10          6           0       -1.341488    0.006186    0.862521
     11          6           0       -2.983931   -1.301498   -0.231335
     12          6           0        3.087844   -1.172998   -0.545766
     13          8           0        0.001069   -0.021780    1.231067
     14          1           0        2.259540   -1.269362    1.430521
     15          1           0        1.339443   -2.149952    0.220871
     16          1           0        3.687947    2.031960   -0.478814
     17          1           0        2.697892    1.176213   -1.651346
     18          1           0       -1.169937    1.399453   -0.762267
     19          1           0       -1.583775    2.124324    0.781428
     20          1           0        0.544370   -0.061503   -0.752405
     21          1           0        1.246153    2.126291    0.097382
     22          1           0        2.202157    1.356139    1.353024
     23          1           0       -3.535740    2.047006   -0.834055
     24          1           0       -3.856464    1.199600    0.659688
     25          1           0       -3.030443   -0.073694   -1.982964
     26          1           0       -4.581365   -0.248017   -1.184544
     27          1           0       -1.884628   -0.077972    1.797025
     28          1           0       -3.542898   -1.434423    0.692062
     29          1           0       -3.049346   -2.216818   -0.802543
     30          1           0        2.754938   -1.244972   -1.578923
     31          1           0        3.779678   -1.981921   -0.356669
 ---------------------------------------------------------------------
 Rotational constants (GHZ):           1.8414061           0.3997174           0.3684839
 Standard basis: 6-311++G(2d,2p) (5D, 7F)
 There are   557 symmetry adapted cartesian basis functions of A   symmetry.
 There are   531 symmetry adapted basis functions of A   symmetry.
   531 basis functions,   762 primitive gaussians,   557 cartesian basis functions
    51 alpha electrons       51 beta electrons
       nuclear repulsion energy       887.3609470485 Hartrees.
 NAtoms=   31 NActive=   31 NUniq=   31 SFac= 1.00D+00 NAtFMM=   60 NAOKFM=F Big=F
 Integral buffers will be    131072 words long.
 Raffenetti 2 integral format.
 Two-electron integral symmetry is turned on.
 ------------------------------------------------------------------------------
 Polarizable Continuum Model (PCM)
 =================================
 Model                : PCM.
 Atomic radii         : SMD-Coulomb.
 Polarization charges : Total charges.
 Charge compensation  : None.
 Solution method      : On-the-fly selection.
 Cavity type          : VdW (van der Waals Surface) (Alpha=1.000).
 Cavity algorithm     : GePol (No added spheres)
                        Default sphere list used, NSphG=   31.
                        Lebedev-Laikov grids with approx.  5.0 points / Ang**2.
                        Smoothing algorithm: York/Karplus (Gamma=1.0000).
                        Polarization charges: spherical gaussians, with
                                              point-specific exponents (IZeta= 3).
                        Self-potential: point-specific (ISelfS= 7).
                        Self-field    : sphere-specific E.n sum rule (ISelfD= 2).
 1st derivatives      : Analytical E(r).r(x)/FMM algorithm (CHGder, D1EAlg=3).
                        Cavity 1st derivative terms included.
 Solvent              : Water, Eps=  78.355300 Eps(inf)=   1.777849
 ------------------------------------------------------------------------------
 ------------------------------------------------------------------------------
 Atomic radii for non-electrostatic terms: SMD-CDS.
 ------------------------------------------------------------------------------
 Nuclear repulsion after PCM non-electrostatic terms =      887.3673770496 Hartrees.
 One-electron integrals computed using PRISM.
 NBasis=   531 RedAO= T EigKep=  5.39D-06  NBF=   531
 NBsUse=   531 1.00D-06 EigRej= -1.00D+00 NBFU=   531
 ExpMin= 3.60D-02 ExpMax= 8.59D+03 ExpMxC= 1.30D+03 IAcc=3 IRadAn=         5 AccDes= 0.00D+00
 Harris functional with IExCor= 1009 and IRadAn=       5 diagonalized for initial guess.
 HarFok:  IExCor= 1009 AccDes= 0.00D+00 IRadAn=         5 IDoV= 1 UseB2=F ITyADJ=14
 ICtDFT=  3500011 ScaDFX=  1.000000  1.000000  1.000000  1.000000
 FoFCou: FMM=F IPFlag=           0 FMFlag=      100000 FMFlg1=           0
         NFxFlg=           0 DoJE=T BraDBF=F KetDBF=T FulRan=T
         wScrn=  0.000000 ICntrl=       500 IOpCl=  0 I1Cent=   200000004 NGrid=           0
         NMat0=    1 NMatS0=      1 NMatT0=    0 NMatD0=    1 NMtDS0=    0 NMtDT0=    0
 Petite list used in FoFCou.
 Requested convergence on RMS density matrix=1.00D-08 within 128 cycles.
 Requested convergence on MAX density matrix=1.00D-06.
 Requested convergence on             energy=1.00D-06.
 No special actions if energy rises.
 Inv3:  Mode=1 IEnd=    12277587.
 Iteration    1 A*A^-1 deviation from unit magnitude is 7.11D-15 for    201.
 Iteration    1 A*A^-1 deviation from orthogonality  is 3.19D-15 for   1483    165.
 Iteration    1 A^-1*A deviation from unit magnitude is 6.88D-15 for    178.
 Iteration    1 A^-1*A deviation from orthogonality  is 2.26D-14 for   1286   1275.
 Error on total polarization charges =  0.06247
 SCF Done:  E(RM062X) =  -617.505245982     A.U. after   12 cycles
            NFock= 12  Conv=0.51D-08     -V/T= 2.0035
 SMD-CDS (non-electrostatic) energy       (kcal/mol) =       4.03
 (included in total energy above)

 **********************************************************************

            Population analysis using the SCF Density.

 **********************************************************************

 Orbital symmetries:
       Occupied  (A) (A) (A) (A) (A) (A) (A) (A) (A) (A) (A) (A)
                 (A) (A) (A) (A) (A) (A) (A) (A) (A) (A) (A) (A)
                 (A) (A) (A) (A) (A) (A) (A) (A) (A) (A) (A) (A)
                 (A) (A) (A) (A) (A) (A) (A) (A) (A) (A) (A) (A)
                 (A) (A) (A)
       Virtual   (A) (A) (A) (A) (A) (A) (A) (A) (A) (A) (A) (A)
                 (A) (A) (A) (A) (A) (A) (A) (A) (A) (A) (A) (A)
                 (A) (A) (A) (A) (A) (A) (A) (A) (A) (A) (A) (A)
                 (A) (A) (A) (A) (A) (A) (A) (A) (A) (A) (A) (A)
                 (A) (A) (A) (A) (A) (A) (A) (A) (A) (A) (A) (A)
                 (A) (A) (A) (A) (A) (A) (A) (A) (A) (A) (A) (A)
                 (A) (A) (A) (A) (A) (A) (A) (A) (A) (A) (A) (A)
                 (A) (A) (A) (A) (A) (A) (A) (A) (A) (A) (A) (A)
                 (A) (A) (A) (A) (A) (A) (A) (A) (A) (A) (A) (A)
                 (A) (A) (A) (A) (A) (A) (A) (A) (A) (A) (A) (A)
                 (A) (A) (A) (A) (A) (A) (A) (A) (A) (A) (A) (A)
                 (A) (A) (A) (A) (A) (A) (A) (A) (A) (A) (A) (A)
                 (A) (A) (A) (A) (A) (A) (A) (A) (A) (A) (A) (A)
                 (A) (A) (A) (A) (A) (A) (A) (A) (A) (A) (A) (A)
                 (A) (A) (A) (A) (A) (A) (A) (A) (A) (A) (A) (A)
                 (A) (A) (A) (A) (A) (A) (A) (A) (A) (A) (A) (A)
                 (A) (A) (A) (A) (A) (A) (A) (A) (A) (A) (A) (A)
                 (A) (A) (A) (A) (A) (A) (A) (A) (A) (A) (A) (A)
                 (A) (A) (A) (A) (A) (A) (A) (A) (A) (A) (A) (A)
                 (A) (A) (A) (A) (A) (A) (A) (A) (A) (A) (A) (A)
                 (A) (A) (A) (A) (A) (A) (A) (A) (A) (A) (A) (A)
                 (A) (A) (A) (A) (A) (A) (A) (A) (A) (A) (A) (A)
                 (A) (A) (A) (A) (A) (A) (A) (A) (A) (A) (A) (A)
                 (A) (A) (A) (A) (A) (A) (A) (A) (A) (A) (A) (A)
                 (A) (A) (A) (A) (A) (A) (A) (A) (A) (A) (A) (A)
                 (A) (A) (A) (A) (A) (A) (A) (A) (A) (A) (A) (A)
                 (A) (A) (A) (A) (A) (A) (A) (A) (A) (A) (A) (A)
                 (A) (A) (A) (A) (A) (A) (A) (A) (A) (A) (A) (A)
                 (A) (A) (A) (A) (A) (A) (A) (A) (A) (A) (A) (A)
                 (A) (A) (A) (A) (A) (A) (A) (A) (A) (A) (A) (A)
                 (A) (A) (A) (A) (A) (A) (A) (A) (A) (A) (A) (A)
                 (A) (A) (A) (A) (A) (A) (A) (A) (A) (A) (A) (A)
                 (A) (A) (A) (A) (A) (A) (A) (A) (A) (A) (A) (A)
                 (A) (A) (A) (A) (A) (A) (A) (A) (A) (A) (A) (A)
                 (A) (A) (A) (A) (A) (A) (A) (A) (A) (A) (A) (A)
                 (A) (A) (A) (A) (A) (A) (A) (A) (A) (A) (A) (A)
                 (A) (A) (A) (A) (A) (A) (A) (A) (A) (A) (A) (A)
                 (A) (A) (A) (A) (A) (A) (A) (A) (A) (A) (A) (A)
                 (A) (A) (A) (A) (A) (A) (A) (A) (A) (A) (A) (A)
                 (A) (A) (A) (A) (A) (A) (A) (A) (A) (A) (A) (A)
 The electronic state is 1-A.
 Alpha  occ. eigenvalues --  -19.63126 -19.62866 -19.62707 -10.63195 -10.58301
 Alpha  occ. eigenvalues --  -10.57379 -10.57373 -10.57369 -10.52435 -10.52214
 Alpha  occ. eigenvalues --  -10.52211 -10.52198 -10.52137  -1.20228  -1.16520
 Alpha  occ. eigenvalues --   -1.13860  -0.90423  -0.89518  -0.86255  -0.84662
 Alpha  occ. eigenvalues --   -0.75378  -0.73533  -0.72489  -0.69698  -0.66327
 Alpha  occ. eigenvalues --   -0.63842  -0.60224  -0.57939  -0.55689  -0.54959
 Alpha  occ. eigenvalues --   -0.54509  -0.52673  -0.52255  -0.51304  -0.50201
 Alpha  occ. eigenvalues --   -0.48130  -0.47806  -0.45491  -0.44919  -0.44358
 Alpha  occ. eigenvalues --   -0.42609  -0.41574  -0.40711  -0.39866  -0.39249
 Alpha  occ. eigenvalues --   -0.38832  -0.37044  -0.36721  -0.33997  -0.32999
 Alpha  occ. eigenvalues --   -0.31736
 Alpha virt. eigenvalues --    0.00401   0.01245   0.01377   0.01517   0.02826
 Alpha virt. eigenvalues --    0.02922   0.03043   0.03797   0.04007   0.04978
 Alpha virt. eigenvalues --    0.05329   0.05567   0.05779   0.05806   0.07523
 Alpha virt. eigenvalues --    0.07714   0.08123   0.08376   0.09070   0.10038
 Alpha virt. eigenvalues --    0.10230   0.11056   0.11516   0.12130   0.12655
 Alpha virt. eigenvalues --    0.12770   0.13121   0.13769   0.14054   0.14147
 Alpha virt. eigenvalues --    0.14490   0.14649   0.14867   0.15068   0.15323
 Alpha virt. eigenvalues --    0.15604   0.15705   0.15987   0.16294   0.16584
 Alpha virt. eigenvalues --    0.16829   0.17091   0.17753   0.17875   0.18243
 Alpha virt. eigenvalues --    0.18533   0.18680   0.18951   0.19499   0.19858
 Alpha virt. eigenvalues --    0.20020   0.20336   0.21060   0.21311   0.21563
 Alpha virt. eigenvalues --    0.21702   0.23287   0.23613   0.24173   0.24751
 Alpha virt. eigenvalues --    0.26173   0.26337   0.26629   0.27427   0.27801
 Alpha virt. eigenvalues --    0.28249   0.28812   0.29070   0.29328   0.29821
 Alpha virt. eigenvalues --    0.30366   0.30822   0.31457   0.31762   0.31991
 Alpha virt. eigenvalues --    0.32592   0.33593   0.34060   0.34451   0.34700
 Alpha virt. eigenvalues --    0.35008   0.35358   0.35679   0.35930   0.36708
 Alpha virt. eigenvalues --    0.37275   0.37392   0.37644   0.37854   0.38332
 Alpha virt. eigenvalues --    0.39245   0.39725   0.39752   0.40133   0.40487
 Alpha virt. eigenvalues --    0.41278   0.41958   0.42798   0.43713   0.45902
 Alpha virt. eigenvalues --    0.46878   0.48030   0.50308   0.51560   0.51912
 Alpha virt. eigenvalues --    0.52494   0.52639   0.53880   0.55276   0.56577
 Alpha virt. eigenvalues --    0.57510   0.57948   0.58288   0.59004   0.59596
 Alpha virt. eigenvalues --    0.60007   0.60586   0.60923   0.61165   0.62062
 Alpha virt. eigenvalues --    0.62357   0.63249   0.63982   0.64263   0.65317
 Alpha virt. eigenvalues --    0.65785   0.66523   0.67122   0.67454   0.67790
 Alpha virt. eigenvalues --    0.68442   0.69432   0.69590   0.69894   0.70848
 Alpha virt. eigenvalues --    0.70989   0.71988   0.73189   0.73509   0.74075
 Alpha virt. eigenvalues --    0.74560   0.75049   0.75699   0.76283   0.76534
 Alpha virt. eigenvalues --    0.77284   0.77859   0.78735   0.78911   0.79434
 Alpha virt. eigenvalues --    0.80212   0.82807   0.83580   0.84158   0.85656
 Alpha virt. eigenvalues --    0.86920   0.87840   0.88906   0.89846   0.90764
 Alpha virt. eigenvalues --    0.91394   0.92190   0.93733   0.94250   0.95955
 Alpha virt. eigenvalues --    0.97487   0.98488   0.99939   1.00919   1.01684
 Alpha virt. eigenvalues --    1.03585   1.04042   1.04885   1.05183   1.06554
 Alpha virt. eigenvalues --    1.07010   1.08802   1.10544   1.11046   1.12532
 Alpha virt. eigenvalues --    1.13060   1.13737   1.14876   1.16139   1.17202
 Alpha virt. eigenvalues --    1.17627   1.18506   1.19219   1.20103   1.20997
 Alpha virt. eigenvalues --    1.21847   1.22210   1.23379   1.23818   1.24759
 Alpha virt. eigenvalues --    1.25081   1.27042   1.27140   1.27660   1.28010
 Alpha virt. eigenvalues --    1.28625   1.29345   1.30080   1.30366   1.31344
 Alpha virt. eigenvalues --    1.31489   1.32230   1.32842   1.33376   1.34353
 Alpha virt. eigenvalues --    1.34499   1.36213   1.36628   1.37483   1.38067
 Alpha virt. eigenvalues --    1.38856   1.40007   1.40463   1.41218   1.42081
 Alpha virt. eigenvalues --    1.43681   1.44038   1.44788   1.45327   1.45755
 Alpha virt. eigenvalues --    1.46645   1.46870   1.47671   1.48729   1.49211
 Alpha virt. eigenvalues --    1.49875   1.50206   1.51732   1.51810   1.53076
 Alpha virt. eigenvalues --    1.53797   1.54396   1.54932   1.55336   1.57226
 Alpha virt. eigenvalues --    1.57691   1.58185   1.58364   1.59241   1.59897
 Alpha virt. eigenvalues --    1.60746   1.61369   1.62015   1.63371   1.64031
 Alpha virt. eigenvalues --    1.64212   1.65456   1.66320   1.66474   1.67483
 Alpha virt. eigenvalues --    1.68493   1.68608   1.69922   1.71332   1.72348
 Alpha virt. eigenvalues --    1.73252   1.74402   1.75379   1.76826   1.78182
 Alpha virt. eigenvalues --    1.78918   1.81148   1.82475   1.83210   1.84509
 Alpha virt. eigenvalues --    1.85770   1.87385   1.90089   1.90421   1.98125
 Alpha virt. eigenvalues --    2.04908   2.05135   2.13128   2.17845   2.18919
 Alpha virt. eigenvalues --    2.25186   2.28473   2.28958   2.33333   2.35948
 Alpha virt. eigenvalues --    2.40420   2.43560   2.44613   2.49517   2.54119
 Alpha virt. eigenvalues --    2.56025   2.76692   2.78666   2.80373   2.82171
 Alpha virt. eigenvalues --    2.86486   2.87645   2.92441   2.93126   2.95889
 Alpha virt. eigenvalues --    2.97065   2.99017   3.01003   3.05528   3.07121
 Alpha virt. eigenvalues --    3.08404   3.09141   3.10355   3.10605   3.12151
 Alpha virt. eigenvalues --    3.13903   3.16135   3.16570   3.17391   3.21127
 Alpha virt. eigenvalues --    3.25300   3.30784   3.32025   3.34144   3.34851
 Alpha virt. eigenvalues --    3.37005   3.37461   3.39103   3.40238   3.41323
 Alpha virt. eigenvalues --    3.42437   3.44005   3.44618   3.45525   3.46821
 Alpha virt. eigenvalues --    3.48305   3.50065   3.50819   3.52233   3.52627
 Alpha virt. eigenvalues --    3.53098   3.53546   3.55080   3.56383   3.56787
 Alpha virt. eigenvalues --    3.57300   3.57935   3.58331   3.59363   3.60576
 Alpha virt. eigenvalues --    3.61212   3.61986   3.63952   3.64522   3.65187
 Alpha virt. eigenvalues --    3.66319   3.67911   3.68322   3.70714   3.71125
 Alpha virt. eigenvalues --    3.71588   3.72621   3.72963   3.73330   3.74488
 Alpha virt. eigenvalues --    3.75712   3.77228   3.77261   3.77937   3.78537
 Alpha virt. eigenvalues --    3.79024   3.80048   3.81337   3.83264   3.85076
 Alpha virt. eigenvalues --    3.86478   3.89099   3.90635   3.92150   3.92295
 Alpha virt. eigenvalues --    3.92733   3.93617   3.94460   3.95902   3.97339
 Alpha virt. eigenvalues --    3.99262   4.03518   4.04045   4.04406   4.05088
 Alpha virt. eigenvalues --    4.06000   4.06487   4.07244   4.07522   4.07622
 Alpha virt. eigenvalues --    4.09101   4.10124   4.11310   4.11491   4.12698
 Alpha virt. eigenvalues --    4.13600   4.13959   4.14040   4.14572   4.15481
 Alpha virt. eigenvalues --    4.18155   4.18466   4.19281   4.20455   4.20790
 Alpha virt. eigenvalues --    4.21508   4.22976   4.23708   4.25689   4.26702
 Alpha virt. eigenvalues --    4.28554   4.30587   4.31249   4.31650   4.32983
 Alpha virt. eigenvalues --    4.34722   4.35788   4.36386   4.38000   4.39516
 Alpha virt. eigenvalues --    4.43219   4.44507   4.45427   4.48187   4.51985
 Alpha virt. eigenvalues --    4.60866   4.61218   4.74599   4.77522   4.89121
 Alpha virt. eigenvalues --    4.91325   4.91526   4.93266   4.99769   5.00454
 Alpha virt. eigenvalues --    5.07128   5.08218   5.08450   5.10057   5.12382
 Alpha virt. eigenvalues --    5.12552   5.13710   5.15044   5.30109   5.33678
 Alpha virt. eigenvalues --    5.42108   5.57150   5.57864   5.63569   5.86604
 Alpha virt. eigenvalues --    5.87634   6.00858   7.02884   7.05167   7.05951
 Alpha virt. eigenvalues --    7.07019   7.09647   7.12761   7.13555   7.17718
 Alpha virt. eigenvalues --    7.23545   7.35794   7.37951   7.45636   7.53218
 Alpha virt. eigenvalues --    7.54911   7.65197  23.94996  23.99160  24.06747
 Alpha virt. eigenvalues --   24.08297  24.12379  24.13862  24.14258  24.15187
 Alpha virt. eigenvalues --   24.17186  24.20307  50.16286  50.19914  50.24713
          Condensed to atoms (all electrons):
               1          2          3          4          5          6
     1  C    6.578964   0.124959  -0.000148  -1.014950  -0.099141  -0.082497
     2  C    0.124959   5.687740   0.024929   0.128038  -0.192159   0.000212
     3  C   -0.000148   0.024929   6.138149  -0.045717   0.105773  -0.015235
     4  C   -1.014950   0.128038  -0.045717   8.053497  -1.051816   0.005599
     5  C   -0.099141  -0.192159   0.105773  -1.051816   6.618761   0.058542
     6  O   -0.082497   0.000212  -0.015235   0.005599   0.058542   8.353135
     7  C   -0.029188  -0.012558  -0.425028   0.038389  -0.001214  -0.016207
     8  O   -0.016744   0.118805  -0.000129  -0.053532  -0.026558  -0.000010
     9  C    0.002341   0.002609  -0.056685   0.027549  -0.015716  -0.026408
    10  C    0.116595  -0.024467  -0.487513  -0.397408  -0.081611   0.235341
    11  C   -0.010044   0.002393   0.112081  -0.038336   0.019859   0.032818
    12  C   -0.023006  -0.292452  -0.003424  -0.007304   0.195336  -0.000420
    13  O   -0.121675   0.015925  -0.043376   0.203864  -0.144403   0.022501
    14  H    0.436925   0.024042  -0.002476   0.045296  -0.050218  -0.000221
    15  H    0.457472  -0.000438  -0.006583  -0.056942  -0.011072   0.008483
    16  H   -0.008014   0.422175   0.002836   0.010365  -0.022939   0.000510
    17  H   -0.025171   0.443787  -0.000145   0.033333  -0.066160   0.000054
    18  H    0.006809   0.007578   0.420705   0.055280  -0.043214  -0.016246
    19  H   -0.001264  -0.004712   0.427768  -0.015769   0.009826   0.005398
    20  H    0.056567  -0.032133  -0.028924   0.314603   0.035392  -0.001640
    21  H    0.001087  -0.009509   0.034686  -0.079338   0.464863  -0.000882
    22  H   -0.034272  -0.105671  -0.008804   0.020728   0.462767  -0.000199
    23  H    0.000094  -0.000229  -0.037648  -0.007740   0.002651  -0.000259
    24  H    0.000725  -0.000117  -0.038119   0.000342  -0.000292   0.000848
    25  H   -0.001127  -0.000757   0.000049   0.000097   0.001461  -0.006463
    26  H    0.000031  -0.000052   0.000385   0.000037  -0.000245   0.006096
    27  H    0.008210   0.001412  -0.031906  -0.028082   0.006062  -0.036237
    28  H   -0.000390  -0.000589   0.006756  -0.014308   0.002681  -0.051216
    29  H    0.005102   0.000595   0.008910  -0.006711  -0.001006  -0.070020
    30  H   -0.079342   0.002422  -0.001357   0.058180  -0.040136   0.000099
    31  H   -0.030842   0.007906  -0.000281   0.003995   0.003383  -0.000916
               7          8          9         10         11         12
     1  C   -0.029188  -0.016744   0.002341   0.116595  -0.010044  -0.023006
     2  C   -0.012558   0.118805   0.002609  -0.024467   0.002393  -0.292452
     3  C   -0.425028  -0.000129  -0.056685  -0.487513   0.112081  -0.003424
     4  C    0.038389  -0.053532   0.027549  -0.397408  -0.038336  -0.007304
     5  C   -0.001214  -0.026558  -0.015716  -0.081611   0.019859   0.195336
     6  O   -0.016207  -0.000010  -0.026408   0.235341   0.032818  -0.000420
     7  C    5.997987   0.000095   0.057965   0.126819  -0.078304  -0.001236
     8  O    0.000095   8.443211   0.000073   0.004434  -0.000102   0.113587
     9  C    0.057965   0.000073   5.486456  -0.050282   0.091232  -0.002117
    10  C    0.126819   0.004434  -0.050282   6.591626  -0.163045  -0.037190
    11  C   -0.078304  -0.000102   0.091232  -0.163045   5.403078   0.002033
    12  C   -0.001236   0.113587  -0.002117  -0.037190   0.002033   5.546928
    13  O    0.021610  -0.001294   0.001796   0.014193   0.011313   0.025108
    14  H   -0.000308  -0.004331   0.000446   0.019482   0.000261  -0.090438
    15  H    0.000702   0.007889  -0.000611   0.006789   0.000245  -0.012458
    16  H    0.000865  -0.072133   0.000049  -0.005714   0.000380   0.009939
    17  H   -0.000576  -0.039666   0.000176   0.014609  -0.000578  -0.005018
    18  H   -0.029431  -0.000386  -0.019481  -0.014662   0.014431  -0.008272
    19  H    0.012616   0.000165   0.006602  -0.051857  -0.005240   0.001221
    20  H    0.025521  -0.006397  -0.007091  -0.022563   0.000280   0.006964
    21  H   -0.010219   0.011844  -0.002272  -0.017786   0.001446   0.003400
    22  H    0.002920  -0.005039   0.000577   0.015317  -0.001652   0.016955
    23  H    0.406804   0.000004  -0.016100   0.015186   0.008383  -0.000178
    24  H    0.499936  -0.000012  -0.063647  -0.018439  -0.011038   0.000107
    25  H   -0.041215  -0.000015   0.487203   0.011838  -0.069556   0.000678
    26  H   -0.050886   0.000003   0.463204  -0.005805  -0.034202   0.000018
    27  H   -0.014759   0.000168   0.005237   0.481503  -0.002540  -0.001724
    28  H   -0.017462   0.000008  -0.048149  -0.002085   0.484847   0.000441
    29  H    0.007956  -0.000005  -0.047381   0.007301   0.447042  -0.000776
    30  H   -0.001341  -0.044165   0.000986   0.015047   0.000093   0.454060
    31  H    0.000171  -0.068925  -0.000263  -0.001127  -0.000511   0.421113
              13         14         15         16         17         18
     1  C   -0.121675   0.436925   0.457472  -0.008014  -0.025171   0.006809
     2  C    0.015925   0.024042  -0.000438   0.422175   0.443787   0.007578
     3  C   -0.043376  -0.002476  -0.006583   0.002836  -0.000145   0.420705
     4  C    0.203864   0.045296  -0.056942   0.010365   0.033333   0.055280
     5  C   -0.144403  -0.050218  -0.011072  -0.022939  -0.066160  -0.043214
     6  O    0.022501  -0.000221   0.008483   0.000510   0.000054  -0.016246
     7  C    0.021610  -0.000308   0.000702   0.000865  -0.000576  -0.029431
     8  O   -0.001294  -0.004331   0.007889  -0.072133  -0.039666  -0.000386
     9  C    0.001796   0.000446  -0.000611   0.000049   0.000176  -0.019481
    10  C    0.014193   0.019482   0.006789  -0.005714   0.014609  -0.014662
    11  C    0.011313   0.000261   0.000245   0.000380  -0.000578   0.014431
    12  C    0.025108  -0.090438  -0.012458   0.009939  -0.005018  -0.008272
    13  O    8.403890  -0.005639   0.003307  -0.001386  -0.001749  -0.012148
    14  H   -0.005639   0.459088  -0.019170  -0.001070   0.002059   0.001625
    15  H    0.003307  -0.019170   0.473383   0.001390  -0.002233  -0.000129
    16  H   -0.001386  -0.001070   0.001390   0.481101  -0.020233   0.000917
    17  H   -0.001749   0.002059  -0.002233  -0.020233   0.499185  -0.003844
    18  H   -0.012148   0.001625  -0.000129   0.000917  -0.003844   0.495354
    19  H   -0.001779  -0.000050  -0.000620   0.000062   0.000548  -0.024912
    20  H    0.004529  -0.008763  -0.005471   0.002539  -0.016490  -0.013835
    21  H    0.002066  -0.004803   0.000319  -0.012924  -0.001968  -0.006206
    22  H   -0.005675   0.005154  -0.003476  -0.005751   0.005237   0.001738
    23  H   -0.002178  -0.000007  -0.000043   0.000040   0.000055  -0.007270
    24  H    0.001861   0.000031  -0.000059  -0.000029  -0.000061   0.003877
    25  H   -0.000122   0.000023  -0.000345  -0.000062   0.000314   0.000942
    26  H    0.000649   0.000004   0.000012   0.000012  -0.000024  -0.002708
    27  H   -0.081034   0.000323   0.000462  -0.000017   0.000237  -0.002746
    28  H    0.002444  -0.000085  -0.000292  -0.000000   0.000078  -0.001235
    29  H   -0.002215   0.000209  -0.001377  -0.000005  -0.000078  -0.000554
    30  H   -0.002155   0.006720  -0.001469  -0.004354   0.014749   0.001859
    31  H   -0.001290  -0.008494  -0.009528   0.001222  -0.004777  -0.000275
              19         20         21         22         23         24
     1  C   -0.001264   0.056567   0.001087  -0.034272   0.000094   0.000725
     2  C   -0.004712  -0.032133  -0.009509  -0.105671  -0.000229  -0.000117
     3  C    0.427768  -0.028924   0.034686  -0.008804  -0.037648  -0.038119
     4  C   -0.015769   0.314603  -0.079338   0.020728  -0.007740   0.000342
     5  C    0.009826   0.035392   0.464863   0.462767   0.002651  -0.000292
     6  O    0.005398  -0.001640  -0.000882  -0.000199  -0.000259   0.000848
     7  C    0.012616   0.025521  -0.010219   0.002920   0.406804   0.499936
     8  O    0.000165  -0.006397   0.011844  -0.005039   0.000004  -0.000012
     9  C    0.006602  -0.007091  -0.002272   0.000577  -0.016100  -0.063647
    10  C   -0.051857  -0.022563  -0.017786   0.015317   0.015186  -0.018439
    11  C   -0.005240   0.000280   0.001446  -0.001652   0.008383  -0.011038
    12  C    0.001221   0.006964   0.003400   0.016955  -0.000178   0.000107
    13  O   -0.001779   0.004529   0.002066  -0.005675  -0.002178   0.001861
    14  H   -0.000050  -0.008763  -0.004803   0.005154  -0.000007   0.000031
    15  H   -0.000620  -0.005471   0.000319  -0.003476  -0.000043  -0.000059
    16  H    0.000062   0.002539  -0.012924  -0.005751   0.000040  -0.000029
    17  H    0.000548  -0.016490  -0.001968   0.005237   0.000055  -0.000061
    18  H   -0.024912  -0.013835  -0.006206   0.001738  -0.007270   0.003877
    19  H    0.462105   0.003785  -0.005503   0.000654  -0.010611  -0.007559
    20  H    0.003785   0.425780  -0.001904  -0.002985   0.000919   0.000575
    21  H   -0.005503  -0.001904   0.479445  -0.019043   0.000340   0.000607
    22  H    0.000654  -0.002985  -0.019043   0.458857   0.000075  -0.000077
    23  H   -0.010611   0.000919   0.000340   0.000075   0.490391  -0.006759
    24  H   -0.007559   0.000575   0.000607  -0.000077  -0.006759   0.453182
    25  H   -0.001287  -0.003925   0.000262   0.000149  -0.005239   0.003861
    26  H    0.002163   0.000356  -0.000183  -0.000001  -0.004992  -0.006103
    27  H    0.001655  -0.000464   0.000078   0.000080   0.002781  -0.008104
    28  H    0.000545  -0.000105  -0.000097   0.000204  -0.000544   0.000290
    29  H    0.000707  -0.000288   0.000091  -0.000087   0.000568  -0.002071
    30  H    0.000054  -0.026161  -0.003078   0.002507  -0.000007  -0.000028
    31  H    0.000004   0.004298   0.001295  -0.000944  -0.000006   0.000012
              25         26         27         28         29         30
     1  C   -0.001127   0.000031   0.008210  -0.000390   0.005102  -0.079342
     2  C   -0.000757  -0.000052   0.001412  -0.000589   0.000595   0.002422
     3  C    0.000049   0.000385  -0.031906   0.006756   0.008910  -0.001357
     4  C    0.000097   0.000037  -0.028082  -0.014308  -0.006711   0.058180
     5  C    0.001461  -0.000245   0.006062   0.002681  -0.001006  -0.040136
     6  O   -0.006463   0.006096  -0.036237  -0.051216  -0.070020   0.000099
     7  C   -0.041215  -0.050886  -0.014759  -0.017462   0.007956  -0.001341
     8  O   -0.000015   0.000003   0.000168   0.000008  -0.000005  -0.044165
     9  C    0.487203   0.463204   0.005237  -0.048149  -0.047381   0.000986
    10  C    0.011838  -0.005805   0.481503  -0.002085   0.007301   0.015047
    11  C   -0.069556  -0.034202  -0.002540   0.484847   0.447042   0.000093
    12  C    0.000678   0.000018  -0.001724   0.000441  -0.000776   0.454060
    13  O   -0.000122   0.000649  -0.081034   0.002444  -0.002215  -0.002155
    14  H    0.000023   0.000004   0.000323  -0.000085   0.000209   0.006720
    15  H   -0.000345   0.000012   0.000462  -0.000292  -0.001377  -0.001469
    16  H   -0.000062   0.000012  -0.000017  -0.000000  -0.000005  -0.004354
    17  H    0.000314  -0.000024   0.000237   0.000078  -0.000078   0.014749
    18  H    0.000942  -0.002708  -0.002746  -0.001235  -0.000554   0.001859
    19  H   -0.001287   0.002163   0.001655   0.000545   0.000707   0.000054
    20  H   -0.003925   0.000356  -0.000464  -0.000105  -0.000288  -0.026161
    21  H    0.000262  -0.000183   0.000078  -0.000097   0.000091  -0.003078
    22  H    0.000149  -0.000001   0.000080   0.000204  -0.000087   0.002507
    23  H   -0.005239  -0.004992   0.002781  -0.000544   0.000568  -0.000007
    24  H    0.003861  -0.006103  -0.008104   0.000290  -0.002071  -0.000028
    25  H    0.470210  -0.012295  -0.000241   0.002814  -0.002313   0.000098
    26  H   -0.012295   0.475148  -0.001412   0.000608  -0.010132   0.000026
    27  H   -0.000241  -0.001412   0.424701  -0.000205   0.000292   0.000334
    28  H    0.002814   0.000608  -0.000205   0.474221  -0.008354  -0.000009
    29  H   -0.002313  -0.010132   0.000292  -0.008354   0.475647   0.000071
    30  H    0.000098   0.000026   0.000334  -0.000009   0.000071   0.502030
    31  H    0.000034  -0.000013   0.000011  -0.000000   0.000014  -0.017911
              31
     1  C   -0.030842
     2  C    0.007906
     3  C   -0.000281
     4  C    0.003995
     5  C    0.003383
     6  O   -0.000916
     7  C    0.000171
     8  O   -0.068925
     9  C   -0.000263
    10  C   -0.001127
    11  C   -0.000511
    12  C    0.421113
    13  O   -0.001290
    14  H   -0.008494
    15  H   -0.009528
    16  H    0.001222
    17  H   -0.004777
    18  H   -0.000275
    19  H    0.000004
    20  H    0.004298
    21  H    0.001295
    22  H   -0.000944
    23  H   -0.000006
    24  H    0.000012
    25  H    0.000034
    26  H   -0.000013
    27  H    0.000011
    28  H   -0.000000
    29  H    0.000014
    30  H   -0.017911
    31  H    0.472530
 Mulliken charges:
               1
     1  C   -0.218068
     2  C   -0.339683
     3  C   -0.049528
     4  C   -0.181237
     5  C   -0.139456
     6  O   -0.404556
     7  C   -0.470426
     8  O   -0.360842
     9  C   -0.278299
    10  C   -0.294528
    11  C   -0.217065
    12  C   -0.311878
    13  O   -0.306939
    14  H    0.194386
    15  H    0.171864
    16  H    0.220231
    17  H    0.174349
    18  H    0.196436
    19  H    0.195283
    20  H    0.297031
    21  H    0.173886
    22  H    0.199759
    23  H    0.171520
    24  H    0.196260
    25  H    0.164926
    26  H    0.180298
    27  H    0.275926
    28  H    0.169190
    29  H    0.198867
    30  H    0.162176
    31  H    0.230115
 Sum of Mulliken charges =  -0.00000
 Mulliken charges with hydrogens summed into heavy atoms:
               1
     1  C    0.148182
     2  C    0.054897
     3  C    0.342192
     4  C    0.115795
     5  C    0.234189
     6  O   -0.404556
     7  C   -0.102646
     8  O   -0.360842
     9  C    0.066925
    10  C   -0.018603
    11  C    0.150993
    12  C    0.080414
    13  O   -0.306939
 Electronic spatial extent (au):  <R**2>=           3144.5486
 Charge=             -0.0000 electrons
 Dipole moment (field-independent basis, Debye):
    X=             -4.1438    Y=              1.5203    Z=             -2.1588  Tot=              4.9135
 Quadrupole moment (field-independent basis, Debye-Ang):
   XX=            -81.3361   YY=            -75.9753   ZZ=            -80.9994
   XY=             -0.5945   XZ=             -1.1437   YZ=              0.5389
 Traceless Quadrupole moment (field-independent basis, Debye-Ang):
   XX=             -1.8992   YY=              3.4616   ZZ=             -1.5624
   XY=             -0.5945   XZ=             -1.1437   YZ=              0.5389
 Octapole moment (field-independent basis, Debye-Ang**2):
  XXX=           -102.6845  YYY=             -1.0865  ZZZ=             -3.1158  XYY=             13.1087
  XXY=             -8.7919  XXZ=              2.7507  XZZ=             -1.5130  YZZ=             -0.8303
  YYZ=             -3.3478  XYZ=             -1.6987
 Hexadecapole moment (field-independent basis, Debye-Ang**3):
 XXXX=          -3435.0664 YYYY=           -616.1788 ZZZZ=           -327.7589 XXXY=             27.2699
 XXXZ=             20.3152 YYYX=              9.9308 YYYZ=              4.9680 ZZZX=            -12.7588
 ZZZY=             -0.2613 XXYY=           -573.4622 XXZZ=           -577.7023 YYZZ=           -159.1739
 XXYZ=              1.9794 YYXZ=             -0.4654 ZZXY=              3.1771
 N-N= 8.873673770496D+02 E-N=-3.216754813636D+03  KE= 6.153598591063D+02
 D1PCM: PCM CHGder 1st derivatives, ID1Alg=3 FixD1E=F DoIter=F DoCFld=F I1PDM=0.
 Calling FoFJK, ICntrl=      2127 FMM=F ISym2X=0 I1Cent= 0 IOpClX= 0 NMat=1 NMatS=1 NMatT=0.
 ***** Axes restored to original set *****
 -------------------------------------------------------------------
 Center     Atomic                   Forces (Hartrees/Bohr)
 Number     Number              X              Y              Z
 -------------------------------------------------------------------
      1        6          -0.000108283    0.001669959   -0.003212994
      2        6          -0.005633535   -0.001216778    0.002789801
      3        6          -0.003069983   -0.001951041    0.001548320
      4        6           0.004637122    0.001527293   -0.000329695
      5        6          -0.000088634   -0.002038997   -0.003098610
      6        8           0.008498616   -0.009472256   -0.004985892
      7        6           0.002574981   -0.002919347   -0.001163259
      8        8           0.011063868    0.000396344    0.003621076
      9        6           0.000571959    0.000525548    0.003336598
     10        6          -0.002751149    0.009081669   -0.006735776
     11        6          -0.001974681    0.006254812   -0.002182194
     12        6          -0.005812649    0.001210007    0.002751277
     13        8           0.004086305   -0.002106758    0.011689171
     14        1           0.001315318    0.000928341    0.003477855
     15        1          -0.002379036   -0.002538896   -0.000716559
     16        1           0.002588595    0.003634431    0.000765166
     17        1          -0.002759998   -0.000128490   -0.004920943
     18        1           0.003263171   -0.000824853   -0.003862890
     19        1           0.000770746    0.002330420    0.002304811
     20        1          -0.002584567   -0.000251475   -0.006778249
     21        1          -0.002818045    0.002589131   -0.000957354
     22        1           0.001348455   -0.000651665    0.003525199
     23        1          -0.000658072    0.002124399   -0.001563608
     24        1          -0.001357283   -0.000650348    0.003054613
     25        1           0.002200489    0.000010527   -0.002581763
     26        1          -0.002748466   -0.000331060   -0.000250128
     27        1          -0.004355172    0.000132014    0.006364849
     28        1          -0.003330381    0.000224493    0.004643594
     29        1          -0.000477939   -0.003792216   -0.002598802
     30        1          -0.002742290   -0.000304118   -0.004931392
     31        1           0.002730537   -0.003461087    0.000997778
 -------------------------------------------------------------------
 Cartesian Forces:  Max     0.011689171 RMS     0.003660738

 GradGradGradGradGradGradGradGradGradGradGradGradGradGradGradGradGradGrad
 Berny optimization.
 FormGI is forming the generalized inverse of G from B-inverse, IUseBI=4.
 Internal  Forces:  Max     0.015904932 RMS     0.002294581
 Search for a local minimum.
 Step number   1 out of a maximum of  186
 All quantities printed in internal units (Hartrees-Bohrs-Radians)
 Mixed Optimization -- RFO/linear search
 Second derivative matrix not updated -- first step.
 ITU=  0
     Eigenvalues ---    0.00617   0.00693   0.00727   0.00738   0.01381
     Eigenvalues ---    0.01433   0.01458   0.02692   0.02713   0.03102
     Eigenvalues ---    0.03396   0.04200   0.04247   0.04499   0.04751
     Eigenvalues ---    0.04762   0.04915   0.04990   0.05143   0.05186
     Eigenvalues ---    0.05285   0.05661   0.05747   0.06031   0.06138
     Eigenvalues ---    0.06234   0.06351   0.06695   0.07562   0.07877
     Eigenvalues ---    0.07917   0.07941   0.07957   0.07968   0.08453
     Eigenvalues ---    0.08713   0.08992   0.09364   0.10900   0.11513
     Eigenvalues ---    0.11710   0.11735   0.11756   0.12355   0.13153
     Eigenvalues ---    0.14210   0.14552   0.16343   0.16661   0.17719
     Eigenvalues ---    0.19491   0.21563   0.21732   0.25000   0.28506
     Eigenvalues ---    0.28644   0.28645   0.28900   0.29207   0.29242
     Eigenvalues ---    0.30086   0.30285   0.35019   0.35059   0.35062
     Eigenvalues ---    0.35097   0.35121   0.35181   0.35185   0.35245
     Eigenvalues ---    0.35328   0.35343   0.35358   0.35368   0.35373
     Eigenvalues ---    0.35498   0.35777   0.35863   0.35863   0.35884
     Eigenvalues ---    0.41137   0.41671   0.41937   0.42017   0.42854
     Eigenvalues ---    0.468861000.000001000.000001000.000001000.00000
     Eigenvalues --- 1000.000001000.000001000.000001000.000001000.00000
     Eigenvalues --- 1000.000001000.000001000.000001000.000001000.00000
     Eigenvalues --- 1000.000001000.000001000.000001000.000001000.00000
     Eigenvalues --- 1000.000001000.000001000.000001000.000001000.00000
     Eigenvalues --- 1000.000001000.000001000.000001000.000001000.00000
     Eigenvalues --- 1000.000001000.000001000.000001000.000001000.00000
     Eigenvalues --- 1000.000001000.000001000.000001000.000001000.00000
     Eigenvalues --- 1000.000001000.000001000.000001000.000001000.00000
     Eigenvalues --- 1000.000001000.000001000.000001000.000001000.00000
     Eigenvalues --- 1000.000001000.000001000.000001000.000001000.00000
     Eigenvalues --- 1000.000001000.000001000.000001000.000001000.00000
     Eigenvalues --- 1000.000001000.000001000.000001000.000001000.00000
     Eigenvalues --- 1000.000001000.000001000.000001000.000001000.00000
     Eigenvalues --- 1000.000001000.000001000.000001000.000001000.00000
     Eigenvalues --- 1000.000001000.000001000.000001000.000001000.00000
     Eigenvalues --- 1000.000001000.000001000.000001000.000001000.00000
     Eigenvalues --- 1000.000001000.000001000.000001000.000001000.00000
     Eigenvalues --- 1000.000001000.000001000.000001000.000001000.00000
     Eigenvalues --- 1000.000001000.000001000.000001000.000001000.00000
 RFO step:  Lambda=-3.49325969D-03 EMin= 6.17033491D-03
 Linear search not attempted -- first point.
 Iteration  1 RMS(Cart)=  0.06680218 RMS(Int)=  0.00091134
 Iteration  2 RMS(Cart)=  0.00306797 RMS(Int)=  0.00003549
 Iteration  3 RMS(Cart)=  0.00000174 RMS(Int)=  0.00003548
 Iteration  4 RMS(Cart)=  0.00000000 RMS(Int)=  0.00003548
 Iteration  1 RMS(Cart)=  0.00003840 RMS(Int)=  0.00000843
 Iteration  2 RMS(Cart)=  0.00002071 RMS(Int)=  0.00000942
 Iteration  3 RMS(Cart)=  0.00001116 RMS(Int)=  0.00001062
 Iteration  4 RMS(Cart)=  0.00000602 RMS(Int)=  0.00001141
 Iteration  5 RMS(Cart)=  0.00000325 RMS(Int)=  0.00001186
 Iteration  6 RMS(Cart)=  0.00000175 RMS(Int)=  0.00001211
 Iteration  7 RMS(Cart)=  0.00000094 RMS(Int)=  0.00001225
 Variable       Old X    -DE/DX   Delta X   Delta X   Delta X     New X
                                 (Linear)    (Quad)   (Total)
    R1        2.87929  -0.00179   0.00000  -0.00659  -0.00660   2.87268
    R2        2.87784  -0.00054   0.00000  -0.00169  -0.00169   2.87615
    R3        2.05376   0.00369   0.00000   0.01038   0.01038   2.06414
    R4        2.05145   0.00348   0.00000   0.00976   0.00976   2.06121
    R5        2.87800  -0.00048   0.00000  -0.00158  -0.00158   2.87642
    R6        2.67189   0.00605   0.00000   0.01433   0.01434   2.68623
    R7        2.04296   0.00452   0.00000   0.01248   0.01248   2.05544
    R8        2.05580   0.00553   0.00000   0.01563   0.01563   2.07142
    R9        2.89421  -0.00098   0.00000  -0.00386  -0.00388   2.89034
   R10        2.87588  -0.00157   0.00000  -0.00436  -0.00433   2.87155
   R11        2.05073   0.00489   0.00000   0.01370   0.01370   2.06443
   R12        2.05098   0.00333   0.00000   0.00934   0.00934   2.06031
   R13        2.87999  -0.00189   0.00000  -0.00687  -0.00688   2.87311
   R14        2.69004   0.00409   0.00000   0.00967   0.00967   2.69971
   R15        2.04431   0.00724   0.00000   0.02003   0.02003   2.06434
   R16        2.05122   0.00385   0.00000   0.01078   0.01078   2.06200
   R17        2.05382   0.00369   0.00000   0.01039   0.01039   2.06421
   R18        2.65873   0.00815   0.00000   0.01922   0.01927   2.67800
   R19        2.68199   0.00564   0.00000   0.01358   0.01360   2.69559
   R20        2.88879  -0.00081   0.00000  -0.00429  -0.00434   2.88445
   R21        2.05081   0.00272   0.00000   0.00761   0.00761   2.05842
   R22        2.05645   0.00328   0.00000   0.00928   0.00928   2.06573
   R23        2.67196   0.00615   0.00000   0.01450   0.01451   2.68647
   R24        2.87227  -0.00061   0.00000  -0.00266  -0.00270   2.86957
   R25        2.05479   0.00329   0.00000   0.00928   0.00928   2.06408
   R26        2.05279   0.00277   0.00000   0.00779   0.00779   2.06058
   R27        2.63145   0.00399   0.00000   0.00845   0.00845   2.63990
   R28        2.04875   0.00766   0.00000   0.02136   0.02136   2.07011
   R29        2.05518   0.00563   0.00000   0.01587   0.01587   2.07105
   R30        2.04263   0.00461   0.00000   0.01273   0.01273   2.05536
   R31        2.05574   0.00554   0.00000   0.01565   0.01565   2.07140
   R32        2.04296   0.00451   0.00000   0.01246   0.01246   2.05542
    A1        1.92632  -0.00040   0.00000  -0.00652  -0.00657   1.91975
    A2        1.90521   0.00018   0.00000  -0.00316  -0.00314   1.90207
    A3        1.92815  -0.00069   0.00000  -0.00379  -0.00377   1.92437
    A4        1.90979   0.00005   0.00000   0.00165   0.00162   1.91141
    A5        1.91039   0.00059   0.00000   0.00520   0.00519   1.91559
    A6        1.88339   0.00029   0.00000   0.00695   0.00692   1.89031
    A7        1.94240   0.00108   0.00000   0.00426   0.00425   1.94665
    A8        1.93645  -0.00030   0.00000  -0.00263  -0.00263   1.93382
    A9        1.93020  -0.00129   0.00000  -0.00832  -0.00833   1.92186
   A10        1.86057  -0.00064   0.00000  -0.00037  -0.00036   1.86021
   A11        1.90340   0.00061   0.00000   0.00429   0.00431   1.90772
   A12        1.88864   0.00058   0.00000   0.00319   0.00317   1.89181
   A13        1.91797  -0.00037   0.00000  -0.00284  -0.00288   1.91510
   A14        1.91361   0.00101   0.00000   0.00535   0.00533   1.91894
   A15        1.93611  -0.00005   0.00000   0.00428   0.00427   1.94039
   A16        1.91573  -0.00084   0.00000  -0.01038  -0.01035   1.90538
   A17        1.89676  -0.00001   0.00000  -0.00229  -0.00229   1.89447
   A18        1.88325   0.00024   0.00000   0.00577   0.00572   1.88897
   A19        1.91484   0.00233   0.00000   0.00437   0.00435   1.91919
   A20        1.90488  -0.00047   0.00000   0.00155   0.00157   1.90645
   A21        1.90238  -0.00070   0.00000  -0.00126  -0.00125   1.90112
   A22        1.91838  -0.00090   0.00000  -0.00224  -0.00223   1.91615
   A23        1.91000  -0.00085   0.00000  -0.00421  -0.00421   1.90578
   A24        1.91326   0.00060   0.00000   0.00181   0.00180   1.91506
   A25        1.92518  -0.00032   0.00000  -0.00583  -0.00589   1.91929
   A26        1.90944   0.00060   0.00000   0.00555   0.00554   1.91498
   A27        1.90967   0.00008   0.00000   0.00186   0.00184   1.91151
   A28        1.93176  -0.00082   0.00000  -0.00543  -0.00541   1.92635
   A29        1.90438   0.00017   0.00000  -0.00295  -0.00292   1.90146
   A30        1.88281   0.00032   0.00000   0.00713   0.00710   1.88991
   A31        1.98587  -0.00500   0.00000  -0.02486  -0.02475   1.96111
   A32        1.92127   0.00179   0.00000  -0.00266  -0.00272   1.91855
   A33        1.92056  -0.00035   0.00000   0.00121   0.00126   1.92182
   A34        1.91132  -0.00090   0.00000  -0.00293  -0.00294   1.90838
   A35        1.93299  -0.00055   0.00000   0.00057   0.00057   1.93357
   A36        1.90950  -0.00060   0.00000  -0.00118  -0.00115   1.90835
   A37        1.86736   0.00056   0.00000   0.00512   0.00511   1.87247
   A38        1.97094  -0.00459   0.00000  -0.02443  -0.02439   1.94655
   A39        1.92120   0.00032   0.00000  -0.00427  -0.00432   1.91688
   A40        1.91880   0.00044   0.00000   0.00141   0.00142   1.92022
   A41        1.93727  -0.00067   0.00000  -0.00056  -0.00055   1.93671
   A42        1.90535  -0.00050   0.00000  -0.00191  -0.00192   1.90343
   A43        1.90398   0.00009   0.00000   0.00029   0.00033   1.90431
   A44        1.87645   0.00031   0.00000   0.00521   0.00521   1.88165
   A45        1.93473   0.00121   0.00000  -0.00003  -0.00023   1.93450
   A46        1.99712  -0.00201   0.00000  -0.01792  -0.01806   1.97906
   A47        1.91413  -0.00003   0.00000   0.00473   0.00472   1.91885
   A48        1.89064  -0.00091   0.00000  -0.01184  -0.01204   1.87860
   A49        1.89524   0.00038   0.00000   0.01220   0.01224   1.90749
   A50        1.82691   0.00145   0.00000   0.01502   0.01513   1.84204
   A51        1.94051   0.00080   0.00000   0.00394   0.00388   1.94439
   A52        1.90039   0.00074   0.00000   0.00383   0.00386   1.90425
   A53        1.85006  -0.00062   0.00000   0.00010   0.00012   1.85018
   A54        1.92954  -0.00112   0.00000  -0.00747  -0.00743   1.92210
   A55        1.95039  -0.00026   0.00000  -0.00274  -0.00276   1.94763
   A56        1.89029   0.00052   0.00000   0.00284   0.00281   1.89310
   A57        1.94272   0.00112   0.00000   0.00486   0.00484   1.94756
   A58        1.93007  -0.00127   0.00000  -0.00823  -0.00824   1.92183
   A59        1.93630  -0.00036   0.00000  -0.00308  -0.00308   1.93322
   A60        1.90323   0.00062   0.00000   0.00435   0.00437   1.90760
   A61        1.86078  -0.00067   0.00000  -0.00058  -0.00057   1.86021
   A62        1.88857   0.00058   0.00000   0.00308   0.00305   1.89162
   A63        2.08790  -0.01590   0.00000  -0.06274  -0.06274   2.02515
    D1       -0.91592   0.00006   0.00000  -0.00588  -0.00586  -0.92178
    D2       -3.01885   0.00003   0.00000  -0.00678  -0.00678  -3.02563
[...]
 172,0.00023389,-0.00002655,-0.00000303,-0.00002531,-0.00000105,0.00000
 273,-0.00000207,-0.00000008,-0.00000045,-0.00000007,-0.00013865,0.0000
 4262,0.00089632,-0.00084529,-0.00299330,-0.00088078,-0.12266978,-0.010
 81845,0.26649705,-0.00002108,-0.00001598,0.00002516,0.00000728,-0.0000
 1817,-0.00001364,0.00139094,-0.00104744,-0.00066547,0.00014622,0.00001
 466,-0.00010160,-0.00002078,0.00001014,0.00002477,-0.00071085,0.001880
 90,-0.00242522,-0.00295980,-0.00010912,-0.00006115,-0.00001152,0.00000
 080,0.00000367,-0.30364889,-0.02457857,-0.05177565,0.00065632,0.000534
 03,0.00105290,-0.00954571,-0.00281114,0.00008016,0.00000271,0.00001615
 ,-0.00001472,-0.00038186,-0.00004186,-0.00007307,-0.00000442,0.0000034
 4,-0.00000437,0.00000077,-0.00000093,-0.00000060,-0.00000824,-0.000000
 82,0.00000492,-0.00000002,0.00000056,0.00000197,0.00018536,0.00001133,
 0.00005793,-0.00039201,0.00021436,-0.00014341,0.00000832,-0.00000037,-
 0.00001086,0.00000294,0.00000568,-0.00000075,-0.00000501,-0.00000310,-
 0.00000379,0.00017464,-0.00034516,0.00003803,0.00056106,-0.00012119,-0
 .00026741,-0.01394348,-0.00099033,-0.00276330,0.32779070,-0.00000407,-
 0.00000282,-0.00001373,0.00000139,0.00001013,-0.00000843,0.00039575,-0
 .00484562,-0.00362964,-0.00006183,-0.00004594,0.00004692,0.00001511,-0
 .00001846,0.00001276,0.00537776,-0.00385544,0.00551917,-0.02846697,-0.
 00184096,-0.00509534,-0.00000431,0.00000638,0.00000199,-0.02528329,-0.
 04947889,-0.00346285,-0.00017130,-0.00262791,-0.00075283,0.02435136,0.
 00551638,0.00198389,-0.00000027,-0.00000307,0.00000434,0.00020265,0.00
 071242,0.00016437,-0.00000093,0.00000122,0.00000210,0.00000004,0.00000
 619,0.00000182,0.00000124,-0.00000008,-0.00000120,0.00000051,-0.000000
 41,-0.00000003,0.00026356,-0.00000367,0.00015148,-0.00176899,0.0000861
 2,-0.00084564,-0.00000144,-0.00001601,0.00000245,-0.00000273,0.0000193
 5,-0.00000495,-0.00000030,0.00000347,-0.00000275,0.00035072,0.00097675
 ,0.00103362,0.00065886,0.00122383,0.00045436,-0.00161722,-0.00101379,-
 0.00032505,0.02708374,0.05340570,-0.00002635,-0.00001774,0.00003241,0.
 00000588,-0.00001653,-0.00002424,0.00016380,-0.00307783,-0.00125405,0.
 00017209,0.,-0.00012099,-0.00003273,0.00000601,0.00004239,-0.00312814,
 0.00279345,-0.00183922,-0.01693582,-0.00109740,-0.00469845,-0.00001640
 ,0.00000330,0.00000817,-0.04903762,-0.00346814,-0.05802539,0.00087924,
 0.00046897,0.00114610,-0.01540661,-0.00403512,-0.00357850,0.00000150,0
 .00001625,-0.00002115,-0.00045718,-0.00006965,-0.00011487,-0.00000377,
 0.00000475,-0.00000410,0.00000019,-0.00000066,-0.00000202,-0.00000922,
 -0.00000107,0.00000682,0.00000053,0.00000058,0.00000414,-0.00029851,0.
 00003696,0.00012572,-0.00098475,-0.00006866,-0.00010158,-0.00001341,-0
 .00000345,-0.00002360,-0.00000190,0.00001436,-0.00000495,-0.00000445,-
 0.00000461,-0.00000410,0.00050438,0.00028684,0.00050528,0.00002947,0.0
 0083230,0.00057531,0.02662254,0.00218637,0.00677798,0.05719431,0.00588
 639,0.05993617,-0.00081361,-0.00044554,0.00121899,0.00004430,-0.000624
 61,-0.00031601,0.00525277,0.00184431,-0.00539567,-0.00049033,-0.000020
 10,-0.00548113,-0.00083582,0.00038207,0.00109312,0.00450691,-0.0007655
 3,-0.00503175,0.00111868,-0.00013467,-0.00032472,-0.00008959,-0.000011
 73,0.00004334,-0.00017472,0.00020284,0.00004802,-0.11549412,-0.0139845
 5,0.10543712,0.00263731,-0.00062734,-0.00175657,-0.00003523,0.00061050
 ,-0.00041522,-0.03902121,-0.00264717,0.02812771,-0.00003201,0.00003747
 ,-0.00008325,0.00004101,0.00007868,-0.00003599,-0.00020292,0.00000667,
 0.00014000,0.00000337,0.00001332,0.00003594,0.00010759,0.00163050,-0.0
 0102634,0.00012152,-0.00014795,0.00037541,0.00011978,0.00003459,0.0002
 6072,0.00004421,-0.00007149,-0.00003645,-0.00002631,-0.00004858,-0.000
 06559,0.00015867,-0.00005529,0.00005938,0.00019903,0.00010570,0.000212
 27,-0.00011641,-0.00007655,0.00010731,-0.00000734,0.00001988,0.0000118
 6,0.14242913,-0.00011928,-0.00011529,0.00012049,0.00001758,0.00010227,
 0.00001440,-0.01344505,-0.00337826,0.02568492,0.00058774,0.00151767,-0
 .00006162,0.00027523,-0.00008222,-0.00026273,0.00960133,-0.00913375,-0
 .03732330,-0.00121817,0.00056178,-0.00047079,-0.00000559,-0.00001765,0
 .00000728,-0.00045665,-0.00019989,0.00003221,-0.01776879,-0.05566063,0
 .03210392,0.00458503,0.00085981,-0.00004117,-0.00002109,0.00007239,-0.
 00003390,0.00190245,0.00266781,-0.00177478,-0.00001396,0.00001393,-0.0
 0000829,0.00000629,0.00001754,0.00001259,0.00002043,-0.00000325,-0.000
 01346,-0.00000012,-0.00000160,-0.00000037,0.00176294,-0.00411827,0.003
 06773,-0.00023240,0.00105869,-0.00090636,0.00005943,-0.00011325,-0.000
 04040,0.00000317,0.00003456,-0.00001884,-0.00001697,-0.00000692,0.0000
 0391,0.00017425,-0.00004323,-0.00031150,0.00048761,0.00011465,-0.00035
 829,-0.00000680,-0.00003408,0.00001012,-0.00006545,0.00024976,-0.00001
 217,0.01449046,0.06560532,-0.00020397,-0.00005736,0.00033918,-0.000000
 86,-0.00013448,-0.00005739,0.00913321,0.00404769,-0.01229462,-0.002299
 18,0.00033323,0.00073527,-0.00013193,0.00008781,0.00022974,0.00512740,
 -0.01460387,-0.02447219,0.00053134,-0.00043571,0.00021977,0.00000684,-
 0.00000869,0.00000236,-0.00041893,-0.00011379,0.00000609,0.11469714,0.
 02927661,-0.23129540,0.00305057,0.00031689,0.00087949,-0.00002526,0.00
 015183,-0.00009916,-0.00803369,-0.00091217,0.01202049,0.00000784,-0.00
 000106,-0.00002495,0.00000452,0.00002435,-0.00000819,-0.00004612,0.000
 00173,0.00002489,0.00000644,0.00000123,0.00000344,-0.00075784,0.002422
 85,-0.00035934,-0.00015743,0.00041191,0.00048112,-0.00023793,0.0000081
 2,0.00018516,0.00000418,-0.00005349,-0.00000617,0.00000655,-0.00000593
 ,-0.00001425,-0.00017891,0.00003171,0.00018218,-0.00049538,-0.00007068
 ,0.00000616,0.00012922,0.00002942,-0.00003513,-0.00008626,0.00005463,-
 0.00010198,-0.11808330,-0.02067212,0.25318346,-0.00001617,-0.00006334,
 0.00003765,0.00002669,-0.00002808,-0.00003228,-0.00004359,-0.00039672,
 -0.00050057,0.00027462,-0.00001508,0.00000229,-0.00005617,0.00004920,-
 0.00009722,-0.04127042,-0.00744825,0.02095647,-0.00007127,-0.00053669,
 -0.00029160,-0.00002693,-0.00000408,0.00001092,0.00714794,0.00184128,-
 0.00892683,0.00116592,0.00455743,0.00528626,-0.10830493,-0.01391901,0.
 10543634,0.00001191,0.00003222,-0.00003902,-0.00052667,-0.00020556,-0.
 00063516,-0.00001944,0.00002425,-0.00001521,0.00001172,-0.00000020,0.0
 0000534,-0.00001754,-0.00000156,0.00001141,0.00000043,0.00000334,0.000
 00534,-0.00003013,0.00005593,0.00001418,0.00008840,-0.00024461,0.00006
 886,-0.00007080,-0.00001522,-0.00023946,0.00000662,-0.00000570,0.00000
 387,-0.00003829,-0.00005001,-0.00000300,-0.00002841,-0.00008120,-0.000
 03093,-0.00016189,-0.00019305,0.00017395,0.00035796,0.00261195,-0.0011
 7339,0.00051916,-0.00073573,0.00055751,0.00052833,-0.00044272,-0.00106
 517,0.13750566,0.00000667,-0.00000114,-0.00001962,-0.00000091,-0.00000
 080,0.00000013,-0.00001567,-0.00024222,-0.00009519,-0.00003516,-0.0000
 6628,-0.00000215,-0.00001141,0.00000571,-0.00000743,-0.00340432,0.0021
 1812,0.00083567,-0.00074320,0.00167103,0.00070879,0.00000053,0.0000021
 1,-0.00000028,-0.01271385,-0.00347772,0.02429019,-0.00146041,0.0001440
 8,0.00178229,-0.01173339,-0.05700509,0.01798353,0.00000057,-0.00000704
 ,0.00000421,0.00010018,0.00000441,-0.00007710,-0.00000173,0.00000090,0
 .00000070,0.00000126,0.00000061,0.00000039,0.00000035,0.00000039,-0.00
 000011,0.00000008,-0.00000005,-0.00000019,0.00002795,0.00003559,-0.000
 06772,-0.00002534,-0.00001584,-0.00003201,0.00001675,-0.00000741,-0.00
 002628,0.00000026,0.00000275,0.00000053,-0.00000439,-0.00000264,0.0000
 0176,0.00021041,0.00019701,-0.00018392,0.00019029,0.00000546,-0.000349
 38,0.00145650,-0.00372613,0.00282946,0.00012276,0.00094929,-0.00068760
 ,0.00017119,0.00011874,-0.00000049,0.01409935,0.05496937,-0.00000052,-
 0.00000443,-0.00003488,-0.00000485,0.00000302,-0.00000112,0.00006701,-
 0.00005611,-0.00007618,-0.00019610,-0.00012590,-0.00005710,-0.00003024
 ,-0.00000005,-0.00001609,-0.00483960,-0.00199766,0.01136470,-0.0000657
 1,-0.00112888,0.00090038,0.00000639,0.00000072,0.00000088,0.00855199,0
 .00164925,-0.01629230,-0.00190639,0.00037816,0.00267126,0.10961584,0.0
 1931295,-0.23665374,0.00000075,-0.00001178,0.00000628,0.00019480,0.000
 17220,0.00029890,0.00000084,0.00000126,0.00000455,0.00000477,0.0000018
 8,0.00000128,0.00000214,0.00000061,0.00000046,0.00000002,-0.00000033,0
 .00000093,-0.00002254,-0.00001377,-0.00019246,0.00013267,0.00000022,0.
 00003025,0.00003624,-0.00000868,-0.00003920,-0.00000028,0.00000068,-0.
 00000036,-0.00000458,-0.00000424,0.00000439,-0.00025436,0.00000494,0.0
 0017882,0.00011288,0.00043859,0.00055866,-0.00135202,0.00331707,-0.000
 73048,-0.00020950,-0.00012126,0.00032878,0.00077059,0.00099730,-0.0000
 0444,-0.11835794,-0.02479556,0.25089583,-0.00006207,-0.00004923,0.0000
 9631,0.00001236,-0.00007507,-0.00002978,-0.00030084,-0.00026564,-0.000
 43899,0.00061925,0.00005158,-0.00056299,-0.00009486,0.00004475,0.00012
 700,-0.01487683,-0.03592831,-0.02697721,-0.00022871,0.00185228,-0.0022
 4470,-0.00001930,0.00000453,0.00000848,0.00217611,0.00785295,0.0074193
 7,-0.00339739,0.00354307,0.00245470,-0.04807236,-0.00572277,-0.0008536
 1,-0.00000471,0.00005291,-0.00004428,-0.00268633,-0.00155150,-0.001518
 00,-0.00000378,0.00000478,-0.00000903,-0.00000002,0.00000603,-0.000002
 22,-0.00002602,-0.00000054,0.00001777,-0.00000231,0.00000155,0.0000080
 1,0.00003234,-0.00000095,0.00003642,0.00018674,-0.00025363,0.00014530,
 0.00001397,0.00001981,0.00005199,0.00001069,-0.00000725,-0.00000108,-0
 .00000070,0.00000181,-0.00000031,0.00043174,0.00085804,0.00032611,-0.0
 0003527,-0.00028417,-0.00024099,0.00023375,-0.00051664,-0.00035941,0.0
 0022261,-0.00060494,0.00022258,0.00022572,-0.00014480,-0.00043474,0.00
 305610,0.01374236,0.00774367,0.06261474,-0.00002410,-0.00002186,0.0000
 3119,0.00000718,-0.00002081,-0.00001772,0.00041562,0.00044590,0.000076
 90,0.00016321,0.00000658,-0.00012213,-0.00002384,0.00001764,0.00002536
 ,-0.00390772,-0.00070662,-0.00232209,0.00229857,-0.00285907,0.00449492
 ,-0.00001001,0.00000319,0.00000680,-0.00117594,-0.02035556,-0.01444424
 ,0.00051431,0.00227027,0.00190513,-0.01552028,-0.24343810,-0.12400684,
 -0.00000106,0.00001362,-0.00002171,-0.00039391,-0.00009652,-0.00021291
 ,-0.00000403,0.00000586,-0.00000312,-0.00000168,0.00000129,-0.00000160
 ,-0.00000865,-0.00000046,0.00000598,0.,0.00000076,0.00000343,-0.000085
 74,-0.00000042,-0.00000194,-0.00009359,-0.00002356,-0.00007949,-0.0000
 1169,-0.00000603,-0.00002048,0.00000254,0.00000394,-0.00000250,-0.0000
 0474,-0.00000480,-0.00000269,-0.00038280,-0.00145771,-0.00096035,0.000
 08964,0.00016133,-0.00009168,-0.00062706,0.00129679,-0.00011307,0.0002
 5097,0.00058524,0.00002381,0.00005937,-0.00007920,-0.00012608,0.001112
 76,0.00432648,0.00199005,0.01737070,0.25993112,-0.00002057,-0.00002609
 ,0.00003914,0.00000421,-0.00003919,-0.00001538,-0.00015448,-0.00010121
 ,-0.00027760,0.00015672,-0.00006732,-0.00023538,-0.00006121,0.00002689
 ,0.00006041,-0.00506632,-0.00754359,-0.00539453,-0.00140507,0.00254728
 ,-0.00176229,-0.00000802,0.00000339,0.00000285,0.00222834,0.01679894,0
 .01123786,-0.00077496,0.00176499,0.00144695,-0.00844554,-0.12404641,-0
 .13172585,0.00000182,0.00002013,-0.00001875,-0.00088197,-0.00059283,-0
 .00012577,-0.00000204,0.00000258,-0.00000450,0.00000140,0.00000278,0.0
 0000046,-0.00001307,0.00000004,0.00000876,-0.00000071,0.00000103,0.000
 00322,0.00004944,-0.00002320,0.00001436,0.00009808,-0.00009831,0.00003
 900,0.00000077,0.00000118,-0.00000185,0.00000450,-0.00000224,-0.000000
 56,-0.00000152,-0.00000252,-0.00000327,0.00008419,0.00098171,0.0005503
 9,-0.00010248,0.00010869,0.00021083,0.00039630,-0.00078363,0.00098233,
 0.00013044,-0.00105609,0.00041962,-0.00006919,0.00023794,0.00023976,-0
 .00117708,-0.02209164,-0.01314763,0.01503763,0.13397626,0.13744811,0.0
 0843783,0.00194968,0.02488818,-0.00051140,0.00301224,0.00070442,-0.000
 01986,-0.00000526,0.00000480,0.00131777,-0.00046218,0.00076566,-0.0000
 4065,-0.00022228,0.00024118,0.00000268,0.00000608,-0.00000007,-0.00000
 032,0.00000830,-0.00000596,-0.01074306,-0.01456369,-0.01844472,0.00000
 124,0.00000031,0.00000031,-0.00001876,0.00002691,-0.00006849,-0.000001
 14,-0.00000451,-0.00000327,-0.07950912,-0.00123439,-0.07834338,-0.0001
 3942,-0.00006576,-0.00026661,-0.00343878,0.00032000,0.00352958,0.00092
 442,-0.00014515,-0.00105223,0.00005723,-0.00011570,0.00027675,0.000612
 80,-0.00035211,0.00042365,0.00000460,-0.00000093,-0.00000500,-0.000000
 11,0.00000017,0.00000017,-0.00002969,-0.00010939,-0.00026697,0.0001323
 5,0.00003064,-0.00008880,-0.00006053,0.00002684,-0.00013059,-0.0000023
 6,0.,-0.00000070,0.00000158,0.00000012,0.00000047,-0.00000056,-0.00000
 023,-0.00000033,0.00000017,0.00000026,-0.00000012,0.00000900,0.0000011
 9,0.00000615,0.00000177,-0.00000012,-0.00000109,-0.00000065,0.00000079
 ,0.00000046,0.08901137,0.00132121,0.00162925,0.00179180,-0.00361573,0.
 00351833,-0.00375609,-0.00000370,0.00000451,-0.00000705,-0.00013508,-0
 .00032979,-0.00054585,0.00040163,-0.00045770,0.00032312,-0.00001272,-0
 .00000868,-0.00000636,0.00000114,0.00000445,0.00000089,-0.02027831,-0.
 01985595,-0.03028947,-0.00000003,-0.00000033,0.00000077,0.00004091,0.0
 0001132,0.00001746,0.00000540,-0.00000023,0.00000233,0.00246921,-0.051
 14789,-0.00879396,-0.00007187,0.00003338,0.00002358,-0.00090470,0.0011
 2637,0.00040828,0.00028801,0.00028034,-0.00016296,0.00006497,0.0000535
 6,0.00025759,0.00048173,0.00058284,0.00101343,-0.00000263,-0.00000078,
 0.00000253,-0.00000214,0.00000021,0.00000311,-0.00005492,0.00012779,-0
 .00017189,0.00021290,0.00004555,-0.00007493,-0.00003585,-0.00002018,0.
 00009348,-0.00000133,-0.00000032,-0.00000126,-0.00000146,-0.00000038,-
 0.00000027,-0.00000030,0.00000032,-0.00000019,-0.00000036,0.00000030,-
 0.00000038,-0.00000704,-0.00000158,0.00000090,-0.00000092,-0.00000022,
 0.00000012,-0.00000197,-0.00000020,0.,0.01289729,0.06079673,-0.0065671
 2,-0.00026221,-0.02172129,0.00053460,0.00115246,0.00154300,0.00005500,
 0.00000592,0.00002412,-0.00167030,0.00055022,0.00035412,0.00010374,-0.
 00008088,-0.00008964,0.00005416,0.00003528,0.00002910,-0.00000534,-0.0
 0001843,0.00000209,-0.00554016,-0.00731404,0.00121032,0.00000702,-0.00
 000019,-0.00000856,-0.00012626,-0.00010999,-0.00010233,-0.00002195,-0.
 00000135,-0.00000561,-0.07882721,-0.01232601,-0.27060856,0.00057056,0.
 00012170,0.00024262,0.00369141,0.00005820,-0.00184869,0.00009754,0.000
 21279,0.00049311,0.00021306,-0.00017031,0.00033294,0.00051873,-0.00098
 489,-0.00025970,0.00000502,-0.00000143,-0.00001287,0.00000120,0.000000
 63,-0.00000009,0.00039856,-0.00048872,0.00026428,-0.00001110,-0.000127
 18,-0.00004237,-0.00004571,0.00009098,-0.00010654,0.00000992,-0.000001
 87,0.00000403,0.00000367,0.00000124,0.00000082,-0.00000130,-0.00000082
 ,0.00000508,0.00000178,0.00000026,0.00000379,0.00003597,0.00000091,0.0
 0000455,0.00000308,0.00000023,0.00000160,0.00000666,0.00000480,0.00000
 308,0.08785119,0.01902372,0.29380399,-0.01632504,0.01777243,-0.0049755
 8,-0.00125335,-0.00275497,-0.00034328,-0.00013841,-0.00004466,-0.00005
 093,-0.00027994,-0.00318693,0.00346935,0.00003369,-0.00053670,-0.00008
 276,-0.00022269,-0.00018240,-0.00017100,0.00001868,0.00006171,-0.00002
 696,0.01436812,-0.01936435,0.00379271,-0.00001911,0.00000213,0.0000109
 7,0.00075723,0.00037049,0.00068250,0.00012205,0.00000049,0.00002117,-0
 .18078746,0.13957617,-0.03360331,-0.00264944,0.00140226,0.00058350,0.0
 0136750,-0.00029255,-0.00009891,0.00050797,-0.00035989,-0.00035898,0.0
 0051747,-0.00076165,0.00011219,0.00005008,-0.00003522,0.00019376,0.000
 00471,-0.00000184,0.00001461,-0.00000586,0.00000215,0.00000620,0.00010
 953,-0.00024320,-0.00000980,0.00015734,0.00017786,-0.00012966,0.000053
 15,0.00008304,0.00000440,-0.00003327,0.00000490,-0.00001424,-0.0000070
 5,-0.00000162,0.00000118,0.00000246,-0.00000054,-0.00000329,-0.0000082
 0,0.00000151,-0.00000890,-0.00020770,-0.00001728,-0.00005449,-0.000020
 57,0.00000241,0.00000512,-0.00002396,-0.00000883,-0.00001009,-0.005998
 39,0.00694667,-0.00134642,0.18991048,-0.00115482,0.00403079,-0.0011336
 4,-0.00589766,-0.00168708,-0.00164864,0.00000400,-0.00000539,0.0000133
 3,-0.00081858,0.00078147,0.00069993,-0.00002644,-0.00010847,0.00022947
 ,0.00000891,-0.00000706,-0.00000661,-0.00000244,0.00000381,-0.00000355
 ,0.01787817,-0.03497644,0.00600770,0.00000143,0.00000032,-0.00000023,-
 0.00002134,0.00003733,0.00006212,0.00000246,-0.00000208,0.00000108,0.1
 2779135,-0.18271823,0.03030596,-0.00025801,0.00023440,0.00013518,0.000
 04664,0.00001670,-0.00008070,0.00056286,0.00013141,-0.00040582,0.00104
 253,-0.00150396,0.00021825,0.00015010,0.00006403,0.00023325,-0.0000001
 8,-0.00000022,-0.00000457,-0.00000104,0.00000193,0.00000227,0.00006166
 ,-0.00013140,0.00006269,0.00023254,0.00006763,-0.00013540,0.00002632,0
 .00003149,-0.00004534,-0.00000049,-0.00000024,-0.00000049,0.00000177,0
 .00000053,-0.00000083,-0.00000033,-0.00000020,0.00000027,0.00000046,0.
 00000054,0.00000064,-0.00001941,-0.00000586,-0.00000496,0.00000005,0.0
 0000053,-0.00000037,0.00000024,0.00000088,0.00000041,-0.00099914,0.003
 60900,0.00062899,-0.13861160,0.21213385,0.01749311,-0.01807391,0.00364
 958,0.00000639,-0.00009021,0.00032377,0.00009056,0.00003001,0.00002932
 ,0.00140437,0.00246293,-0.00235254,-0.00007781,0.00013783,-0.00007568,
 0.00012586,0.00011387,0.00010816,-0.00001094,-0.00004117,0.00002313,0.
 00232672,-0.00371169,0.00139558,0.00001313,-0.00000114,-0.00000909,-0.
 00043572,-0.00029806,-0.00049924,-0.00007201,0.00000151,-0.00001150,-0
 .03424095,0.03499744,-0.06031168,0.00218406,-0.00092293,-0.00034856,-0
 .00103232,-0.00028622,0.00111765,-0.00074109,0.00039835,0.00065968,0.0
 0001778,0.00002184,0.00035881,0.00029130,-0.00018210,0.00034206,-0.000
 00480,0.00000150,-0.00000815,0.00000808,0.00000164,-0.00000293,0.00016
 230,-0.00018401,0.00027893,-0.00002357,-0.00006466,-0.00000265,-0.0000
 6080,-0.00004571,-0.00001427,0.00002304,-0.00000363,0.00001034,0.00000
 371,0.00000090,0.00000032,-0.00000158,0.00000005,0.00000317,0.00000471
 ,-0.00000077,0.00000651,0.00014345,0.00001637,0.00003011,0.00001137,-0
 .00000122,-0.00000198,0.00001534,0.00000600,0.00000626,-0.02001464,0.0
 2084757,-0.00351640,0.03239095,-0.03513039,0.05881128\\-0.00001167,-0.
 00000024,0.00001463,-0.00002591,0.00003190,-0.00002338,0.00000031,-0.0
 0000138,0.00000466,0.00000176,-0.00149017,-0.00012057,-0.00000161,0.00
 000292,0.00001106,0.00040674,0.00075889,-0.00111560,-0.00000068,0.0000
 1106,0.00000127,0.00001610,-0.00000357,0.00001889,0.00000181,-0.000004
 69,0.00001096,-0.00053180,-0.00166505,0.00145376,-0.00005602,-0.000009
 97,-0.00001971,-0.00000875,-0.00003391,-0.00002088,0.00016102,0.002404
 99,-0.00022772,0.00000111,-0.00000202,-0.00000668,-0.00000058,0.000004
 12,0.00000413,0.00000091,-0.00000895,-0.00000323,0.00000959,-0.0000048
 9,0.00000936,-0.00000061,-0.00000168,0.00000199,0.00000183,-0.00000192
 ,-0.00000443,-0.00000215,0.00000409,0.00001668,-0.00000047,-0.00000582
 ,0.00000253,-0.00000075,0.00000040,-0.00000685,0.00000295,-0.00000240,
 0.00000355,0.00000005,0.00000254,-0.00000422,-0.00000089,-0.00000038,0
 .00000280,0.00000364,-0.00000104,-0.00000432,0.00001564,-0.00000124,-0
 .00000741,0.00001505,0.00000357,-0.00000463,0.00000002,0.00000400,0.00
 000647,0.00000563,0.00000429,0.00000951,-0.00000228,0.00000657,-0.0000
 0264\\\@


 THE MORE PROGRESS PHYSICAL SCIENCES MAKE, THE MORE THEY TEND TO ENTER
 THE DOMAIN OF MATHEMATICS, WHICH IS A KIND OF CENTRE TO WHICH THEY ALL
 CONVERGE.  WE MAY EVEN JUDGE THE DEGREE OF PERFECTION TO WHICH A 
 SCIENCE HAS ARRIVED BY THE FACILITY WITH WHICH IT MAY BE SUBMITTED
 TO CALCULATION.

                               -- ADOLPHE QUETELET, 1796-1874
 Job cpu time:       0 days 12 hours 32 minutes 45.2 seconds.
 Elapsed time:       0 days  1 hours  3 minutes  2.2 seconds.
 File lengths (MBytes):  RWF=    721 Int=      0 D2E=      0 Chk=     34 Scr=      1
 Normal termination of Gaussian 16 at Sat Mar  9 08:33:17 2019.
