 Entering Gaussian System, Link 0=g16
 Initial command:
 /sw/Projects/G16/g16/l1.exe "/nvme/pbs/tmpdir/pbs.74204[16].flm1/Gau-5242.inp" -scrdir="/nvme/pbs/tmpdir/pbs.74204[16].flm1/"
 Entering Link 1 = /sw/Projects/G16/g16/l1.exe PID=      5243.
  
 Copyright (c) 1988-2017, Gaussian, Inc.  All Rights Reserved.
  
 This is part of the Gaussian(R) 16 program.  It is based on
 the Gaussian(R) 09 system (copyright 2009, Gaussian, Inc.),
 the Gaussian(R) 03 system (copyright 2003, Gaussian, Inc.),
 the Gaussian(R) 98 system (copyright 1998, Gaussian, Inc.),
 the Gaussian(R) 94 system (copyright 1995, Gaussian, Inc.),
 the Gaussian 92(TM) system (copyright 1992, Gaussian, Inc.),
 the Gaussian 90(TM) system (copyright 1990, Gaussian, Inc.),
 the Gaussian 88(TM) system (copyright 1988, Gaussian, Inc.),
 the Gaussian 86(TM) system (copyright 1986, Carnegie Mellon
 University), and the Gaussian 82(TM) system (copyright 1983,
 Carnegie Mellon University). Gaussian is a federally registered
 trademark of Gaussian, Inc.
  
 This software contains proprietary and confidential information,
 including trade secrets, belonging to Gaussian, Inc.
  
 This software is provided under written license and may be
 used, copied, transmitted, or stored only in accord with that
 written license.
  
 The following legend is applicable only to US Government
 contracts under FAR:
  
                    RESTRICTED RIGHTS LEGEND
  
 Use, reproduction and disclosure by the US Government is
 subject to restrictions as set forth in subparagraphs (a)
 and (c) of the Commercial Computer Software - Restricted
 Rights clause in FAR 52.227-19.
  
 Gaussian, Inc.
 340 Quinnipiac St., Bldg. 40, Wallingford CT 06492
  
  
 ---------------------------------------------------------------
 Warning -- This program may not be used in any manner that
 competes with the business of Gaussian, Inc. or will provide
 assistance to any competitor of Gaussian, Inc.  The licensee
 of this program is prohibited from giving any competitor of
 Gaussian, Inc. access to this program.  By using this program,
 the user acknowledges that Gaussian, Inc. is engaged in the
 business of creating and licensing software in the field of
 computational chemistry and represents and warrants to the
 licensee that it is not a competitor of Gaussian, Inc. and that
 it will not use this program in any manner prohibited above.
 ---------------------------------------------------------------
  

 Cite this work as:
 Gaussian 16, Revision B.01,
 M. J. Frisch, G. W. Trucks, H. B. Schlegel, G. E. Scuseria, 
 M. A. Robb, J. R. Cheeseman, G. Scalmani, V. Barone, 
 G. A. Petersson, H. Nakatsuji, X. Li, M. Caricato, A. V. Marenich, 
 J. Bloino, B. G. Janesko, R. Gomperts, B. Mennucci, H. P. Hratchian, 
 J. V. Ortiz, A. F. Izmaylov, J. L. Sonnenberg, D. Williams-Young, 
 F. Ding, F. Lipparini, F. Egidi, J. Goings, B. Peng, A. Petrone, 
 T. Henderson, D. Ranasinghe, V. G. Zakrzewski, J. Gao, N. Rega, 
 G. Zheng, W. Liang, M. Hada, M. Ehara, K. Toyota, R. Fukuda, 
 J. Hasegawa, M. Ishida, T. Nakajima, Y. Honda, O. Kitao, H. Nakai, 
 T. Vreven, K. Throssell, J. A. Montgomery, Jr., J. E. Peralta, 
 F. Ogliaro, M. J. Bearpark, J. J. Heyd, E. N. Brothers, K. N. Kudin, 
 V. N. Staroverov, T. A. Keith, R. Kobayashi, J. Normand, 
 K. Raghavachari, A. P. Rendell, J. C. Burant, S. S. Iyengar, 
 J. Tomasi, M. Cossi, J. M. Millam, M. Klene, C. Adamo, R. Cammi, 
 J. W. Ochterski, R. L. Martin, K. Morokuma, O. Farkas, 
 J. B. Foresman, and D. J. Fox, Gaussian, Inc., Wallingford CT, 2016.
 
 ******************************************
 Gaussian 16:  ES64L-G16RevB.01 20-Dec-2017
                 9-Mar-2019 
 ******************************************
 %mem=20gb
 %nproc=12
 Will use up to   12 processors via shared memory.
 %chk=4c1_b1_e3_4c1_PHI.inp_extract_16.chk
 ----------------------------------------------------------------------
 #M062X/6-311++G(2d,2p) opt=ModRedundant freq=noraman SCRF=(SMD,solvent
 =water)
 ----------------------------------------------------------------------
 1/18=120,19=15,26=3,38=1/1,3;
 2/9=110,12=2,17=6,18=5,40=1/2;
 3/5=4,6=6,7=1212,11=2,25=1,30=1,70=32201,71=1,72=1,74=-55/1,2,3;
 4//1;
 5/5=2,38=5,53=1/2;
 6/7=2,8=2,9=2,10=2,28=1/1;
 7//1,2,3,16;
 1/18=20,19=15,26=3/3(2);
 2/9=110/2;
 99//99;
 2/9=110/2;
 3/5=4,6=6,7=1212,11=2,25=1,30=1,70=32205,71=1,72=1,74=-55/1,2,3;
 4/5=5,16=3,69=1/1;
 5/5=2,38=5,53=1/2;
 7//1,2,3,16;
 1/18=20,19=15,26=3/3(-5);
 2/9=110/2;
 6/7=2,8=2,9=2,10=2,19=2,28=1/1;
 99/9=1/99;
 --------------------------------
 4c1_b1_e3_4c1_PHI.inp_extract_16
 --------------------------------
 Symbolic Z-matrix:
 Charge =  0 Multiplicity = 1
 C                     2.15339  -1.28625  -0.42608 
 C                     3.07946   1.29563   0.38905 
 C                    -1.50961   0.90049  -0.59729 
 C                     1.13744  -0.19364  -0.12348 
 C                     1.7299    0.79056   0.88188 
 O                    -2.18947  -1.20972   0.30173 
 C                    -2.94872   1.41147  -0.46248 
 O                     3.96614   0.22405   0.13494 
 C                    -3.94186   0.2506   -0.49506 
 C                    -1.25458  -0.1707    0.45401 
 C                    -3.53294  -0.80752   0.51537 
 C                     3.48101  -0.67059  -0.84651 
 O                    -0.02362  -0.83286   0.37984 
 H                     2.302    -1.89503   0.46145 
 H                     1.78736  -1.93219  -1.21827 
 H                     3.55375   1.91917   1.13391 
 H                     2.96064   1.88172  -0.51968 
 H                    -1.35842   0.47003  -1.58334 
 H                    -0.81567   1.72386  -0.47875 
 H                     0.89868   0.32339  -1.04391 
 H                     1.06831   1.63678   1.03867 
 H                     1.85897   0.2872    1.83646 
 H                    -3.16011   2.1191   -1.25756 
 H                    -3.05245   1.95029   0.47712 
 H                    -3.96086  -0.19336  -1.48736 
 H                    -4.9478    0.5934   -0.27042 
 H                    -1.36695   0.25119   1.44919 
 H                    -3.63441  -0.43088   1.53027 
 H                    -4.1302   -1.70373   0.42405 
 H                     3.37497  -0.13961  -1.78988 
 H                     4.23688  -1.43339  -0.97054 
 
 The following ModRedundant input section has been read:
 D       6      10      13       4 F                                           
 

 GradGradGradGradGradGradGradGradGradGradGradGradGradGradGradGradGradGrad
 Berny optimization.
 Initialization pass.
                           ----------------------------
                           !    Initial Parameters    !
                           ! (Angstroms and Degrees)  !
 --------------------------                            --------------------------
 ! Name  Definition              Value          Derivative Info.                !
 --------------------------------------------------------------------------------
 ! R1    R(1,4)                  1.5223         estimate D2E/DX2                !
 ! R2    R(1,12)                 1.5226         estimate D2E/DX2                !
 ! R3    R(1,14)                 1.0865         estimate D2E/DX2                !
 ! R4    R(1,15)                 1.0857         estimate D2E/DX2                !
 ! R5    R(2,5)                  1.5229         estimate D2E/DX2                !
 ! R6    R(2,8)                  1.4139         estimate D2E/DX2                !
 ! R7    R(2,16)                 1.081          estimate D2E/DX2                !
 ! R8    R(2,17)                 1.0879         estimate D2E/DX2                !
 ! R9    R(3,7)                  1.5331         estimate D2E/DX2                !
 ! R10   R(3,10)                 1.5224         estimate D2E/DX2                !
 ! R11   R(3,18)                 1.0865         estimate D2E/DX2                !
 ! R12   R(3,19)                 1.0833         estimate D2E/DX2                !
 ! R13   R(4,5)                  1.5266         estimate D2E/DX2                !
 ! R14   R(4,13)                 1.4177         estimate D2E/DX2                !
 ! R15   R(4,20)                 1.0824         estimate D2E/DX2                !
 ! R16   R(5,21)                 1.0855         estimate D2E/DX2                !
 ! R17   R(5,22)                 1.0869         estimate D2E/DX2                !
 ! R18   R(6,10)                 1.406          estimate D2E/DX2                !
 ! R19   R(6,11)                 1.4186         estimate D2E/DX2                !
 ! R20   R(7,9)                  1.5281         estimate D2E/DX2                !
 ! R21   R(7,23)                 1.0852         estimate D2E/DX2                !
 ! R22   R(7,24)                 1.0881         estimate D2E/DX2                !
 ! R23   R(8,12)                 1.4139         estimate D2E/DX2                !
 ! R24   R(9,11)                 1.5191         estimate D2E/DX2                !
 ! R25   R(9,25)                 1.0873         estimate D2E/DX2                !
 ! R26   R(9,26)                 1.0862         estimate D2E/DX2                !
 ! R27   R(10,13)                1.3997         estimate D2E/DX2                !
 ! R28   R(10,27)                1.0867         estimate D2E/DX2                !
 ! R29   R(11,28)                1.0873         estimate D2E/DX2                !
 ! R30   R(11,29)                1.0809         estimate D2E/DX2                !
 ! R31   R(12,30)                1.0877         estimate D2E/DX2                !
 ! R32   R(12,31)                1.081          estimate D2E/DX2                !
 ! A1    A(4,1,12)             110.278          estimate D2E/DX2                !
 ! A2    A(4,1,14)             109.3332         estimate D2E/DX2                !
 ! A3    A(4,1,15)             110.3066         estimate D2E/DX2                !
 ! A4    A(12,1,14)            109.4426         estimate D2E/DX2                !
 ! A5    A(12,1,15)            109.4538         estimate D2E/DX2                !
 ! A6    A(14,1,15)            107.987          estimate D2E/DX2                !
 ! A7    A(5,2,8)              111.2567         estimate D2E/DX2                !
 ! A8    A(5,2,16)             110.9235         estimate D2E/DX2                !
 ! A9    A(5,2,17)             110.6224         estimate D2E/DX2                !
 ! A10   A(8,2,16)             106.6099         estimate D2E/DX2                !
 ! A11   A(8,2,17)             109.0683         estimate D2E/DX2                !
 ! A12   A(16,2,17)            108.225          estimate D2E/DX2                !
 ! A13   A(7,3,10)             109.3322         estimate D2E/DX2                !
 ! A14   A(7,3,18)             110.0286         estimate D2E/DX2                !
 ! A15   A(7,3,19)             109.7775         estimate D2E/DX2                !
 ! A16   A(10,3,18)            108.9435         estimate D2E/DX2                !
 ! A17   A(10,3,19)            110.6043         estimate D2E/DX2                !
 ! A18   A(18,3,19)            108.1376         estimate D2E/DX2                !
 ! A19   A(1,4,5)              109.5498         estimate D2E/DX2                !
 ! A20   A(1,4,13)             107.0679         estimate D2E/DX2                !
 ! A21   A(1,4,20)             108.7246         estimate D2E/DX2                !
 ! A22   A(5,4,13)             112.0069         estimate D2E/DX2                !
 ! A23   A(5,4,20)             109.736          estimate D2E/DX2                !
 ! A24   A(13,4,20)            109.6709         estimate D2E/DX2                !
 ! A25   A(2,5,4)              110.1585         estimate D2E/DX2                !
 ! A26   A(2,5,21)             109.1647         estimate D2E/DX2                !
 ! A27   A(2,5,22)             109.4255         estimate D2E/DX2                !
 ! A28   A(4,5,21)             111.1725         estimate D2E/DX2                !
 ! A29   A(4,5,22)             109.0219         estimate D2E/DX2                !
 ! A30   A(21,5,22)            107.8516         estimate D2E/DX2                !
 ! A31   A(10,6,11)            113.8222         estimate D2E/DX2                !
 ! A32   A(3,7,9)              110.7941         estimate D2E/DX2                !
 ! A33   A(3,7,23)             109.62           estimate D2E/DX2                !
 ! A34   A(3,7,24)             109.2977         estimate D2E/DX2                !
 ! A35   A(9,7,23)             110.6809         estimate D2E/DX2                !
 ! A36   A(9,7,24)             109.4294         estimate D2E/DX2                !
 ! A37   A(23,7,24)            106.9308         estimate D2E/DX2                !
 ! A38   A(2,8,12)             112.9016         estimate D2E/DX2                !
 ! A39   A(7,9,11)             109.8778         estimate D2E/DX2                !
 ! A40   A(7,9,25)             109.9391         estimate D2E/DX2                !
 ! A41   A(7,9,26)             110.9608         estimate D2E/DX2                !
 ! A42   A(11,9,25)            109.1069         estimate D2E/DX2                !
 ! A43   A(11,9,26)            109.3624         estimate D2E/DX2                !
 ! A44   A(25,9,26)            107.5439         estimate D2E/DX2                !
 ! A45   A(3,10,6)             109.4993         estimate D2E/DX2                !
 ! A46   A(3,10,13)            116.3325         estimate D2E/DX2                !
 ! A47   A(3,10,27)            109.9925         estimate D2E/DX2                !
 ! A48   A(6,10,13)            103.2639         estimate D2E/DX2                !
 ! A49   A(6,10,27)            108.5008         estimate D2E/DX2                !
 ! A50   A(13,10,27)           108.8512         estimate D2E/DX2                !
 ! A51   A(6,11,9)             110.6248         estimate D2E/DX2                !
 ! A52   A(6,11,28)            109.0975         estimate D2E/DX2                !
 ! A53   A(6,11,29)            105.9926         estimate D2E/DX2                !
 ! A54   A(9,11,28)            110.7598         estimate D2E/DX2                !
 ! A55   A(9,11,29)            111.8756         estimate D2E/DX2                !
 ! A56   A(28,11,29)           108.3321         estimate D2E/DX2                !
 ! A57   A(1,12,8)             111.3069         estimate D2E/DX2                !
 ! A58   A(1,12,30)            110.6005         estimate D2E/DX2                !
 ! A59   A(1,12,31)            110.8573         estimate D2E/DX2                !
 ! A60   A(8,12,30)            109.0631         estimate D2E/DX2                !
 ! A61   A(8,12,31)            106.6324         estimate D2E/DX2                !
 ! A62   A(30,12,31)           108.2472         estimate D2E/DX2                !
 ! A63   A(4,13,10)            121.7178         estimate D2E/DX2                !
 ! D1    D(12,1,4,5)           -52.8994         estimate D2E/DX2                !
 ! D2    D(12,1,4,13)         -174.5668         estimate D2E/DX2                !
 ! D3    D(12,1,4,20)           67.0169         estimate D2E/DX2                !
 ! D4    D(14,1,4,5)            67.4778         estimate D2E/DX2                !
 ! D5    D(14,1,4,13)          -54.1895         estimate D2E/DX2                !
 ! D6    D(14,1,4,20)         -172.6059         estimate D2E/DX2                !
 ! D7    D(15,1,4,5)          -173.9171         estimate D2E/DX2                !
 ! D8    D(15,1,4,13)           64.4155         estimate D2E/DX2                !
 ! D9    D(15,1,4,20)          -54.0008         estimate D2E/DX2                !
 ! D10   D(4,1,12,8)            55.9687         estimate D2E/DX2                !
 ! D11   D(4,1,12,30)          -65.4389         estimate D2E/DX2                !
 ! D12   D(4,1,12,31)          174.483          estimate D2E/DX2                !
 ! D13   D(14,1,12,8)          -64.3427         estimate D2E/DX2                !
 ! D14   D(14,1,12,30)         174.2496         estimate D2E/DX2                !
 ! D15   D(14,1,12,31)          54.1715         estimate D2E/DX2                !
 ! D16   D(15,1,12,8)          177.4942         estimate D2E/DX2                !
 ! D17   D(15,1,12,30)          56.0865         estimate D2E/DX2                !
 ! D18   D(15,1,12,31)         -63.9916         estimate D2E/DX2                !
 ! D19   D(8,2,5,4)            -56.054          estimate D2E/DX2                !
 ! D20   D(8,2,5,21)          -178.3916         estimate D2E/DX2                !
 ! D21   D(8,2,5,22)            63.7885         estimate D2E/DX2                !
 ! D22   D(16,2,5,4)          -174.5507         estimate D2E/DX2                !
 ! D23   D(16,2,5,21)           63.1117         estimate D2E/DX2                !
 ! D24   D(16,2,5,22)          -54.7082         estimate D2E/DX2                !
 ! D25   D(17,2,5,4)            65.3412         estimate D2E/DX2                !
 ! D26   D(17,2,5,21)          -56.9964         estimate D2E/DX2                !
 ! D27   D(17,2,5,22)         -174.8163         estimate D2E/DX2                !
 ! D28   D(5,2,8,12)            59.9139         estimate D2E/DX2                !
 ! D29   D(16,2,8,12)         -179.0272         estimate D2E/DX2                !
 ! D30   D(17,2,8,12)          -62.3844         estimate D2E/DX2                !
 ! D31   D(10,3,7,9)           -53.1972         estimate D2E/DX2                !
 ! D32   D(10,3,7,23)         -175.638          estimate D2E/DX2                !
 ! D33   D(10,3,7,24)           67.4648         estimate D2E/DX2                !
 ! D34   D(18,3,7,9)            66.4111         estimate D2E/DX2                !
 ! D35   D(18,3,7,23)          -56.0296         estimate D2E/DX2                !
 ! D36   D(18,3,7,24)         -172.9269         estimate D2E/DX2                !
 ! D37   D(19,3,7,9)          -174.6952         estimate D2E/DX2                !
 ! D38   D(19,3,7,23)           62.8641         estimate D2E/DX2                !
 ! D39   D(19,3,7,24)          -54.0331         estimate D2E/DX2                !
 ! D40   D(7,3,10,6)            57.4294         estimate D2E/DX2                !
 ! D41   D(7,3,10,13)          173.9702         estimate D2E/DX2                !
 ! D42   D(7,3,10,27)          -61.717          estimate D2E/DX2                !
 ! D43   D(18,3,10,6)          -62.8455         estimate D2E/DX2                !
 ! D44   D(18,3,10,13)          53.6953         estimate D2E/DX2                !
 ! D45   D(18,3,10,27)         178.0081         estimate D2E/DX2                !
 ! D46   D(19,3,10,6)          178.4262         estimate D2E/DX2                !
 ! D47   D(19,3,10,13)         -65.033          estimate D2E/DX2                !
 ! D48   D(19,3,10,27)          59.2798         estimate D2E/DX2                !
 ! D49   D(1,4,5,2)             52.9491         estimate D2E/DX2                !
 ! D50   D(1,4,5,21)           174.0944         estimate D2E/DX2                !
 ! D51   D(1,4,5,22)           -67.1376         estimate D2E/DX2                !
 ! D52   D(13,4,5,2)           171.5989         estimate D2E/DX2                !
 ! D53   D(13,4,5,21)          -67.2558         estimate D2E/DX2                !
 ! D54   D(13,4,5,22)           51.5122         estimate D2E/DX2                !
 ! D55   D(20,4,5,2)           -66.3464         estimate D2E/DX2                !
 ! D56   D(20,4,5,21)           54.799          estimate D2E/DX2                !
 ! D57   D(20,4,5,22)          173.567          estimate D2E/DX2                !
 ! D58   D(1,4,13,10)         -164.25           estimate D2E/DX2                !
 ! D59   D(5,4,13,10)           75.6413         estimate D2E/DX2                !
 ! D60   D(20,4,13,10)         -46.4506         estimate D2E/DX2                !
 ! D61   D(11,6,10,3)          -63.1882         estimate D2E/DX2                !
 ! D62   D(11,6,10,13)         172.2749         estimate D2E/DX2                !
 ! D63   D(11,6,10,27)          56.8749         estimate D2E/DX2                !
 ! D64   D(10,6,11,9)           61.6943         estimate D2E/DX2                !
 ! D65   D(10,6,11,28)         -60.385          estimate D2E/DX2                !
 ! D66   D(10,6,11,29)        -176.8388         estimate D2E/DX2                !
 ! D67   D(3,7,9,11)            51.5195         estimate D2E/DX2                !
 ! D68   D(3,7,9,25)           -68.5749         estimate D2E/DX2                !
 ! D69   D(3,7,9,26)           172.5861         estimate D2E/DX2                !
 ! D70   D(23,7,9,11)          173.3403         estimate D2E/DX2                !
 ! D71   D(23,7,9,25)           53.246          estimate D2E/DX2                !
 ! D72   D(23,7,9,26)          -65.593          estimate D2E/DX2                !
 ! D73   D(24,7,9,11)          -69.0643         estimate D2E/DX2                !
 ! D74   D(24,7,9,25)          170.8413         estimate D2E/DX2                !
 ! D75   D(24,7,9,26)           52.0023         estimate D2E/DX2                !
 ! D76   D(2,8,12,1)           -59.8236         estimate D2E/DX2                !
 ! D77   D(2,8,12,30)           62.4765         estimate D2E/DX2                !
 ! D78   D(2,8,12,31)          179.1548         estimate D2E/DX2                !
 ! D79   D(7,9,11,6)           -54.0523         estimate D2E/DX2                !
 ! D80   D(7,9,11,28)           67.0469         estimate D2E/DX2                !
 ! D81   D(7,9,11,29)         -171.9786         estimate D2E/DX2                !
 ! D82   D(25,9,11,6)           66.5461         estimate D2E/DX2                !
 ! D83   D(25,9,11,28)        -172.3547         estimate D2E/DX2                !
 ! D84   D(25,9,11,29)         -51.3802         estimate D2E/DX2                !
 ! D85   D(26,9,11,6)         -176.075          estimate D2E/DX2                !
 ! D86   D(26,9,11,28)         -54.9758         estimate D2E/DX2                !
 ! D87   D(26,9,11,29)          65.9987         estimate D2E/DX2                !
 ! D88   D(3,10,13,4)           30.2736         estimate D2E/DX2                !
 ! D89   D(6,10,13,4)          150.2284         Frozen                          !
 ! D90   D(27,10,13,4)         -94.6224         estimate D2E/DX2                !
 --------------------------------------------------------------------------------
 Trust Radius=3.00D-01 FncErr=1.00D-07 GrdErr=1.00D-06 EigMax=2.50D+02 EigMin=1.00D-04
 Number of steps in this run=    186 maximum allowed number of steps=    186.
 GradGradGradGradGradGradGradGradGradGradGradGradGradGradGradGradGradGrad

                          Input orientation:                          
 ---------------------------------------------------------------------
 Center     Atomic      Atomic             Coordinates (Angstroms)
 Number     Number       Type             X           Y           Z
 ---------------------------------------------------------------------
      1          6           0        2.153387   -1.286251   -0.426079
      2          6           0        3.079464    1.295626    0.389049
      3          6           0       -1.509610    0.900493   -0.597291
      4          6           0        1.137436   -0.193640   -0.123476
      5          6           0        1.729898    0.790555    0.881880
      6          8           0       -2.189473   -1.209722    0.301733
      7          6           0       -2.948721    1.411473   -0.462481
      8          8           0        3.966143    0.224054    0.134941
      9          6           0       -3.941863    0.250599   -0.495060
     10          6           0       -1.254582   -0.170701    0.454011
     11          6           0       -3.532937   -0.807519    0.515370
     12          6           0        3.481014   -0.670589   -0.846508
     13          8           0       -0.023621   -0.832857    0.379836
     14          1           0        2.301995   -1.895027    0.461451
     15          1           0        1.787355   -1.932185   -1.218268
     16          1           0        3.553753    1.919166    1.133911
     17          1           0        2.960640    1.881720   -0.519683
     18          1           0       -1.358416    0.470032   -1.583344
     19          1           0       -0.815668    1.723858   -0.478747
     20          1           0        0.898676    0.323388   -1.043906
     21          1           0        1.068314    1.636784    1.038668
     22          1           0        1.858968    0.287201    1.836464
     23          1           0       -3.160112    2.119096   -1.257558
     24          1           0       -3.052454    1.950285    0.477121
     25          1           0       -3.960857   -0.193364   -1.487362
     26          1           0       -4.947795    0.593398   -0.270417
     27          1           0       -1.366952    0.251186    1.449192
     28          1           0       -3.634405   -0.430875    1.530271
     29          1           0       -4.130201   -1.703733    0.424051
     30          1           0        3.374966   -0.139614   -1.789877
     31          1           0        4.236884   -1.433386   -0.970543
 ---------------------------------------------------------------------
                    Distance matrix (angstroms):
                    1          2          3          4          5
     1  C    0.000000
     2  C    2.861493   0.000000
     3  C    4.269509   4.710477   0.000000
     4  C    1.522342   2.500414   2.903184   0.000000
     5  C    2.490627   1.522927   3.562927   1.526562   0.000000
     6  O    4.404089   5.834903   2.392376   3.504504   4.438372
     7  C    5.771529   6.089133   1.533074   4.403180   4.907374
     8  O    2.425252   1.413873   5.565753   2.871033   2.424795
     9  C    6.286393   7.153514   2.519656   5.112211   5.861432
    10  C    3.692325   4.575838   1.522410   2.460847   3.164523
    11  C    5.783579   6.939958   2.872137   4.753668   5.512314
    12  C    1.522627   2.356660   5.238009   2.498522   2.861586
    13  O    2.365255   3.762933   2.483434   1.417736   2.441791
    14  H    1.086463   3.284808   4.843986   2.143141   2.777842
    15  H    1.085713   3.830376   4.390860   2.154879   3.439075
    16  H    3.830051   1.081005   5.447238   3.447254   2.159567
    17  H    3.270544   1.087851   4.577332   2.790730   2.160959
    18  H    4.093477   4.926126   1.086488   2.966640   3.964561
    19  H    4.228335   4.013540   1.083300   2.760006   3.033524
    20  H    2.132357   2.784680   2.516417   1.082366   2.148913
    21  H    3.444851   2.140822   3.140729   2.169288   1.085532
    22  H    2.771558   2.145120   4.200787   2.143171   1.086856
    23  H    6.365612   6.505515   2.155250   5.010370   5.500401
    24  H    6.196105   6.167394   2.153321   4.744714   4.937580
    25  H    6.301167   7.436675   2.827961   5.277573   6.242283
    26  H    7.347387   8.084857   3.467315   6.137675   6.779251
    27  H    4.274709   4.688856   2.151754   2.990504   3.194251
    28  H    6.169077   7.025612   3.288436   5.055851   5.539679
    29  H    6.354565   7.808755   3.833097   5.507101   6.385283
    30  H    2.160319   2.625824   5.134507   2.790403   3.272575
    31  H    2.158483   3.261230   6.213574   3.443990   3.829147
                    6          7          8          9         10
     6  O    0.000000
     7  C    2.833927   0.000000
     8  O    6.322590   7.041464   0.000000
     9  C    2.416255   1.528078   7.933106   0.000000
    10  C    1.405978   2.492657   5.245341   2.880921   0.000000
    11  C    1.418557   2.494279   7.579253   1.519145   2.366475
    12  C    5.810641   6.769339   1.413852   7.488071   4.936305
    13  O    2.199782   3.781894   4.134640   4.158358   1.399721
    14  H    4.546255   6.273485   2.714130   6.671161   3.952543
    15  H    4.318277   5.846510   3.350770   6.173452   3.892650
    16  H    6.592959   6.714789   2.010326   7.849963   5.286766
    17  H    6.062623   5.928318   2.046320   7.092652   4.788383
    18  H    2.658147   2.161415   5.600352   2.811887   2.138255
    19  H    3.332024   2.155867   5.048935   3.455988   2.156858
    20  H    3.701059   4.040352   3.287689   4.872099   2.669157
    21  H    4.388490   4.294273   3.348125   5.419936   3.000779
    22  H    4.581054   5.446376   2.709124   6.251958   3.437302
    23  H    3.801915   1.085156   7.504249   2.164213   3.435649
    24  H    3.280418   1.088086   7.235860   2.150608   2.780550
    25  H    2.715077   2.156456   8.102064   1.087257   3.330671
    26  H    3.344688   2.168509   8.930791   1.086220   3.840373
    27  H    2.031614   2.739115   5.492713   3.226497   1.086739
    28  H    2.050302   2.799191   7.755270   2.158912   2.624802
    29  H    2.006348   3.447658   8.327709   2.167868   3.258875
    30  H    6.040111   6.645063   2.046135   7.440753   5.144775
    31  H    6.554905   7.744951   2.010598   8.363838   5.812050
                   11         12         13         14         15
    11  C    0.000000
    12  C    7.146256   0.000000
    13  O    3.512024   3.716546   0.000000
    14  H    5.935656   2.144782   2.557998   0.000000
    15  H    5.707528   2.144367   2.653694   1.757183   0.000000
    16  H    7.618306   3.261009   4.576010   4.070279   4.846216
    17  H    7.104216   2.625240   4.133265   3.957304   4.050986
    18  H    3.281048   5.026333   2.708002   4.813865   3.974896
    19  H    3.844436   4.932555   2.810924   4.868277   4.548546
    20  H    4.832131   2.774063   2.052943   3.026015   2.430589
    21  H    5.236408   3.833925   2.779480   3.785345   4.283494
    22  H    5.658298   3.278221   2.630672   2.617069   3.776532
    23  H    3.441998   7.214975   4.607891   6.993053   6.394674
    24  H    2.799609   7.162903   4.114508   6.592177   6.432081
    25  H    2.138045   7.484643   4.404226   6.776197   6.011477
    26  H    2.140526   8.542503   5.167642   7.699828   7.255290
    27  H    2.585415   5.442672   2.030569   4.363833   4.672484
    28  H    1.087281   7.505713   3.810886   6.207009   6.261300
    29  H    1.080862   7.785390   4.198140   6.435149   6.145476
    30  H    7.312960   1.087716   4.091288   3.049790   2.461820
    31  H    7.935349   1.081010   4.509552   2.451023   2.512043
                   16         17         18         19         20
    16  H    0.000000
    17  H    1.757145   0.000000
    18  H    5.797661   4.666742   0.000000
    19  H    4.661615   3.779828   1.756926   0.000000
    20  H    3.786665   2.637215   2.325288   2.284665   0.000000
    21  H    2.503241   2.463605   3.758361   2.420644   2.467975
    22  H    2.455440   3.050836   4.698944   3.818097   3.036446
    23  H    7.129872   6.169636   2.464073   2.501835   4.443419
    24  H    6.638849   6.095541   3.050644   2.442983   4.535609
    25  H    8.234271   7.290370   2.687379   3.819065   4.907010
    26  H    8.718149   8.016561   3.823956   4.289034   5.903593
    27  H    5.205276   5.026247   3.040434   2.487896   3.369543
    28  H    7.572939   7.283202   3.960601   4.077291   5.267269
    29  H    8.524814   8.001633   4.054341   4.852788   5.617270
    30  H    3.580374   2.422984   4.776948   4.770011   2.627329
    31  H    4.016839   3.580782   5.941877   5.978155   3.772966
                   21         22         23         24         25
    21  H    0.000000
    22  H    1.755844   0.000000
    23  H    4.835790   6.174138   0.000000
    24  H    4.170653   5.360572   1.746195   0.000000
    25  H    5.918009   6.719310   2.457941   3.046247   0.000000
    26  H    6.244672   7.131951   2.549120   2.447912   1.753282
    27  H    2.831772   3.249282   3.745798   2.583172   3.943262
    28  H    5.160664   5.548561   3.807794   2.667905   3.044518
    29  H    6.209780   6.467525   4.287529   3.810013   2.442006
    30  H    4.059175   3.953577   6.934867   7.128723   7.342255
    31  H    4.847959   4.061304   8.210850   8.165746   8.307088
                   26         27         28         29         30
    26  H    0.000000
    27  H    3.987054   0.000000
    28  H    2.452877   2.369203   0.000000
    29  H    2.535263   3.536689   1.757755   0.000000
    30  H    8.492021   5.755873   7.761411   7.979692   0.000000
    31  H    9.431668   6.332131   8.319633   8.486819   1.757287
                   31
    31  H    0.000000
 Stoichiometry    C10H18O3
 Framework group  C1[X(C10H18O3)]
 Deg. of freedom    87
 Full point group                 C1      NOp   1
 Largest Abelian subgroup         C1      NOp   1
 Largest concise Abelian subgroup C1      NOp   1
                         Standard orientation:                         
 ---------------------------------------------------------------------
 Center     Atomic      Atomic             Coordinates (Angstroms)
 Number     Number       Type             X           Y           Z
 ---------------------------------------------------------------------
      1          6           0       -2.153387   -1.286251    0.426079
      2          6           0       -3.079464    1.295626   -0.389049
      3          6           0        1.509610    0.900493    0.597291
      4          6           0       -1.137436   -0.193640    0.123476
      5          6           0       -1.729898    0.790555   -0.881880
      6          8           0        2.189473   -1.209722   -0.301733
      7          6           0        2.948721    1.411473    0.462481
      8          8           0       -3.966143    0.224054   -0.134941
      9          6           0        3.941863    0.250599    0.495060
     10          6           0        1.254582   -0.170701   -0.454011
     11          6           0        3.532937   -0.807519   -0.515370
     12          6           0       -3.481014   -0.670589    0.846508
     13          8           0        0.023621   -0.832857   -0.379836
     14          1           0       -2.301995   -1.895027   -0.461451
     15          1           0       -1.787355   -1.932185    1.218268
     16          1           0       -3.553753    1.919166   -1.133911
     17          1           0       -2.960640    1.881720    0.519683
     18          1           0        1.358416    0.470032    1.583344
     19          1           0        0.815668    1.723858    0.478747
     20          1           0       -0.898676    0.323388    1.043906
     21          1           0       -1.068314    1.636784   -1.038668
     22          1           0       -1.858968    0.287201   -1.836464
     23          1           0        3.160112    2.119096    1.257558
     24          1           0        3.052454    1.950285   -0.477121
     25          1           0        3.960857   -0.193364    1.487362
     26          1           0        4.947795    0.593398    0.270417
     27          1           0        1.366952    0.251186   -1.449192
     28          1           0        3.634405   -0.430875   -1.530271
     29          1           0        4.130201   -1.703733   -0.424051
     30          1           0       -3.374966   -0.139614    1.789877
     31          1           0       -4.236884   -1.433386    0.970543
 ---------------------------------------------------------------------
 Rotational constants (GHZ):           2.1787638           0.3590685           0.3353159
 Standard basis: 6-311++G(2d,2p) (5D, 7F)
 There are   557 symmetry adapted cartesian basis functions of A   symmetry.
 There are   531 symmetry adapted basis functions of A   symmetry.
   531 basis functions,   762 primitive gaussians,   557 cartesian basis functions
    51 alpha electrons       51 beta electrons
       nuclear repulsion energy       878.6400744061 Hartrees.
 NAtoms=   31 NActive=   31 NUniq=   31 SFac= 1.00D+00 NAtFMM=   60 NAOKFM=F Big=F
 Integral buffers will be    131072 words long.
 Raffenetti 2 integral format.
 Two-electron integral symmetry is turned on.
 ------------------------------------------------------------------------------
 Polarizable Continuum Model (PCM)
 =================================
 Model                : PCM.
 Atomic radii         : SMD-Coulomb.
 Polarization charges : Total charges.
 Charge compensation  : None.
 Solution method      : On-the-fly selection.
 Cavity type          : VdW (van der Waals Surface) (Alpha=1.000).
 Cavity algorithm     : GePol (No added spheres)
                        Default sphere list used, NSphG=   31.
                        Lebedev-Laikov grids with approx.  5.0 points / Ang**2.
                        Smoothing algorithm: York/Karplus (Gamma=1.0000).
                        Polarization charges: spherical gaussians, with
                                              point-specific exponents (IZeta= 3).
                        Self-potential: point-specific (ISelfS= 7).
                        Self-field    : sphere-specific E.n sum rule (ISelfD= 2).
 1st derivatives      : Analytical E(r).r(x)/FMM algorithm (CHGder, D1EAlg=3).
                        Cavity 1st derivative terms included.
 Solvent              : Water, Eps=  78.355300 Eps(inf)=   1.777849
 ------------------------------------------------------------------------------
 ------------------------------------------------------------------------------
 Atomic radii for non-electrostatic terms: SMD-CDS.
 ------------------------------------------------------------------------------
 Nuclear repulsion after PCM non-electrostatic terms =      878.6463992116 Hartrees.
 One-electron integrals computed using PRISM.
 NBasis=   531 RedAO= T EigKep=  4.90D-06  NBF=   531
 NBsUse=   531 1.00D-06 EigRej= -1.00D+00 NBFU=   531
 ExpMin= 3.60D-02 ExpMax= 8.59D+03 ExpMxC= 1.30D+03 IAcc=3 IRadAn=         5 AccDes= 0.00D+00
 Harris functional with IExCor= 1009 and IRadAn=       5 diagonalized for initial guess.
 HarFok:  IExCor= 1009 AccDes= 0.00D+00 IRadAn=         5 IDoV= 1 UseB2=F ITyADJ=14
 ICtDFT=  3500011 ScaDFX=  1.000000  1.000000  1.000000  1.000000
 FoFCou: FMM=F IPFlag=           0 FMFlag=      100000 FMFlg1=           0
         NFxFlg=           0 DoJE=T BraDBF=F KetDBF=T FulRan=T
         wScrn=  0.000000 ICntrl=       500 IOpCl=  0 I1Cent=   200000004 NGrid=           0
         NMat0=    1 NMatS0=      1 NMatT0=    0 NMatD0=    1 NMtDS0=    0 NMtDT0=    0
 Petite list used in FoFCou.
 Requested convergence on RMS density matrix=1.00D-08 within 128 cycles.
 Requested convergence on MAX density matrix=1.00D-06.
 Requested convergence on             energy=1.00D-06.
 No special actions if energy rises.
 Inv3:  Mode=1 IEnd=    12048048.
 Iteration    1 A*A^-1 deviation from unit magnitude is 6.99D-15 for    380.
 Iteration    1 A*A^-1 deviation from orthogonality  is 3.70D-15 for   1468    155.
 Iteration    1 A^-1*A deviation from unit magnitude is 6.99D-15 for    380.
 Iteration    1 A^-1*A deviation from orthogonality  is 2.69D-12 for   1845   1809.
 Error on total polarization charges =  0.06355
 SCF Done:  E(RM062X) =  -617.502176220     A.U. after   12 cycles
            NFock= 12  Conv=0.54D-08     -V/T= 2.0035
 SMD-CDS (non-electrostatic) energy       (kcal/mol) =       3.97
 (included in total energy above)

 **********************************************************************

            Population analysis using the SCF Density.

 **********************************************************************

 Orbital symmetries:
       Occupied  (A) (A) (A) (A) (A) (A) (A) (A) (A) (A) (A) (A)
                 (A) (A) (A) (A) (A) (A) (A) (A) (A) (A) (A) (A)
                 (A) (A) (A) (A) (A) (A) (A) (A) (A) (A) (A) (A)
                 (A) (A) (A) (A) (A) (A) (A) (A) (A) (A) (A) (A)
                 (A) (A) (A)
       Virtual   (A) (A) (A) (A) (A) (A) (A) (A) (A) (A) (A) (A)
                 (A) (A) (A) (A) (A) (A) (A) (A) (A) (A) (A) (A)
                 (A) (A) (A) (A) (A) (A) (A) (A) (A) (A) (A) (A)
                 (A) (A) (A) (A) (A) (A) (A) (A) (A) (A) (A) (A)
                 (A) (A) (A) (A) (A) (A) (A) (A) (A) (A) (A) (A)
                 (A) (A) (A) (A) (A) (A) (A) (A) (A) (A) (A) (A)
                 (A) (A) (A) (A) (A) (A) (A) (A) (A) (A) (A) (A)
                 (A) (A) (A) (A) (A) (A) (A) (A) (A) (A) (A) (A)
                 (A) (A) (A) (A) (A) (A) (A) (A) (A) (A) (A) (A)
                 (A) (A) (A) (A) (A) (A) (A) (A) (A) (A) (A) (A)
                 (A) (A) (A) (A) (A) (A) (A) (A) (A) (A) (A) (A)
                 (A) (A) (A) (A) (A) (A) (A) (A) (A) (A) (A) (A)
                 (A) (A) (A) (A) (A) (A) (A) (A) (A) (A) (A) (A)
                 (A) (A) (A) (A) (A) (A) (A) (A) (A) (A) (A) (A)
                 (A) (A) (A) (A) (A) (A) (A) (A) (A) (A) (A) (A)
                 (A) (A) (A) (A) (A) (A) (A) (A) (A) (A) (A) (A)
                 (A) (A) (A) (A) (A) (A) (A) (A) (A) (A) (A) (A)
                 (A) (A) (A) (A) (A) (A) (A) (A) (A) (A) (A) (A)
                 (A) (A) (A) (A) (A) (A) (A) (A) (A) (A) (A) (A)
                 (A) (A) (A) (A) (A) (A) (A) (A) (A) (A) (A) (A)
                 (A) (A) (A) (A) (A) (A) (A) (A) (A) (A) (A) (A)
                 (A) (A) (A) (A) (A) (A) (A) (A) (A) (A) (A) (A)
                 (A) (A) (A) (A) (A) (A) (A) (A) (A) (A) (A) (A)
                 (A) (A) (A) (A) (A) (A) (A) (A) (A) (A) (A) (A)
                 (A) (A) (A) (A) (A) (A) (A) (A) (A) (A) (A) (A)
                 (A) (A) (A) (A) (A) (A) (A) (A) (A) (A) (A) (A)
                 (A) (A) (A) (A) (A) (A) (A) (A) (A) (A) (A) (A)
                 (A) (A) (A) (A) (A) (A) (A) (A) (A) (A) (A) (A)
                 (A) (A) (A) (A) (A) (A) (A) (A) (A) (A) (A) (A)
                 (A) (A) (A) (A) (A) (A) (A) (A) (A) (A) (A) (A)
                 (A) (A) (A) (A) (A) (A) (A) (A) (A) (A) (A) (A)
                 (A) (A) (A) (A) (A) (A) (A) (A) (A) (A) (A) (A)
                 (A) (A) (A) (A) (A) (A) (A) (A) (A) (A) (A) (A)
                 (A) (A) (A) (A) (A) (A) (A) (A) (A) (A) (A) (A)
                 (A) (A) (A) (A) (A) (A) (A) (A) (A) (A) (A) (A)
                 (A) (A) (A) (A) (A) (A) (A) (A) (A) (A) (A) (A)
                 (A) (A) (A) (A) (A) (A) (A) (A) (A) (A) (A) (A)
                 (A) (A) (A) (A) (A) (A) (A) (A) (A) (A) (A) (A)
                 (A) (A) (A) (A) (A) (A) (A) (A) (A) (A) (A) (A)
                 (A) (A) (A) (A) (A) (A) (A) (A) (A) (A) (A) (A)
 The electronic state is 1-A.
 Alpha  occ. eigenvalues --  -19.63051 -19.62974 -19.62733 -10.63339 -10.58512
 Alpha  occ. eigenvalues --  -10.57430 -10.57421 -10.57339 -10.52516 -10.52388
 Alpha  occ. eigenvalues --  -10.52368 -10.52228 -10.52107  -1.20242  -1.16561
 Alpha  occ. eigenvalues --   -1.13944  -0.90276  -0.89666  -0.86330  -0.84825
 Alpha  occ. eigenvalues --   -0.75394  -0.73644  -0.72443  -0.69517  -0.66092
 Alpha  occ. eigenvalues --   -0.64123  -0.60460  -0.57231  -0.56845  -0.54929
 Alpha  occ. eigenvalues --   -0.54490  -0.52835  -0.51812  -0.50906  -0.50526
 Alpha  occ. eigenvalues --   -0.49292  -0.47694  -0.45511  -0.44940  -0.43444
 Alpha  occ. eigenvalues --   -0.43156  -0.41715  -0.41223  -0.39920  -0.38911
 Alpha  occ. eigenvalues --   -0.38151  -0.37238  -0.36655  -0.34270  -0.33006
 Alpha  occ. eigenvalues --   -0.31735
 Alpha virt. eigenvalues --    0.00487   0.01282   0.01309   0.01623   0.02769
 Alpha virt. eigenvalues --    0.02884   0.02971   0.04103   0.04146   0.04812
 Alpha virt. eigenvalues --    0.05322   0.05518   0.05734   0.05984   0.07618
 Alpha virt. eigenvalues --    0.07767   0.08479   0.08648   0.08750   0.09646
 Alpha virt. eigenvalues --    0.10167   0.11141   0.11657   0.11966   0.12114
 Alpha virt. eigenvalues --    0.12728   0.13084   0.13566   0.13738   0.14087
 Alpha virt. eigenvalues --    0.14285   0.14694   0.14781   0.14923   0.15506
 Alpha virt. eigenvalues --    0.15751   0.15934   0.16144   0.16426   0.16715
 Alpha virt. eigenvalues --    0.16969   0.17358   0.17582   0.17848   0.18095
 Alpha virt. eigenvalues --    0.18537   0.19080   0.19278   0.19723   0.19847
 Alpha virt. eigenvalues --    0.20289   0.20893   0.21217   0.21403   0.21821
 Alpha virt. eigenvalues --    0.22368   0.23265   0.23528   0.23929   0.25047
 Alpha virt. eigenvalues --    0.25853   0.26420   0.27012   0.27823   0.28215
 Alpha virt. eigenvalues --    0.28515   0.28587   0.29069   0.29466   0.30423
 Alpha virt. eigenvalues --    0.31175   0.31231   0.31538   0.31854   0.31983
 Alpha virt. eigenvalues --    0.32803   0.32985   0.33293   0.34027   0.34703
 Alpha virt. eigenvalues --    0.35155   0.35525   0.35627   0.36280   0.36571
 Alpha virt. eigenvalues --    0.36758   0.37088   0.37358   0.37833   0.38627
 Alpha virt. eigenvalues --    0.38711   0.39299   0.39645   0.40276   0.40450
 Alpha virt. eigenvalues --    0.41531   0.41688   0.43128   0.43703   0.44279
 Alpha virt. eigenvalues --    0.46998   0.47996   0.50843   0.51134   0.52363
 Alpha virt. eigenvalues --    0.52784   0.53232   0.53942   0.55531   0.55920
 Alpha virt. eigenvalues --    0.56042   0.57638   0.58181   0.58547   0.59083
 Alpha virt. eigenvalues --    0.59585   0.60622   0.61115   0.61609   0.62218
 Alpha virt. eigenvalues --    0.62383   0.63642   0.64189   0.64285   0.64821
 Alpha virt. eigenvalues --    0.65860   0.66341   0.66573   0.67191   0.68117
 Alpha virt. eigenvalues --    0.68545   0.68992   0.69827   0.69928   0.70500
 Alpha virt. eigenvalues --    0.71947   0.72059   0.72217   0.73248   0.73771
 Alpha virt. eigenvalues --    0.73888   0.74496   0.75056   0.76078   0.76314
 Alpha virt. eigenvalues --    0.76684   0.76993   0.78165   0.78402   0.79330
 Alpha virt. eigenvalues --    0.80739   0.82854   0.83086   0.85144   0.85748
 Alpha virt. eigenvalues --    0.87830   0.88088   0.88954   0.90463   0.91111
 Alpha virt. eigenvalues --    0.91816   0.91852   0.93361   0.94127   0.96229
 Alpha virt. eigenvalues --    0.97419   0.98637   0.99597   1.01107   1.02972
 Alpha virt. eigenvalues --    1.03503   1.04402   1.05416   1.06294   1.06761
 Alpha virt. eigenvalues --    1.06967   1.08544   1.09594   1.11181   1.11686
 Alpha virt. eigenvalues --    1.13254   1.13647   1.14265   1.14857   1.16220
 Alpha virt. eigenvalues --    1.17351   1.19274   1.19367   1.19927   1.20576
 Alpha virt. eigenvalues --    1.20855   1.21346   1.22381   1.22688   1.24187
 Alpha virt. eigenvalues --    1.24943   1.25771   1.26247   1.27720   1.28274
 Alpha virt. eigenvalues --    1.28624   1.29427   1.29628   1.29820   1.30567
 Alpha virt. eigenvalues --    1.31819   1.32102   1.33054   1.33358   1.34427
 Alpha virt. eigenvalues --    1.34866   1.35242   1.36288   1.37566   1.38139
 Alpha virt. eigenvalues --    1.39713   1.40282   1.41045   1.41763   1.42228
 Alpha virt. eigenvalues --    1.42716   1.43585   1.44797   1.44884   1.45520
 Alpha virt. eigenvalues --    1.45772   1.47144   1.47368   1.48415   1.49093
 Alpha virt. eigenvalues --    1.49578   1.49988   1.50997   1.52308   1.52966
 Alpha virt. eigenvalues --    1.53367   1.54950   1.55447   1.56145   1.57007
 Alpha virt. eigenvalues --    1.57529   1.58030   1.58729   1.59276   1.59785
 Alpha virt. eigenvalues --    1.60108   1.60399   1.61169   1.62399   1.63502
 Alpha virt. eigenvalues --    1.64020   1.65396   1.66205   1.66625   1.67172
 Alpha virt. eigenvalues --    1.68516   1.68758   1.69791   1.70342   1.70754
 Alpha virt. eigenvalues --    1.73926   1.75119   1.75617   1.77540   1.77865
 Alpha virt. eigenvalues --    1.79064   1.80601   1.81678   1.83198   1.83992
 Alpha virt. eigenvalues --    1.85688   1.88050   1.89958   1.90872   1.98918
 Alpha virt. eigenvalues --    2.02466   2.08843   2.16493   2.17459   2.21279
 Alpha virt. eigenvalues --    2.23885   2.27274   2.28651   2.34914   2.35823
 Alpha virt. eigenvalues --    2.40499   2.43251   2.44578   2.47923   2.50895
 Alpha virt. eigenvalues --    2.59088   2.76298   2.77843   2.78640   2.81467
 Alpha virt. eigenvalues --    2.86173   2.88309   2.92280   2.93385   2.95156
 Alpha virt. eigenvalues --    2.96989   2.97988   3.01797   3.05778   3.06418
 Alpha virt. eigenvalues --    3.07413   3.08821   3.09454   3.10691   3.12917
 Alpha virt. eigenvalues --    3.13059   3.13298   3.15394   3.20143   3.23778
 Alpha virt. eigenvalues --    3.25624   3.30726   3.31753   3.33983   3.34661
 Alpha virt. eigenvalues --    3.36067   3.37747   3.39846   3.41015   3.41222
 Alpha virt. eigenvalues --    3.42292   3.43099   3.45141   3.45951   3.47331
 Alpha virt. eigenvalues --    3.48518   3.49376   3.50642   3.51545   3.52014
 Alpha virt. eigenvalues --    3.53497   3.54916   3.55166   3.55606   3.56707
 Alpha virt. eigenvalues --    3.58353   3.58537   3.59052   3.60375   3.61008
 Alpha virt. eigenvalues --    3.61328   3.62736   3.63886   3.64610   3.65766
 Alpha virt. eigenvalues --    3.66524   3.67856   3.68457   3.70694   3.71030
 Alpha virt. eigenvalues --    3.71772   3.72581   3.73883   3.73990   3.74561
 Alpha virt. eigenvalues --    3.75078   3.75792   3.76321   3.77226   3.78122
 Alpha virt. eigenvalues --    3.79106   3.80994   3.81773   3.82677   3.84279
 Alpha virt. eigenvalues --    3.87169   3.88467   3.90353   3.90970   3.91582
 Alpha virt. eigenvalues --    3.92369   3.92950   3.93848   3.95224   3.98492
 Alpha virt. eigenvalues --    3.98858   4.01478   4.02969   4.04273   4.04766
 Alpha virt. eigenvalues --    4.05891   4.06094   4.06934   4.07867   4.08332
 Alpha virt. eigenvalues --    4.08804   4.08953   4.10970   4.11518   4.12644
 Alpha virt. eigenvalues --    4.12942   4.13474   4.14753   4.15157   4.17716
 Alpha virt. eigenvalues --    4.17903   4.18370   4.19726   4.20630   4.21375
 Alpha virt. eigenvalues --    4.22734   4.23880   4.24222   4.26363   4.28748
 Alpha virt. eigenvalues --    4.29198   4.31098   4.32067   4.32522   4.32925
 Alpha virt. eigenvalues --    4.33611   4.34520   4.36247   4.39289   4.41209
 Alpha virt. eigenvalues --    4.44493   4.44667   4.47485   4.51991   4.58919
 Alpha virt. eigenvalues --    4.60994   4.62239   4.74582   4.77684   4.88529
 Alpha virt. eigenvalues --    4.91126   4.91483   4.92619   4.99501   5.00628
 Alpha virt. eigenvalues --    5.07025   5.08221   5.08705   5.09996   5.12574
 Alpha virt. eigenvalues --    5.12827   5.12867   5.14737   5.30140   5.32851
 Alpha virt. eigenvalues --    5.35913   5.55517   5.57296   5.66140   5.86791
 Alpha virt. eigenvalues --    5.88192   6.00304   7.01233   7.05820   7.07625
 Alpha virt. eigenvalues --    7.09100   7.09827   7.11438   7.12585   7.15821
 Alpha virt. eigenvalues --    7.23847   7.36330   7.39350   7.47419   7.53001
 Alpha virt. eigenvalues --    7.56259   7.59816  23.95031  23.97348  24.06031
 Alpha virt. eigenvalues --   24.10163  24.12537  24.13135  24.14364  24.16125
 Alpha virt. eigenvalues --   24.18013  24.20764  50.16505  50.20575  50.22265
          Condensed to atoms (all electrons):
               1          2          3          4          5          6
     1  C    6.609015   0.057108  -0.132410  -0.677912  -0.145040   0.003157
     2  C    0.057108   5.947311   0.050888   0.149843  -0.308598  -0.002079
     3  C   -0.132410   0.050888   6.772661   0.238179   0.051256  -0.013057
     4  C   -0.677912   0.149843   0.238179   7.562583  -0.816548  -0.050394
     5  C   -0.145040  -0.308598   0.051256  -0.816548   6.469555   0.003103
     6  O    0.003157  -0.002079  -0.013057  -0.050394   0.003103   8.387152
     7  C   -0.025312   0.031993  -1.109765  -0.268730  -0.013337  -0.030887
     8  O   -0.043457   0.120759   0.000454  -0.028648  -0.043192   0.000014
     9  C   -0.005548  -0.002557  -0.100076  -0.000116   0.018856  -0.035659
    10  C   -0.075470  -0.066706  -0.437927  -0.484704   0.071557   0.231173
    11  C    0.003560  -0.006071   0.148598   0.013468  -0.045868   0.006343
    12  C    0.074471  -0.312770  -0.024597  -0.024014   0.174803   0.000496
    13  O   -0.167008   0.009610  -0.059350   0.136704  -0.096283   0.049117
    14  H    0.417108   0.027786   0.001680   0.054990  -0.048574   0.001255
    15  H    0.438183   0.003010   0.006393  -0.045907   0.001897  -0.000874
    16  H   -0.007426   0.436762   0.003307   0.002509  -0.025842  -0.000138
    17  H   -0.040387   0.428283   0.001618   0.019624  -0.024133   0.000120
    18  H   -0.018219   0.000370   0.412711  -0.007190  -0.010044  -0.011944
    19  H    0.019168   0.009873   0.451161   0.106024  -0.068353   0.005128
    20  H    0.088129  -0.041091   0.062159   0.356422   0.020148  -0.000476
    21  H   -0.003588  -0.033156  -0.009278  -0.119369   0.499468   0.001847
    22  H   -0.042377  -0.089783  -0.002876   0.015804   0.471352   0.000095
    23  H   -0.000100  -0.000415  -0.025641  -0.002984   0.002636  -0.000455
    24  H   -0.002723   0.001425  -0.045951  -0.010599   0.004051   0.000389
    25  H   -0.001013   0.000291  -0.021477  -0.001837   0.001986  -0.007948
    26  H    0.000284  -0.000083   0.001825   0.000078  -0.001236   0.006080
    27  H    0.015181  -0.013698  -0.008288   0.040750  -0.014855  -0.047510
    28  H    0.000593   0.000637   0.019161  -0.003038   0.000350  -0.030157
    29  H    0.000952  -0.000272   0.017548   0.002462  -0.001931  -0.069057
    30  H   -0.128696   0.009623   0.005514   0.085678  -0.024526  -0.000054
    31  H   -0.026593  -0.002666  -0.004876  -0.001966   0.006746   0.000027
               7          8          9         10         11         12
     1  C   -0.025312  -0.043457  -0.005548  -0.075470   0.003560   0.074471
     2  C    0.031993   0.120759  -0.002557  -0.066706  -0.006071  -0.312770
     3  C   -1.109765   0.000454  -0.100076  -0.437927   0.148598  -0.024597
     4  C   -0.268730  -0.028648  -0.000116  -0.484704   0.013468  -0.024014
     5  C   -0.013337  -0.043192   0.018856   0.071557  -0.045868   0.174803
     6  O   -0.030887   0.000014  -0.035659   0.231173   0.006343   0.000496
     7  C    6.901540   0.000524   0.064463   0.428487  -0.206578  -0.009209
     8  O    0.000524   8.440792   0.000015   0.008364   0.000019   0.128543
     9  C    0.064463   0.000015   5.509662   0.126347   0.031326   0.002935
    10  C    0.428487   0.008364   0.126347   6.116241  -0.232572  -0.038749
    11  C   -0.206578   0.000019   0.031326  -0.232572   5.593431  -0.000710
    12  C   -0.009209   0.128543   0.002935  -0.038749  -0.000710   5.506284
    13  O    0.033714  -0.000848   0.005990   0.121639  -0.015151   0.028833
    14  H    0.001372  -0.004850  -0.000206   0.007061  -0.000006  -0.078746
    15  H    0.000717   0.006453  -0.000310  -0.005347   0.000868  -0.019137
    16  H   -0.000758  -0.076380   0.000084  -0.001393  -0.000202   0.003157
    17  H    0.003915  -0.038525   0.000332   0.010328  -0.000040  -0.011416
    18  H    0.066302   0.000192  -0.017341  -0.064524   0.014106  -0.000873
    19  H   -0.059711  -0.000675  -0.017952  -0.077515   0.009214  -0.006514
    20  H   -0.080471  -0.006878  -0.003778  -0.087792  -0.001820   0.023306
    21  H   -0.004717   0.011155   0.004583   0.033030  -0.004498   0.010814
    22  H    0.003709  -0.000865  -0.000307   0.001399   0.000361   0.012038
    23  H    0.408160   0.000007  -0.014386   0.001458   0.010480   0.000138
    24  H    0.517960  -0.000019  -0.064242  -0.015600  -0.015480  -0.000550
    25  H    0.000577  -0.000003   0.488384   0.007913  -0.094234  -0.000145
    26  H   -0.056892   0.000002   0.450158   0.000604  -0.029532   0.000045
    27  H   -0.058682   0.000108   0.000613   0.420917   0.012789   0.000569
    28  H   -0.000906  -0.000008  -0.062341  -0.026440   0.481425  -0.000152
    29  H   -0.008960   0.000001  -0.042691   0.002946   0.441312  -0.000017
    30  H    0.004262  -0.045157   0.000081   0.007551  -0.000073   0.450076
    31  H   -0.000549  -0.069406   0.000051  -0.000223  -0.000072   0.436680
              13         14         15         16         17         18
     1  C   -0.167008   0.417108   0.438183  -0.007426  -0.040387  -0.018219
     2  C    0.009610   0.027786   0.003010   0.436762   0.428283   0.000370
     3  C   -0.059350   0.001680   0.006393   0.003307   0.001618   0.412711
     4  C    0.136704   0.054990  -0.045907   0.002509   0.019624  -0.007190
     5  C   -0.096283  -0.048574   0.001897  -0.025842  -0.024133  -0.010044
     6  O    0.049117   0.001255  -0.000874  -0.000138   0.000120  -0.011944
     7  C    0.033714   0.001372   0.000717  -0.000758   0.003915   0.066302
     8  O   -0.000848  -0.004850   0.006453  -0.076380  -0.038525   0.000192
     9  C    0.005990  -0.000206  -0.000310   0.000084   0.000332  -0.017341
    10  C    0.121639   0.007061  -0.005347  -0.001393   0.010328  -0.064524
    11  C   -0.015151  -0.000006   0.000868  -0.000202  -0.000040   0.014106
    12  C    0.028833  -0.078746  -0.019137   0.003157  -0.011416  -0.000873
    13  O    8.461975  -0.004080   0.002771  -0.000432  -0.000852  -0.000552
    14  H   -0.004080   0.454034  -0.019574  -0.001403   0.002402   0.000900
    15  H    0.002771  -0.019574   0.470142   0.001794  -0.002234  -0.000488
    16  H   -0.000432  -0.001403   0.001794   0.488099  -0.018217  -0.000332
    17  H   -0.000852   0.002402  -0.002234  -0.018217   0.499894   0.002457
    18  H   -0.000552   0.000900  -0.000488  -0.000332   0.002457   0.441555
    19  H   -0.000960   0.000252   0.000645   0.000652  -0.005647  -0.015168
    20  H   -0.014744  -0.008825  -0.008385   0.000935  -0.020900  -0.010759
    21  H   -0.001422  -0.005098   0.000185  -0.013148   0.001755  -0.002107
    22  H    0.000098   0.005008  -0.003260  -0.005809   0.005310   0.001783
    23  H   -0.001547   0.000010  -0.000019   0.000007   0.000005  -0.007087
    24  H    0.001716  -0.000002   0.000059   0.000120  -0.000018   0.002501
    25  H    0.003309  -0.000073  -0.000017   0.000017  -0.000055  -0.001781
    26  H   -0.000127   0.000001   0.000039   0.000001   0.000002  -0.000562
    27  H   -0.060317   0.000564  -0.000654   0.000188  -0.000066  -0.005896
    28  H    0.002945  -0.000050   0.000085  -0.000018  -0.000033  -0.000190
    29  H   -0.003564  -0.000038   0.000110  -0.000007   0.000008  -0.000969
    30  H    0.000032   0.006304   0.000563  -0.003023   0.015710   0.002116
    31  H   -0.002576  -0.008275  -0.009700   0.000776  -0.005335  -0.000191
              19         20         21         22         23         24
     1  C    0.019168   0.088129  -0.003588  -0.042377  -0.000100  -0.002723
     2  C    0.009873  -0.041091  -0.033156  -0.089783  -0.000415   0.001425
     3  C    0.451161   0.062159  -0.009278  -0.002876  -0.025641  -0.045951
     4  C    0.106024   0.356422  -0.119369   0.015804  -0.002984  -0.010599
     5  C   -0.068353   0.020148   0.499468   0.471352   0.002636   0.004051
     6  O    0.005128  -0.000476   0.001847   0.000095  -0.000455   0.000389
     7  C   -0.059711  -0.080471  -0.004717   0.003709   0.408160   0.517960
     8  O   -0.000675  -0.006878   0.011155  -0.000865   0.000007  -0.000019
     9  C   -0.017952  -0.003778   0.004583  -0.000307  -0.014386  -0.064242
    10  C   -0.077515  -0.087792   0.033030   0.001399   0.001458  -0.015600
    11  C    0.009214  -0.001820  -0.004498   0.000361   0.010480  -0.015480
    12  C   -0.006514   0.023306   0.010814   0.012038   0.000138  -0.000550
    13  O   -0.000960  -0.014744  -0.001422   0.000098  -0.001547   0.001716
    14  H    0.000252  -0.008825  -0.005098   0.005008   0.000010  -0.000002
    15  H    0.000645  -0.008385   0.000185  -0.003260  -0.000019   0.000059
    16  H    0.000652   0.000935  -0.013148  -0.005809   0.000007   0.000120
    17  H   -0.005647  -0.020900   0.001755   0.005310   0.000005  -0.000018
    18  H   -0.015168  -0.010759  -0.002107   0.001783  -0.007087   0.002501
    19  H    0.501808  -0.010017  -0.010608  -0.000832  -0.013327  -0.005962
    20  H   -0.010017   0.458127  -0.000117  -0.006444   0.000973   0.001172
    21  H   -0.010608  -0.000117   0.488766  -0.014557   0.000301  -0.001186
    22  H   -0.000832  -0.006444  -0.014557   0.435979  -0.000099   0.000326
    23  H   -0.013327   0.000973   0.000301  -0.000099   0.488008  -0.009198
    24  H   -0.005962   0.001172  -0.001186   0.000326  -0.009198   0.459356
    25  H   -0.001868   0.002242  -0.000020   0.000052  -0.005198   0.005444
    26  H    0.002177  -0.001123  -0.000135  -0.000003  -0.007029  -0.006334
    27  H    0.006002   0.003775  -0.010914   0.001025   0.000483  -0.008492
    28  H   -0.000202   0.000413   0.000529  -0.000128  -0.001124   0.000968
    29  H    0.001135  -0.000230  -0.000064  -0.000044   0.001535  -0.003231
    30  H   -0.000284  -0.034974  -0.003488   0.002904  -0.000009   0.000006
    31  H    0.000155   0.006444   0.001776  -0.001460  -0.000013  -0.000026
              25         26         27         28         29         30
     1  C   -0.001013   0.000284   0.015181   0.000593   0.000952  -0.128696
     2  C    0.000291  -0.000083  -0.013698   0.000637  -0.000272   0.009623
     3  C   -0.021477   0.001825  -0.008288   0.019161   0.017548   0.005514
     4  C   -0.001837   0.000078   0.040750  -0.003038   0.002462   0.085678
     5  C    0.001986  -0.001236  -0.014855   0.000350  -0.001931  -0.024526
     6  O   -0.007948   0.006080  -0.047510  -0.030157  -0.069057  -0.000054
     7  C    0.000577  -0.056892  -0.058682  -0.000906  -0.008960   0.004262
     8  O   -0.000003   0.000002   0.000108  -0.000008   0.000001  -0.045157
     9  C    0.488384   0.450158   0.000613  -0.062341  -0.042691   0.000081
    10  C    0.007913   0.000604   0.420917  -0.026440   0.002946   0.007551
    11  C   -0.094234  -0.029532   0.012789   0.481425   0.441312  -0.000073
    12  C   -0.000145   0.000045   0.000569  -0.000152  -0.000017   0.450076
    13  O    0.003309  -0.000127  -0.060317   0.002945  -0.003564   0.000032
    14  H   -0.000073   0.000001   0.000564  -0.000050  -0.000038   0.006304
    15  H   -0.000017   0.000039  -0.000654   0.000085   0.000110   0.000563
    16  H    0.000017   0.000001   0.000188  -0.000018  -0.000007  -0.003023
    17  H   -0.000055   0.000002  -0.000066  -0.000033   0.000008   0.015710
    18  H   -0.001781  -0.000562  -0.005896  -0.000190  -0.000969   0.002116
    19  H   -0.001868   0.002177   0.006002  -0.000202   0.001135  -0.000284
    20  H    0.002242  -0.001123   0.003775   0.000413  -0.000230  -0.034974
    21  H   -0.000020  -0.000135  -0.010914   0.000529  -0.000064  -0.003488
    22  H    0.000052  -0.000003   0.001025  -0.000128  -0.000044   0.002904
    23  H   -0.005198  -0.007029   0.000483  -0.001124   0.001535  -0.000009
    24  H    0.005444  -0.006334  -0.008492   0.000968  -0.003231   0.000006
    25  H    0.472433  -0.011012  -0.001430   0.002428  -0.003263  -0.000053
    26  H   -0.011012   0.477761  -0.000328   0.002372  -0.010130   0.000021
    27  H   -0.001430  -0.000328   0.444999  -0.004562   0.000446  -0.000007
    28  H    0.002428   0.002372  -0.004562   0.469268  -0.000956  -0.000014
    29  H   -0.003263  -0.010130   0.000446  -0.000956   0.459347  -0.000008
    30  H   -0.000053   0.000021  -0.000007  -0.000014  -0.000008   0.510255
    31  H   -0.000004   0.000000   0.000179  -0.000003   0.000002  -0.022708
              31
     1  C   -0.026593
     2  C   -0.002666
     3  C   -0.004876
     4  C   -0.001966
     5  C    0.006746
     6  O    0.000027
     7  C   -0.000549
     8  O   -0.069406
     9  C    0.000051
    10  C   -0.000223
    11  C   -0.000072
    12  C    0.436680
    13  O   -0.002576
    14  H   -0.008275
    15  H   -0.009700
    16  H    0.000776
    17  H   -0.005335
    18  H   -0.000191
    19  H    0.000155
    20  H    0.006444
    21  H    0.001776
    22  H   -0.001460
    23  H   -0.000013
    24  H   -0.000026
    25  H   -0.000004
    26  H    0.000000
    27  H    0.000179
    28  H   -0.000003
    29  H    0.000002
    30  H   -0.022708
    31  H    0.472253
 Mulliken charges:
               1
     1  C   -0.183631
     2  C   -0.405628
     3  C   -0.249543
     4  C   -0.241161
     5  C   -0.109408
     6  O   -0.394806
     7  C   -0.532228
     8  O   -0.358489
     9  C   -0.336371
    10  C    0.017950
    11  C   -0.114395
    12  C   -0.325588
    13  O   -0.428641
    14  H    0.199073
    15  H    0.181993
    16  H    0.216120
    17  H    0.176096
    18  H    0.231224
    19  H    0.182200
    20  H    0.314578
    21  H    0.183262
    22  H    0.211600
    23  H    0.174430
    24  H    0.194120
    25  H    0.166357
    26  H    0.183076
    27  H    0.287109
    28  H    0.149148
    29  H    0.217626
    30  H    0.162378
    31  H    0.231550
 Sum of Mulliken charges =  -0.00000
 Mulliken charges with hydrogens summed into heavy atoms:
               1
     1  C    0.197435
     2  C   -0.013412
     3  C    0.163881
     4  C    0.073417
     5  C    0.285454
     6  O   -0.394806
     7  C   -0.163678
     8  O   -0.358489
     9  C    0.013062
    10  C    0.305059
    11  C    0.252379
    12  C    0.068340
    13  O   -0.428641
 Electronic spatial extent (au):  <R**2>=           3373.9324
 Charge=             -0.0000 electrons
 Dipole moment (field-independent basis, Debye):
    X=              2.6340    Y=              4.2607    Z=              1.4208  Tot=              5.2068
 Quadrupole moment (field-independent basis, Debye-Ang):
   XX=            -81.5497   YY=            -81.1500   ZZ=            -77.3010
   XY=              4.2872   XZ=             -4.8660   YZ=             -2.6164
 Traceless Quadrupole moment (field-independent basis, Debye-Ang):
   XX=             -1.5495   YY=             -1.1497   ZZ=              2.6992
   XY=              4.2872   XZ=             -4.8660   YZ=             -2.6164
 Octapole moment (field-independent basis, Debye-Ang**2):
  XXX=            109.6044  YYY=              6.1747  ZZZ=             -0.9439  XYY=            -16.1530
  XXY=             -6.1729  XXZ=              9.4895  XZZ=             -3.7677  YZZ=              0.6876
  YYZ=              1.1313  XYZ=              6.1637
 Hexadecapole moment (field-independent basis, Debye-Ang**3):
 XXXX=          -3790.0213 YYYY=           -556.4500 ZZZZ=           -286.7009 XXXY=             14.1676
 XXXZ=            -79.9808 YYYX=             -8.4921 YYYZ=             -5.2555 ZZZX=             -4.1884
 ZZZY=             -1.2750 XXYY=           -651.1779 XXZZ=           -629.9776 YYZZ=           -137.8648
 XXYZ=            -17.5163 YYXZ=              3.3654 ZZXY=             -3.1632
 N-N= 8.786463992116D+02 E-N=-3.199133741271D+03  KE= 6.153514996455D+02
 D1PCM: PCM CHGder 1st derivatives, ID1Alg=3 FixD1E=F DoIter=F DoCFld=F I1PDM=0.
 Calling FoFJK, ICntrl=      2127 FMM=F ISym2X=0 I1Cent= 0 IOpClX= 0 NMat=1 NMatS=1 NMatT=0.
 ***** Axes restored to original set *****
 -------------------------------------------------------------------
 Center     Atomic                   Forces (Hartrees/Bohr)
 Number     Number              X              Y              Z
 -------------------------------------------------------------------
      1        6           0.000021461    0.003156862   -0.001588712
      2        6          -0.005913634   -0.002664311    0.000119401
      3        6          -0.002036688   -0.000257763    0.003096370
      4        6           0.004429769    0.002453968    0.005173562
      5        6           0.000603693    0.000045819   -0.003593034
      6        8           0.002244478   -0.013075212   -0.000905961
      7        6           0.000801231   -0.004027859   -0.000175344
      8        8           0.010011157   -0.001475238    0.005937471
      9        6           0.002129185    0.001043364    0.002339308
     10        6          -0.001194423    0.011996514   -0.007372325
     11        6          -0.000410531    0.005898768   -0.003422598
     12        6          -0.006533402   -0.000659735    0.001427216
     13        8           0.001874184   -0.013597493   -0.000686651
     14        1           0.000465261   -0.001252987    0.003692570
     15        1          -0.001450400   -0.001625545   -0.002371506
     16        1           0.001830255    0.002595217    0.003276090
     17        1          -0.001661424    0.002724549   -0.004700905
     18        1           0.000689019   -0.002687541   -0.003190424
     19        1           0.003543571    0.002909810    0.001006213
     20        1          -0.000753311    0.003915247   -0.005957123
     21        1          -0.003141801    0.002748038   -0.000050551
     22        1           0.000684188   -0.002573959    0.002770616
     23        1          -0.000494984    0.001671638   -0.002090090
     24        1          -0.000025577    0.000974676    0.003280789
     25        1           0.000646064   -0.001654358   -0.002833786
     26        1          -0.002493566    0.000973271    0.000742441
     27        1          -0.001847867    0.004143972    0.006991574
     28        1          -0.000748949    0.002842613    0.004840917
     29        1          -0.002610368   -0.003708415   -0.000538956
     30        1          -0.001601104    0.002563157   -0.004785103
     31        1           0.002944512   -0.003397066   -0.000431471
 -------------------------------------------------------------------
 Cartesian Forces:  Max     0.013597493 RMS     0.003841157

 GradGradGradGradGradGradGradGradGradGradGradGradGradGradGradGradGradGrad
 Berny optimization.
 FormGI is forming the generalized inverse of G from B-inverse, IUseBI=4.
 Internal  Forces:  Max     0.016546790 RMS     0.002365157
 Search for a local minimum.
 Step number   1 out of a maximum of  186
 All quantities printed in internal units (Hartrees-Bohrs-Radians)
 Mixed Optimization -- RFO/linear search
 Second derivative matrix not updated -- first step.
 ITU=  0
     Eigenvalues ---    0.00606   0.00688   0.00731   0.00746   0.01433
     Eigenvalues ---    0.01457   0.01496   0.02709   0.02743   0.03087
     Eigenvalues ---    0.03403   0.04206   0.04254   0.04663   0.04760
     Eigenvalues ---    0.04777   0.04906   0.04981   0.05129   0.05189
     Eigenvalues ---    0.05276   0.05538   0.05735   0.05844   0.06142
     Eigenvalues ---    0.06228   0.06355   0.06737   0.07652   0.07771
     Eigenvalues ---    0.07914   0.07927   0.07957   0.08028   0.08440
     Eigenvalues ---    0.08735   0.08980   0.09650   0.10889   0.11441
     Eigenvalues ---    0.11704   0.11706   0.11754   0.12318   0.13145
     Eigenvalues ---    0.14163   0.14354   0.16329   0.16528   0.17685
     Eigenvalues ---    0.19174   0.21437   0.21743   0.25000   0.28454
     Eigenvalues ---    0.28538   0.28650   0.28937   0.28983   0.29354
     Eigenvalues ---    0.30100   0.30307   0.35035   0.35062   0.35078
     Eigenvalues ---    0.35129   0.35132   0.35179   0.35192   0.35222
     Eigenvalues ---    0.35225   0.35253   0.35313   0.35334   0.35378
     Eigenvalues ---    0.35599   0.35710   0.35873   0.35873   0.35890
     Eigenvalues ---    0.41192   0.41677   0.42028   0.42803   0.42926
     Eigenvalues ---    0.456671000.000001000.000001000.000001000.00000
     Eigenvalues --- 1000.000001000.000001000.000001000.000001000.00000
     Eigenvalues --- 1000.000001000.000001000.000001000.000001000.00000
     Eigenvalues --- 1000.000001000.000001000.000001000.000001000.00000
     Eigenvalues --- 1000.000001000.000001000.000001000.000001000.00000
     Eigenvalues --- 1000.000001000.000001000.000001000.000001000.00000
     Eigenvalues --- 1000.000001000.000001000.000001000.000001000.00000
     Eigenvalues --- 1000.000001000.000001000.000001000.000001000.00000
     Eigenvalues --- 1000.000001000.000001000.000001000.000001000.00000
     Eigenvalues --- 1000.000001000.000001000.000001000.000001000.00000
     Eigenvalues --- 1000.000001000.000001000.000001000.000001000.00000
     Eigenvalues --- 1000.000001000.000001000.000001000.000001000.00000
     Eigenvalues --- 1000.000001000.000001000.000001000.000001000.00000
     Eigenvalues --- 1000.000001000.000001000.000001000.000001000.00000
     Eigenvalues --- 1000.000001000.000001000.000001000.000001000.00000
     Eigenvalues --- 1000.000001000.000001000.000001000.000001000.00000
     Eigenvalues --- 1000.000001000.000001000.000001000.000001000.00000
     Eigenvalues --- 1000.000001000.000001000.000001000.000001000.00000
     Eigenvalues --- 1000.000001000.000001000.000001000.000001000.00000
     Eigenvalues --- 1000.000001000.000001000.000001000.000001000.00000
 RFO step:  Lambda=-3.87842452D-03 EMin= 6.06272885D-03
 Linear search not attempted -- first point.
 Iteration  1 RMS(Cart)=  0.08433566 RMS(Int)=  0.00147749
 Iteration  2 RMS(Cart)=  0.00413144 RMS(Int)=  0.00003120
 Iteration  3 RMS(Cart)=  0.00000407 RMS(Int)=  0.00003114
 Iteration  4 RMS(Cart)=  0.00000000 RMS(Int)=  0.00003114
 Iteration  1 RMS(Cart)=  0.00000152 RMS(Int)=  0.00000034
 Iteration  2 RMS(Cart)=  0.00000083 RMS(Int)=  0.00000037
 Variable       Old X    -DE/DX   Delta X   Delta X   Delta X     New X
                                 (Linear)    (Quad)   (Total)
    R1        2.87681  -0.00189   0.00000  -0.00696  -0.00697   2.86984
    R2        2.87735  -0.00059   0.00000  -0.00169  -0.00169   2.87566
    R3        2.05312   0.00378   0.00000   0.01062   0.01062   2.06373
    R4        2.05170   0.00319   0.00000   0.00894   0.00894   2.06064
    R5        2.87792  -0.00049   0.00000  -0.00180  -0.00180   2.87612
    R6        2.67183   0.00597   0.00000   0.01421   0.01422   2.68605
    R7        2.04280   0.00455   0.00000   0.01256   0.01256   2.05536
    R8        2.05574   0.00558   0.00000   0.01573   0.01573   2.07147
    R9        2.89709  -0.00100   0.00000  -0.00442  -0.00447   2.89262
   R10        2.87694  -0.00258   0.00000  -0.00767  -0.00766   2.86928
   R11        2.05317   0.00405   0.00000   0.01138   0.01138   2.06455
   R12        2.04714   0.00459   0.00000   0.01276   0.01276   2.05990
   R13        2.88478  -0.00207   0.00000  -0.00753  -0.00755   2.87724
   R14        2.67913   0.00328   0.00000   0.00761   0.00761   2.68674
   R15        2.04537   0.00710   0.00000   0.01968   0.01968   2.06505
   R16        2.05136   0.00405   0.00000   0.01133   0.01133   2.06269
   R17        2.05386   0.00371   0.00000   0.01042   0.01042   2.06428
   R18        2.65691   0.00706   0.00000   0.01633   0.01637   2.67328
   R19        2.68068   0.00540   0.00000   0.01332   0.01337   2.69405
   R20        2.88765  -0.00059   0.00000  -0.00304  -0.00308   2.88456
   R21        2.05065   0.00272   0.00000   0.00760   0.00760   2.05824
   R22        2.05618   0.00332   0.00000   0.00938   0.00938   2.06556
   R23        2.67179   0.00631   0.00000   0.01486   0.01488   2.68668
   R24        2.87077  -0.00010   0.00000  -0.00096  -0.00096   2.86981
   R25        2.05462   0.00325   0.00000   0.00914   0.00914   2.06376
   R26        2.05266   0.00277   0.00000   0.00778   0.00778   2.06044
   R27        2.64509   0.00503   0.00000   0.01093   0.01093   2.65602
   R28        2.05364   0.00820   0.00000   0.02306   0.02306   2.07669
   R29        2.05466   0.00558   0.00000   0.01570   0.01570   2.07037
   R30        2.04253   0.00456   0.00000   0.01257   0.01257   2.05511
   R31        2.05548   0.00556   0.00000   0.01568   0.01568   2.07116
   R32        2.04281   0.00451   0.00000   0.01243   0.01243   2.05524
    A1        1.92471  -0.00056   0.00000  -0.00746  -0.00751   1.91720
    A2        1.90822   0.00019   0.00000  -0.00329  -0.00328   1.90494
    A3        1.92521  -0.00048   0.00000  -0.00147  -0.00145   1.92376
    A4        1.91013   0.00006   0.00000   0.00147   0.00144   1.91157
    A5        1.91033   0.00055   0.00000   0.00432   0.00432   1.91465
    A6        1.88473   0.00025   0.00000   0.00675   0.00673   1.89146
    A7        1.94180   0.00104   0.00000   0.00352   0.00352   1.94531
    A8        1.93598  -0.00025   0.00000  -0.00220  -0.00220   1.93378
    A9        1.93073  -0.00129   0.00000  -0.00802  -0.00803   1.92269
   A10        1.86069  -0.00063   0.00000  -0.00048  -0.00047   1.86022
   A11        1.90360   0.00060   0.00000   0.00447   0.00449   1.90809
   A12        1.88888   0.00055   0.00000   0.00312   0.00310   1.89199
   A13        1.90821  -0.00125   0.00000  -0.00737  -0.00738   1.90082
   A14        1.92036   0.00147   0.00000   0.00686   0.00680   1.92716
   A15        1.91598   0.00022   0.00000   0.00743   0.00740   1.92338
   A16        1.90142  -0.00068   0.00000  -0.00689  -0.00688   1.89454
   A17        1.93041   0.00023   0.00000  -0.00514  -0.00510   1.92531
   A18        1.88736   0.00004   0.00000   0.00523   0.00515   1.89251
   A19        1.91200   0.00248   0.00000   0.00436   0.00434   1.91635
   A20        1.86869  -0.00021   0.00000   0.00425   0.00427   1.87296
   A21        1.89760  -0.00048   0.00000   0.00307   0.00308   1.90068
   A22        1.95489  -0.00148   0.00000  -0.00792  -0.00791   1.94698
   A23        1.91525  -0.00113   0.00000  -0.00840  -0.00841   1.90685
   A24        1.91412   0.00089   0.00000   0.00529   0.00522   1.91934
   A25        1.92263  -0.00036   0.00000  -0.00592  -0.00599   1.91664
   A26        1.90528   0.00061   0.00000   0.00582   0.00580   1.91108
   A27        1.90984   0.00017   0.00000   0.00254   0.00253   1.91236
   A28        1.94033  -0.00090   0.00000  -0.00687  -0.00684   1.93349
   A29        1.90279   0.00017   0.00000  -0.00248  -0.00246   1.90033
   A30        1.88237   0.00033   0.00000   0.00730   0.00726   1.88963
   A31        1.98657  -0.00562   0.00000  -0.03057  -0.03047   1.95611
   A32        1.93372   0.00220   0.00000  -0.00234  -0.00244   1.93128
   A33        1.91323  -0.00068   0.00000   0.00066   0.00069   1.91392
   A34        1.90760  -0.00085   0.00000  -0.00258  -0.00255   1.90505
   A35        1.93175  -0.00027   0.00000   0.00130   0.00134   1.93309
   A36        1.90990  -0.00110   0.00000  -0.00173  -0.00172   1.90818
   A37        1.86629   0.00061   0.00000   0.00488   0.00486   1.87116
   A38        1.97051  -0.00462   0.00000  -0.02425  -0.02422   1.94629
   A39        1.91773  -0.00008   0.00000  -0.00232  -0.00241   1.91532
   A40        1.91880   0.00067   0.00000   0.00185   0.00187   1.92067
   A41        1.93663  -0.00067   0.00000  -0.00196  -0.00195   1.93468
   A42        1.90427  -0.00024   0.00000  -0.00143  -0.00141   1.90287
   A43        1.90873   0.00008   0.00000  -0.00081  -0.00080   1.90794
   A44        1.87700   0.00025   0.00000   0.00481   0.00480   1.88180
   A45        1.91112   0.00291   0.00000   0.01531   0.01536   1.92648
   A46        2.03039  -0.00323   0.00000  -0.02037  -0.02042   2.00997
   A47        1.91973  -0.00061   0.00000  -0.00716  -0.00718   1.91255
   A48        1.80229  -0.00037   0.00000   0.00128   0.00137   1.80367
   A49        1.89370  -0.00051   0.00000   0.00110   0.00109   1.89479
   A50        1.89981   0.00195   0.00000   0.01162   0.01150   1.91131
   A51        1.93077   0.00082   0.00000   0.00489   0.00497   1.93573
   A52        1.90411   0.00093   0.00000   0.00469   0.00469   1.90880
   A53        1.84992  -0.00087   0.00000  -0.00165  -0.00168   1.84824
   A54        1.93312  -0.00138   0.00000  -0.00808  -0.00812   1.92500
   A55        1.95260   0.00005   0.00000  -0.00198  -0.00198   1.95061
   A56        1.89075   0.00051   0.00000   0.00259   0.00258   1.89334
   A57        1.94267   0.00119   0.00000   0.00589   0.00588   1.94855
   A58        1.93034  -0.00125   0.00000  -0.00822  -0.00823   1.92212
   A59        1.93483  -0.00042   0.00000  -0.00363  -0.00364   1.93119
   A60        1.90351   0.00061   0.00000   0.00416   0.00418   1.90769
   A61        1.86109  -0.00068   0.00000  -0.00072  -0.00071   1.86037
   A62        1.88927   0.00059   0.00000   0.00288   0.00285   1.89212
   A63        2.12438  -0.01655   0.00000  -0.06518  -0.06518   2.05920
    D1       -0.92327  -0.00000   0.00000  -0.00651  -0.00650  -0.92977
    D2       -3.04676   0.00048   0.00000  -0.00205  -0.00204  -3.04881
    D3        1.16967  -0.00020   0.00000  -0.01228  -0.01228   1.15738
    D4        1.17771  -0.00015   0.00000  -0.01144  -0.01142   1.16629
    D5       -0.94579   0.00034   0.00000  -0.00697  -0.00697  -0.95275
    D6       -3.01254  -0.00034   0.00000  -0.01721  -0.01720  -3.02974
[...]
 3,-0.02336492,0.00000023,0.00001052,-0.00000292,-0.00026904,0.00002705
 ,-0.00000642,-0.00000131,0.00000280,-0.00000018,0.00000048,0.00000323,
 0.00000250,-0.00000379,-0.00000154,0.00000066,-0.00000071,-0.00000098,
 0.00000173,-0.00035368,0.00013216,-0.00014465,-0.00014979,0.00004805,0
 .00009917,-0.00000368,-0.00000490,-0.00000322,0.00000191,0.00000347,0.
 00000112,-0.00000073,0.00000049,-0.00000147,-0.00030741,-0.00028546,0.
 00062293,0.00006585,-0.00000750,0.00120754,0.00417576,0.10195070,0.293
 02844,-0.00002433,-0.00002550,-0.00002791,0.00002648,0.00000753,-0.000
 03710,-0.00132094,-0.00448566,-0.00079319,0.00017410,0.00005973,0.0000
 2294,-0.00002160,-0.00002519,0.00002727,-0.00027876,0.00135403,-0.0014
 5843,-0.01870778,0.00795813,0.00401934,-0.00003019,0.00000007,0.000007
 08,-0.27001888,0.08653394,0.05070099,0.00111388,-0.00037472,0.00081776
 ,-0.00695141,0.00113088,0.00261708,0.00001098,0.00003072,-0.00000508,-
 0.00040978,0.00019648,-0.00000648,-0.00001525,0.00001751,0.00000183,0.
 00000003,0.00000658,0.00000388,-0.00001433,-0.00000642,0.00000195,-0.0
 0000007,-0.00000192,0.00000397,0.00014775,0.00003458,0.00009796,-0.001
 25206,0.00071139,-0.00000656,-0.00002261,0.00000137,-0.00006290,0.0000
 0368,0.00003579,0.00001630,-0.00001478,0.00000327,-0.00001156,0.000748
 09,0.00005334,0.00028375,0.00090008,0.00031776,-0.00035210,0.00160958,
 -0.00053501,0.00041268,0.29388712,0.00002330,0.00003599,-0.00004757,0.
 00000756,0.00002090,0.00000284,-0.00309406,-0.00410795,-0.00066029,-0.
 00005872,-0.00007172,0.00017316,0.00002751,0.00000688,-0.00002666,0.00
 499038,-0.00385579,0.00468872,-0.02444038,0.01018624,0.00523261,-0.000
 01358,0.00000325,0.00000624,0.08726201,-0.08001601,-0.01889584,-0.0013
 9451,-0.00207654,0.00035696,0.01947067,-0.00585936,-0.00901029,0.00000
 755,-0.00001218,-0.00000395,0.00043834,0.00034238,-0.00022868,-0.00001
 381,0.00001182,0.00000461,-0.00000277,0.00000211,0.00000243,0.00000223
 ,-0.00000017,-0.00000110,0.00000117,-0.00000069,0.00000084,0.00010556,
 0.00000720,0.00008651,-0.00150707,0.00052443,-0.00005171,0.00000565,0.
 00002433,-0.00007607,-0.00000374,0.00002997,0.00001517,-0.00001116,0.0
 0000159,-0.00000513,0.00108173,0.00093350,0.00027847,0.00092866,0.0010
 8828,-0.00008749,0.01033653,-0.00480694,-0.00179897,-0.09312882,0.0860
 5011,-0.00001892,-0.00002541,0.00000461,0.00000673,-0.00000985,-0.0000
 1796,-0.00020233,0.00021614,0.00084717,0.00006403,0.00005164,-0.000068
 34,-0.00003184,-0.00001287,0.00003383,-0.00420012,0.00442719,-0.002382
 67,-0.00204610,0.00014009,-0.00100679,-0.00000485,-0.00000127,0.000000
 52,0.05331884,-0.02008097,-0.06105759,0.00133399,0.00101087,0.00007128
 ,-0.01931024,0.00459745,0.00559173,0.00000180,0.00002013,0.00000034,-0
 .00047674,-0.00015154,0.00013928,-0.00000213,0.00000461,-0.00000049,0.
 00000032,0.00000289,0.00000090,-0.00000755,-0.00000282,0.00000161,0.00
 000022,-0.00000039,0.00000108,-0.00031621,0.00020757,0.00012187,0.0001
 4091,-0.00008281,0.00030466,-0.00002749,-0.00000850,0.00000092,0.00000
 396,-0.00000473,-0.00000173,0.00000259,-0.00000134,-0.00000375,0.00014
 045,-0.00015408,-0.00007555,-0.00011453,0.00048740,0.00039468,0.026596
 01,-0.00988841,-0.00489303,-0.05569929,0.02071286,0.06081901,-0.000981
 56,-0.00087937,0.00030926,0.00014736,0.00005642,-0.00018870,0.00378872
 ,0.00057075,-0.00285644,0.00314427,0.00393093,-0.00000358,-0.00004656,
 -0.00074837,-0.00004611,-0.00866973,-0.01967322,-0.02324447,0.00043427
 ,-0.00046583,-0.00044879,-0.00014982,-0.00014117,-0.00006341,-0.000333
 46,0.00028627,0.00018494,-0.04830921,0.00637031,0.02032884,0.00349719,
 -0.00288125,-0.00257051,-0.00007558,0.00052767,-0.00004657,-0.02060941
 ,0.02108507,0.03036265,0.00001827,0.00003532,-0.00004816,0.00008225,-0
 .00007801,-0.00001998,-0.00009830,-0.00003491,0.00002060,0.00000689,-0
 .00001080,0.00002486,0.00061391,0.00052934,-0.00038246,0.00003244,0.00
 054546,-0.00023913,-0.00035062,-0.00028128,0.00026498,-0.00034066,-0.0
 0024534,-0.00007087,-0.00000844,-0.00002750,-0.00013724,0.00010757,-0.
 00010825,-0.00004531,0.00016540,0.00005465,-0.00012415,-0.00002126,-0.
 00000181,0.00009336,-0.00003014,0.00014011,-0.00006839,0.06775797,0.00
 050833,0.00056951,-0.00031943,0.00000556,0.00011523,0.00014996,-0.0006
 0778,0.00861645,0.02278380,-0.00138557,-0.00227950,-0.00069862,0.00027
 336,0.00000203,-0.00014465,-0.01435069,-0.02114420,-0.02907149,-0.0011
 0242,0.00100031,0.00013371,0.00001682,0.00004465,0.00002669,-0.0004357
 0,-0.00002770,0.00027595,0.00686749,-0.07669228,-0.06764633,0.00371304
 ,-0.00055272,-0.00111703,0.00008628,-0.00030611,0.00001541,0.01484425,
 -0.00579994,-0.01454457,-0.00002649,-0.00001225,0.00003293,-0.00003377
 ,0.00002240,0.00000860,0.00005671,0.00003142,-0.00001693,0.00000518,0.
 00000337,-0.00001263,0.00110601,-0.00293730,0.00382980,-0.00042679,0.0
 0068665,-0.00118177,0.00048815,0.00018273,-0.00025586,-0.00018792,-0.0
 0003088,0.00005633,0.00001868,-0.00002656,-0.00000708,-0.00009118,-0.0
 0007706,-0.00021724,-0.00002775,-0.00011936,-0.00036516,0.00004786,-0.
 00003415,-0.00007073,-0.00000487,0.00022639,-0.00010681,-0.00894909,0.
 09772343,0.00016627,0.00025118,-0.00002520,0.00005726,0.00026344,0.000
 11165,0.00240055,-0.00712538,-0.02209168,-0.00072401,-0.00092873,0.000
 45701,0.00042765,-0.00021700,-0.00032167,-0.00530942,-0.00840790,-0.00
 144634,0.00066609,-0.00079727,0.00037819,-0.00007295,0.00001526,0.0000
 2596,-0.00017298,0.00000225,0.00011785,0.01874594,-0.07188695,-0.26634
 322,0.00075560,0.00031961,0.00068596,0.00001438,-0.00015333,-0.0000255
 3,0.00730173,-0.00280966,0.00468748,0.00001469,-0.00002279,0.00000541,
 -0.00002378,-0.00000255,-0.00000358,0.00005180,0.00002069,-0.00001703,
 0.00001075,-0.00000334,0.00000564,-0.00068066,0.00311640,-0.00226862,0
 .00021966,0.00018689,0.00045026,-0.00006435,0.00005307,0.00003447,-0.0
 0016269,0.00005596,-0.00005224,0.00004843,-0.00006921,-0.00009718,-0.0
 0009406,0.00025356,0.00032714,-0.00053347,0.00022830,0.00045102,0.0001
 1509,-0.00004432,-0.00012552,-0.00011260,-0.00004876,-0.00003353,-0.02
 183439,0.08729776,0.28482511,-0.00001451,-0.00003698,0.00001377,0.0000
 0906,-0.00002218,-0.00003387,-0.00036250,-0.00046111,-0.00017697,0.000
 24141,0.00007643,-0.00022175,-0.00007447,-0.00003500,0.00005441,-0.020
 23429,0.01678531,0.03463179,-0.00016511,-0.00011094,0.00062583,-0.0000
 1056,-0.00000067,0.00000076,0.00150069,-0.00345615,-0.00864342,0.00357
 857,0.00475544,0.00377926,-0.04967469,-0.00392121,0.00196861,0.0000027
 2,0.00002434,-0.00000202,-0.00100802,-0.00016692,-0.00050148,-0.000001
 30,0.00000388,-0.00000109,0.00000020,0.00000353,0.00000010,-0.00001533
 ,-0.00000576,0.00000394,-0.00000124,-0.00000131,0.00000252,-0.00004635
 ,-0.00000974,-0.00012566,0.00007359,-0.00021036,0.00009326,-0.00002018
 ,-0.00002111,0.00002493,0.00000717,0.00000172,0.00000359,-0.00000190,0
 .00000337,-0.00000104,-0.00006392,0.00003891,0.00003755,0.00018002,0.0
 0011259,0.00024923,0.00072323,0.00201693,-0.00143140,0.00037842,-0.000
 37693,0.00034921,0.00039173,-0.00032300,-0.00095907,0.06187648,0.00001
 861,0.00002416,-0.00000456,-0.00001068,0.00000911,0.00002245,0.0000528
 3,-0.00001322,0.00014066,-0.00010522,-0.00003816,0.00016269,0.00003724
 ,0.00002258,-0.00003976,0.01044665,-0.00479080,-0.01302564,0.00044795,
 0.00167494,0.00035223,0.00001039,-0.00000106,-0.00000169,-0.00081932,0
 .00776224,0.02360578,-0.00239209,-0.00043476,0.00129773,-0.00070408,-0
 .08269499,-0.08059936,-0.00000226,-0.00001708,0.00000022,0.00018709,0.
 00005015,0.00008363,0.00000230,-0.00000304,0.00000125,-0.00000064,-0.0
 0000279,-0.00000030,0.00000949,0.00000360,-0.00000168,0.00000060,0.000
 00090,-0.00000178,-0.00002950,-0.00006005,-0.00010483,-0.00001799,0.00
 008388,-0.00007672,-0.00000285,0.00001168,-0.00000713,-0.00000394,-0.0
 0000718,-0.00000239,-0.00000032,-0.00000152,0.00000306,0.00013498,0.00
 007237,-0.00022565,0.00015025,-0.00006229,-0.00036149,0.00077962,-0.00
 289277,0.00363886,-0.00017481,0.00093777,-0.00110299,0.00046811,0.0006
 1971,0.00025153,-0.00923920,0.08706534,0.00001416,0.00001695,-0.000001
 34,-0.00000830,0.00000712,0.00001965,0.00018748,0.00017120,0.00009365,
 -0.00006206,0.00000018,0.00013126,0.00003231,0.00001343,-0.00003142,0.
 01022920,-0.00501306,-0.00247228,0.00002056,-0.00121323,0.00093899,0.0
 0000863,0.00000122,0.00000044,-0.00116132,-0.00759256,-0.02159858,-0.0
 0168033,-0.00051733,0.00082382,0.00614254,-0.07972406,-0.27141055,-0.0
 0000506,-0.00001595,-0.00000155,0.00014065,0.00017471,0.00013669,0.000
 00327,-0.00000436,0.00000091,-0.00000046,-0.00000265,-0.00000015,0.000
 00878,0.00000373,-0.00000136,-0.00000018,0.00000045,-0.00000115,-0.000
 08061,-0.00009796,-0.00009670,0.00010574,0.00003534,-0.00006272,-0.000
 00106,0.00000369,0.00000332,-0.00000635,-0.00000757,-0.00000480,0.0000
 0400,-0.00000235,0.00000502,-0.00012877,0.00015998,0.00030622,0.000457
 88,0.00049385,0.00023123,-0.00102333,0.00352320,-0.00194713,-0.0002148
 5,0.00002545,0.00060939,0.00070160,0.00074915,-0.00004692,-0.01262664,
 0.08951223,0.29555614,-0.00016186,-0.00019665,0.00007313,0.00003653,-0
 .00003332,-0.00007802,-0.00045670,-0.00010187,-0.00024129,0.00026812,0
 .00060733,-0.00050712,-0.00011023,-0.00005770,0.00011042,-0.03532856,-
 0.02652592,-0.00321592,-0.00013976,0.00140555,-0.00176171,-0.00002575,
 -0.00000760,0.00000024,0.00800546,0.00701554,0.00168944,-0.00007025,0.
 00558992,0.00218876,-0.13548065,-0.12230020,-0.01335908,-0.00000598,0.
 00012289,0.00000581,-0.00286280,-0.00103165,0.00064364,-0.00000022,0.0
 0000873,-0.00000912,0.00000514,0.00001226,0.00000761,-0.00003321,-0.00
 001286,0.00000729,-0.00000295,-0.00000312,0.00000634,0.00003822,-0.000
 02179,0.00003442,0.00011197,-0.00025556,0.00015516,-0.00001769,-0.0000
 5573,0.00003654,0.00001633,0.00000591,-0.00000342,-0.00000106,0.000002
 50,-0.00001213,0.00055414,0.00053267,-0.00018944,-0.00013418,-0.000109
 09,-0.00002767,0.00011091,-0.00037236,0.00022587,0.00012601,-0.0007862
 1,0.00057501,0.00001344,-0.00018661,-0.00030796,0.00274113,0.00074960,
 -0.00106350,0.16284609,0.00002785,0.00002753,-0.00002240,-0.00000034,0
 .00000897,0.00000790,0.00056794,0.00021884,-0.00020847,0.00006141,-0.0
 0008937,0.00012844,0.00001479,-0.00000180,-0.00002223,0.01133491,0.013
 33287,0.00131935,0.00278706,-0.00213290,0.00431356,-0.00000360,0.00000
 193,0.00000118,-0.01333380,-0.01706213,-0.00361367,0.00227506,-0.00008
 201,-0.00024187,-0.13412597,-0.23279432,-0.02178295,0.00000459,-0.0000
 1692,-0.00000411,0.00069956,0.00026830,-0.00012798,-0.00000318,0.00000
 236,0.00000117,-0.00000044,-0.00000097,-0.00000052,0.00000384,0.000001
 18,-0.00000159,0.00000039,0.00000015,-0.00000056,-0.00007339,0.0000369
 7,0.00001180,-0.00014597,0.00010439,-0.00009019,0.00000208,0.00001028,
 -0.00002091,-0.00000446,0.00000658,0.00000406,-0.00000281,0.00000030,-
 0.00000057,-0.00131169,-0.00115246,0.00004644,0.00019508,0.00022000,-0
 .00009066,0.00009002,0.00134951,-0.00005400,0.00031658,0.00037291,-0.0
 0023998,0.00000942,0.00014857,0.00016398,-0.00541897,-0.00732223,-0.00
 070348,0.13602881,0.24454049,-0.00000256,-0.00000191,0.00000896,-0.000
 00425,0.00000538,0.00000992,-0.00023870,-0.00008843,0.00004022,-0.0000
 3728,0.00001575,0.00011432,0.00001596,0.00000649,-0.00001505,0.0067240
 3,0.00531121,0.00133565,-0.00204724,0.00267905,-0.00253913,0.00000362,
 -0.00000186,-0.00000172,0.01388467,0.01905648,0.00216374,-0.00010781,-
 0.00072266,-0.00021239,-0.01773985,-0.02402399,-0.05488454,-0.00000319
 ,-0.00000278,0.00000023,0.00026232,-0.00008849,0.00018363,0.00000264,-
 0.00000314,-0.00000099,0.00000173,-0.00000249,-0.00000164,0.00000399,0
 .00000135,-0.00000111,-0.00000002,0.00000023,-0.00000056,0.00004882,-0
 .00005314,-0.00002008,0.00004989,-0.00003053,-0.00000659,-0.00000578,0
 .00000446,0.00000974,-0.00000789,-0.00000499,-0.00000575,0.00000248,-0
 .00000078,0.00000197,0.00081065,0.00106070,0.00011333,0.00010866,0.000
 23052,0.00021869,0.00056291,-0.00085955,0.00111056,-0.00025270,-0.0006
 4412,0.00059612,0.00007938,0.00044024,0.00034589,-0.01711814,-0.023513
 23,-0.00117794,0.01500216,0.02122893,0.05261548,0.00301353,-0.01528104
 ,0.02533716,-0.00051941,0.00107630,0.00184055,-0.00003680,0.00000352,0
 .00001626,0.00151063,-0.00078289,0.00067573,-0.00014607,-0.00021123,0.
 00004843,-0.00001773,-0.00000243,0.00000306,0.00000092,0.00001338,-0.0
 0001424,-0.00151573,0.00021297,-0.01708304,0.00000189,-0.00000119,0.00
 000083,0.00002953,0.00005332,-0.00014532,0.00000681,-0.00000599,0.0000
 0156,-0.05674775,0.01862145,-0.02507915,-0.00020751,0.00010078,-0.0001
 7407,-0.00457470,-0.00215476,0.00188243,0.00108243,0.00050266,-0.00076
 562,-0.00001148,-0.00016056,0.00008011,0.00038709,-0.00043698,0.000199
 66,0.00000091,-0.00000364,-0.00000058,0.00000410,0.00000370,0.00000560
 ,-0.00005909,0.00012027,-0.00025858,0.00010034,0.00007777,0.00000416,-
 0.00001889,0.00008102,-0.00009245,-0.00000550,0.00000243,0.,0.00000068
 ,-0.00000022,0.00000010,-0.00000044,0.00000008,-0.00000061,-0.00000015
 ,0.00000075,-0.00000025,0.00000058,-0.00000233,0.00000627,-0.00000094,
 0.00000069,0.00000038,-0.00000234,0.00000052,0.00000014,0.05937519,0.0
 0169307,-0.00737617,0.01357197,-0.00274616,0.00408135,-0.00246449,-0.0
 0004626,0.00002451,0.00003197,0.00104861,-0.00012401,-0.00056109,0.000
 24573,-0.00043426,0.00012244,-0.00006797,-0.00000339,0.00000445,0.0000
 0386,-0.00000010,-0.00001137,-0.00562942,0.00536115,-0.02999917,-0.000
 00366,0.00000451,0.00000454,0.00007341,-0.00001948,-0.00002769,0.00001
 300,-0.00001385,-0.00000716,0.02079446,-0.11722717,0.11184941,-0.00027
 628,0.00013068,-0.00017136,-0.00328093,-0.00017812,0.00082931,0.000278
 08,0.00035036,-0.00023871,-0.00009805,0.00010736,0.00007104,-0.0003342
 8,0.00033192,0.00138983,0.00000158,0.00000158,0.00000161,-0.00000260,-
 0.00000887,-0.00000082,-0.00026410,0.00047719,-0.00012483,0.00016787,0
 .00011375,0.00008021,-0.00001782,-0.00014155,0.00006137,-0.00000635,0.
 00000416,-0.00000115,-0.00000156,0.00000085,0.00000074,-0.00000081,-0.
 00000082,-0.00000164,-0.00000290,-0.00000041,-0.00000126,-0.00001969,0
 .00000465,0.00001003,-0.00000170,0.00000122,0.00000086,-0.00000589,0.0
 0000048,0.00000086,-0.01340034,0.12350253,-0.00041327,0.00655881,-0.00
 713561,-0.00217818,0.00331958,0.00104557,0.00002958,-0.00001535,-0.000
 01931,-0.00101067,0.00003374,-0.00007724,0.00033981,-0.00040727,0.0000
 0479,0.00006190,0.00000522,-0.00000230,-0.00000274,0.00000194,0.000014
 22,-0.01032253,-0.00444526,-0.03323635,0.00000420,-0.00000429,-0.00000
 475,-0.00007165,0.00000252,-0.00000747,-0.00001244,0.00001131,0.000005
 15,-0.02321677,0.10784749,-0.22810785,0.00021641,-0.00006699,0.0002108
 5,0.00132727,0.00080949,0.00061044,0.00041518,0.00022123,0.00029975,0.
 00013660,-0.00038386,0.00034722,0.00079761,-0.00072852,0.00022944,0.00
 000309,0.00000225,0.00000267,0.00000204,0.00001305,-0.00000522,0.00031
 223,-0.00031308,-0.00003415,0.00017219,0.00000791,-0.00007538,-0.00006
 361,0.00009709,-0.00002539,0.00000642,-0.00000403,0.00000142,-0.000000
 15,-0.00000017,-0.00000072,0.00000036,0.00000078,0.00000173,0.00000273
 ,0.00000012,0.00000110,0.00001798,-0.00000510,-0.00000253,0.00000137,-
 0.00000127,-0.00000078,0.00000528,-0.00000017,-0.00000045,0.03329716,-
 0.11206376,0.26121608,-0.02062940,0.01908612,0.00225351,0.00014893,-0.
 00186235,-0.00153164,-0.00009793,0.00002055,0.00004692,-0.00077275,-0.
 00519337,0.00077851,0.00014045,-0.00038121,-0.00035521,-0.00042523,0.0
 0001378,0.00005013,0.00002932,0.00000571,-0.00004679,0.01167372,-0.011
 24645,-0.00237152,-0.00001903,0.00001803,0.00002089,0.00061593,-0.0005
 0757,0.00031692,0.00007480,-0.00009168,-0.00004902,-0.20248307,0.13956
 086,0.02106677,-0.00296046,0.00139277,0.00069166,0.00154800,0.00001718
 ,0.00004152,0.00070545,-0.00009968,-0.00043627,0.00039121,-0.00040299,
 -0.00020297,-0.00004441,-0.00005538,0.00004560,0.00000314,0.00001495,-
 0.00000249,0.00000861,-0.00002430,-0.00000811,0.00009490,-0.00010898,-
 0.00014117,0.00010971,0.00019637,0.00004525,0.00003768,0.00005744,0.00
 007550,-0.00002923,0.00001706,-0.00000302,-0.00000640,0.00000324,0.000
 00577,0.00000001,-0.00000236,-0.00000455,-0.00001315,0.00000205,-0.000
 00706,-0.00017752,0.00010427,0.00005021,-0.00000913,0.00000650,0.00000
 562,-0.00003931,0.00000473,0.00000135,-0.00165009,0.00188713,0.0001426
 1,0.21377524,-0.01270278,0.01297568,0.00255411,-0.00410802,-0.00020815
 ,-0.00314589,-0.00003136,-0.00000647,0.00002565,-0.00185103,-0.0019473
 9,0.00073501,0.00002235,-0.00028623,0.00008364,-0.00018774,0.00001652,
 0.00002257,0.00001079,0.00000809,-0.00001695,0.01609512,-0.02332358,-0
 .00838196,-0.00000557,0.00000416,0.00000805,0.00008708,-0.00023093,0.0
 0014197,0.00002326,-0.00004198,-0.00002157,0.13211394,-0.16844825,-0.0
 1673439,-0.00144498,0.00073575,0.00034619,0.00074462,0.00057851,-0.000
 28095,0.00102384,0.00035187,-0.00037701,0.00100977,-0.00095677,-0.0005
 1464,-0.00007629,0.00013180,0.00007181,0.00000237,0.00000494,-0.000002
 13,0.00000135,-0.00000064,-0.00000240,-0.00001619,0.00007072,-0.000109
 57,0.00020066,0.00013930,0.00001973,0.00005059,0.00005808,0.00002726,-
 0.00001093,0.00000620,-0.00000113,-0.00000202,0.00000094,0.00000159,0.
 00000021,-0.00000047,-0.00000149,-0.00000387,0.00000169,-0.00000282,-0
 .00006394,0.00004250,0.00002726,-0.00000322,0.00000225,0.00000183,-0.0
 0001757,0.00000248,0.00000046,0.01157198,-0.00897005,-0.00049341,-0.14
 243242,0.18928940,0.00938503,-0.00618127,-0.00113388,-0.00311626,-0.00
 104325,-0.00255963,0.00001696,-0.00000348,-0.00002281,0.00045479,0.001
 58194,0.00056894,-0.00004472,-0.00010104,-0.00002333,0.00009530,0.0000
 0631,-0.00000721,-0.00000655,-0.00000165,0.00001418,0.01864772,-0.0256
 1177,-0.00750833,0.00000376,-0.00000463,-0.00000511,-0.00009491,0.0000
 4421,-0.00008756,-0.00001827,0.00002088,0.00000918,0.01350593,-0.00983
 165,-0.05340830,0.00075126,-0.00026854,0.00007172,-0.00052748,-0.00070
 947,0.00033916,-0.00021624,0.00012426,0.00028588,0.00079994,-0.0010792
 0,-0.00007500,0.00024087,-0.00035337,0.00035388,0.00000027,0.00000154,
 0.00000200,-0.00000798,0.00001151,-0.00000335,0.00015907,-0.00036673,0
 .00011942,0.00016796,0.00009914,-0.00001892,-0.00000610,0.00002933,-0.
 00003275,0.00000780,-0.00000426,0.00000067,0.00000103,-0.00000104,-0.0
 0000073,0.00000022,0.00000074,0.00000122,0.00000326,-0.00000036,0.0000
 0133,0.00005022,-0.00001888,-0.00000827,0.00000243,-0.00000184,-0.0000
 0138,0.00000926,-0.00000051,-0.00000052,-0.01978566,0.01764385,0.00474
 509,-0.02047892,0.02601921,0.05838442\\-0.00000631,0.00000052,-0.00000
 119,-0.00001220,0.00001086,0.00000907,0.00000900,-0.00000983,0.0000140
 1,-0.00070139,-0.00089022,-0.00288521,0.00001047,0.00000734,0.00000264
 ,0.00003930,0.00041959,-0.00275978,-0.00000437,0.00000770,-0.00000245,
 0.00001314,-0.00001022,0.00000325,-0.00000148,0.00000169,0.00000146,-0
 .00041899,-0.00093802,0.00197706,-0.00000435,-0.00000112,-0.00000217,0
 .00000205,-0.00000509,-0.00000673,0.00107917,0.00140742,0.00365558,-0.
 00000224,0.00000165,-0.00000690,0.00000249,-0.00000254,-0.00000402,0.0
 0000291,-0.00000180,-0.00000517,-0.00000096,-0.00000146,0.00000283,-0.
 00000106,0.00000598,0.00000476,0.00000203,0.00000112,-0.00000120,0.,-0
 .00000442,0.00000645,-0.00000134,-0.00000184,0.00000250,-0.00000060,-0
 .00000240,-0.00000671,-0.00000095,0.00000449,0.00000561,0.00000325,-0.
 00000254,-0.00000042,0.00000072,0.00000568,0.00000538,-0.00000320,-0.0
 0000184,0.00000385,0.00000164,-0.00000262,-0.00000478,-0.00000133,-0.0
 0000101,-0.00000191,-0.00000102,0.00000248,0.00000023,-0.00000232,-0.0
 0000194,-0.00000071,-0.00000207,0.00000236,-0.00000535\\\@


 IF GOD HAD MEANT MAN TO SEE THE SUN RISE, HE
 WOULD HAVE SCHEDULED IT FOR A LATER HOUR.
 Job cpu time:       0 days 12 hours 22 minutes 31.2 seconds.
 Elapsed time:       0 days  1 hours  2 minutes 11.2 seconds.
 File lengths (MBytes):  RWF=    720 Int=      0 D2E=      0 Chk=     34 Scr=      1
 Normal termination of Gaussian 16 at Sat Mar  9 10:05:44 2019.
