 Entering Gaussian System, Link 0=g16
 Initial command:
 /sw/Projects/G16/g16/l1.exe "/nvme/pbs/tmpdir/pbs.74204[20].flm1/Gau-9971.inp" -scrdir="/nvme/pbs/tmpdir/pbs.74204[20].flm1/"
 Entering Link 1 = /sw/Projects/G16/g16/l1.exe PID=      9972.
  
 Copyright (c) 1988-2017, Gaussian, Inc.  All Rights Reserved.
  
 This is part of the Gaussian(R) 16 program.  It is based on
 the Gaussian(R) 09 system (copyright 2009, Gaussian, Inc.),
 the Gaussian(R) 03 system (copyright 2003, Gaussian, Inc.),
 the Gaussian(R) 98 system (copyright 1998, Gaussian, Inc.),
 the Gaussian(R) 94 system (copyright 1995, Gaussian, Inc.),
 the Gaussian 92(TM) system (copyright 1992, Gaussian, Inc.),
 the Gaussian 90(TM) system (copyright 1990, Gaussian, Inc.),
 the Gaussian 88(TM) system (copyright 1988, Gaussian, Inc.),
 the Gaussian 86(TM) system (copyright 1986, Carnegie Mellon
 University), and the Gaussian 82(TM) system (copyright 1983,
 Carnegie Mellon University). Gaussian is a federally registered
 trademark of Gaussian, Inc.
  
 This software contains proprietary and confidential information,
 including trade secrets, belonging to Gaussian, Inc.
  
 This software is provided under written license and may be
 used, copied, transmitted, or stored only in accord with that
 written license.
  
 The following legend is applicable only to US Government
 contracts under FAR:
  
                    RESTRICTED RIGHTS LEGEND
  
 Use, reproduction and disclosure by the US Government is
 subject to restrictions as set forth in subparagraphs (a)
 and (c) of the Commercial Computer Software - Restricted
 Rights clause in FAR 52.227-19.
  
 Gaussian, Inc.
 340 Quinnipiac St., Bldg. 40, Wallingford CT 06492
  
  
 ---------------------------------------------------------------
 Warning -- This program may not be used in any manner that
 competes with the business of Gaussian, Inc. or will provide
 assistance to any competitor of Gaussian, Inc.  The licensee
 of this program is prohibited from giving any competitor of
 Gaussian, Inc. access to this program.  By using this program,
 the user acknowledges that Gaussian, Inc. is engaged in the
 business of creating and licensing software in the field of
 computational chemistry and represents and warrants to the
 licensee that it is not a competitor of Gaussian, Inc. and that
 it will not use this program in any manner prohibited above.
 ---------------------------------------------------------------
  

 Cite this work as:
 Gaussian 16, Revision B.01,
 M. J. Frisch, G. W. Trucks, H. B. Schlegel, G. E. Scuseria, 
 M. A. Robb, J. R. Cheeseman, G. Scalmani, V. Barone, 
 G. A. Petersson, H. Nakatsuji, X. Li, M. Caricato, A. V. Marenich, 
 J. Bloino, B. G. Janesko, R. Gomperts, B. Mennucci, H. P. Hratchian, 
 J. V. Ortiz, A. F. Izmaylov, J. L. Sonnenberg, D. Williams-Young, 
 F. Ding, F. Lipparini, F. Egidi, J. Goings, B. Peng, A. Petrone, 
 T. Henderson, D. Ranasinghe, V. G. Zakrzewski, J. Gao, N. Rega, 
 G. Zheng, W. Liang, M. Hada, M. Ehara, K. Toyota, R. Fukuda, 
 J. Hasegawa, M. Ishida, T. Nakajima, Y. Honda, O. Kitao, H. Nakai, 
 T. Vreven, K. Throssell, J. A. Montgomery, Jr., J. E. Peralta, 
 F. Ogliaro, M. J. Bearpark, J. J. Heyd, E. N. Brothers, K. N. Kudin, 
 V. N. Staroverov, T. A. Keith, R. Kobayashi, J. Normand, 
 K. Raghavachari, A. P. Rendell, J. C. Burant, S. S. Iyengar, 
 J. Tomasi, M. Cossi, J. M. Millam, M. Klene, C. Adamo, R. Cammi, 
 J. W. Ochterski, R. L. Martin, K. Morokuma, O. Farkas, 
 J. B. Foresman, and D. J. Fox, Gaussian, Inc., Wallingford CT, 2016.
 
 ******************************************
 Gaussian 16:  ES64L-G16RevB.01 20-Dec-2017
                 9-Mar-2019 
 ******************************************
 %mem=20gb
 %nproc=12
 Will use up to   12 processors via shared memory.
 %chk=4c1_b1_e3_4c1_PHI.inp_extract_20.chk
 ----------------------------------------------------------------------
 #M062X/6-311++G(2d,2p) opt=ModRedundant freq=noraman SCRF=(SMD,solvent
 =water)
 ----------------------------------------------------------------------
 1/18=120,19=15,26=3,38=1/1,3;
 2/9=110,12=2,17=6,18=5,40=1/2;
 3/5=4,6=6,7=1212,11=2,25=1,30=1,70=32201,71=1,72=1,74=-55/1,2,3;
 4//1;
 5/5=2,38=5,53=1/2;
 6/7=2,8=2,9=2,10=2,28=1/1;
 7//1,2,3,16;
 1/18=20,19=15,26=3/3(2);
 2/9=110/2;
 99//99;
 2/9=110/2;
 3/5=4,6=6,7=1212,11=2,25=1,30=1,70=32205,71=1,72=1,74=-55/1,2,3;
 4/5=5,16=3,69=1/1;
 5/5=2,38=5,53=1/2;
 7//1,2,3,16;
 1/18=20,19=15,26=3/3(-5);
 2/9=110/2;
 6/7=2,8=2,9=2,10=2,19=2,28=1/1;
 99/9=1/99;
 --------------------------------
 4c1_b1_e3_4c1_PHI.inp_extract_20
 --------------------------------
 Symbolic Z-matrix:
 Charge =  0 Multiplicity = 1
 C                     2.15771  -1.02159   0.81973 
 C                     3.16694   1.04463  -0.88607 
 C                    -1.8519   -1.21689  -0.3272 
 C                     1.18154  -0.17251   0.01958 
 C                     1.79157   1.1994   -0.25059 
 O                    -2.03812   0.85732   0.8698 
 C                    -3.22057  -0.9803   -0.97057 
 O                     4.01645   0.25178  -0.08016 
 C                    -4.06821  -0.07341  -0.07793 
 C                    -1.19973   0.10899   0.02905 
 C                    -3.28997   1.18162   0.28288 
 C                     3.51579  -1.0536    0.13129 
 O                    -0.0239   -0.06492   0.7626 
 H                     2.26598  -0.6001    1.81541 
 H                     1.78055  -2.03432   0.92386 
 H                     3.65226   2.00433  -0.99547 
 H                     3.08534   0.59031  -1.87111 
 H                    -1.96096  -1.79374   0.58768 
 H                    -1.20035  -1.77168  -0.99484 
 H                     0.97357  -0.66816  -0.9235 
 H                     1.15687   1.78601  -0.90765 
 H                     1.88613   1.73586   0.68967 
 H                    -3.72168  -1.9277   -1.14128 
 H                    -3.08869  -0.51073  -1.9434 
 H                    -4.33797  -0.59977   0.83441 
 H                    -4.99064   0.21163  -0.57579 
 H                    -0.99585   0.6892   -0.86611 
 H                    -3.11715   1.79233  -0.60014 
 H                    -3.8137    1.78128   1.01378 
 H                     3.44725  -1.56703  -0.82517 
 H                     4.24464  -1.56931   0.74067 
 
 The following ModRedundant input section has been read:
 D       6      10      13       4 F                                           
 

 GradGradGradGradGradGradGradGradGradGradGradGradGradGradGradGradGradGrad
 Berny optimization.
 Initialization pass.
                           ----------------------------
                           !    Initial Parameters    !
                           ! (Angstroms and Degrees)  !
 --------------------------                            --------------------------
 ! Name  Definition              Value          Derivative Info.                !
 --------------------------------------------------------------------------------
 ! R1    R(1,4)                  1.5212         estimate D2E/DX2                !
 ! R2    R(1,12)                 1.5229         estimate D2E/DX2                !
 ! R3    R(1,14)                 1.0866         estimate D2E/DX2                !
 ! R4    R(1,15)                 1.0857         estimate D2E/DX2                !
 ! R5    R(2,5)                  1.523          estimate D2E/DX2                !
 ! R6    R(2,8)                  1.4141         estimate D2E/DX2                !
 ! R7    R(2,16)                 1.081          estimate D2E/DX2                !
 ! R8    R(2,17)                 1.0878         estimate D2E/DX2                !
 ! R9    R(3,7)                  1.5307         estimate D2E/DX2                !
 ! R10   R(3,10)                 1.5199         estimate D2E/DX2                !
 ! R11   R(3,18)                 1.087          estimate D2E/DX2                !
 ! R12   R(3,19)                 1.0854         estimate D2E/DX2                !
 ! R13   R(4,5)                  1.5255         estimate D2E/DX2                !
 ! R14   R(4,13)                 1.4201         estimate D2E/DX2                !
 ! R15   R(4,20)                 1.0855         estimate D2E/DX2                !
 ! R16   R(5,21)                 1.0857         estimate D2E/DX2                !
 ! R17   R(5,22)                 1.0866         estimate D2E/DX2                !
 ! R18   R(6,10)                 1.4035         estimate D2E/DX2                !
 ! R19   R(6,11)                 1.4201         estimate D2E/DX2                !
 ! R20   R(7,9)                  1.529          estimate D2E/DX2                !
 ! R21   R(7,23)                 1.0853         estimate D2E/DX2                !
 ! R22   R(7,24)                 1.0882         estimate D2E/DX2                !
 ! R23   R(8,12)                 1.414          estimate D2E/DX2                !
 ! R24   R(9,11)                 1.5202         estimate D2E/DX2                !
 ! R25   R(9,25)                 1.0873         estimate D2E/DX2                !
 ! R26   R(9,26)                 1.0863         estimate D2E/DX2                !
 ! R27   R(10,13)                1.3967         estimate D2E/DX2                !
 ! R28   R(10,27)                1.0861         estimate D2E/DX2                !
 ! R29   R(11,28)                1.0875         estimate D2E/DX2                !
 ! R30   R(11,29)                1.0808         estimate D2E/DX2                !
 ! R31   R(12,30)                1.0877         estimate D2E/DX2                !
 ! R32   R(12,31)                1.081          estimate D2E/DX2                !
 ! A1    A(4,1,12)             110.2552         estimate D2E/DX2                !
 ! A2    A(4,1,14)             109.233          estimate D2E/DX2                !
 ! A3    A(4,1,15)             110.3758         estimate D2E/DX2                !
 ! A4    A(12,1,14)            109.4817         estimate D2E/DX2                !
 ! A5    A(12,1,15)            109.4836         estimate D2E/DX2                !
 ! A6    A(14,1,15)            107.9719         estimate D2E/DX2                !
 ! A7    A(5,2,8)              111.2038         estimate D2E/DX2                !
 ! A8    A(5,2,16)             110.9441         estimate D2E/DX2                !
 ! A9    A(5,2,17)             110.6426         estimate D2E/DX2                !
 ! A10   A(8,2,16)             106.6024         estimate D2E/DX2                !
 ! A11   A(8,2,17)             109.0842         estimate D2E/DX2                !
 ! A12   A(16,2,17)            108.2291         estimate D2E/DX2                !
 ! A13   A(7,3,10)             110.3242         estimate D2E/DX2                !
 ! A14   A(7,3,18)             110.2456         estimate D2E/DX2                !
 ! A15   A(7,3,19)             110.9292         estimate D2E/DX2                !
 ! A16   A(10,3,18)            107.9807         estimate D2E/DX2                !
 ! A17   A(10,3,19)            109.4201         estimate D2E/DX2                !
 ! A18   A(18,3,19)            107.859          estimate D2E/DX2                !
 ! A19   A(1,4,5)              109.7852         estimate D2E/DX2                !
 ! A20   A(1,4,13)             108.1667         estimate D2E/DX2                !
 ! A21   A(1,4,20)             108.9692         estimate D2E/DX2                !
 ! A22   A(5,4,13)             111.3433         estimate D2E/DX2                !
 ! A23   A(5,4,20)             109.4741         estimate D2E/DX2                !
 ! A24   A(13,4,20)            109.0585         estimate D2E/DX2                !
 ! A25   A(2,5,4)              110.0983         estimate D2E/DX2                !
 ! A26   A(2,5,21)             109.2891         estimate D2E/DX2                !
 ! A27   A(2,5,22)             109.4288         estimate D2E/DX2                !
 ! A28   A(4,5,21)             111.0577         estimate D2E/DX2                !
 ! A29   A(4,5,22)             108.9975         estimate D2E/DX2                !
 ! A30   A(21,5,22)            107.9269         estimate D2E/DX2                !
 ! A31   A(10,6,11)            113.6254         estimate D2E/DX2                !
 ! A32   A(3,7,9)              109.9985         estimate D2E/DX2                !
 ! A33   A(3,7,23)             110.1231         estimate D2E/DX2                !
 ! A34   A(3,7,24)             109.5155         estimate D2E/DX2                !
 ! A35   A(9,7,23)             110.7097         estimate D2E/DX2                !
 ! A36   A(9,7,24)             109.4601         estimate D2E/DX2                !
 ! A37   A(23,7,24)            106.978          estimate D2E/DX2                !
 ! A38   A(2,8,12)             112.9617         estimate D2E/DX2                !
 ! A39   A(7,9,11)             110.1469         estimate D2E/DX2                !
 ! A40   A(7,9,25)             109.8941         estimate D2E/DX2                !
 ! A41   A(7,9,26)             111.0284         estimate D2E/DX2                !
 ! A42   A(11,9,25)            109.1187         estimate D2E/DX2                !
 ! A43   A(11,9,26)            109.0793         estimate D2E/DX2                !
 ! A44   A(25,9,26)            107.5134         estimate D2E/DX2                !
 ! A45   A(3,10,6)             110.4392         estimate D2E/DX2                !
 ! A46   A(3,10,13)            112.0674         estimate D2E/DX2                !
 ! A47   A(3,10,27)            110.695          estimate D2E/DX2                !
 ! A48   A(6,10,13)            104.7532         estimate D2E/DX2                !
 ! A49   A(6,10,27)            108.7257         estimate D2E/DX2                !
 ! A50   A(13,10,27)           109.9592         estimate D2E/DX2                !
 ! A51   A(6,11,9)             111.1521         estimate D2E/DX2                !
 ! A52   A(6,11,28)            108.8897         estimate D2E/DX2                !
 ! A53   A(6,11,29)            105.9241         estimate D2E/DX2                !
 ! A54   A(9,11,28)            110.627          estimate D2E/DX2                !
 ! A55   A(9,11,29)            111.746          estimate D2E/DX2                !
 ! A56   A(28,11,29)           108.3332         estimate D2E/DX2                !
 ! A57   A(1,12,8)             111.3419         estimate D2E/DX2                !
 ! A58   A(1,12,30)            110.5622         estimate D2E/DX2                !
 ! A59   A(1,12,31)            110.883          estimate D2E/DX2                !
 ! A60   A(8,12,30)            109.0612         estimate D2E/DX2                !
 ! A61   A(8,12,31)            106.6183         estimate D2E/DX2                !
 ! A62   A(30,12,31)           108.2406         estimate D2E/DX2                !
 ! A63   A(4,13,10)            116.6939         estimate D2E/DX2                !
 ! D1    D(12,1,4,5)           -52.7017         estimate D2E/DX2                !
 ! D2    D(12,1,4,13)         -174.3781         estimate D2E/DX2                !
 ! D3    D(12,1,4,20)           67.1852         estimate D2E/DX2                !
 ! D4    D(14,1,4,5)            67.6462         estimate D2E/DX2                !
 ! D5    D(14,1,4,13)          -54.0302         estimate D2E/DX2                !
 ! D6    D(14,1,4,20)         -172.4669         estimate D2E/DX2                !
 ! D7    D(15,1,4,5)          -173.7871         estimate D2E/DX2                !
 ! D8    D(15,1,4,13)           64.5365         estimate D2E/DX2                !
 ! D9    D(15,1,4,20)          -53.9002         estimate D2E/DX2                !
 ! D10   D(4,1,12,8)            55.6758         estimate D2E/DX2                !
 ! D11   D(4,1,12,30)          -65.727          estimate D2E/DX2                !
 ! D12   D(4,1,12,31)          174.2116         estimate D2E/DX2                !
 ! D13   D(14,1,12,8)          -64.5224         estimate D2E/DX2                !
 ! D14   D(14,1,12,30)         174.0749         estimate D2E/DX2                !
 ! D15   D(14,1,12,31)          54.0135         estimate D2E/DX2                !
 ! D16   D(15,1,12,8)          177.2922         estimate D2E/DX2                !
 ! D17   D(15,1,12,30)          55.8894         estimate D2E/DX2                !
 ! D18   D(15,1,12,31)         -64.172          estimate D2E/DX2                !
 ! D19   D(8,2,5,4)            -56.0314         estimate D2E/DX2                !
 ! D20   D(8,2,5,21)          -178.2685         estimate D2E/DX2                !
 ! D21   D(8,2,5,22)            63.7461         estimate D2E/DX2                !
 ! D22   D(16,2,5,4)          -174.4979         estimate D2E/DX2                !
 ! D23   D(16,2,5,21)           63.265          estimate D2E/DX2                !
 ! D24   D(16,2,5,22)          -54.7204         estimate D2E/DX2                !
 ! D25   D(17,2,5,4)            65.362          estimate D2E/DX2                !
 ! D26   D(17,2,5,21)          -56.8751         estimate D2E/DX2                !
 ! D27   D(17,2,5,22)         -174.8606         estimate D2E/DX2                !
 ! D28   D(5,2,8,12)            59.9833         estimate D2E/DX2                !
 ! D29   D(16,2,8,12)         -178.9682         estimate D2E/DX2                !
 ! D30   D(17,2,8,12)          -62.3165         estimate D2E/DX2                !
 ! D31   D(10,3,7,9)           -52.6052         estimate D2E/DX2                !
 ! D32   D(10,3,7,23)         -174.8909         estimate D2E/DX2                !
 ! D33   D(10,3,7,24)           67.7345         estimate D2E/DX2                !
 ! D34   D(18,3,7,9)            66.5699         estimate D2E/DX2                !
 ! D35   D(18,3,7,23)          -55.7158         estimate D2E/DX2                !
 ! D36   D(18,3,7,24)         -173.0903         estimate D2E/DX2                !
 ! D37   D(19,3,7,9)          -174.0225         estimate D2E/DX2                !
 ! D38   D(19,3,7,23)           63.6918         estimate D2E/DX2                !
 ! D39   D(19,3,7,24)          -53.6828         estimate D2E/DX2                !
 ! D40   D(7,3,10,6)            56.4173         estimate D2E/DX2                !
 ! D41   D(7,3,10,13)          172.7978         estimate D2E/DX2                !
 ! D42   D(7,3,10,27)          -64.0485         estimate D2E/DX2                !
 ! D43   D(18,3,10,6)          -64.1251         estimate D2E/DX2                !
 ! D44   D(18,3,10,13)          52.2554         estimate D2E/DX2                !
 ! D45   D(18,3,10,27)         175.409          estimate D2E/DX2                !
 ! D46   D(19,3,10,6)          178.7267         estimate D2E/DX2                !
 ! D47   D(19,3,10,13)         -64.8928         estimate D2E/DX2                !
 ! D48   D(19,3,10,27)          58.2609         estimate D2E/DX2                !
 ! D49   D(1,4,5,2)             52.8967         estimate D2E/DX2                !
 ! D50   D(1,4,5,21)           174.0821         estimate D2E/DX2                !
 ! D51   D(1,4,5,22)           -67.1421         estimate D2E/DX2                !
 ! D52   D(13,4,5,2)           172.6526         estimate D2E/DX2                !
 ! D53   D(13,4,5,21)          -66.162          estimate D2E/DX2                !
 ! D54   D(13,4,5,22)           52.6139         estimate D2E/DX2                !
 ! D55   D(20,4,5,2)           -66.682          estimate D2E/DX2                !
 ! D56   D(20,4,5,21)           54.5035         estimate D2E/DX2                !
 ! D57   D(20,4,5,22)          173.2793         estimate D2E/DX2                !
 ! D58   D(1,4,13,10)         -151.4818         estimate D2E/DX2                !
 ! D59   D(5,4,13,10)           87.8073         estimate D2E/DX2                !
 ! D60   D(20,4,13,10)         -33.102          estimate D2E/DX2                !
 ! D61   D(11,6,10,3)          -61.0275         estimate D2E/DX2                !
 ! D62   D(11,6,10,13)         178.1254         estimate D2E/DX2                !
 ! D63   D(11,6,10,27)          60.6102         estimate D2E/DX2                !
 ! D64   D(10,6,11,9)           60.4682         estimate D2E/DX2                !
 ! D65   D(10,6,11,28)         -61.6472         estimate D2E/DX2                !
 ! D66   D(10,6,11,29)        -177.9644         estimate D2E/DX2                !
 ! D67   D(3,7,9,11)            51.6244         estimate D2E/DX2                !
 ! D68   D(3,7,9,25)           -68.626          estimate D2E/DX2                !
 ! D69   D(3,7,9,26)           172.5593         estimate D2E/DX2                !
 ! D70   D(23,7,9,11)          173.5622         estimate D2E/DX2                !
 ! D71   D(23,7,9,25)           53.3118         estimate D2E/DX2                !
 ! D72   D(23,7,9,26)          -65.503          estimate D2E/DX2                !
 ! D73   D(24,7,9,11)          -68.7488         estimate D2E/DX2                !
 ! D74   D(24,7,9,25)          171.0008         estimate D2E/DX2                !
 ! D75   D(24,7,9,26)           52.1861         estimate D2E/DX2                !
 ! D76   D(2,8,12,1)           -59.766          estimate D2E/DX2                !
 ! D77   D(2,8,12,30)           62.5076         estimate D2E/DX2                !
 ! D78   D(2,8,12,31)          179.1695         estimate D2E/DX2                !
 ! D79   D(7,9,11,6)           -54.6045         estimate D2E/DX2                !
 ! D80   D(7,9,11,28)           66.4968         estimate D2E/DX2                !
 ! D81   D(7,9,11,29)         -172.7072         estimate D2E/DX2                !
 ! D82   D(25,9,11,6)           66.1125         estimate D2E/DX2                !
 ! D83   D(25,9,11,28)        -172.7862         estimate D2E/DX2                !
 ! D84   D(25,9,11,29)         -51.9903         estimate D2E/DX2                !
 ! D85   D(26,9,11,6)         -176.6998         estimate D2E/DX2                !
 ! D86   D(26,9,11,28)         -55.5985         estimate D2E/DX2                !
 ! D87   D(26,9,11,29)          65.1975         estimate D2E/DX2                !
 ! D88   D(3,10,13,4)           90.4649         estimate D2E/DX2                !
 ! D89   D(6,10,13,4)         -149.7716         Frozen                          !
 ! D90   D(27,10,13,4)         -33.1028         estimate D2E/DX2                !
 --------------------------------------------------------------------------------
 Trust Radius=3.00D-01 FncErr=1.00D-07 GrdErr=1.00D-06 EigMax=2.50D+02 EigMin=1.00D-04
 Number of steps in this run=    186 maximum allowed number of steps=    186.
 GradGradGradGradGradGradGradGradGradGradGradGradGradGradGradGradGradGrad

                          Input orientation:                          
 ---------------------------------------------------------------------
 Center     Atomic      Atomic             Coordinates (Angstroms)
 Number     Number       Type             X           Y           Z
 ---------------------------------------------------------------------
      1          6           0        2.157708   -1.021590    0.819727
      2          6           0        3.166937    1.044630   -0.886068
      3          6           0       -1.851899   -1.216891   -0.327203
      4          6           0        1.181536   -0.172509    0.019578
      5          6           0        1.791572    1.199402   -0.250587
      6          8           0       -2.038121    0.857323    0.869803
      7          6           0       -3.220568   -0.980295   -0.970565
      8          8           0        4.016446    0.251784   -0.080155
      9          6           0       -4.068214   -0.073409   -0.077926
     10          6           0       -1.199728    0.108989    0.029047
     11          6           0       -3.289969    1.181618    0.282876
     12          6           0        3.515792   -1.053603    0.131293
     13          8           0       -0.023900   -0.064915    0.762596
     14          1           0        2.265982   -0.600103    1.815409
     15          1           0        1.780547   -2.034317    0.923858
     16          1           0        3.652258    2.004333   -0.995472
     17          1           0        3.085335    0.590307   -1.871107
     18          1           0       -1.960962   -1.793742    0.587676
     19          1           0       -1.200352   -1.771684   -0.994837
     20          1           0        0.973571   -0.668160   -0.923497
     21          1           0        1.156869    1.786011   -0.907649
     22          1           0        1.886132    1.735861    0.689666
     23          1           0       -3.721684   -1.927698   -1.141282
     24          1           0       -3.088693   -0.510731   -1.943396
     25          1           0       -4.337965   -0.599768    0.834409
     26          1           0       -4.990643    0.211625   -0.575789
     27          1           0       -0.995847    0.689200   -0.866106
     28          1           0       -3.117148    1.792333   -0.600139
     29          1           0       -3.813697    1.781282    1.013778
     30          1           0        3.447250   -1.567026   -0.825173
     31          1           0        4.244640   -1.569306    0.740672
 ---------------------------------------------------------------------
                    Distance matrix (angstroms):
                    1          2          3          4          5
     1  C    0.000000
     2  C    2.863135   0.000000
     3  C    4.174990   5.533130   0.000000
     4  C    1.521213   2.498687   3.226874   0.000000
     5  C    2.492475   1.522964   4.372553   1.525540   0.000000
     6  O    4.597587   5.496435   2.402054   3.485632   4.004852
     7  C    5.668572   6.701319   1.530734   4.583822   5.512803
     8  O    2.426144   1.414131   6.054380   2.868220   2.424271
     9  C    6.361363   7.365495   2.506340   5.251591   5.998913
    10  C    3.629843   4.558577   1.519934   2.397863   3.196103
    11  C    5.900807   6.563294   2.862357   4.679460   5.109497
    12  C    1.522944   2.357818   5.389711   2.497510   2.862656
    13  O    2.382835   3.759072   2.419977   1.420116   2.433306
    14  H    1.086627   3.288593   4.682751   2.140997   2.780580
    15  H    1.085684   3.831165   3.927850   2.154731   3.440404
    16  H    3.832080   1.080988   6.412380   3.445785   2.159843
    17  H    3.270977   1.087828   5.479588   2.789450   2.161228
    18  H    4.196845   6.043478   1.087040   3.581400   4.872690
    19  H    3.889968   5.197756   1.085377   3.042990   4.281690
    20  H    2.136802   2.783147   2.939380   1.085500   2.147026
    21  H    3.445015   2.142542   4.290341   2.167062   1.085674
    22  H    2.773843   2.145041   4.870898   2.141810   1.086649
    23  H    6.263692   7.506861   2.159645   5.335715   6.400632
    24  H    5.951517   6.532228   2.154159   4.711955   5.441245
    25  H    6.509371   7.873223   2.812598   5.595658   6.479618
    26  H    7.386962   8.205869   3.457480   6.212714   6.861479
    27  H    3.964057   4.177978   2.157875   2.503592   2.899806
    28  H    6.144777   6.334867   3.275787   4.766900   4.956741
    29  H    6.599350   7.271954   3.825692   5.455097   5.775486
    30  H    2.160119   2.627362   5.333999   2.791369   3.274835
    31  H    2.159057   3.261961   6.199382   3.442909   3.829606
                    6          7          8          9         10
     6  O    0.000000
     7  C    2.856917   0.000000
     8  O    6.158480   7.394946   0.000000
     9  C    2.426052   1.528970   8.091198   0.000000
    10  C    1.403488   2.503909   5.219271   2.876269   0.000000
    11  C    1.420132   2.499960   7.374285   1.520176   2.363064
    12  C    5.919712   6.826274   1.414001   7.649948   4.857798
    13  O    2.217905   3.749727   4.139435   4.130741   1.396749
    14  H    4.641504   6.165098   2.717167   6.632056   3.962959
    15  H    4.790274   5.450775   3.351648   6.249539   3.778424
    16  H    6.097155   7.492954   2.010439   8.047645   5.308836
    17  H    5.816673   6.560654   2.046723   7.404680   4.712114
    18  H    2.667151   2.162503   6.352919   2.800550   2.124130
    19  H    3.330228   2.169829   5.669748   3.456804   2.141324
    20  H    3.822736   4.206001   3.288862   5.146680   2.496904
    21  H    3.772235   5.178645   3.348997   5.607796   3.040288
    22  H    4.025424   6.017662   2.708015   6.270318   3.550445
    23  H    3.825597   1.085281   8.108933   2.165455   3.446451
    24  H    3.299903   1.088247   7.384856   2.151904   2.800495
    25  H    2.722802   2.156689   8.447352   1.087279   3.316546
    26  H    3.350231   2.170181   9.020805   1.086272   3.840234
    27  H    2.031743   2.783435   5.092360   3.262245   1.086053
    28  H    2.049213   2.799174   7.316545   2.158292   2.627931
    29  H    2.006763   3.451916   8.052775   2.167135   3.255625
    30  H    6.232151   6.695162   2.046242   7.698797   5.013295
    31  H    6.736341   7.681445   2.010522   8.485950   5.741448
                   11         12         13         14         15
    11  C    0.000000
    12  C    7.165024   0.000000
    13  O    3.528623   3.729003   0.000000
    14  H    6.032560   2.145678   2.576509   0.000000
    15  H    6.038479   2.145002   2.675926   1.757123   0.000000
    16  H    7.106726   3.261778   4.570200   4.075034   4.847455
    17  H    6.755279   2.626279   4.127112   3.959648   4.050056
    18  H    3.272908   5.545352   2.602239   4.560609   3.764277
    19  H    3.836801   4.901614   2.717659   4.613627   3.554733
    20  H    4.801540   2.779215   2.049820   3.029284   2.435224
    21  H    4.642953   3.835013   2.758598   3.786650   4.282324
    22  H    5.221560   3.278518   2.626087   2.620746   3.778920
    23  H    3.447093   7.400307   4.557227   6.808574   5.877986
    24  H    2.803720   6.943937   4.112676   6.542870   5.852517
    25  H    2.139117   7.898217   4.347687   6.676412   6.285071
    26  H    2.137869   8.629033   5.151338   7.683446   7.289870
    27  H    2.612591   4.938325   2.041088   4.415015   4.281341
    28  H    1.087454   7.254670   3.856760   6.366845   6.399471
    29  H    1.080789   7.908019   4.223044   6.578458   6.772182
    30  H    7.360227   1.087717   4.101979   3.050083   2.460766
    31  H    8.034145   1.080977   4.525937   2.451428   2.514269
                   16         17         18         19         20
    16  H    0.000000
    17  H    1.757159   0.000000
    18  H    6.959883   6.098723   0.000000
    19  H    6.148669   4.971314   1.755950   0.000000
    20  H    3.784543   2.634625   3.487415   2.439015   0.000000
    21  H    2.506460   2.465145   4.977097   4.268640   2.461058
    22  H    2.455803   3.050892   5.221938   4.966569   3.035520
    23  H    8.358059   7.294416   2.471312   2.530396   4.866137
    24  H    7.257033   6.271852   3.053559   2.460813   4.191297
    25  H    8.600783   7.990086   2.671441   3.816300   5.595295
    26  H    8.836836   8.187959   3.814986   4.298305   6.038772
    27  H    4.832307   4.204266   3.034787   2.472720   2.392557
    28  H    6.784253   6.444457   3.950646   4.065970   4.784618
    29  H    7.734812   7.572161   4.049072   4.846408   5.715832
    30  H    3.581290   2.424674   5.594310   4.655199   2.633765
    31  H    4.016965   3.581802   6.211544   5.718469   3.779076
                   21         22         23         24         25
    21  H    0.000000
    22  H    1.756632   0.000000
    23  H    6.135674   6.944180   0.000000
    24  H    4.936861   6.060452   1.746957   0.000000
    25  H    6.238582   6.649473   2.458974   3.047098   0.000000
    26  H    6.354583   7.156445   2.550832   2.451441   1.752999
    27  H    2.416383   3.438274   3.788676   2.642043   3.965217
    28  H    4.285070   5.167165   3.807483   2.666318   3.044745
    29  H    5.329018   5.709217   4.290604   3.811015   2.444674
    30  H    4.061466   3.954856   7.184958   6.714517   8.018689
    31  H    4.848654   4.060701   8.193443   7.880519   8.637702
                   26         27         28         29         30
    26  H    0.000000
    27  H    4.033703   0.000000
    28  H    2.451370   2.405735   0.000000
    29  H    2.525024   3.559057   1.757848   0.000000
    30  H    8.626925   4.983306   7.377483   8.204527   0.000000
    31  H    9.497117   5.928346   8.203311   8.731427   1.757187
                   31
    31  H    0.000000
 Stoichiometry    C10H18O3
 Framework group  C1[X(C10H18O3)]
 Deg. of freedom    87
 Full point group                 C1      NOp   1
 Largest Abelian subgroup         C1      NOp   1
 Largest concise Abelian subgroup C1      NOp   1
                         Standard orientation:                         
 ---------------------------------------------------------------------
 Center     Atomic      Atomic             Coordinates (Angstroms)
 Number     Number       Type             X           Y           Z
 ---------------------------------------------------------------------
      1          6           0        2.157708    1.021590   -0.819727
      2          6           0        3.166937   -1.044630    0.886068
      3          6           0       -1.851899    1.216891    0.327203
      4          6           0        1.181536    0.172509   -0.019578
      5          6           0        1.791572   -1.199402    0.250587
      6          8           0       -2.038121   -0.857323   -0.869803
      7          6           0       -3.220568    0.980295    0.970565
      8          8           0        4.016446   -0.251784    0.080155
      9          6           0       -4.068214    0.073409    0.077926
     10          6           0       -1.199728   -0.108989   -0.029047
     11          6           0       -3.289969   -1.181618   -0.282876
     12          6           0        3.515792    1.053603   -0.131293
     13          8           0       -0.023900    0.064915   -0.762596
     14          1           0        2.265982    0.600103   -1.815409
     15          1           0        1.780547    2.034317   -0.923858
     16          1           0        3.652258   -2.004333    0.995472
     17          1           0        3.085335   -0.590307    1.871107
     18          1           0       -1.960962    1.793742   -0.587676
     19          1           0       -1.200352    1.771684    0.994837
     20          1           0        0.973571    0.668160    0.923497
     21          1           0        1.156869   -1.786011    0.907649
     22          1           0        1.886132   -1.735861   -0.689666
     23          1           0       -3.721684    1.927698    1.141282
     24          1           0       -3.088693    0.510731    1.943396
     25          1           0       -4.337965    0.599768   -0.834409
     26          1           0       -4.990643   -0.211625    0.575789
     27          1           0       -0.995847   -0.689200    0.866106
     28          1           0       -3.117148   -1.792333    0.600139
     29          1           0       -3.813697   -1.781282   -1.013778
     30          1           0        3.447250    1.567026    0.825173
     31          1           0        4.244640    1.569306   -0.740672
 ---------------------------------------------------------------------
 Rotational constants (GHZ):           2.2052829           0.3469640           0.3291407
 Standard basis: 6-311++G(2d,2p) (5D, 7F)
 There are   557 symmetry adapted cartesian basis functions of A   symmetry.
 There are   531 symmetry adapted basis functions of A   symmetry.
   531 basis functions,   762 primitive gaussians,   557 cartesian basis functions
    51 alpha electrons       51 beta electrons
       nuclear repulsion energy       874.5626188787 Hartrees.
 NAtoms=   31 NActive=   31 NUniq=   31 SFac= 1.00D+00 NAtFMM=   60 NAOKFM=F Big=F
 Integral buffers will be    131072 words long.
 Raffenetti 2 integral format.
 Two-electron integral symmetry is turned on.
 ------------------------------------------------------------------------------
 Polarizable Continuum Model (PCM)
 =================================
 Model                : PCM.
 Atomic radii         : SMD-Coulomb.
 Polarization charges : Total charges.
 Charge compensation  : None.
 Solution method      : On-the-fly selection.
 Cavity type          : VdW (van der Waals Surface) (Alpha=1.000).
 Cavity algorithm     : GePol (No added spheres)
                        Default sphere list used, NSphG=   31.
                        Lebedev-Laikov grids with approx.  5.0 points / Ang**2.
                        Smoothing algorithm: York/Karplus (Gamma=1.0000).
                        Polarization charges: spherical gaussians, with
                                              point-specific exponents (IZeta= 3).
                        Self-potential: point-specific (ISelfS= 7).
                        Self-field    : sphere-specific E.n sum rule (ISelfD= 2).
 1st derivatives      : Analytical E(r).r(x)/FMM algorithm (CHGder, D1EAlg=3).
                        Cavity 1st derivative terms included.
 Solvent              : Water, Eps=  78.355300 Eps(inf)=   1.777849
 ------------------------------------------------------------------------------
 ------------------------------------------------------------------------------
 Atomic radii for non-electrostatic terms: SMD-CDS.
 ------------------------------------------------------------------------------
 Nuclear repulsion after PCM non-electrostatic terms =      874.5690278373 Hartrees.
 One-electron integrals computed using PRISM.
 NBasis=   531 RedAO= T EigKep=  6.47D-06  NBF=   531
 NBsUse=   531 1.00D-06 EigRej= -1.00D+00 NBFU=   531
 ExpMin= 3.60D-02 ExpMax= 8.59D+03 ExpMxC= 1.30D+03 IAcc=3 IRadAn=         5 AccDes= 0.00D+00
 Harris functional with IExCor= 1009 and IRadAn=       5 diagonalized for initial guess.
 HarFok:  IExCor= 1009 AccDes= 0.00D+00 IRadAn=         5 IDoV= 1 UseB2=F ITyADJ=14
 ICtDFT=  3500011 ScaDFX=  1.000000  1.000000  1.000000  1.000000
 FoFCou: FMM=F IPFlag=           0 FMFlag=      100000 FMFlg1=           0
         NFxFlg=           0 DoJE=T BraDBF=F KetDBF=T FulRan=T
         wScrn=  0.000000 ICntrl=       500 IOpCl=  0 I1Cent=   200000004 NGrid=           0
         NMat0=    1 NMatS0=      1 NMatT0=    0 NMatD0=    1 NMtDS0=    0 NMtDT0=    0
 Petite list used in FoFCou.
 Requested convergence on RMS density matrix=1.00D-08 within 128 cycles.
 Requested convergence on MAX density matrix=1.00D-06.
 Requested convergence on             energy=1.00D-06.
 No special actions if energy rises.
 Inv3:  Mode=1 IEnd=    12350523.
 Iteration    1 A*A^-1 deviation from unit magnitude is 4.00D-15 for   2022.
 Iteration    1 A*A^-1 deviation from orthogonality  is 5.09D-15 for   2022    623.
 Iteration    1 A^-1*A deviation from unit magnitude is 4.00D-15 for   2009.
 Iteration    1 A^-1*A deviation from orthogonality  is 2.54D-15 for   2013   1758.
 Error on total polarization charges =  0.06377
 SCF Done:  E(RM062X) =  -617.505171140     A.U. after   12 cycles
            NFock= 12  Conv=0.47D-08     -V/T= 2.0035
 SMD-CDS (non-electrostatic) energy       (kcal/mol) =       4.02
 (included in total energy above)

 **********************************************************************

            Population analysis using the SCF Density.

 **********************************************************************

 Orbital symmetries:
       Occupied  (A) (A) (A) (A) (A) (A) (A) (A) (A) (A) (A) (A)
                 (A) (A) (A) (A) (A) (A) (A) (A) (A) (A) (A) (A)
                 (A) (A) (A) (A) (A) (A) (A) (A) (A) (A) (A) (A)
                 (A) (A) (A) (A) (A) (A) (A) (A) (A) (A) (A) (A)
                 (A) (A) (A)
       Virtual   (A) (A) (A) (A) (A) (A) (A) (A) (A) (A) (A) (A)
                 (A) (A) (A) (A) (A) (A) (A) (A) (A) (A) (A) (A)
                 (A) (A) (A) (A) (A) (A) (A) (A) (A) (A) (A) (A)
                 (A) (A) (A) (A) (A) (A) (A) (A) (A) (A) (A) (A)
                 (A) (A) (A) (A) (A) (A) (A) (A) (A) (A) (A) (A)
                 (A) (A) (A) (A) (A) (A) (A) (A) (A) (A) (A) (A)
                 (A) (A) (A) (A) (A) (A) (A) (A) (A) (A) (A) (A)
                 (A) (A) (A) (A) (A) (A) (A) (A) (A) (A) (A) (A)
                 (A) (A) (A) (A) (A) (A) (A) (A) (A) (A) (A) (A)
                 (A) (A) (A) (A) (A) (A) (A) (A) (A) (A) (A) (A)
                 (A) (A) (A) (A) (A) (A) (A) (A) (A) (A) (A) (A)
                 (A) (A) (A) (A) (A) (A) (A) (A) (A) (A) (A) (A)
                 (A) (A) (A) (A) (A) (A) (A) (A) (A) (A) (A) (A)
                 (A) (A) (A) (A) (A) (A) (A) (A) (A) (A) (A) (A)
                 (A) (A) (A) (A) (A) (A) (A) (A) (A) (A) (A) (A)
                 (A) (A) (A) (A) (A) (A) (A) (A) (A) (A) (A) (A)
                 (A) (A) (A) (A) (A) (A) (A) (A) (A) (A) (A) (A)
                 (A) (A) (A) (A) (A) (A) (A) (A) (A) (A) (A) (A)
                 (A) (A) (A) (A) (A) (A) (A) (A) (A) (A) (A) (A)
                 (A) (A) (A) (A) (A) (A) (A) (A) (A) (A) (A) (A)
                 (A) (A) (A) (A) (A) (A) (A) (A) (A) (A) (A) (A)
                 (A) (A) (A) (A) (A) (A) (A) (A) (A) (A) (A) (A)
                 (A) (A) (A) (A) (A) (A) (A) (A) (A) (A) (A) (A)
                 (A) (A) (A) (A) (A) (A) (A) (A) (A) (A) (A) (A)
                 (A) (A) (A) (A) (A) (A) (A) (A) (A) (A) (A) (A)
                 (A) (A) (A) (A) (A) (A) (A) (A) (A) (A) (A) (A)
                 (A) (A) (A) (A) (A) (A) (A) (A) (A) (A) (A) (A)
                 (A) (A) (A) (A) (A) (A) (A) (A) (A) (A) (A) (A)
                 (A) (A) (A) (A) (A) (A) (A) (A) (A) (A) (A) (A)
                 (A) (A) (A) (A) (A) (A) (A) (A) (A) (A) (A) (A)
                 (A) (A) (A) (A) (A) (A) (A) (A) (A) (A) (A) (A)
                 (A) (A) (A) (A) (A) (A) (A) (A) (A) (A) (A) (A)
                 (A) (A) (A) (A) (A) (A) (A) (A) (A) (A) (A) (A)
                 (A) (A) (A) (A) (A) (A) (A) (A) (A) (A) (A) (A)
                 (A) (A) (A) (A) (A) (A) (A) (A) (A) (A) (A) (A)
                 (A) (A) (A) (A) (A) (A) (A) (A) (A) (A) (A) (A)
                 (A) (A) (A) (A) (A) (A) (A) (A) (A) (A) (A) (A)
                 (A) (A) (A) (A) (A) (A) (A) (A) (A) (A) (A) (A)
                 (A) (A) (A) (A) (A) (A) (A) (A) (A) (A) (A) (A)
                 (A) (A) (A) (A) (A) (A) (A) (A) (A) (A) (A) (A)
 The electronic state is 1-A.
 Alpha  occ. eigenvalues --  -19.63119 -19.63067 -19.62754 -10.63185 -10.58577
 Alpha  occ. eigenvalues --  -10.57459 -10.57435 -10.57420 -10.52415 -10.52412
 Alpha  occ. eigenvalues --  -10.52241 -10.52135 -10.52114  -1.20379  -1.16570
 Alpha  occ. eigenvalues --   -1.14161  -0.90357  -0.89561  -0.86344  -0.84692
 Alpha  occ. eigenvalues --   -0.74702  -0.73289  -0.72960  -0.69939  -0.65658
 Alpha  occ. eigenvalues --   -0.64873  -0.60286  -0.58066  -0.55488  -0.55379
 Alpha  occ. eigenvalues --   -0.54580  -0.52882  -0.52196  -0.51094  -0.49985
 Alpha  occ. eigenvalues --   -0.48457  -0.47332  -0.45975  -0.45236  -0.44596
 Alpha  occ. eigenvalues --   -0.42780  -0.41653  -0.40304  -0.39876  -0.39189
 Alpha  occ. eigenvalues --   -0.38741  -0.37224  -0.36782  -0.34496  -0.33109
 Alpha  occ. eigenvalues --   -0.31459
 Alpha virt. eigenvalues --    0.00489   0.01288   0.01413   0.01505   0.02748
 Alpha virt. eigenvalues --    0.02811   0.02997   0.04035   0.04161   0.04701
 Alpha virt. eigenvalues --    0.05149   0.05457   0.05737   0.06230   0.07379
 Alpha virt. eigenvalues --    0.07954   0.08083   0.08877   0.09046   0.09478
 Alpha virt. eigenvalues --    0.10251   0.10896   0.11258   0.12049   0.12191
 Alpha virt. eigenvalues --    0.12900   0.13206   0.13345   0.13677   0.14068
 Alpha virt. eigenvalues --    0.14356   0.14439   0.14684   0.15114   0.15450
 Alpha virt. eigenvalues --    0.15708   0.15784   0.16178   0.16478   0.16609
 Alpha virt. eigenvalues --    0.16942   0.17086   0.17475   0.17864   0.18288
 Alpha virt. eigenvalues --    0.18541   0.18700   0.19241   0.19559   0.19787
 Alpha virt. eigenvalues --    0.20382   0.20524   0.20766   0.21171   0.22070
 Alpha virt. eigenvalues --    0.22273   0.22901   0.23516   0.24543   0.24992
 Alpha virt. eigenvalues --    0.25607   0.26295   0.26660   0.27463   0.27623
 Alpha virt. eigenvalues --    0.28357   0.28748   0.29413   0.29740   0.30020
 Alpha virt. eigenvalues --    0.30178   0.30746   0.31318   0.31782   0.32183
 Alpha virt. eigenvalues --    0.32854   0.33200   0.33477   0.33777   0.34779
 Alpha virt. eigenvalues --    0.35069   0.35348   0.35538   0.35973   0.36456
 Alpha virt. eigenvalues --    0.36798   0.37052   0.37249   0.37777   0.38142
 Alpha virt. eigenvalues --    0.38656   0.39188   0.39796   0.40275   0.40624
 Alpha virt. eigenvalues --    0.41296   0.41698   0.42341   0.42775   0.44719
 Alpha virt. eigenvalues --    0.46867   0.47963   0.50337   0.51777   0.52129
 Alpha virt. eigenvalues --    0.52717   0.53141   0.53893   0.55665   0.56024
 Alpha virt. eigenvalues --    0.56494   0.57244   0.57607   0.58671   0.58780
 Alpha virt. eigenvalues --    0.59768   0.60412   0.61285   0.61501   0.62252
 Alpha virt. eigenvalues --    0.62533   0.63481   0.63680   0.64083   0.64788
 Alpha virt. eigenvalues --    0.65044   0.65482   0.65942   0.67002   0.67258
 Alpha virt. eigenvalues --    0.67682   0.68391   0.69196   0.69491   0.70314
 Alpha virt. eigenvalues --    0.71337   0.71762   0.72381   0.73126   0.73695
 Alpha virt. eigenvalues --    0.74408   0.74772   0.75075   0.75989   0.76441
 Alpha virt. eigenvalues --    0.76625   0.77072   0.77404   0.77981   0.78457
 Alpha virt. eigenvalues --    0.80836   0.82943   0.84185   0.84885   0.85760
 Alpha virt. eigenvalues --    0.86936   0.87918   0.88889   0.89739   0.90539
 Alpha virt. eigenvalues --    0.91424   0.93423   0.93458   0.94704   0.96109
 Alpha virt. eigenvalues --    0.97645   0.99270   0.99732   1.00696   1.02008
 Alpha virt. eigenvalues --    1.03054   1.03669   1.04727   1.06374   1.06531
 Alpha virt. eigenvalues --    1.07029   1.08598   1.09829   1.10724   1.11177
 Alpha virt. eigenvalues --    1.11614   1.13224   1.15132   1.15506   1.17172
 Alpha virt. eigenvalues --    1.17483   1.18470   1.19088   1.19480   1.20690
 Alpha virt. eigenvalues --    1.20985   1.21976   1.22383   1.23125   1.23660
 Alpha virt. eigenvalues --    1.24586   1.25065   1.25625   1.25967   1.27026
 Alpha virt. eigenvalues --    1.28154   1.29019   1.29600   1.30309   1.30581
 Alpha virt. eigenvalues --    1.31463   1.31818   1.32700   1.33324   1.33684
 Alpha virt. eigenvalues --    1.33973   1.35356   1.36322   1.37021   1.37340
 Alpha virt. eigenvalues --    1.38096   1.38539   1.39268   1.40511   1.41467
 Alpha virt. eigenvalues --    1.41717   1.42987   1.44107   1.44798   1.45418
 Alpha virt. eigenvalues --    1.46679   1.47082   1.47513   1.47795   1.48833
 Alpha virt. eigenvalues --    1.49266   1.49847   1.50459   1.51794   1.52459
 Alpha virt. eigenvalues --    1.52739   1.53821   1.54754   1.55022   1.56184
 Alpha virt. eigenvalues --    1.57051   1.57514   1.57912   1.58651   1.58851
 Alpha virt. eigenvalues --    1.59879   1.60139   1.61016   1.61877   1.62271
 Alpha virt. eigenvalues --    1.63805   1.65587   1.65765   1.66468   1.67026
 Alpha virt. eigenvalues --    1.67921   1.68676   1.70356   1.70586   1.71662
 Alpha virt. eigenvalues --    1.72832   1.73513   1.75649   1.75982   1.76879
 Alpha virt. eigenvalues --    1.78938   1.80562   1.81136   1.81915   1.83973
 Alpha virt. eigenvalues --    1.86473   1.87790   1.90981   1.93575   1.97670
 Alpha virt. eigenvalues --    2.00928   2.09840   2.15840   2.16827   2.19006
 Alpha virt. eigenvalues --    2.24088   2.29141   2.29498   2.33871   2.35460
 Alpha virt. eigenvalues --    2.40304   2.43064   2.43561   2.47394   2.50164
 Alpha virt. eigenvalues --    2.56385   2.76321   2.78329   2.79649   2.82251
 Alpha virt. eigenvalues --    2.86230   2.88979   2.91146   2.92889   2.93735
 Alpha virt. eigenvalues --    2.97646   2.98326   3.01152   3.03772   3.05775
 Alpha virt. eigenvalues --    3.06558   3.08618   3.08804   3.09977   3.11164
 Alpha virt. eigenvalues --    3.11970   3.12473   3.15776   3.20640   3.21629
 Alpha virt. eigenvalues --    3.24701   3.29489   3.31938   3.33179   3.35306
 Alpha virt. eigenvalues --    3.36456   3.37217   3.38760   3.40410   3.42152
 Alpha virt. eigenvalues --    3.43069   3.43428   3.44299   3.45708   3.47383
 Alpha virt. eigenvalues --    3.48972   3.49433   3.49666   3.50562   3.51631
 Alpha virt. eigenvalues --    3.53330   3.54487   3.55622   3.56173   3.56969
 Alpha virt. eigenvalues --    3.57109   3.57417   3.58821   3.59059   3.60129
 Alpha virt. eigenvalues --    3.61229   3.61770   3.63256   3.64688   3.65311
 Alpha virt. eigenvalues --    3.66472   3.68695   3.69066   3.69646   3.70852
 Alpha virt. eigenvalues --    3.71460   3.72656   3.72981   3.73226   3.74195
 Alpha virt. eigenvalues --    3.74670   3.75276   3.76197   3.76735   3.77333
 Alpha virt. eigenvalues --    3.78987   3.79782   3.80871   3.81844   3.85256
 Alpha virt. eigenvalues --    3.87017   3.87479   3.89180   3.91152   3.91961
 Alpha virt. eigenvalues --    3.93164   3.93309   3.94087   3.95002   3.97294
 Alpha virt. eigenvalues --    3.98994   4.01552   4.02948   4.03519   4.04378
 Alpha virt. eigenvalues --    4.06097   4.06388   4.06834   4.07530   4.07990
 Alpha virt. eigenvalues --    4.08521   4.10146   4.11409   4.11929   4.12348
 Alpha virt. eigenvalues --    4.12744   4.13047   4.13946   4.14425   4.14876
 Alpha virt. eigenvalues --    4.15716   4.17809   4.18973   4.19981   4.20357
 Alpha virt. eigenvalues --    4.22041   4.22277   4.23157   4.25357   4.26328
 Alpha virt. eigenvalues --    4.29845   4.30769   4.31066   4.31611   4.33144
 Alpha virt. eigenvalues --    4.33879   4.34421   4.35358   4.38527   4.40096
 Alpha virt. eigenvalues --    4.41479   4.43613   4.45247   4.49567   4.55874
 Alpha virt. eigenvalues --    4.60718   4.61884   4.74616   4.77058   4.88918
 Alpha virt. eigenvalues --    4.90863   4.91385   4.92678   4.99271   4.99859
 Alpha virt. eigenvalues --    5.06775   5.08230   5.08467   5.09982   5.12102
 Alpha virt. eigenvalues --    5.12506   5.13103   5.14676   5.29901   5.33500
 Alpha virt. eigenvalues --    5.39097   5.55398   5.57277   5.64928   5.86316
 Alpha virt. eigenvalues --    5.87588   6.00630   7.03547   7.04657   7.06116
 Alpha virt. eigenvalues --    7.09393   7.10007   7.10470   7.12796   7.15374
 Alpha virt. eigenvalues --    7.23127   7.35290   7.36595   7.47095   7.53064
 Alpha virt. eigenvalues --    7.56532   7.62418  23.94336  23.99171  24.06333
 Alpha virt. eigenvalues --   24.08503  24.12534  24.13760  24.14130  24.16214
 Alpha virt. eigenvalues --   24.17353  24.19774  50.16275  50.21305  50.22013
          Condensed to atoms (all electrons):
               1          2          3          4          5          6
     1  C    6.260725   0.175794   0.018249  -0.508971  -0.149012  -0.010559
     2  C    0.175794   5.861362  -0.052224   0.109721  -0.358231  -0.004179
     3  C    0.018249  -0.052224   6.743137   0.029714   0.006589  -0.001865
     4  C   -0.508971   0.109721   0.029714   7.558757  -0.988967  -0.031024
     5  C   -0.149012  -0.358231   0.006589  -0.988967   6.802777   0.022574
     6  O   -0.010559  -0.004179  -0.001865  -0.031024   0.022574   8.390074
     7  C    0.013464  -0.017033  -0.341978   0.019088  -0.021583  -0.018771
     8  O   -0.026376   0.122875   0.001159  -0.041959  -0.042793  -0.000028
     9  C   -0.001674   0.001931  -0.107792   0.000575  -0.005788  -0.032464
    10  C   -0.059410   0.026942  -0.805014  -0.597067   0.080411   0.200415
    11  C   -0.002324   0.007979   0.070058  -0.081617   0.013601  -0.027679
    12  C   -0.053463  -0.298202   0.017337   0.105036   0.139293  -0.001974
    13  O   -0.212403   0.013411  -0.189915   0.193546  -0.101809   0.068638
    14  H    0.466238   0.024438  -0.000976   0.030432  -0.063591  -0.000477
    15  H    0.450788   0.002127   0.007058  -0.061488   0.011856   0.001443
    16  H    0.000654   0.408642   0.000296  -0.011856   0.003626   0.000361
    17  H   -0.022423   0.443643   0.002451   0.052107  -0.084214  -0.000296
    18  H   -0.006373   0.001094   0.488176  -0.005389  -0.003351  -0.012164
    19  H   -0.004591  -0.002041   0.442633   0.048935  -0.010366   0.007626
    20  H    0.004548  -0.005111  -0.011354   0.373293   0.021145   0.001898
    21  H   -0.006287  -0.016107  -0.007733  -0.070713   0.461586  -0.003057
    22  H   -0.048130  -0.090619   0.003251   0.043643   0.441400   0.000713
    23  H    0.001182  -0.000443  -0.011137  -0.002876   0.000545  -0.001377
    24  H   -0.001379  -0.000610  -0.068066  -0.003224   0.000425  -0.000190
    25  H   -0.000639  -0.000350  -0.017719  -0.001055  -0.000420  -0.002255
    26  H    0.000187   0.000205   0.004436   0.000615  -0.000610   0.005291
    27  H    0.007402   0.027334  -0.038677   0.087244  -0.055635  -0.050501
    28  H    0.001228  -0.001536   0.033231  -0.002028   0.000801  -0.025938
    29  H   -0.000083   0.000672   0.002368  -0.003769   0.001074  -0.077453
    30  H   -0.082271  -0.003604   0.000838   0.050938  -0.026622   0.000013
    31  H   -0.024068   0.005433   0.001046   0.005453   0.000459  -0.000096
               7          8          9         10         11         12
     1  C    0.013464  -0.026376  -0.001674  -0.059410  -0.002324  -0.053463
     2  C   -0.017033   0.122875   0.001931   0.026942   0.007979  -0.298202
     3  C   -0.341978   0.001159  -0.107792  -0.805014   0.070058   0.017337
     4  C    0.019088  -0.041959   0.000575  -0.597067  -0.081617   0.105036
     5  C   -0.021583  -0.042793  -0.005788   0.080411   0.013601   0.139293
     6  O   -0.018771  -0.000028  -0.032464   0.200415  -0.027679  -0.001974
     7  C    5.938737  -0.000035  -0.033957   0.133206  -0.132154   0.011430
     8  O   -0.000035   8.444636  -0.000003   0.008282   0.000169   0.114115
     9  C   -0.033957  -0.000003   5.587683   0.158626   0.067511  -0.001713
    10  C    0.133206   0.008282   0.158626   6.625221  -0.071541  -0.110456
    11  C   -0.132154   0.000169   0.067511  -0.071541   5.462739  -0.003327
    12  C    0.011430   0.114115  -0.001713  -0.110456  -0.003327   5.583333
    13  O    0.034517  -0.001232   0.006506   0.203965  -0.015496   0.025670
    14  H   -0.000552  -0.003673   0.000145   0.011170   0.000379  -0.094623
    15  H   -0.004681   0.007768   0.000021  -0.002770   0.000428  -0.023666
    16  H   -0.000732  -0.072915   0.000212   0.000618  -0.000194   0.004768
    17  H    0.000960  -0.040970  -0.000550   0.007157   0.000704  -0.005659
    18  H    0.002108   0.000000  -0.018390  -0.101303   0.010565  -0.001250
    19  H   -0.015479   0.000178  -0.012836  -0.069368   0.000501   0.003128
    20  H   -0.005382  -0.004830   0.008355   0.013545  -0.006013  -0.006777
    21  H    0.007585   0.010651  -0.002282   0.023532  -0.001230   0.009569
    22  H    0.001451  -0.003334  -0.000900  -0.004512   0.001723   0.019748
    23  H    0.400649  -0.000004  -0.021807   0.002350   0.007671   0.000073
    24  H    0.546405   0.000010  -0.079625  -0.007363  -0.001172   0.000352
    25  H    0.008227  -0.000001   0.469808  -0.017474  -0.060868   0.000214
    26  H   -0.057873   0.000001   0.449257   0.007507  -0.039446  -0.000010
    27  H   -0.070127  -0.000110   0.023980   0.401500   0.005886  -0.014907
    28  H    0.012879  -0.000021  -0.078657  -0.060424   0.497908   0.000436
    29  H    0.003230   0.000012  -0.036721   0.018832   0.426258  -0.000223
    30  H   -0.001000  -0.043344  -0.000003   0.012480   0.000356   0.443763
    31  H    0.000778  -0.069592  -0.000072  -0.006195  -0.000092   0.427540
              13         14         15         16         17         18
     1  C   -0.212403   0.466238   0.450788   0.000654  -0.022423  -0.006373
     2  C    0.013411   0.024438   0.002127   0.408642   0.443643   0.001094
     3  C   -0.189915  -0.000976   0.007058   0.000296   0.002451   0.488176
     4  C    0.193546   0.030432  -0.061488  -0.011856   0.052107  -0.005389
     5  C   -0.101809  -0.063591   0.011856   0.003626  -0.084214  -0.003351
     6  O    0.068638  -0.000477   0.001443   0.000361  -0.000296  -0.012164
     7  C    0.034517  -0.000552  -0.004681  -0.000732   0.000960   0.002108
     8  O   -0.001232  -0.003673   0.007768  -0.072915  -0.040970   0.000000
     9  C    0.006506   0.000145   0.000021   0.000212  -0.000550  -0.018390
    10  C    0.203965   0.011170  -0.002770   0.000618   0.007157  -0.101303
    11  C   -0.015496   0.000379   0.000428  -0.000194   0.000704   0.010565
    12  C    0.025670  -0.094623  -0.023666   0.004768  -0.005659  -0.001250
    13  O    8.410333  -0.007739   0.004972  -0.000421  -0.002562   0.004837
    14  H   -0.007739   0.460058  -0.019692  -0.002058   0.002779   0.001242
    15  H    0.004972  -0.019692   0.481087   0.002067  -0.002546  -0.002880
    16  H   -0.000421  -0.002058   0.002067   0.485005  -0.019870  -0.000030
    17  H   -0.002562   0.002779  -0.002546  -0.019870   0.499364   0.000020
    18  H    0.004837   0.001242  -0.002880  -0.000030   0.000020   0.446309
    19  H   -0.007651   0.000609  -0.000822  -0.000401   0.002475  -0.013716
    20  H    0.001121  -0.003936  -0.006482   0.002395  -0.021197   0.002617
    21  H   -0.003518  -0.004488   0.000512  -0.013958   0.000778   0.000040
    22  H   -0.004281   0.005588  -0.004083  -0.005805   0.006506   0.000118
    23  H   -0.001654  -0.000031   0.000117   0.000010  -0.000025  -0.002416
    24  H   -0.000091   0.000041  -0.000151  -0.000098   0.000200   0.003500
    25  H    0.001432  -0.000018  -0.000017  -0.000005   0.000012  -0.001132
    26  H   -0.000090   0.000010  -0.000024  -0.000008   0.000012  -0.001359
    27  H   -0.036539   0.002047   0.001689   0.001658  -0.000480  -0.006177
    28  H    0.003707  -0.000032   0.000037  -0.000028   0.000046  -0.000180
    29  H   -0.002691   0.000045   0.000004   0.000010   0.000010  -0.000367
    30  H   -0.000898   0.005177  -0.000229  -0.004333   0.014997   0.000163
    31  H   -0.002850  -0.006721  -0.009680   0.001209  -0.004173  -0.000202
              19         20         21         22         23         24
     1  C   -0.004591   0.004548  -0.006287  -0.048130   0.001182  -0.001379
     2  C   -0.002041  -0.005111  -0.016107  -0.090619  -0.000443  -0.000610
     3  C    0.442633  -0.011354  -0.007733   0.003251  -0.011137  -0.068066
     4  C    0.048935   0.373293  -0.070713   0.043643  -0.002876  -0.003224
     5  C   -0.010366   0.021145   0.461586   0.441400   0.000545   0.000425
     6  O    0.007626   0.001898  -0.003057   0.000713  -0.001377  -0.000190
     7  C   -0.015479  -0.005382   0.007585   0.001451   0.400649   0.546405
     8  O    0.000178  -0.004830   0.010651  -0.003334  -0.000004   0.000010
     9  C   -0.012836   0.008355  -0.002282  -0.000900  -0.021807  -0.079625
    10  C   -0.069368   0.013545   0.023532  -0.004512   0.002350  -0.007363
    11  C    0.000501  -0.006013  -0.001230   0.001723   0.007671  -0.001172
    12  C    0.003128  -0.006777   0.009569   0.019748   0.000073   0.000352
    13  O   -0.007651   0.001121  -0.003518  -0.004281  -0.001654  -0.000091
    14  H    0.000609  -0.003936  -0.004488   0.005588  -0.000031   0.000041
    15  H   -0.000822  -0.006482   0.000512  -0.004083   0.000117  -0.000151
    16  H   -0.000401   0.002395  -0.013958  -0.005805   0.000010  -0.000098
    17  H    0.002475  -0.021197   0.000778   0.006506  -0.000025   0.000200
    18  H   -0.013716   0.002617   0.000040   0.000118  -0.002416   0.003500
    19  H    0.491208  -0.014170   0.000319   0.001211  -0.012847  -0.003246
    20  H   -0.014170   0.437601  -0.004566  -0.007550   0.001062  -0.001646
    21  H    0.000319  -0.004566   0.491466  -0.017603   0.000086   0.000941
    22  H    0.001211  -0.007550  -0.017603   0.453237  -0.000056   0.000216
    23  H   -0.012847   0.001062   0.000086  -0.000056   0.480938  -0.005215
    24  H   -0.003246  -0.001646   0.000941   0.000216  -0.005215   0.454591
    25  H    0.000174  -0.000312   0.000058   0.000138  -0.002211   0.002280
    26  H    0.001444  -0.000235  -0.000057  -0.000031  -0.008456  -0.004553
    27  H    0.010730  -0.021300  -0.011250   0.001608  -0.004140  -0.011592
    28  H    0.000246   0.000600   0.000123  -0.000031   0.000387  -0.001019
    29  H    0.001030  -0.000198  -0.000041  -0.000094   0.000632  -0.001959
    30  H    0.001058  -0.019851  -0.002816   0.002723  -0.000070   0.000095
    31  H    0.000199   0.002159   0.001538  -0.001419   0.000025  -0.000023
              25         26         27         28         29         30
     1  C   -0.000639   0.000187   0.007402   0.001228  -0.000083  -0.082271
     2  C   -0.000350   0.000205   0.027334  -0.001536   0.000672  -0.003604
     3  C   -0.017719   0.004436  -0.038677   0.033231   0.002368   0.000838
     4  C   -0.001055   0.000615   0.087244  -0.002028  -0.003769   0.050938
     5  C   -0.000420  -0.000610  -0.055635   0.000801   0.001074  -0.026622
     6  O   -0.002255   0.005291  -0.050501  -0.025938  -0.077453   0.000013
     7  C    0.008227  -0.057873  -0.070127   0.012879   0.003230  -0.001000
     8  O   -0.000001   0.000001  -0.000110  -0.000021   0.000012  -0.043344
     9  C    0.469808   0.449257   0.023980  -0.078657  -0.036721  -0.000003
    10  C   -0.017474   0.007507   0.401500  -0.060424   0.018832   0.012480
    11  C   -0.060868  -0.039446   0.005886   0.497908   0.426258   0.000356
    12  C    0.000214  -0.000010  -0.014907   0.000436  -0.000223   0.443763
    13  O    0.001432  -0.000090  -0.036539   0.003707  -0.002691  -0.000898
    14  H   -0.000018   0.000010   0.002047  -0.000032   0.000045   0.005177
    15  H   -0.000017  -0.000024   0.001689   0.000037   0.000004  -0.000229
    16  H   -0.000005  -0.000008   0.001658  -0.000028   0.000010  -0.004333
    17  H    0.000012   0.000012  -0.000480   0.000046   0.000010   0.014997
    18  H   -0.001132  -0.001359  -0.006177  -0.000180  -0.000367   0.000163
    19  H    0.000174   0.001444   0.010730   0.000246   0.001030   0.001058
    20  H   -0.000312  -0.000235  -0.021300   0.000600  -0.000198  -0.019851
    21  H    0.000058  -0.000057  -0.011250   0.000123  -0.000041  -0.002816
    22  H    0.000138  -0.000031   0.001608  -0.000031  -0.000094   0.002723
    23  H   -0.002211  -0.008456  -0.004140   0.000387   0.000632  -0.000070
    24  H    0.002280  -0.004553  -0.011592  -0.001019  -0.001959   0.000095
    25  H    0.461679  -0.006083  -0.002412   0.001354  -0.000145   0.000004
    26  H   -0.006083   0.473667   0.002692   0.002383  -0.011007   0.000001
    27  H   -0.002412   0.002692   0.482993  -0.008804   0.001389   0.001466
    28  H    0.001354   0.002383  -0.008804   0.471725  -0.002818  -0.000073
    29  H   -0.000145  -0.011007   0.001389  -0.002818   0.465076   0.000025
    30  H    0.000004   0.000001   0.001466  -0.000073   0.000025   0.503109
    31  H   -0.000006   0.000002  -0.000380   0.000034  -0.000012  -0.020227
              31
     1  C   -0.024068
     2  C    0.005433
     3  C    0.001046
     4  C    0.005453
     5  C    0.000459
     6  O   -0.000096
     7  C    0.000778
     8  O   -0.069592
     9  C   -0.000072
    10  C   -0.006195
    11  C   -0.000092
    12  C    0.427540
    13  O   -0.002850
    14  H   -0.006721
    15  H   -0.009680
    16  H    0.001209
    17  H   -0.004173
    18  H   -0.000202
    19  H    0.000199
    20  H    0.002159
    21  H    0.001538
    22  H   -0.001419
    23  H    0.000025
    24  H   -0.000023
    25  H   -0.000006
    26  H    0.000002
    27  H   -0.000380
    28  H    0.000034
    29  H   -0.000012
    30  H   -0.020227
    31  H    0.477926
 Mulliken charges:
               1
     1  C   -0.180022
     2  C   -0.383312
     3  C   -0.217577
     4  C   -0.297094
     5  C   -0.095169
     6  O   -0.396698
     7  C   -0.413377
     8  O   -0.358637
     9  C   -0.339376
    10  C   -0.022865
    11  C   -0.131282
    12  C   -0.289552
    13  O   -0.380813
    14  H    0.198209
    15  H    0.167235
    16  H    0.221181
    17  H    0.170746
    18  H    0.215892
    19  H    0.153830
    20  H    0.270573
    21  H    0.156923
    22  H    0.205174
    23  H    0.179041
    24  H    0.182168
    25  H    0.167741
    26  H    0.182133
    27  H    0.273413
    28  H    0.154461
    29  H    0.216916
    30  H    0.168132
    31  H    0.222007
 Sum of Mulliken charges =  -0.00000
 Mulliken charges with hydrogens summed into heavy atoms:
               1
     1  C    0.185422
     2  C    0.008615
     3  C    0.152145
     4  C   -0.026521
     5  C    0.266928
     6  O   -0.396698
     7  C   -0.052168
     8  O   -0.358637
     9  C    0.010498
    10  C    0.250548
    11  C    0.240096
    12  C    0.100587
    13  O   -0.380813
 Electronic spatial extent (au):  <R**2>=           3451.5934
 Charge=             -0.0000 electrons
 Dipole moment (field-independent basis, Debye):
    X=             -2.5339    Y=              1.4036    Z=              4.7407  Tot=              5.5556
 Quadrupole moment (field-independent basis, Debye-Ang):
   XX=            -81.7251   YY=            -75.5981   ZZ=            -82.0075
   XY=              3.6951   XZ=             -1.7844   YZ=             -2.9449
 Traceless Quadrupole moment (field-independent basis, Debye-Ang):
   XX=             -1.9482   YY=              4.1788   ZZ=             -2.2306
   XY=              3.6951   XZ=             -1.7844   YZ=             -2.9449
 Octapole moment (field-independent basis, Debye-Ang**2):
  XXX=           -105.6748  YYY=             -2.9932  ZZZ=              3.3251  XYY=              9.2369
  XXY=              8.5042  XXZ=              7.8075  XZZ=              9.3184  YZZ=             -0.1156
  YYZ=              2.0661  XYZ=             -3.6417
 Hexadecapole moment (field-independent basis, Debye-Ang**3):
 XXXX=          -3947.3955 YYYY=           -523.5130 ZZZZ=           -311.6925 XXXY=            107.8366
 XXXZ=              8.3120 YYYX=              0.3632 YYYZ=             -4.0897 ZZZX=              4.8752
 ZZZY=             -1.1232 XXYY=           -647.6543 XXZZ=           -658.9425 YYZZ=           -137.5030
 XXYZ=            -20.4182 YYXZ=              5.4406 ZZXY=              1.8475
 N-N= 8.745690278373D+02 E-N=-3.191028783986D+03  KE= 6.153570542169D+02
 D1PCM: PCM CHGder 1st derivatives, ID1Alg=3 FixD1E=F DoIter=F DoCFld=F I1PDM=0.
 Calling FoFJK, ICntrl=      2127 FMM=F ISym2X=0 I1Cent= 0 IOpClX= 0 NMat=1 NMatS=1 NMatT=0.
 ***** Axes restored to original set *****
 -------------------------------------------------------------------
 Center     Atomic                   Forces (Hartrees/Bohr)
 Number     Number              X              Y              Z
 -------------------------------------------------------------------
      1        6           0.000002947    0.000457075   -0.003643760
      2        6          -0.006049384   -0.001262503    0.002005417
      3        6          -0.001951580    0.002595644   -0.002093940
      4        6           0.004862566    0.003222119    0.000358131
      5        6           0.000858231   -0.002818549   -0.001990372
      6        8           0.002678213    0.004752931    0.011980248
      7        6           0.000998599    0.001807493    0.003374128
      8        8           0.009803172    0.004090795    0.004875232
      9        6           0.002689934    0.000654332   -0.002018774
     10        6          -0.004302138   -0.007497679   -0.005939660
     11        6          -0.001935634   -0.006143985   -0.002915656
     12        6          -0.006491316    0.000990841    0.001032025
     13        8           0.001476213   -0.001941939    0.012964432
     14        1           0.000361185    0.002417462    0.003065026
     15        1          -0.001552280   -0.002959715    0.000031718
     16        1           0.001874681    0.004133980   -0.000354586
     17        1          -0.001451590   -0.002501491   -0.004854090
     18        1          -0.000308718   -0.000839469    0.003756566
     19        1           0.002740723   -0.001321446   -0.002251452
     20        1          -0.000421415   -0.003017876   -0.005830124
     21        1          -0.002636523    0.001416249   -0.002226315
     22        1           0.000631628    0.000867928    0.003669329
     23        1          -0.001236296   -0.002377580   -0.000307523
     24        1           0.000791201    0.002040597   -0.002564704
     25        1          -0.000073154   -0.001488741    0.003012699
     26        1          -0.002253976    0.000795252   -0.001436580
     27        1           0.001338581    0.004017928   -0.007678890
     28        1           0.000553473    0.002382953   -0.005098357
     29        1          -0.002391218    0.002398781    0.003118111
     30        1          -0.001449188   -0.002662608   -0.004790223
     31        1           0.002843066   -0.002208779    0.002751944
 -------------------------------------------------------------------
 Cartesian Forces:  Max     0.012964432 RMS     0.003642078

 GradGradGradGradGradGradGradGradGradGradGradGradGradGradGradGradGradGrad
 Berny optimization.
 FormGI is forming the generalized inverse of G from B-inverse, IUseBI=4.
 Internal  Forces:  Max     0.011816764 RMS     0.002149293
 Search for a local minimum.
 Step number   1 out of a maximum of  186
 All quantities printed in internal units (Hartrees-Bohrs-Radians)
 Mixed Optimization -- RFO/linear search
 Second derivative matrix not updated -- first step.
 ITU=  0
     Eigenvalues ---    0.00618   0.00698   0.00732   0.00744   0.01426
     Eigenvalues ---    0.01432   0.01480   0.02720   0.02720   0.03113
     Eigenvalues ---    0.03385   0.04163   0.04250   0.04760   0.04765
     Eigenvalues ---    0.04803   0.04915   0.05041   0.05139   0.05196
     Eigenvalues ---    0.05262   0.05656   0.05745   0.05946   0.06142
     Eigenvalues ---    0.06219   0.06355   0.06739   0.07648   0.07908
     Eigenvalues ---    0.07918   0.07950   0.07956   0.07968   0.08462
     Eigenvalues ---    0.08782   0.08969   0.09410   0.10896   0.11454
     Eigenvalues ---    0.11705   0.11733   0.11753   0.12317   0.13142
     Eigenvalues ---    0.14235   0.14397   0.16334   0.16420   0.17731
     Eigenvalues ---    0.19136   0.21355   0.21749   0.25000   0.28498
     Eigenvalues ---    0.28640   0.28713   0.28913   0.29072   0.29454
     Eigenvalues ---    0.30084   0.30360   0.35016   0.35065   0.35078
     Eigenvalues ---    0.35109   0.35129   0.35157   0.35203   0.35205
     Eigenvalues ---    0.35247   0.35273   0.35316   0.35317   0.35338
     Eigenvalues ---    0.35352   0.35364   0.35875   0.35877   0.35899
     Eigenvalues ---    0.41001   0.41650   0.41999   0.42443   0.43341
     Eigenvalues ---    0.461641000.000001000.000001000.000001000.00000
     Eigenvalues --- 1000.000001000.000001000.000001000.000001000.00000
     Eigenvalues --- 1000.000001000.000001000.000001000.000001000.00000
     Eigenvalues --- 1000.000001000.000001000.000001000.000001000.00000
     Eigenvalues --- 1000.000001000.000001000.000001000.000001000.00000
     Eigenvalues --- 1000.000001000.000001000.000001000.000001000.00000
     Eigenvalues --- 1000.000001000.000001000.000001000.000001000.00000
     Eigenvalues --- 1000.000001000.000001000.000001000.000001000.00000
     Eigenvalues --- 1000.000001000.000001000.000001000.000001000.00000
     Eigenvalues --- 1000.000001000.000001000.000001000.000001000.00000
     Eigenvalues --- 1000.000001000.000001000.000001000.000001000.00000
     Eigenvalues --- 1000.000001000.000001000.000001000.000001000.00000
     Eigenvalues --- 1000.000001000.000001000.000001000.000001000.00000
     Eigenvalues --- 1000.000001000.000001000.000001000.000001000.00000
     Eigenvalues --- 1000.000001000.000001000.000001000.000001000.00000
     Eigenvalues --- 1000.000001000.000001000.000001000.000001000.00000
     Eigenvalues --- 1000.000001000.000001000.000001000.000001000.00000
     Eigenvalues --- 1000.000001000.000001000.000001000.000001000.00000
     Eigenvalues --- 1000.000001000.000001000.000001000.000001000.00000
     Eigenvalues --- 1000.000001000.000001000.000001000.000001000.00000
 RFO step:  Lambda=-2.99167653D-03 EMin= 6.17579312D-03
 Linear search not attempted -- first point.
 Iteration  1 RMS(Cart)=  0.04986863 RMS(Int)=  0.00068621
 Iteration  2 RMS(Cart)=  0.00175479 RMS(Int)=  0.00002114
 Iteration  3 RMS(Cart)=  0.00000068 RMS(Int)=  0.00002114
 Iteration  1 RMS(Cart)=  0.00000091 RMS(Int)=  0.00000020
 Variable       Old X    -DE/DX   Delta X   Delta X   Delta X     New X
                                 (Linear)    (Quad)   (Total)
    R1        2.87468  -0.00203   0.00000  -0.00743  -0.00745   2.86722
    R2        2.87795  -0.00054   0.00000  -0.00157  -0.00157   2.87638
    R3        2.05343   0.00378   0.00000   0.01066   0.01066   2.06409
    R4        2.05165   0.00330   0.00000   0.00927   0.00927   2.06092
    R5        2.87798  -0.00054   0.00000  -0.00188  -0.00188   2.87610
    R6        2.67232   0.00592   0.00000   0.01415   0.01417   2.68649
    R7        2.04277   0.00455   0.00000   0.01257   0.01257   2.05534
    R8        2.05570   0.00555   0.00000   0.01568   0.01568   2.07138
    R9        2.89267  -0.00103   0.00000  -0.00421  -0.00425   2.88842
   R10        2.87226  -0.00149   0.00000  -0.00468  -0.00468   2.86758
   R11        2.05421   0.00364   0.00000   0.01026   0.01026   2.06447
   R12        2.05107   0.00371   0.00000   0.01040   0.01040   2.06146
   R13        2.88285  -0.00165   0.00000  -0.00618  -0.00620   2.87666
   R14        2.68363   0.00406   0.00000   0.00951   0.00951   2.69313
   R15        2.05130   0.00652   0.00000   0.01830   0.01830   2.06960
   R16        2.05163   0.00365   0.00000   0.01026   0.01026   2.06188
   R17        2.05347   0.00366   0.00000   0.01031   0.01031   2.06378
   R18        2.65221   0.00710   0.00000   0.01630   0.01634   2.66855
   R19        2.68366   0.00552   0.00000   0.01344   0.01347   2.69713
   R20        2.88934  -0.00093   0.00000  -0.00412  -0.00416   2.88518
   R21        2.05088   0.00270   0.00000   0.00756   0.00756   2.05844
   R22        2.05649   0.00327   0.00000   0.00926   0.00926   2.06575
   R23        2.67208   0.00614   0.00000   0.01453   0.01455   2.68663
   R24        2.87272  -0.00055   0.00000  -0.00187  -0.00187   2.87084
   R25        2.05466   0.00326   0.00000   0.00921   0.00921   2.06387
   R26        2.05276   0.00278   0.00000   0.00783   0.00783   2.06058
   R27        2.63947   0.00619   0.00000   0.01332   0.01332   2.65279
   R28        2.05234   0.00873   0.00000   0.02454   0.02454   2.07688
   R29        2.05499   0.00557   0.00000   0.01573   0.01573   2.07072
   R30        2.04240   0.00460   0.00000   0.01270   0.01270   2.05509
   R31        2.05549   0.00556   0.00000   0.01571   0.01571   2.07120
   R32        2.04275   0.00452   0.00000   0.01250   0.01250   2.05526
    A1        1.92432  -0.00044   0.00000  -0.00722  -0.00728   1.91704
    A2        1.90647   0.00022   0.00000  -0.00302  -0.00300   1.90347
    A3        1.92642  -0.00058   0.00000  -0.00212  -0.00210   1.92432
    A4        1.91082   0.00002   0.00000   0.00157   0.00154   1.91235
    A5        1.91085   0.00053   0.00000   0.00430   0.00430   1.91515
    A6        1.88446   0.00026   0.00000   0.00681   0.00679   1.89125
    A7        1.94087   0.00096   0.00000   0.00319   0.00319   1.94406
    A8        1.93634  -0.00022   0.00000  -0.00223  -0.00223   1.93411
    A9        1.93108  -0.00125   0.00000  -0.00773  -0.00774   1.92334
   A10        1.86056  -0.00066   0.00000  -0.00066  -0.00066   1.85990
   A11        1.90388   0.00066   0.00000   0.00465   0.00466   1.90854
   A12        1.88895   0.00054   0.00000   0.00320   0.00319   1.89214
   A13        1.92552  -0.00043   0.00000  -0.00583  -0.00588   1.91964
   A14        1.92415   0.00094   0.00000   0.00495   0.00492   1.92907
   A15        1.93608  -0.00004   0.00000   0.00469   0.00467   1.94075
   A16        1.88462  -0.00064   0.00000  -0.00678  -0.00677   1.87785
   A17        1.90974  -0.00012   0.00000  -0.00446  -0.00442   1.90532
   A18        1.88250   0.00028   0.00000   0.00736   0.00730   1.88980
   A19        1.91611   0.00224   0.00000   0.00208   0.00204   1.91816
   A20        1.88787  -0.00052   0.00000   0.00111   0.00113   1.88900
   A21        1.90187  -0.00066   0.00000  -0.00067  -0.00067   1.90120
   A22        1.94331  -0.00098   0.00000  -0.00385  -0.00382   1.93948
   A23        1.91068  -0.00084   0.00000  -0.00351  -0.00351   1.90717
   A24        1.90343   0.00076   0.00000   0.00497   0.00495   1.90838
   A25        1.92158  -0.00024   0.00000  -0.00558  -0.00565   1.91592
   A26        1.90745   0.00046   0.00000   0.00507   0.00507   1.91252
   A27        1.90989   0.00010   0.00000   0.00138   0.00137   1.91126
   A28        1.93832  -0.00076   0.00000  -0.00445  -0.00443   1.93389
   A29        1.90237   0.00012   0.00000  -0.00343  -0.00341   1.89896
   A30        1.88368   0.00034   0.00000   0.00731   0.00728   1.89096
   A31        1.98314  -0.00515   0.00000  -0.02840  -0.02830   1.95483
   A32        1.91984   0.00174   0.00000  -0.00380  -0.00390   1.91594
   A33        1.92201  -0.00043   0.00000   0.00088   0.00091   1.92292
   A34        1.91141  -0.00076   0.00000  -0.00166  -0.00164   1.90976
   A35        1.93225  -0.00039   0.00000   0.00113   0.00117   1.93342
   A36        1.91044  -0.00075   0.00000  -0.00138  -0.00137   1.90907
   A37        1.86712   0.00053   0.00000   0.00502   0.00501   1.87213
   A38        1.97155  -0.00456   0.00000  -0.02483  -0.02479   1.94677
   A39        1.92243  -0.00002   0.00000  -0.00376  -0.00383   1.91859
   A40        1.91801   0.00062   0.00000   0.00196   0.00198   1.91999
   A41        1.93781  -0.00064   0.00000  -0.00126  -0.00125   1.93656
   A42        1.90448  -0.00036   0.00000  -0.00149  -0.00147   1.90301
   A43        1.90379   0.00015   0.00000  -0.00038  -0.00036   1.90343
   A44        1.87646   0.00025   0.00000   0.00511   0.00510   1.88156
   A45        1.92753   0.00177   0.00000   0.01005   0.01007   1.93760
   A46        1.95595  -0.00047   0.00000  -0.00420  -0.00422   1.95172
   A47        1.93199  -0.00096   0.00000  -0.00716  -0.00718   1.92481
   A48        1.82829  -0.00123   0.00000  -0.00339  -0.00337   1.82491
   A49        1.89762   0.00034   0.00000   0.00396   0.00397   1.90159
   A50        1.91915   0.00059   0.00000   0.00136   0.00133   1.92048
   A51        1.93997   0.00124   0.00000   0.00604   0.00608   1.94605
   A52        1.90048   0.00069   0.00000   0.00365   0.00366   1.90414
   A53        1.84872  -0.00092   0.00000  -0.00131  -0.00131   1.84741
   A54        1.93081  -0.00138   0.00000  -0.00827  -0.00829   1.92251
   A55        1.95034  -0.00015   0.00000  -0.00237  -0.00238   1.94795
   A56        1.89077   0.00057   0.00000   0.00270   0.00269   1.89346
   A57        1.94328   0.00121   0.00000   0.00574   0.00573   1.94901
   A58        1.92967  -0.00129   0.00000  -0.00857  -0.00857   1.92110
   A59        1.93527  -0.00040   0.00000  -0.00335  -0.00335   1.93192
   A60        1.90348   0.00064   0.00000   0.00419   0.00422   1.90769
   A61        1.86084  -0.00072   0.00000  -0.00062  -0.00061   1.86023
   A62        1.88915   0.00060   0.00000   0.00299   0.00296   1.89211
   A63        2.03669  -0.01182   0.00000  -0.04671  -0.04671   1.98998
    D1       -0.91982   0.00004   0.00000  -0.00859  -0.00857  -0.92839
    D2       -3.04347   0.00021   0.00000  -0.00585  -0.00584  -3.04931
    D3        1.17260  -0.00004   0.00000  -0.01204  -0.01204   1.16057
    D4        1.18065  -0.00007   0.00000  -0.01305  -0.01303   1.16762
    D5       -0.94300   0.00010   0.00000  -0.01030  -0.01029  -0.95330
    D6       -3.01012  -0.00015   0.00000  -0.01650  -0.01649  -3.02661
    D7       -3.03316   0.00004   0.00000  -0.00784  -0.00783  -3.04099
[...]
 63,-0.00032952,-0.00022666,0.00004647,-0.00379606,-0.00605625,0.007843
 16,-0.00000091,-0.00000510,0.00000736,0.00025823,0.00006870,0.00005532
 ,0.00000063,-0.00000037,0.00000199,-0.00000103,-0.00000230,0.00000039,
 0.00000354,0.00000030,-0.00000159,0.00000026,-0.00000020,-0.00000030,0
 .00036357,-0.00001403,0.00050505,-0.00006707,-0.00027232,0.00021203,-0
 .00000354,-0.00000184,-0.00000565,-0.00000004,-0.00000294,0.00000201,0
 .00000102,0.00000103,0.00000187,-0.00057254,0.00004292,0.00067169,0.00
 272114,-0.00283793,-0.00131183,-0.06326472,-0.11795523,0.24166117,-0.0
 0004294,-0.00001460,0.00004926,0.00001693,-0.00002529,-0.00000913,-0.0
 0075026,0.00201421,0.00331217,0.00022556,0.00003665,-0.00013646,-0.000
 03831,0.00000909,0.00001645,-0.00303780,-0.00297641,-0.00135538,-0.014
 36340,0.00402138,-0.00817152,-0.00001547,-0.00000171,0.00000323,-0.231
 67073,0.06111767,-0.10637127,0.00178726,-0.00011111,-0.00036094,-0.012
 85346,0.00725278,-0.00676935,0.00000436,0.00001770,-0.00003053,-0.0005
 9441,0.00005407,-0.00008899,-0.00000241,0.00000233,-0.00000675,0.00000
 410,0.00000369,-0.00000097,-0.00001173,-0.00000103,0.00000472,-0.00000
 134,0.00000234,0.00000266,0.00006832,0.00003939,-0.00014757,-0.0009632
 7,0.00010159,-0.00064944,-0.00000394,-0.00000631,-0.00000091,0.0000028
 3,0.00000415,-0.00000533,-0.00000505,-0.00000748,-0.00000128,0.0006816
 9,0.00000707,0.00002790,0.00057407,-0.00056307,-0.00013215,0.00837040,
 -0.00207759,0.00385010,0.25180201,-0.00003185,-0.00000054,0.00003242,0
 .00000142,-0.00000560,-0.00000233,0.00189073,-0.00164444,-0.00370838,0
 .00000727,0.00008556,-0.00006612,0.00000068,0.00000547,0.00000843,-0.0
 0712991,-0.00380088,-0.00274219,0.01548150,-0.00535637,0.01051928,-0.0
 0000101,-0.00000056,0.00000112,0.06286651,-0.06997927,0.03790591,0.000
 95801,-0.00181747,-0.00139013,-0.02000349,0.01060727,-0.01166452,-0.00
 000568,0.00000871,-0.00001453,-0.00028287,0.00039809,0.00031355,0.0000
 0218,-0.00000212,0.00000014,-0.00000057,-0.00000105,-0.00000071,-0.000
 00189,0.00000005,0.00000083,-0.00000025,0.00000049,0.00000059,-0.00033
 956,0.00004722,-0.00019138,0.00141453,0.00009487,0.00046291,-0.0000348
 8,0.00000245,0.00002796,0.00000290,-0.00000037,-0.00000131,0.00000168,
 0.00000232,-0.00000166,-0.00068032,0.00032534,0.00062333,-0.00064741,0
 .00079687,-0.00007130,0.01374251,-0.00471803,0.00712440,-0.06882199,0.
 07309593,-0.00001391,0.00000086,0.00001103,-0.00000160,-0.00000111,-0.
 00000063,0.00216931,-0.00239572,-0.00236641,-0.00000365,0.00003587,-0.
 00003864,0.00000361,0.00000543,0.00000199,-0.00281087,-0.00211435,0.00
 039248,0.01873629,-0.00525993,0.01033367,0.00000159,0.00000022,0.00000
 039,-0.10858701,0.03718056,-0.10919902,0.00033442,-0.00096968,-0.00082
 786,-0.00531922,0.00469114,-0.00539986,-0.00000320,0.00000291,-0.00000
 488,-0.00007332,0.00018575,0.00018686,0.00000166,-0.00000213,0.0000013
 7,-0.00000092,-0.00000088,-0.00000065,-0.00000007,-0.00000017,0.000000
 26,-0.00000001,0.00000011,0.00000034,0.00004916,-0.00008256,0.00019339
 ,0.00108613,-0.00028840,0.00047466,-0.00001490,0.00000170,0.00001781,0
 .00000286,0.00000054,-0.00000045,0.00000102,0.00000283,-0.00000164,-0.
 00086129,0.00055184,0.00061073,-0.00057558,0.00070070,0.00099907,-0.02
 098953,0.00586572,-0.01177705,0.11643084,-0.03815425,0.11586076,-0.000
 24688,-0.00013356,0.00028367,0.00004655,0.00011116,0.00008739,0.000114
 03,-0.00939989,0.01009940,0.00204099,0.00139050,-0.00295888,-0.0004508
 6,-0.00034364,-0.00038747,-0.01292207,-0.00210197,0.02511952,0.0007700
 0,0.00011873,0.00085562,-0.00000929,-0.00012644,0.00004384,-0.00029108
 ,0.00010873,-0.00037709,-0.06478264,-0.03627787,0.04367484,0.00264386,
 -0.00141022,0.00340813,0.00005243,0.00010691,-0.00007478,-0.00615520,0
 .01918079,-0.03181602,-0.00002344,0.00007825,0.00009540,0.00003944,-0.
 00004331,0.00000955,0.00001918,0.00000505,-0.00002426,0.00000209,-0.00
 000821,-0.00000127,-0.00051167,-0.00232968,-0.00078105,0.00034174,-0.0
 0013718,-0.00051119,-0.00031510,0.00020631,0.00004736,-0.00228110,-0.0
 0127250,-0.00007801,0.00007043,0.00003339,-0.00000653,0.00010877,0.000
 06564,-0.00006972,-0.00009026,0.00002602,-0.00018141,0.00002831,0.0000
 5063,-0.00000852,-0.00009311,-0.00007490,-0.00004709,0.08170115,0.0000
 9235,-0.00004194,-0.00026240,0.00011882,0.00019429,-0.00010351,-0.0083
 0261,-0.01639332,0.02261827,-0.00079213,0.00081332,0.00166748,0.000127
 93,-0.00016296,-0.00011522,0.01203317,0.01008335,-0.02070613,0.0008836
 4,0.00025195,0.00060274,-0.00011816,0.00004863,-0.00000848,0.00021843,
 -0.00012883,0.00018838,-0.03489180,-0.13959071,0.11293874,-0.00196853,
 0.00158924,-0.00253740,0.00003517,-0.00008416,0.00007970,0.00532228,-0
 .00022166,0.00520490,-0.00002790,0.00002036,-0.00003315,-0.00001045,0.
 00001036,0.00000071,0.00003934,-0.00000182,-0.00002977,0.00000602,-0.0
 0000726,-0.00000774,-0.00263205,-0.00422871,-0.00128377,0.00072121,0.0
 0106609,-0.00012218,0.00020280,-0.00034012,-0.00012694,-0.00149186,-0.
 00017100,-0.00020668,-0.00005209,-0.00002675,-0.00005311,-0.00001289,0
 .00015294,-0.00044925,-0.00029656,0.00041230,-0.00050504,0.00003104,-0
 .00009863,0.00005931,-0.00002892,0.00015878,0.00012343,0.03172806,0.14
 701085,-0.00024185,0.00007071,0.00048218,-0.00015526,-0.00023354,0.000
 24246,-0.00288424,-0.00484512,0.00770022,0.00337886,-0.00108308,-0.001
 10151,-0.00036312,0.00037793,0.00015183,0.01788653,0.00198848,-0.02610
 660,0.00070503,-0.00002385,0.00069168,0.00019141,-0.00014215,0.0000199
 8,0.00026677,-0.00037090,0.00006425,0.03837176,0.10862924,-0.19327275,
 -0.00272305,0.00089657,-0.00000569,-0.00003793,0.00018022,-0.00014825,
 -0.00945285,0.01418506,-0.01950173,0.00011944,-0.00008260,0.00004372,0
 .00002920,-0.00004561,0.00002651,-0.00005699,0.00001358,0.00002185,0.0
 0000433,-0.00000709,-0.00001122,-0.00137370,-0.00212487,0.00016059,0.0
 0044416,0.00079792,0.00027298,-0.00007366,0.00008868,0.00072455,0.0000
 8241,-0.00037691,0.00040211,0.00010869,-0.00003497,0.00004539,0.000163
 12,0.00002890,0.00002285,0.00028916,0.00000951,-0.00006588,-0.00004670
 ,0.00011940,-0.00011676,0.00008694,0.00013164,0.00007678,-0.04540076,-
 0.11750207,0.22801853,-0.00002075,-0.00000682,0.00003665,0.00000873,-0
 .00003291,-0.00000514,-0.00032772,0.00017565,0.00040588,0.00020105,-0.
 00005120,-0.00005283,-0.00005412,0.00001925,0.00003456,-0.00739880,0.0
 2369881,-0.03188380,0.00012535,0.00106370,0.00007584,-0.00000838,0.000
 00096,0.00000130,-0.00388813,-0.01072484,0.01470250,0.00374815,-0.0005
 2213,-0.00549902,-0.06495471,-0.03466092,0.05496250,0.00000249,0.00001
 186,-0.00002047,-0.00076596,-0.00001200,0.00024764,0.00000050,-0.00000
 025,-0.00000422,0.00000162,0.00000338,-0.00000319,-0.00001170,0.000000
 24,0.00000428,-0.00000127,0.00000213,0.00000086,-0.00009569,-0.0000664
 0,0.00007031,0.00014665,0.00013041,0.00014142,-0.00003294,0.00000668,0
 .00003462,0.00000518,0.00000056,-0.00000264,0.00000083,-0.00000396,-0.
 00000249,-0.00006562,0.00011786,-0.00016128,0.00035534,0.00004738,-0.0
 0038882,-0.00082077,-0.00362014,-0.00154856,0.00052767,0.00061320,0.00
 005749,0.00028835,-0.00081960,0.00065967,0.07514416,0.00002067,0.00000
 554,-0.00002486,-0.00000056,0.00001010,0.00000151,0.00021513,-0.000188
 20,-0.00023578,-0.00004258,-0.00004613,0.00006147,0.00001509,-0.000013
 29,-0.00000063,0.00720980,-0.00394003,0.00984469,0.00016545,0.00131250
 ,0.00125787,0.00000003,0.00000484,-0.00000384,-0.00868459,-0.01606146,
 0.02151948,-0.00130413,0.00010333,0.00206473,-0.03307300,-0.13107937,0
 .10707030,-0.00000095,-0.00001068,0.00001538,0.00034182,0.00010833,-0.
 00032016,-0.00000057,0.00000032,0.00000269,-0.00000162,-0.00000106,0.0
 0000090,0.00000424,0.00000073,-0.00000177,0.00000049,-0.00000121,-0.00
 000152,-0.00003048,0.00004949,0.00001893,0.00004964,-0.00007557,-0.000
 02028,0.00000918,-0.00000541,-0.00001108,0.00000036,0.00000457,-0.0000
 0423,0.00000061,0.00000231,0.00000006,-0.00003117,0.00028393,-0.000250
 90,0.00028769,-0.00002054,-0.00042286,-0.00271920,-0.00375269,-0.00162
 662,0.00013214,0.00094631,-0.00023569,0.00031375,-0.00033188,-0.000273
 27,0.03408693,0.14132924,-0.00005175,-0.00001850,0.00004424,0.00001141
 ,-0.00002721,-0.00001246,-0.00023095,0.00001924,0.00019996,0.00013395,
 0.00010996,-0.00015057,-0.00003488,0.00002739,0.00002239,-0.01130629,0
 .01290466,-0.01658934,-0.00054444,0.00000244,0.00103788,-0.00001104,-0
 .00000439,0.00000485,-0.00130039,-0.00623356,0.00735461,0.00248032,-0.
 00237619,-0.00020517,0.05064791,0.10915312,-0.20703770,0.00000126,0.00
 002183,-0.00003351,-0.00052646,-0.00024757,0.00049861,-0.00000503,0.00
 000369,-0.00000709,0.00000207,0.00000387,-0.00000170,-0.00001223,-0.00
 000130,0.00000489,-0.00000094,0.00000223,0.00000261,0.00008888,0.00002
 724,-0.00013263,0.00001157,0.00014954,0.00003267,-0.00001933,0.0000003
 8,0.00001510,0.00000084,0.00000920,-0.00000501,-0.00000442,-0.00000608
 ,-0.00000450,-0.00002150,0.00010103,0.00010508,-0.00025629,0.00038699,
 0.00003868,-0.00081516,-0.00209636,0.00050727,0.00056470,0.00083767,0.
 00039399,-0.00087421,0.00063960,0.00072301,-0.04357333,-0.12487660,0.2
 2817658,-0.00020871,-0.00003747,0.00021207,0.00003240,-0.00005815,-0.0
 0002168,-0.00057796,0.00011078,0.00021428,0.00038796,0.00034057,-0.000
 66585,-0.00005700,0.00003573,0.00006525,-0.02874849,0.02167555,0.01871
 936,-0.00212541,-0.00317413,-0.00054126,-0.00002865,-0.00001128,0.0000
 0979,0.01188718,-0.00993146,-0.01237553,-0.00020718,-0.00127893,-0.005
 41325,-0.11333641,0.07011662,0.08836881,-0.00001194,0.00007079,-0.0001
 0938,-0.00253131,0.00104701,0.00072509,-0.00000039,-0.00000287,-0.0000
 1294,0.00001016,0.00000519,-0.00000092,-0.00002591,-0.00000156,0.00001
 085,-0.00000238,0.00000350,0.00000503,0.00007079,0.00001731,0.00002975
 ,0.00020648,0.00020370,0.00015867,-0.00003483,0.00000537,0.00005675,0.
 00000760,-0.00000026,-0.00000929,-0.00000564,-0.00001033,-0.00000851,0
 .00070822,-0.00090618,-0.00064635,-0.00009251,0.00010907,0.00000973,0.
 00049682,0.00074270,0.00036703,0.00039636,0.00107896,0.00042930,-0.000
 03531,-0.00014803,0.00009408,-0.00209997,0.00302988,0.00565984,0.13596
 956,0.00006024,0.00001665,-0.00006911,-0.00001139,0.00002323,0.0000078
 4,-0.00029545,0.00037113,-0.00002438,-0.00014558,-0.00010596,0.0002278
 1,0.00003043,-0.00001566,-0.00002201,0.00967225,-0.00534217,-0.0044328
 6,-0.00429395,-0.00339454,-0.00065208,0.00001123,0.00000344,-0.0000027
 1,0.01343062,-0.01406543,-0.01853240,-0.00105518,0.00113766,0.00219116
 ,0.07236466,-0.13070550,-0.09713016,0.00000169,-0.00002428,0.00003803,
 0.00081411,0.00000807,-0.00030154,0.00000178,0.00000064,0.00000590,-0.
 00000382,-0.00000363,0.00000047,0.00001010,0.00000069,-0.00000442,0.00
 000004,-0.00000103,-0.00000185,0.00005372,-0.00002028,0.00006562,0.000
 07567,-0.00003538,-0.00000287,0.00000158,-0.00000228,-0.00001562,-0.00
 000052,-0.00000038,0.00000303,0.00000198,0.00000478,0.00000331,0.00098
 341,-0.00093461,-0.00105466,0.00008510,0.00012330,-0.00020450,0.000728
 46,0.00116449,0.00067402,-0.00018149,0.00075100,0.00015520,0.00013611,
 0.00000944,-0.00036069,-0.00945780,0.01136585,0.01148788,-0.08303275,0
 .13967095,-0.00007581,-0.00001256,0.00006885,0.00000759,-0.00001579,-0
 .00000638,-0.00037178,0.00033648,0.00003012,0.00000445,0.00015706,-0.0
 0022986,-0.00001072,0.00001733,0.00000901,-0.01455154,0.01256746,0.013
 53838,-0.00198381,-0.00178493,0.00078697,-0.00000446,-0.00000347,0.000
 00364,0.00443064,-0.00247202,-0.00475538,-0.00182272,0.00046516,-0.001
 37083,0.09918800,-0.10365528,-0.18019707,-0.00001000,0.00002374,-0.000
 03666,-0.00101297,0.00021816,0.00045162,-0.00000094,-0.00000120,-0.000
 00431,0.00000360,0.00000152,0.00000046,-0.00000662,0.,0.00000288,-0.00
 000085,0.00000120,0.00000148,0.00004340,-0.00001163,0.00001019,0.00015
 102,0.00009021,0.00004443,0.00000040,0.00000318,0.00001414,0.00000170,
 -0.00000232,0.00000126,0.00000034,-0.00000358,-0.00000144,0.00058700,-
 0.00056527,-0.00025777,-0.00019788,0.00020307,0.00027697,-0.00043857,0
 .00006449,0.00082262,-0.00011839,0.00001548,0.00006004,-0.00014559,-0.
 00005275,0.00040955,0.01170510,-0.01354388,-0.01499080,-0.09535636,0.1
 0796030,0.18530915,0.00203826,0.01370468,0.02709964,-0.00062718,0.0021
 2131,-0.00009026,-0.00002529,0.00001755,-0.00001136,0.00157672,0.00012
 057,0.00117529,-0.00014585,-0.00006963,0.00021684,0.00000887,-0.000001
 72,0.00000498,-0.00000213,-0.00001367,-0.00000215,-0.00133618,-0.01486
 389,-0.00986762,0.00000185,-0.00000038,-0.00000050,0.00001534,-0.00006
 539,-0.00007762,0.00000598,-0.00000296,0.00000411,-0.05480836,-0.00782
 482,-0.02219337,-0.00016809,-0.00013402,-0.00023844,-0.00483231,0.0005
 3972,0.00265809,0.00110856,-0.00040550,-0.00079158,-0.00002820,-0.0000
 1245,0.00016742,0.00035096,-0.00000166,0.00047391,0.00000042,-0.000000
 61,0.00000038,0.00000202,-0.00000143,-0.00000374,-0.00012372,-0.000135
 69,-0.00027660,0.00010389,0.00004791,-0.00005910,-0.00001434,-0.000037
 12,-0.00010851,-0.00000500,0.00000035,-0.00000180,0.00000019,0.0000005
 7,-0.00000051,-0.00000017,0.00000049,0.00000012,-0.00000083,-0.0000001
 5,-0.00000014,-0.00001569,0.00000642,-0.00001372,-0.00000041,0.0000002
 1,-0.00000057,-0.00000095,0.00000027,-0.00000017,0.05776562,0.00053811
 ,0.00169018,-0.00105903,-0.00307256,0.00214126,-0.00469108,0.00000187,
 0.00000032,-0.00000590,-0.00033282,-0.00037968,-0.00020008,0.00038938,
 -0.00025050,0.00053430,0.00001440,-0.00000270,0.00000093,-0.00000131,0
 .00000120,-0.00000075,-0.01115472,-0.03761993,-0.02287606,-0.00000015,
 -0.00000055,0.00000075,-0.00000276,-0.00002554,0.00000016,-0.00000472,
 0.00000061,-0.00000436,-0.00528834,-0.09823011,-0.09612936,0.00004599,
 0.00009870,0.00005116,-0.00055631,0.00112656,-0.00003002,0.00049378,0.
 00030832,-0.00022074,0.00004789,0.00014194,0.00040727,0.00047622,0.000
 47548,0.00095691,0.00000080,0.00000204,0.00000093,-0.00000092,0.000001
 34,0.00000203,0.00015274,-0.00008428,-0.00004409,0.00023734,0.00001701
 ,-0.00005619,-0.00006356,0.00001403,0.00000302,0.00000103,0.00000074,0
 .00000054,0.00000011,-0.00000054,0.00000080,-0.00000015,0.00000034,-0.
 00000013,0.00000062,0.00000037,0.00000019,0.00000340,0.00000213,-0.000
 00752,0.00000043,-0.00000011,0.00000052,0.00000143,-0.00000048,0.00000
 045,0.01734488,0.12185035,-0.00093641,-0.00724301,-0.01529092,0.001036
 23,0.00143466,0.00289133,0.00003323,-0.00002026,0.00000808,-0.00136048
 ,0.00042286,0.00010317,-0.00003388,-0.00000471,-0.00018349,0.00007500,
 -0.00002710,-0.00000042,0.00000009,0.00001742,-0.00000146,-0.00112603,
 0.00242075,0.00955827,0.00000050,-0.00000241,0.00000378,-0.00008395,0.
 00000092,-0.00005192,-0.00001752,0.00000160,-0.00002117,-0.02301213,-0
 .10029912,-0.24927462,0.00034742,0.00017861,0.00028260,0.00331705,-0.0
 0004266,-0.00043581,0.00002557,0.00019700,0.00030339,0.00014071,-0.000
 04276,0.00033694,0.00071120,-0.00122156,0.00008994,0.00000093,0.000003
 76,-0.00000116,-0.00000015,0.00000012,0.00000021,0.00037834,-0.0002544
 3,0.00053794,-0.00005109,-0.00013963,0.00001448,-0.00001538,0.00003105
 ,-0.00018225,0.00000797,0.00000059,0.00000407,0.00000042,-0.00000146,0
 .00000177,0.00000006,0.00000048,-0.00000066,0.00000249,0.00000051,0.00
 000055,0.00001403,-0.00000307,0.00000594,0.00000161,-0.00000132,0.0000
 0248,0.00000666,-0.00000211,0.00000175,0.02162168,0.11170866,0.2649610
 6,-0.02050120,0.01266354,-0.01626768,-0.00003720,-0.00236133,0.0006978
 9,-0.00008142,0.00006254,-0.00006049,-0.00106617,-0.00216954,0.0049018
 8,0.00013485,-0.00049845,0.00013489,-0.00054331,0.00019578,-0.00009147
 ,0.00000007,-0.00006420,0.00001096,0.01163744,-0.00854383,0.00914802,-
 0.00001058,0.00001321,-0.00002459,0.00064937,0.00006152,0.00077890,0.0
 0007479,-0.00000594,0.00013151,-0.19231443,0.08998461,-0.10971656,-0.0
 0300293,0.00119110,-0.00106092,0.00159230,0.00001956,0.00002844,0.0007
 4807,-0.00043602,-0.00014302,0.00041187,-0.00041862,0.00026517,-0.0000
 5755,0.00001222,0.00005973,-0.00000507,-0.00000912,0.00000669,0.000002
 99,0.00000408,0.00000830,0.00006664,-0.00020062,-0.00001058,0.00011988
 ,0.00014779,-0.00013911,0.00003997,0.00009435,-0.00001056,-0.00002888,
 -0.00000087,-0.00001598,-0.00000144,0.00000312,-0.00000440,-0.00000139
 ,-0.00000239,0.00000397,-0.00001311,-0.00000536,-0.00000138,-0.0000436
 3,0.00002691,-0.00005775,-0.00000913,0.00000574,-0.00001352,-0.0000426
 3,0.00001448,-0.00001405,-0.00084397,0.00072788,-0.00108418,0.20312578
 ,0.00147771,0.00110370,-0.00098456,-0.00480334,-0.00371381,-0.00139258
 ,0.00000311,0.00000116,-0.00000785,-0.00060594,0.00092174,0.00014420,-
 0.00003939,-0.00009900,0.00019708,-0.00002324,0.00000737,-0.00000712,-
 0.00000100,0.00000044,0.00000069,0.02305794,-0.02725269,0.02407390,-0.
 00000106,0.00000072,0.00000012,-0.00002068,-0.00001823,0.00006132,-0.0
 0000393,0.00000134,0.00000244,0.07990463,-0.09873728,0.05831728,-0.000
 08690,0.00025157,-0.00000839,-0.00007415,-0.00003852,0.00032485,0.0003
 6976,0.00018046,-0.00020948,0.00115356,-0.00103417,0.00107979,0.000152
 59,0.00015952,0.00038087,0.00000128,0.00000263,0.00000080,-0.00000045,
 0.00000067,0.00000086,0.00011752,-0.00011318,0.00025385,0.00024827,0.0
 0007211,-0.00012445,0.00002338,0.00001733,-0.00004943,0.00000081,0.000
 00022,0.00000019,0.00000026,-0.00000031,-0.00000025,0.00000044,0.00000
 010,-0.00000035,0.00000012,-0.00000039,-0.00000015,-0.00000407,0.00000
 574,-0.00000361,-0.00000047,0.00000024,-0.00000074,-0.00000078,0.00000
 027,-0.00000065,-0.01033383,0.00872149,-0.00711337,-0.09051216,0.11955
 877,0.01436359,-0.00957177,0.01059178,0.00179861,0.00083118,0.00110784
 ,0.00003155,-0.00003098,0.00002135,0.00185304,0.00094117,-0.00202173,-
 0.00002697,-0.00000135,-0.00019391,0.00023951,-0.00008210,0.00004062,-
 0.00000011,0.00002670,-0.00000315,-0.00314147,0.00564665,-0.00344164,0
 .00000324,-0.00000580,0.00000860,-0.00014034,-0.00004401,-0.00033012,-
 0.00002175,-0.00000107,-0.00005670,-0.10728318,0.06560122,-0.13306090,
 0.00151966,-0.00049273,0.00058554,-0.00087544,-0.00008858,0.00092930,-
 0.00096692,0.00027773,0.00040231,-0.00041200,0.00044942,0.00000072,0.0
 0017405,-0.00005444,0.00033688,0.00000187,0.00000427,-0.00000262,-0.00
 000089,0.00000042,-0.00000052,0.00010567,-0.00000622,0.00029626,-0.000
 07583,-0.00005424,0.00002879,-0.00004647,-0.00004523,0.00000838,0.0000
 1142,-0.00000015,0.00000624,0.00000098,-0.00000110,0.00000184,0.000000
 47,0.00000085,-0.00000116,0.00000491,0.00000265,0.00000090,0.00000505,
 -0.00001461,0.00002345,0.00000358,-0.00000271,0.00000558,0.00001900,-0
 .00000662,0.00000701,-0.01968471,0.01165670,-0.01366388,0.11253989,-0.
 07493526,0.13837295\\-0.00002550,-0.00000072,0.00001579,-0.00002642,0.
 00004523,-0.00005193,0.00002021,0.00000079,0.00001102,-0.00002018,-0.0
 0051150,-0.00007777,-0.00001750,0.00000854,0.00000815,-0.00014522,-0.0
 0042937,0.00017338,-0.00002058,-0.00002717,-0.00001210,0.00001506,0.00
 000346,0.00002678,-0.00000086,-0.00000380,-0.00000539,0.00020255,0.000
 31808,-0.00025991,-0.00004190,0.00002662,-0.00002251,0.00002842,-0.000
 04262,-0.00000414,0.00000557,0.00061612,0.00011461,0.00000351,-0.00000
 644,-0.00001469,0.00000523,0.00000921,0.00000080,-0.00000122,-0.000007
 19,-0.00000061,0.00000960,0.00001027,0.00002061,-0.00000045,0.00000006
 ,-0.00000989,-0.00000790,-0.00000082,0.00000878,-0.00000068,0.00002024
 ,0.00002518,-0.00000800,-0.00000459,0.00001412,-0.00000351,-0.00000782
 ,-0.00000699,0.00000433,0.00000797,-0.00000709,0.00000169,-0.00000239,
 0.00000218,0.00000437,-0.00000499,-0.00000480,0.00000251,-0.00001066,0
 .00000950,0.00000122,-0.00000721,0.00003490,0.00000202,-0.00001374,0.0
 0002021,0.00001007,-0.00000947,-0.00000481,0.00000449,0.00001689,0.000
 01096,-0.00000092,0.00000703,-0.00001436\\\@


 I WANT IT ALL - RICH, THIN, AND CHOCOLATE.
 Job cpu time:       0 days 12 hours 23 minutes  1.3 seconds.
 Elapsed time:       0 days  1 hours  2 minutes 12.0 seconds.
 File lengths (MBytes):  RWF=    722 Int=      0 D2E=      0 Chk=     34 Scr=      1
 Normal termination of Gaussian 16 at Sat Mar  9 11:15:07 2019.
