 Entering Gaussian System, Link 0=g16
 Initial command:
 /sw/Projects/G16/g16/l1.exe "/nvme/pbs/tmpdir/pbs.74204[8].flm1/Gau-29573.inp" -scrdir="/nvme/pbs/tmpdir/pbs.74204[8].flm1/"
 Entering Link 1 = /sw/Projects/G16/g16/l1.exe PID=     29574.
  
 Copyright (c) 1988-2017, Gaussian, Inc.  All Rights Reserved.
  
 This is part of the Gaussian(R) 16 program.  It is based on
 the Gaussian(R) 09 system (copyright 2009, Gaussian, Inc.),
 the Gaussian(R) 03 system (copyright 2003, Gaussian, Inc.),
 the Gaussian(R) 98 system (copyright 1998, Gaussian, Inc.),
 the Gaussian(R) 94 system (copyright 1995, Gaussian, Inc.),
 the Gaussian 92(TM) system (copyright 1992, Gaussian, Inc.),
 the Gaussian 90(TM) system (copyright 1990, Gaussian, Inc.),
 the Gaussian 88(TM) system (copyright 1988, Gaussian, Inc.),
 the Gaussian 86(TM) system (copyright 1986, Carnegie Mellon
 University), and the Gaussian 82(TM) system (copyright 1983,
 Carnegie Mellon University). Gaussian is a federally registered
 trademark of Gaussian, Inc.
  
 This software contains proprietary and confidential information,
 including trade secrets, belonging to Gaussian, Inc.
  
 This software is provided under written license and may be
 used, copied, transmitted, or stored only in accord with that
 written license.
  
 The following legend is applicable only to US Government
 contracts under FAR:
  
                    RESTRICTED RIGHTS LEGEND
  
 Use, reproduction and disclosure by the US Government is
 subject to restrictions as set forth in subparagraphs (a)
 and (c) of the Commercial Computer Software - Restricted
 Rights clause in FAR 52.227-19.
  
 Gaussian, Inc.
 340 Quinnipiac St., Bldg. 40, Wallingford CT 06492
  
  
 ---------------------------------------------------------------
 Warning -- This program may not be used in any manner that
 competes with the business of Gaussian, Inc. or will provide
 assistance to any competitor of Gaussian, Inc.  The licensee
 of this program is prohibited from giving any competitor of
 Gaussian, Inc. access to this program.  By using this program,
 the user acknowledges that Gaussian, Inc. is engaged in the
 business of creating and licensing software in the field of
 computational chemistry and represents and warrants to the
 licensee that it is not a competitor of Gaussian, Inc. and that
 it will not use this program in any manner prohibited above.
 ---------------------------------------------------------------
  

 Cite this work as:
 Gaussian 16, Revision B.01,
 M. J. Frisch, G. W. Trucks, H. B. Schlegel, G. E. Scuseria, 
 M. A. Robb, J. R. Cheeseman, G. Scalmani, V. Barone, 
 G. A. Petersson, H. Nakatsuji, X. Li, M. Caricato, A. V. Marenich, 
 J. Bloino, B. G. Janesko, R. Gomperts, B. Mennucci, H. P. Hratchian, 
 J. V. Ortiz, A. F. Izmaylov, J. L. Sonnenberg, D. Williams-Young, 
 F. Ding, F. Lipparini, F. Egidi, J. Goings, B. Peng, A. Petrone, 
 T. Henderson, D. Ranasinghe, V. G. Zakrzewski, J. Gao, N. Rega, 
 G. Zheng, W. Liang, M. Hada, M. Ehara, K. Toyota, R. Fukuda, 
 J. Hasegawa, M. Ishida, T. Nakajima, Y. Honda, O. Kitao, H. Nakai, 
 T. Vreven, K. Throssell, J. A. Montgomery, Jr., J. E. Peralta, 
 F. Ogliaro, M. J. Bearpark, J. J. Heyd, E. N. Brothers, K. N. Kudin, 
 V. N. Staroverov, T. A. Keith, R. Kobayashi, J. Normand, 
 K. Raghavachari, A. P. Rendell, J. C. Burant, S. S. Iyengar, 
 J. Tomasi, M. Cossi, J. M. Millam, M. Klene, C. Adamo, R. Cammi, 
 J. W. Ochterski, R. L. Martin, K. Morokuma, O. Farkas, 
 J. B. Foresman, and D. J. Fox, Gaussian, Inc., Wallingford CT, 2016.
 
 ******************************************
 Gaussian 16:  ES64L-G16RevB.01 20-Dec-2017
                 9-Mar-2019 
 ******************************************
 %mem=20gb
 %nproc=12
 Will use up to   12 processors via shared memory.
 %chk=4c1_b1_e3_4c1_PHI.inp_extract_8.chk
 ----------------------------------------------------------------------
 #M062X/6-311++G(2d,2p) opt=ModRedundant freq=noraman SCRF=(SMD,solvent
 =water)
 ----------------------------------------------------------------------
 1/18=120,19=15,26=3,38=1/1,3;
 2/9=110,12=2,17=6,18=5,40=1/2;
 3/5=4,6=6,7=1212,11=2,25=1,30=1,70=32201,71=1,72=1,74=-55/1,2,3;
 4//1;
 5/5=2,38=5,53=1/2;
 6/7=2,8=2,9=2,10=2,28=1/1;
 7//1,2,3,16;
 1/18=20,19=15,26=3/3(2);
 2/9=110/2;
 99//99;
 2/9=110/2;
 3/5=4,6=6,7=1212,11=2,25=1,30=1,70=32205,71=1,72=1,74=-55/1,2,3;
 4/5=5,16=3,69=1/1;
 5/5=2,38=5,53=1/2;
 7//1,2,3,16;
 1/18=20,19=15,26=3/3(-5);
 2/9=110/2;
 6/7=2,8=2,9=2,10=2,19=2,28=1/1;
 99/9=1/99;
 -------------------------------
 4c1_b1_e3_4c1_PHI.inp_extract_8
 -------------------------------
 Symbolic Z-matrix:
 Charge =  0 Multiplicity = 1
 C                     1.75736  -1.06039   0.63296 
 C                     3.21539   0.94704  -0.79439 
 C                    -2.06114   1.32926   0.04832 
 C                     1.02521   0.18486   0.14427 
 C                     2.00785   1.34517   0.04317 
 O                    -1.40862  -0.97937   0.08614 
 C                    -3.50872   0.92691  -0.24405 
 O                     3.84088  -0.2104   -0.27653 
 C                    -3.54605  -0.44216  -0.92329 
 C                    -1.34144   0.22271   0.80429 
 C                    -2.73476  -1.44438  -0.11909 
 C                     2.97831  -1.33019  -0.23675 
 O                    -0.00506   0.56107   1.04877 
 H                     2.07457  -0.90314   1.66071 
 H                     1.10606  -1.92707   0.61436 
 H                     3.96188   1.72915  -0.79216 
 H                     2.9213    0.76052  -1.82499 
 H                    -1.52682   1.51335  -0.88058 
 H                    -2.0228    2.23891   0.63942 
 H                     0.60051  -0.0011   -0.83333 
 H                     1.52616   2.20891  -0.40525 
 H                     2.33632   1.62609   1.04033 
 H                    -3.98844   1.67736  -0.86424 
 H                    -4.06706   0.88204   0.68907 
 H                    -3.13121  -0.37086  -1.92582 
 H                    -4.56621  -0.80354  -1.01665 
 H                    -1.79083   0.07711   1.78063 
 H                    -3.19854  -1.62629   0.84739 
 H                    -2.64031  -2.38968  -0.63445 
 H                     2.67723  -1.5822   -1.25137 
 H                     3.55853  -2.15294   0.1573 
 
 The following ModRedundant input section has been read:
 D       6      10      13       4 F                                           
 

 GradGradGradGradGradGradGradGradGradGradGradGradGradGradGradGradGradGrad
 Berny optimization.
 Initialization pass.
                           ----------------------------
                           !    Initial Parameters    !
                           ! (Angstroms and Degrees)  !
 --------------------------                            --------------------------
 ! Name  Definition              Value          Derivative Info.                !
 --------------------------------------------------------------------------------
 ! R1    R(1,4)                  1.525          estimate D2E/DX2                !
 ! R2    R(1,12)                 1.5231         estimate D2E/DX2                !
 ! R3    R(1,14)                 1.087          estimate D2E/DX2                !
 ! R4    R(1,15)                 1.0843         estimate D2E/DX2                !
 ! R5    R(2,5)                  1.5226         estimate D2E/DX2                !
 ! R6    R(2,8)                  1.4139         estimate D2E/DX2                !
 ! R7    R(2,16)                 1.0812         estimate D2E/DX2                !
 ! R8    R(2,17)                 1.0878         estimate D2E/DX2                !
 ! R9    R(3,7)                  1.5306         estimate D2E/DX2                !
 ! R10   R(3,10)                 1.5212         estimate D2E/DX2                !
 ! R11   R(3,18)                 1.0873         estimate D2E/DX2                !
 ! R12   R(3,19)                 1.0855         estimate D2E/DX2                !
 ! R13   R(4,5)                  1.5239         estimate D2E/DX2                !
 ! R14   R(4,13)                 1.4217         estimate D2E/DX2                !
 ! R15   R(4,20)                 1.082          estimate D2E/DX2                !
 ! R16   R(5,21)                 1.0859         estimate D2E/DX2                !
 ! R17   R(5,22)                 1.0868         estimate D2E/DX2                !
 ! R18   R(6,10)                 1.4019         estimate D2E/DX2                !
 ! R19   R(6,11)                 1.4202         estimate D2E/DX2                !
 ! R20   R(7,9)                  1.5288         estimate D2E/DX2                !
 ! R21   R(7,23)                 1.0853         estimate D2E/DX2                !
 ! R22   R(7,24)                 1.0883         estimate D2E/DX2                !
 ! R23   R(8,12)                 1.4141         estimate D2E/DX2                !
 ! R24   R(9,11)                 1.5197         estimate D2E/DX2                !
 ! R25   R(9,25)                 1.0873         estimate D2E/DX2                !
 ! R26   R(9,26)                 1.0863         estimate D2E/DX2                !
 ! R27   R(10,13)                1.4001         estimate D2E/DX2                !
 ! R28   R(10,27)                1.0846         estimate D2E/DX2                !
 ! R29   R(11,28)                1.0873         estimate D2E/DX2                !
 ! R30   R(11,29)                1.0808         estimate D2E/DX2                !
 ! R31   R(12,30)                1.0879         estimate D2E/DX2                !
 ! R32   R(12,31)                1.0811         estimate D2E/DX2                !
 ! A1    A(4,1,12)             110.2746         estimate D2E/DX2                !
 ! A2    A(4,1,14)             108.963          estimate D2E/DX2                !
 ! A3    A(4,1,15)             111.027          estimate D2E/DX2                !
 ! A4    A(12,1,14)            109.3642         estimate D2E/DX2                !
 ! A5    A(12,1,15)            109.2767         estimate D2E/DX2                !
 ! A6    A(14,1,15)            107.8868         estimate D2E/DX2                !
 ! A7    A(5,2,8)              111.3112         estimate D2E/DX2                !
 ! A8    A(5,2,16)             110.9346         estimate D2E/DX2                !
 ! A9    A(5,2,17)             110.5839         estimate D2E/DX2                !
 ! A10   A(8,2,16)             106.6174         estimate D2E/DX2                !
 ! A11   A(8,2,17)             109.0397         estimate D2E/DX2                !
 ! A12   A(16,2,17)            108.2185         estimate D2E/DX2                !
 ! A13   A(7,3,10)             110.5585         estimate D2E/DX2                !
 ! A14   A(7,3,18)             110.2473         estimate D2E/DX2                !
 ! A15   A(7,3,19)             110.959          estimate D2E/DX2                !
 ! A16   A(10,3,18)            108.3747         estimate D2E/DX2                !
 ! A17   A(10,3,19)            108.7994         estimate D2E/DX2                !
 ! A18   A(18,3,19)            107.8158         estimate D2E/DX2                !
 ! A19   A(1,4,5)              109.4775         estimate D2E/DX2                !
 ! A20   A(1,4,13)             111.1087         estimate D2E/DX2                !
 ! A21   A(1,4,20)             109.7346         estimate D2E/DX2                !
 ! A22   A(5,4,13)             107.9404         estimate D2E/DX2                !
 ! A23   A(5,4,20)             108.9072         estimate D2E/DX2                !
 ! A24   A(13,4,20)            109.6256         estimate D2E/DX2                !
 ! A25   A(2,5,4)              110.4151         estimate D2E/DX2                !
 ! A26   A(2,5,21)             109.4292         estimate D2E/DX2                !
 ! A27   A(2,5,22)             109.4276         estimate D2E/DX2                !
 ! A28   A(4,5,21)             110.3047         estimate D2E/DX2                !
 ! A29   A(4,5,22)             109.3195         estimate D2E/DX2                !
 ! A30   A(21,5,22)            107.9            estimate D2E/DX2                !
 ! A31   A(10,6,11)            113.5491         estimate D2E/DX2                !
 ! A32   A(3,7,9)              110.0823         estimate D2E/DX2                !
 ! A33   A(3,7,23)             110.2067         estimate D2E/DX2                !
 ! A34   A(3,7,24)             109.4059         estimate D2E/DX2                !
 ! A35   A(9,7,23)             110.7648         estimate D2E/DX2                !
 ! A36   A(9,7,24)             109.3597         estimate D2E/DX2                !
 ! A37   A(23,7,24)            106.9584         estimate D2E/DX2                !
 ! A38   A(2,8,12)             112.8745         estimate D2E/DX2                !
 ! A39   A(7,9,11)             110.0257         estimate D2E/DX2                !
 ! A40   A(7,9,25)             109.976          estimate D2E/DX2                !
 ! A41   A(7,9,26)             111.0414         estimate D2E/DX2                !
 ! A42   A(11,9,25)            109.1169         estimate D2E/DX2                !
 ! A43   A(11,9,26)            109.1136         estimate D2E/DX2                !
 ! A44   A(25,9,26)            107.5102         estimate D2E/DX2                !
 ! A45   A(3,10,6)             110.2738         estimate D2E/DX2                !
 ! A46   A(3,10,13)            111.2594         estimate D2E/DX2                !
 ! A47   A(3,10,27)            110.4251         estimate D2E/DX2                !
 ! A48   A(6,10,13)            110.0251         estimate D2E/DX2                !
 ! A49   A(6,10,27)            109.0359         estimate D2E/DX2                !
 ! A50   A(13,10,27)           105.7083         estimate D2E/DX2                !
 ! A51   A(6,11,9)             111.0412         estimate D2E/DX2                !
 ! A52   A(6,11,28)            108.9427         estimate D2E/DX2                !
 ! A53   A(6,11,29)            105.8834         estimate D2E/DX2                !
 ! A54   A(9,11,28)            110.6715         estimate D2E/DX2                !
 ! A55   A(9,11,29)            111.7858         estimate D2E/DX2                !
 ! A56   A(28,11,29)           108.3475         estimate D2E/DX2                !
 ! A57   A(1,12,8)             111.3935         estimate D2E/DX2                !
 ! A58   A(1,12,30)            110.5922         estimate D2E/DX2                !
 ! A59   A(1,12,31)            110.9092         estimate D2E/DX2                !
 ! A60   A(8,12,30)            109.027          estimate D2E/DX2                !
 ! A61   A(8,12,31)            106.59           estimate D2E/DX2                !
 ! A62   A(30,12,31)           108.1894         estimate D2E/DX2                !
 ! A63   A(4,13,10)            121.1098         estimate D2E/DX2                !
 ! D1    D(12,1,4,5)           -52.7369         estimate D2E/DX2                !
 ! D2    D(12,1,4,13)         -171.8647         estimate D2E/DX2                !
 ! D3    D(12,1,4,20)           66.7371         estimate D2E/DX2                !
 ! D4    D(14,1,4,5)            67.3086         estimate D2E/DX2                !
 ! D5    D(14,1,4,13)          -51.8192         estimate D2E/DX2                !
 ! D6    D(14,1,4,20)         -173.2175         estimate D2E/DX2                !
 ! D7    D(15,1,4,5)          -174.0051         estimate D2E/DX2                !
 ! D8    D(15,1,4,13)           66.8672         estimate D2E/DX2                !
 ! D9    D(15,1,4,20)          -54.5311         estimate D2E/DX2                !
 ! D10   D(4,1,12,8)            55.9373         estimate D2E/DX2                !
 ! D11   D(4,1,12,30)          -65.4776         estimate D2E/DX2                !
 ! D12   D(4,1,12,31)          174.4883         estimate D2E/DX2                !
 ! D13   D(14,1,12,8)          -63.8659         estimate D2E/DX2                !
 ! D14   D(14,1,12,30)         174.7192         estimate D2E/DX2                !
 ! D15   D(14,1,12,31)          54.6851         estimate D2E/DX2                !
 ! D16   D(15,1,12,8)          178.242          estimate D2E/DX2                !
 ! D17   D(15,1,12,30)          56.8271         estimate D2E/DX2                !
 ! D18   D(15,1,12,31)         -63.207          estimate D2E/DX2                !
 ! D19   D(8,2,5,4)            -55.9292         estimate D2E/DX2                !
 ! D20   D(8,2,5,21)          -177.5242         estimate D2E/DX2                !
 ! D21   D(8,2,5,22)            64.4415         estimate D2E/DX2                !
 ! D22   D(16,2,5,4)          -174.4778         estimate D2E/DX2                !
 ! D23   D(16,2,5,21)           63.9272         estimate D2E/DX2                !
 ! D24   D(16,2,5,22)          -54.1071         estimate D2E/DX2                !
 ! D25   D(17,2,5,4)            65.4404         estimate D2E/DX2                !
 ! D26   D(17,2,5,21)          -56.1546         estimate D2E/DX2                !
 ! D27   D(17,2,5,22)         -174.1889         estimate D2E/DX2                !
 ! D28   D(5,2,8,12)            59.6687         estimate D2E/DX2                !
 ! D29   D(16,2,8,12)         -179.2222         estimate D2E/DX2                !
 ! D30   D(17,2,8,12)          -62.5975         estimate D2E/DX2                !
 ! D31   D(10,3,7,9)           -52.1438         estimate D2E/DX2                !
 ! D32   D(10,3,7,23)         -174.6101         estimate D2E/DX2                !
 ! D33   D(10,3,7,24)           68.0554         estimate D2E/DX2                !
 ! D34   D(18,3,7,9)            67.6704         estimate D2E/DX2                !
 ! D35   D(18,3,7,23)          -54.7958         estimate D2E/DX2                !
 ! D36   D(18,3,7,24)         -172.1304         estimate D2E/DX2                !
 ! D37   D(19,3,7,9)          -172.9557         estimate D2E/DX2                !
 ! D38   D(19,3,7,23)           64.578          estimate D2E/DX2                !
 ! D39   D(19,3,7,24)          -52.7565         estimate D2E/DX2                !
 ! D40   D(7,3,10,6)            56.0697         estimate D2E/DX2                !
 ! D41   D(7,3,10,13)          178.4422         estimate D2E/DX2                !
 ! D42   D(7,3,10,27)          -64.5001         estimate D2E/DX2                !
 ! D43   D(18,3,10,6)          -64.8642         estimate D2E/DX2                !
 ! D44   D(18,3,10,13)          57.5083         estimate D2E/DX2                !
 ! D45   D(18,3,10,27)         174.566          estimate D2E/DX2                !
 ! D46   D(19,3,10,6)          178.1584         estimate D2E/DX2                !
 ! D47   D(19,3,10,13)         -59.4691         estimate D2E/DX2                !
 ! D48   D(19,3,10,27)          57.5886         estimate D2E/DX2                !
 ! D49   D(1,4,5,2)             52.7898         estimate D2E/DX2                !
 ! D50   D(1,4,5,21)           173.8652         estimate D2E/DX2                !
 ! D51   D(1,4,5,22)           -67.6457         estimate D2E/DX2                !
 ! D52   D(13,4,5,2)           173.8562         estimate D2E/DX2                !
 ! D53   D(13,4,5,21)          -65.0683         estimate D2E/DX2                !
 ! D54   D(13,4,5,22)           53.4207         estimate D2E/DX2                !
 ! D55   D(20,4,5,2)           -67.1922         estimate D2E/DX2                !
 ! D56   D(20,4,5,21)           53.8832         estimate D2E/DX2                !
 ! D57   D(20,4,5,22)          172.3723         estimate D2E/DX2                !
 ! D58   D(1,4,13,10)          -99.426          estimate D2E/DX2                !
 ! D59   D(5,4,13,10)          140.5293         estimate D2E/DX2                !
 ! D60   D(20,4,13,10)          22.036          estimate D2E/DX2                !
 ! D61   D(11,6,10,3)          -61.2305         estimate D2E/DX2                !
 ! D62   D(11,6,10,13)         175.6737         estimate D2E/DX2                !
 ! D63   D(11,6,10,27)          60.1691         estimate D2E/DX2                !
 ! D64   D(10,6,11,9)           61.1928         estimate D2E/DX2                !
 ! D65   D(10,6,11,28)         -60.9421         estimate D2E/DX2                !
 ! D66   D(10,6,11,29)        -177.2804         estimate D2E/DX2                !
 ! D67   D(3,7,9,11)            51.4269         estimate D2E/DX2                !
 ! D68   D(3,7,9,25)           -68.7964         estimate D2E/DX2                !
 ! D69   D(3,7,9,26)           172.3324         estimate D2E/DX2                !
 ! D70   D(23,7,9,11)          173.5633         estimate D2E/DX2                !
 ! D71   D(23,7,9,25)           53.34           estimate D2E/DX2                !
 ! D72   D(23,7,9,26)          -65.5312         estimate D2E/DX2                !
 ! D73   D(24,7,9,11)          -68.8002         estimate D2E/DX2                !
 ! D74   D(24,7,9,25)          170.9765         estimate D2E/DX2                !
 ! D75   D(24,7,9,26)           52.1053         estimate D2E/DX2                !
 ! D76   D(2,8,12,1)           -59.7419         estimate D2E/DX2                !
 ! D77   D(2,8,12,30)           62.5799         estimate D2E/DX2                !
 ! D78   D(2,8,12,31)          179.1494         estimate D2E/DX2                !
 ! D79   D(7,9,11,6)           -54.9831         estimate D2E/DX2                !
 ! D80   D(7,9,11,28)           66.1407         estimate D2E/DX2                !
 ! D81   D(7,9,11,29)         -172.9876         estimate D2E/DX2                !
 ! D82   D(25,9,11,6)           65.7584         estimate D2E/DX2                !
 ! D83   D(25,9,11,28)        -173.1178         estimate D2E/DX2                !
 ! D84   D(25,9,11,29)         -52.2461         estimate D2E/DX2                !
 ! D85   D(26,9,11,6)         -177.0393         estimate D2E/DX2                !
 ! D86   D(26,9,11,28)         -55.9155         estimate D2E/DX2                !
 ! D87   D(26,9,11,29)          64.9562         estimate D2E/DX2                !
 ! D88   D(3,10,13,4)          -92.2875         estimate D2E/DX2                !
 ! D89   D(6,10,13,4)           30.2286         Frozen                          !
 ! D90   D(27,10,13,4)         147.8173         estimate D2E/DX2                !
 --------------------------------------------------------------------------------
 Trust Radius=3.00D-01 FncErr=1.00D-07 GrdErr=1.00D-06 EigMax=2.50D+02 EigMin=1.00D-04
 Number of steps in this run=    186 maximum allowed number of steps=    186.
 GradGradGradGradGradGradGradGradGradGradGradGradGradGradGradGradGradGrad

                          Input orientation:                          
 ---------------------------------------------------------------------
 Center     Atomic      Atomic             Coordinates (Angstroms)
 Number     Number       Type             X           Y           Z
 ---------------------------------------------------------------------
      1          6           0        1.757362   -1.060393    0.632958
      2          6           0        3.215392    0.947044   -0.794391
      3          6           0       -2.061142    1.329257    0.048318
      4          6           0        1.025211    0.184857    0.144268
      5          6           0        2.007851    1.345168    0.043166
      6          8           0       -1.408622   -0.979372    0.086144
      7          6           0       -3.508718    0.926905   -0.244047
      8          8           0        3.840882   -0.210398   -0.276530
      9          6           0       -3.546051   -0.442155   -0.923292
     10          6           0       -1.341438    0.222713    0.804288
     11          6           0       -2.734759   -1.444377   -0.119086
     12          6           0        2.978309   -1.330189   -0.236753
     13          8           0       -0.005064    0.561071    1.048771
     14          1           0        2.074573   -0.903136    1.660705
     15          1           0        1.106055   -1.927070    0.614361
     16          1           0        3.961879    1.729149   -0.792160
     17          1           0        2.921303    0.760519   -1.824991
     18          1           0       -1.526823    1.513354   -0.880582
     19          1           0       -2.022796    2.238909    0.639417
     20          1           0        0.600508   -0.001096   -0.833328
     21          1           0        1.526160    2.208905   -0.405251
     22          1           0        2.336319    1.626087    1.040327
     23          1           0       -3.988439    1.677358   -0.864238
     24          1           0       -4.067063    0.882038    0.689070
     25          1           0       -3.131208   -0.370856   -1.925819
     26          1           0       -4.566208   -0.803536   -1.016652
     27          1           0       -1.790831    0.077105    1.780628
     28          1           0       -3.198544   -1.626294    0.847385
     29          1           0       -2.640310   -2.389684   -0.634448
     30          1           0        2.677229   -1.582195   -1.251368
     31          1           0        3.558532   -2.152942    0.157296
 ---------------------------------------------------------------------
                    Distance matrix (angstroms):
                    1          2          3          4          5
     1  C    0.000000
     2  C    2.862338   0.000000
     3  C    4.542379   5.357057   0.000000
     4  C    1.524962   2.501780   3.293089   0.000000
     5  C    2.489442   1.522550   4.069027   1.523852   0.000000
     6  O    3.213880   5.086052   2.399371   2.698583   4.132508
     7  C    5.696498   6.746624   1.530634   4.610633   5.539853
     8  O    2.427080   1.413892   6.108187   2.874248   2.425282
     9  C    5.561504   6.903883   2.507365   4.735954   5.913915
    10  C    3.358315   4.883148   1.521152   2.457252   3.613440
    11  C    4.570795   6.448196   2.859166   4.106231   5.504565
    12  C    1.523121   2.356472   5.705259   2.501026   2.859664
    13  O    2.430677   3.730624   2.412151   1.421664   2.382829
    14  H    1.087022   3.279044   4.968653   2.141138   2.770515
    15  H    1.084286   3.833330   4.577686   2.165123   3.441953
    16  H    3.830457   1.081173   6.094514   3.447572   2.159499
    17  H    3.272918   1.087849   5.353271   2.793659   2.160143
    18  H    4.438564   4.776687   1.087310   3.054194   3.657255
    19  H    5.017472   5.582413   1.085511   3.708726   4.171379
    20  H    2.147188   2.781745   3.103469   1.081964   2.135716
    21  H    3.437971   2.144115   3.721322   2.156314   1.085885
    22  H    2.778186   2.144775   4.517727   2.144544   1.086801
    23  H    6.538433   7.241092   2.160650   5.327413   6.073650
    24  H    6.140042   7.432297   2.152739   5.168571   6.126684
    25  H    5.560658   6.579994   2.816495   4.676526   5.764683
    26  H    6.540239   7.979175   3.458081   5.795569   6.997028
    27  H    3.898810   5.696471   2.154495   3.258739   4.365403
    28  H    4.992717   7.103244   3.266110   4.649166   6.048380
    29  H    4.765800   6.741556   3.825196   4.546505   6.001140
    30  H    2.160814   2.625928   5.711208   2.792747   3.270067
    31  H    2.159660   3.260884   6.611983   3.447200   3.828108
                    6          7          8          9         10
     6  O    0.000000
     7  C    2.855402   0.000000
     8  O    5.317908   7.437146   0.000000
     9  C    2.424080   1.528755   7.418813   0.000000
    10  C    1.401875   2.508385   5.311515   2.878698   0.000000
    11  C    1.420207   2.497520   6.692275   1.519668   2.360752
    12  C    4.412765   6.868482   1.414053   6.620213   4.706961
    13  O    2.295559   3.752440   4.140397   4.175414   1.400055
    14  H    3.823310   6.176590   2.711570   6.203302   3.697312
    15  H    2.738749   5.493466   3.349616   5.119711   3.263106
    16  H    6.078633   7.533515   2.010561   7.816698   5.739614
    17  H    5.042609   6.623612   2.045981   6.639740   5.037192
    18  H    2.676231   2.162639   5.669961   2.811249   2.130471
    19  H    3.322748   2.170214   6.420341   3.456945   2.134591
    20  H    2.416414   4.253725   3.294519   4.170921   2.550104
    21  H    4.361138   5.198029   3.350751   5.746635   3.692027
    22  H    4.660844   6.025191   2.714866   6.537255   3.943484
    23  H    3.823205   1.085334   8.075103   2.165994   3.450592
    24  H    3.300860   1.088333   8.041231   2.150500   2.806602
    25  H    2.717644   2.157558   7.166306   1.087308   3.317994
    26  H    3.349243   2.170168   8.460423   1.086293   3.842935
    27  H    2.033102   2.787939   6.002562   3.265212   1.084618
    28  H    2.049833   2.793968   7.267838   2.158296   2.620978
    29  H    2.006312   3.450552   6.847134   2.167179   3.252944
    30  H    4.341257   6.751016   2.046027   6.335340   4.861389
    31  H    5.104405   7.719622   2.010324   7.387121   5.483798
                   11         12         13         14         15
    11  C    0.000000
    12  C    5.715420   0.000000
    13  O    3.582868   3.758983   0.000000
    14  H    5.156576   2.144635   2.615962   0.000000
    15  H    3.939897   2.141494   2.759374   1.755364   0.000000
    16  H    7.441052   3.261202   4.526596   4.062929   4.847883
    17  H    6.305768   2.626178   4.106326   3.954083   4.058164
    18  H    3.284381   5.366234   2.635336   5.026690   4.582949
    19  H    3.827377   6.206222   2.655928   5.263450   5.210155
    20  H    3.703675   2.788607   2.055492   3.034262   2.461860
    21  H    5.619946   3.829140   2.678467   3.775411   4.280466
    22  H    6.040515   3.283695   2.572237   2.617317   3.784167
    23  H    3.445605   7.614109   4.557738   7.056515   6.413425
    24  H    2.800064   7.442336   4.090506   6.469205   5.887089
    25  H    2.138669   6.410886   4.414686   6.344023   5.179644
    26  H    2.137874   7.602982   5.189620   7.160875   6.008086
    27  H    2.610521   5.366097   1.989674   3.989562   3.710639
    28  H    1.087316   6.278260   3.876008   5.384256   4.321382
    29  H    1.080798   5.731454   4.299384   5.450475   3.976026
    30  H    5.530883   1.087934   4.132666   3.050325   2.463427
    31  H    6.339082   1.081136   4.567254   2.454463   2.504909
                   16         17         18         19         20
    16  H    0.000000
    17  H    1.757209   0.000000
    18  H    5.493654   4.609175   0.000000
    19  H    6.174593   5.718659   1.755795   0.000000
    20  H    3.780775   2.636198   2.611767   3.750776   0.000000
    21  H    2.512487   2.461688   3.167086   3.699638   2.433965
    22  H    2.451750   3.049830   4.315839   4.420199   3.028423
    23  H    7.950813   7.036205   2.467127   2.537729   4.886369
    24  H    8.208261   7.427821   3.052079   2.454097   4.988371
    25  H    7.483788   6.158171   2.686414   3.823596   3.905888
    26  H    8.899054   7.691716   3.824180   4.297439   5.231871
    27  H    6.514765   5.972583   3.035548   2.455518   3.543640
    28  H    8.075813   7.091615   3.954480   4.045421   4.460814
    29  H    7.783223   6.501747   4.066219   4.840241   4.030857
    30  H    3.581368   2.424237   5.233924   6.345561   2.643369
    31  H    4.016813   3.581030   6.354506   7.118428   3.789681
                   21         22         23         24         25
    21  H    0.000000
    22  H    1.756625   0.000000
    23  H    5.559138   6.605495   0.000000
    24  H    5.851688   6.456028   1.746849   0.000000
    25  H    5.537000   6.532967   2.461093   3.046836   0.000000
    26  H    6.823896   7.601257   2.551839   2.449447   1.753004
    27  H    4.508333   4.469984   3.792836   2.649651   3.966740
    28  H    6.212944   6.422610   3.803644   2.659157   3.044884
    29  H    6.209591   6.610456   4.290814   3.806769   2.446280
    30  H    4.051335   3.957418   7.430053   7.437958   5.971613
    31  H    4.844864   4.068735   8.524758   8.224572   7.229649
                   26         27         28         29         30
    26  H    0.000000
    27  H    4.037700   0.000000
    28  H    2.453991   2.398784   0.000000
    29  H    2.524090   3.555173   1.757902   0.000000
    30  H    7.288949   5.648879   6.239505   5.413765   0.000000
    31  H    8.319282   6.018638   6.812610   6.253683   1.756924
                   31
    31  H    0.000000
 Stoichiometry    C10H18O3
 Framework group  C1[X(C10H18O3)]
 Deg. of freedom    87
 Full point group                 C1      NOp   1
 Largest Abelian subgroup         C1      NOp   1
 Largest concise Abelian subgroup C1      NOp   1
                         Standard orientation:                         
 ---------------------------------------------------------------------
 Center     Atomic      Atomic             Coordinates (Angstroms)
 Number     Number       Type             X           Y           Z
 ---------------------------------------------------------------------
      1          6           0        1.757362    1.060393   -0.632958
      2          6           0        3.215392   -0.947044    0.794391
      3          6           0       -2.061142   -1.329257   -0.048318
      4          6           0        1.025211   -0.184857   -0.144268
      5          6           0        2.007851   -1.345168   -0.043166
      6          8           0       -1.408622    0.979372   -0.086144
      7          6           0       -3.508718   -0.926905    0.244047
      8          8           0        3.840882    0.210398    0.276530
      9          6           0       -3.546051    0.442155    0.923292
     10          6           0       -1.341438   -0.222713   -0.804288
     11          6           0       -2.734759    1.444377    0.119086
     12          6           0        2.978309    1.330189    0.236753
     13          8           0       -0.005064   -0.561071   -1.048771
     14          1           0        2.074573    0.903136   -1.660705
     15          1           0        1.106055    1.927070   -0.614361
     16          1           0        3.961879   -1.729149    0.792160
     17          1           0        2.921303   -0.760519    1.824991
     18          1           0       -1.526823   -1.513354    0.880582
     19          1           0       -2.022796   -2.238909   -0.639417
     20          1           0        0.600508    0.001096    0.833328
     21          1           0        1.526160   -2.208905    0.405251
     22          1           0        2.336319   -1.626087   -1.040327
     23          1           0       -3.988439   -1.677358    0.864238
     24          1           0       -4.067063   -0.882038   -0.689070
     25          1           0       -3.131208    0.370856    1.925819
     26          1           0       -4.566208    0.803536    1.016652
     27          1           0       -1.790831   -0.077105   -1.780628
     28          1           0       -3.198544    1.626294   -0.847385
     29          1           0       -2.640310    2.389684    0.634448
     30          1           0        2.677229    1.582195    1.251368
     31          1           0        3.558532    2.152942   -0.157296
 ---------------------------------------------------------------------
 Rotational constants (GHZ):           1.9094828           0.3950875           0.3617130
 Standard basis: 6-311++G(2d,2p) (5D, 7F)
 There are   557 symmetry adapted cartesian basis functions of A   symmetry.
 There are   531 symmetry adapted basis functions of A   symmetry.
   531 basis functions,   762 primitive gaussians,   557 cartesian basis functions
    51 alpha electrons       51 beta electrons
       nuclear repulsion energy       886.4500344696 Hartrees.
 NAtoms=   31 NActive=   31 NUniq=   31 SFac= 1.00D+00 NAtFMM=   60 NAOKFM=F Big=F
 Integral buffers will be    131072 words long.
 Raffenetti 2 integral format.
 Two-electron integral symmetry is turned on.
 ------------------------------------------------------------------------------
 Polarizable Continuum Model (PCM)
 =================================
 Model                : PCM.
 Atomic radii         : SMD-Coulomb.
 Polarization charges : Total charges.
 Charge compensation  : None.
 Solution method      : On-the-fly selection.
 Cavity type          : VdW (van der Waals Surface) (Alpha=1.000).
 Cavity algorithm     : GePol (No added spheres)
                        Default sphere list used, NSphG=   31.
                        Lebedev-Laikov grids with approx.  5.0 points / Ang**2.
                        Smoothing algorithm: York/Karplus (Gamma=1.0000).
                        Polarization charges: spherical gaussians, with
                                              point-specific exponents (IZeta= 3).
                        Self-potential: point-specific (ISelfS= 7).
                        Self-field    : sphere-specific E.n sum rule (ISelfD= 2).
 1st derivatives      : Analytical E(r).r(x)/FMM algorithm (CHGder, D1EAlg=3).
                        Cavity 1st derivative terms included.
 Solvent              : Water, Eps=  78.355300 Eps(inf)=   1.777849
 ------------------------------------------------------------------------------
 ------------------------------------------------------------------------------
 Atomic radii for non-electrostatic terms: SMD-CDS.
 ------------------------------------------------------------------------------
 Nuclear repulsion after PCM non-electrostatic terms =      886.4565636045 Hartrees.
 One-electron integrals computed using PRISM.
 NBasis=   531 RedAO= T EigKep=  5.39D-06  NBF=   531
 NBsUse=   531 1.00D-06 EigRej= -1.00D+00 NBFU=   531
 ExpMin= 3.60D-02 ExpMax= 8.59D+03 ExpMxC= 1.30D+03 IAcc=3 IRadAn=         5 AccDes= 0.00D+00
 Harris functional with IExCor= 1009 and IRadAn=       5 diagonalized for initial guess.
 HarFok:  IExCor= 1009 AccDes= 0.00D+00 IRadAn=         5 IDoV= 1 UseB2=F ITyADJ=14
 ICtDFT=  3500011 ScaDFX=  1.000000  1.000000  1.000000  1.000000
 FoFCou: FMM=F IPFlag=           0 FMFlag=      100000 FMFlg1=           0
         NFxFlg=           0 DoJE=T BraDBF=F KetDBF=T FulRan=T
         wScrn=  0.000000 ICntrl=       500 IOpCl=  0 I1Cent=   200000004 NGrid=           0
         NMat0=    1 NMatS0=      1 NMatT0=    0 NMatD0=    1 NMtDS0=    0 NMtDT0=    0
 Petite list used in FoFCou.
 Requested convergence on RMS density matrix=1.00D-08 within 128 cycles.
 Requested convergence on MAX density matrix=1.00D-06.
 Requested convergence on             energy=1.00D-06.
 No special actions if energy rises.
 Inv3:  Mode=1 IEnd=    12084147.
 Iteration    1 A*A^-1 deviation from unit magnitude is 6.11D-15 for    248.
 Iteration    1 A*A^-1 deviation from orthogonality  is 4.58D-15 for   1542    213.
 Iteration    1 A^-1*A deviation from unit magnitude is 5.66D-15 for    248.
 Iteration    1 A^-1*A deviation from orthogonality  is 3.49D-15 for   2002   1758.
 Error on total polarization charges =  0.06219
 SCF Done:  E(RM062X) =  -617.501058224     A.U. after   12 cycles
            NFock= 12  Conv=0.51D-08     -V/T= 2.0035
 SMD-CDS (non-electrostatic) energy       (kcal/mol) =       4.10
 (included in total energy above)

 **********************************************************************

            Population analysis using the SCF Density.

 **********************************************************************

 Orbital symmetries:
       Occupied  (A) (A) (A) (A) (A) (A) (A) (A) (A) (A) (A) (A)
                 (A) (A) (A) (A) (A) (A) (A) (A) (A) (A) (A) (A)
                 (A) (A) (A) (A) (A) (A) (A) (A) (A) (A) (A) (A)
                 (A) (A) (A) (A) (A) (A) (A) (A) (A) (A) (A) (A)
                 (A) (A) (A)
       Virtual   (A) (A) (A) (A) (A) (A) (A) (A) (A) (A) (A) (A)
                 (A) (A) (A) (A) (A) (A) (A) (A) (A) (A) (A) (A)
                 (A) (A) (A) (A) (A) (A) (A) (A) (A) (A) (A) (A)
                 (A) (A) (A) (A) (A) (A) (A) (A) (A) (A) (A) (A)
                 (A) (A) (A) (A) (A) (A) (A) (A) (A) (A) (A) (A)
                 (A) (A) (A) (A) (A) (A) (A) (A) (A) (A) (A) (A)
                 (A) (A) (A) (A) (A) (A) (A) (A) (A) (A) (A) (A)
                 (A) (A) (A) (A) (A) (A) (A) (A) (A) (A) (A) (A)
                 (A) (A) (A) (A) (A) (A) (A) (A) (A) (A) (A) (A)
                 (A) (A) (A) (A) (A) (A) (A) (A) (A) (A) (A) (A)
                 (A) (A) (A) (A) (A) (A) (A) (A) (A) (A) (A) (A)
                 (A) (A) (A) (A) (A) (A) (A) (A) (A) (A) (A) (A)
                 (A) (A) (A) (A) (A) (A) (A) (A) (A) (A) (A) (A)
                 (A) (A) (A) (A) (A) (A) (A) (A) (A) (A) (A) (A)
                 (A) (A) (A) (A) (A) (A) (A) (A) (A) (A) (A) (A)
                 (A) (A) (A) (A) (A) (A) (A) (A) (A) (A) (A) (A)
                 (A) (A) (A) (A) (A) (A) (A) (A) (A) (A) (A) (A)
                 (A) (A) (A) (A) (A) (A) (A) (A) (A) (A) (A) (A)
                 (A) (A) (A) (A) (A) (A) (A) (A) (A) (A) (A) (A)
                 (A) (A) (A) (A) (A) (A) (A) (A) (A) (A) (A) (A)
                 (A) (A) (A) (A) (A) (A) (A) (A) (A) (A) (A) (A)
                 (A) (A) (A) (A) (A) (A) (A) (A) (A) (A) (A) (A)
                 (A) (A) (A) (A) (A) (A) (A) (A) (A) (A) (A) (A)
                 (A) (A) (A) (A) (A) (A) (A) (A) (A) (A) (A) (A)
                 (A) (A) (A) (A) (A) (A) (A) (A) (A) (A) (A) (A)
                 (A) (A) (A) (A) (A) (A) (A) (A) (A) (A) (A) (A)
                 (A) (A) (A) (A) (A) (A) (A) (A) (A) (A) (A) (A)
                 (A) (A) (A) (A) (A) (A) (A) (A) (A) (A) (A) (A)
                 (A) (A) (A) (A) (A) (A) (A) (A) (A) (A) (A) (A)
                 (A) (A) (A) (A) (A) (A) (A) (A) (A) (A) (A) (A)
                 (A) (A) (A) (A) (A) (A) (A) (A) (A) (A) (A) (A)
                 (A) (A) (A) (A) (A) (A) (A) (A) (A) (A) (A) (A)
                 (A) (A) (A) (A) (A) (A) (A) (A) (A) (A) (A) (A)
                 (A) (A) (A) (A) (A) (A) (A) (A) (A) (A) (A) (A)
                 (A) (A) (A) (A) (A) (A) (A) (A) (A) (A) (A) (A)
                 (A) (A) (A) (A) (A) (A) (A) (A) (A) (A) (A) (A)
                 (A) (A) (A) (A) (A) (A) (A) (A) (A) (A) (A) (A)
                 (A) (A) (A) (A) (A) (A) (A) (A) (A) (A) (A) (A)
                 (A) (A) (A) (A) (A) (A) (A) (A) (A) (A) (A) (A)
                 (A) (A) (A) (A) (A) (A) (A) (A) (A) (A) (A) (A)
 The electronic state is 1-A.
 Alpha  occ. eigenvalues --  -19.63035 -19.62764 -19.62683 -10.63190 -10.58304
 Alpha  occ. eigenvalues --  -10.57469 -10.57363 -10.57325 -10.52366 -10.52227
 Alpha  occ. eigenvalues --  -10.52136 -10.52045 -10.51999  -1.20141  -1.16494
 Alpha  occ. eigenvalues --   -1.13784  -0.90539  -0.89330  -0.86207  -0.84622
 Alpha  occ. eigenvalues --   -0.75390  -0.73417  -0.72379  -0.69581  -0.66177
 Alpha  occ. eigenvalues --   -0.63930  -0.60280  -0.57930  -0.55454  -0.55295
 Alpha  occ. eigenvalues --   -0.54506  -0.52625  -0.52037  -0.51175  -0.50009
 Alpha  occ. eigenvalues --   -0.48310  -0.47467  -0.45551  -0.44913  -0.44160
 Alpha  occ. eigenvalues --   -0.42700  -0.41605  -0.40781  -0.39791  -0.39288
 Alpha  occ. eigenvalues --   -0.38587  -0.36975  -0.36730  -0.34434  -0.33004
 Alpha  occ. eigenvalues --   -0.30858
 Alpha virt. eigenvalues --    0.00407   0.01248   0.01374   0.01484   0.02767
 Alpha virt. eigenvalues --    0.02892   0.03037   0.03803   0.03969   0.04841
 Alpha virt. eigenvalues --    0.05379   0.05519   0.05729   0.05849   0.07474
 Alpha virt. eigenvalues --    0.07682   0.07943   0.08188   0.08820   0.10020
 Alpha virt. eigenvalues --    0.10446   0.11113   0.11366   0.12056   0.12257
 Alpha virt. eigenvalues --    0.12882   0.13213   0.13694   0.14030   0.14191
 Alpha virt. eigenvalues --    0.14524   0.14756   0.14906   0.15127   0.15172
 Alpha virt. eigenvalues --    0.15394   0.15680   0.16203   0.16483   0.16749
 Alpha virt. eigenvalues --    0.16967   0.17140   0.17543   0.17883   0.18089
 Alpha virt. eigenvalues --    0.18445   0.18621   0.19107   0.19314   0.19695
 Alpha virt. eigenvalues --    0.19899   0.20179   0.20665   0.20762   0.21680
 Alpha virt. eigenvalues --    0.22363   0.22834   0.23579   0.23961   0.25238
 Alpha virt. eigenvalues --    0.25743   0.25801   0.26355   0.27271   0.27576
 Alpha virt. eigenvalues --    0.28527   0.28837   0.29177   0.29736   0.30117
 Alpha virt. eigenvalues --    0.30363   0.30731   0.31252   0.31828   0.32498
 Alpha virt. eigenvalues --    0.32669   0.33576   0.34056   0.34124   0.34743
 Alpha virt. eigenvalues --    0.34983   0.35269   0.35432   0.36032   0.36898
 Alpha virt. eigenvalues --    0.36918   0.37385   0.37944   0.38045   0.38170
 Alpha virt. eigenvalues --    0.39252   0.39557   0.39746   0.40018   0.40770
 Alpha virt. eigenvalues --    0.40967   0.42250   0.43191   0.44213   0.45992
 Alpha virt. eigenvalues --    0.46907   0.47786   0.50236   0.50452   0.52131
 Alpha virt. eigenvalues --    0.52642   0.53970   0.54976   0.55534   0.55983
 Alpha virt. eigenvalues --    0.56602   0.57542   0.58558   0.58910   0.59260
 Alpha virt. eigenvalues --    0.59971   0.60242   0.60935   0.61266   0.62434
 Alpha virt. eigenvalues --    0.63125   0.63404   0.64202   0.64406   0.65315
 Alpha virt. eigenvalues --    0.65550   0.66270   0.66468   0.67406   0.67803
 Alpha virt. eigenvalues --    0.68005   0.68978   0.69610   0.70020   0.71286
 Alpha virt. eigenvalues --    0.71852   0.72288   0.73175   0.73850   0.74042
 Alpha virt. eigenvalues --    0.74249   0.74996   0.75050   0.75547   0.76603
 Alpha virt. eigenvalues --    0.76870   0.77713   0.78520   0.79338   0.79848
 Alpha virt. eigenvalues --    0.80666   0.83060   0.84034   0.84765   0.85875
 Alpha virt. eigenvalues --    0.86036   0.87097   0.88355   0.89799   0.90281
 Alpha virt. eigenvalues --    0.91351   0.92972   0.93444   0.94823   0.96895
 Alpha virt. eigenvalues --    0.97505   0.98664   0.99615   1.00742   1.01412
 Alpha virt. eigenvalues --    1.02914   1.04347   1.05601   1.06487   1.07339
 Alpha virt. eigenvalues --    1.07522   1.08469   1.10181   1.11120   1.12218
 Alpha virt. eigenvalues --    1.13378   1.14101   1.15321   1.15619   1.16938
 Alpha virt. eigenvalues --    1.18075   1.19047   1.19365   1.19580   1.20626
 Alpha virt. eigenvalues --    1.21771   1.22218   1.22975   1.23620   1.24438
 Alpha virt. eigenvalues --    1.24856   1.26044   1.26656   1.27251   1.27892
 Alpha virt. eigenvalues --    1.28603   1.29418   1.29648   1.30082   1.30830
 Alpha virt. eigenvalues --    1.31432   1.32426   1.32971   1.33364   1.34442
 Alpha virt. eigenvalues --    1.34812   1.35762   1.36594   1.37626   1.38769
 Alpha virt. eigenvalues --    1.39405   1.40561   1.40921   1.41293   1.42145
 Alpha virt. eigenvalues --    1.43143   1.43592   1.43763   1.45180   1.45549
 Alpha virt. eigenvalues --    1.46357   1.46911   1.47667   1.48519   1.49243
 Alpha virt. eigenvalues --    1.49953   1.50756   1.51418   1.51882   1.52030
 Alpha virt. eigenvalues --    1.52773   1.53891   1.54187   1.55625   1.57044
 Alpha virt. eigenvalues --    1.57441   1.58093   1.58772   1.59089   1.59991
 Alpha virt. eigenvalues --    1.60279   1.61287   1.61845   1.62958   1.63433
 Alpha virt. eigenvalues --    1.64352   1.65646   1.66052   1.67042   1.67342
 Alpha virt. eigenvalues --    1.68130   1.68399   1.69594   1.70841   1.72449
 Alpha virt. eigenvalues --    1.73354   1.74736   1.76055   1.77360   1.78913
 Alpha virt. eigenvalues --    1.80283   1.80587   1.81676   1.83844   1.84718
 Alpha virt. eigenvalues --    1.84962   1.85802   1.89957   1.90591   1.97445
 Alpha virt. eigenvalues --    2.03666   2.08579   2.12025   2.17988   2.20719
 Alpha virt. eigenvalues --    2.24511   2.26821   2.28276   2.31763   2.36792
 Alpha virt. eigenvalues --    2.40286   2.43198   2.46836   2.50796   2.52237
 Alpha virt. eigenvalues --    2.55562   2.76759   2.78366   2.80007   2.81561
 Alpha virt. eigenvalues --    2.87247   2.88042   2.91942   2.92395   2.95054
 Alpha virt. eigenvalues --    2.97890   2.98637   3.01215   3.04015   3.06695
 Alpha virt. eigenvalues --    3.07978   3.09032   3.09964   3.11712   3.11860
 Alpha virt. eigenvalues --    3.12607   3.13546   3.15169   3.15943   3.22109
 Alpha virt. eigenvalues --    3.23898   3.30762   3.31850   3.33130   3.34581
 Alpha virt. eigenvalues --    3.36660   3.37350   3.39726   3.40072   3.41234
 Alpha virt. eigenvalues --    3.42615   3.43706   3.44813   3.46198   3.46962
 Alpha virt. eigenvalues --    3.47878   3.50062   3.50767   3.52101   3.52897
 Alpha virt. eigenvalues --    3.53337   3.54011   3.54888   3.55952   3.57216
 Alpha virt. eigenvalues --    3.57732   3.58307   3.58901   3.59725   3.60619
 Alpha virt. eigenvalues --    3.61674   3.61939   3.64503   3.64654   3.64965
 Alpha virt. eigenvalues --    3.66262   3.67419   3.68193   3.70388   3.71695
 Alpha virt. eigenvalues --    3.71865   3.72743   3.72975   3.73674   3.74448
 Alpha virt. eigenvalues --    3.75081   3.75466   3.76312   3.77563   3.78068
 Alpha virt. eigenvalues --    3.78276   3.80094   3.81580   3.82455   3.84445
 Alpha virt. eigenvalues --    3.85998   3.88768   3.90164   3.91357   3.92369
 Alpha virt. eigenvalues --    3.93285   3.93666   3.94243   3.95255   3.96607
 Alpha virt. eigenvalues --    3.99109   4.03050   4.03536   4.04112   4.04631
 Alpha virt. eigenvalues --    4.05741   4.06111   4.06952   4.07694   4.08164
 Alpha virt. eigenvalues --    4.08789   4.09830   4.10908   4.11761   4.13168
 Alpha virt. eigenvalues --    4.13482   4.13717   4.14498   4.14992   4.15428
 Alpha virt. eigenvalues --    4.16448   4.18223   4.19205   4.19834   4.20910
 Alpha virt. eigenvalues --    4.21757   4.23314   4.24282   4.25997   4.27476
 Alpha virt. eigenvalues --    4.28515   4.30300   4.31127   4.32003   4.33218
 Alpha virt. eigenvalues --    4.34016   4.35032   4.35564   4.36631   4.38727
 Alpha virt. eigenvalues --    4.39513   4.43820   4.45363   4.47487   4.50567
 Alpha virt. eigenvalues --    4.60640   4.61310   4.74795   4.77257   4.88315
 Alpha virt. eigenvalues --    4.91350   4.91630   4.92563   4.98979   5.00890
 Alpha virt. eigenvalues --    5.06887   5.08355   5.08440   5.10037   5.11927
 Alpha virt. eigenvalues --    5.12653   5.13041   5.14317   5.30126   5.33189
 Alpha virt. eigenvalues --    5.42511   5.56685   5.57394   5.65084   5.86654
 Alpha virt. eigenvalues --    5.88321   6.02732   7.01405   7.05579   7.06222
 Alpha virt. eigenvalues --    7.07665   7.09555   7.12677   7.13923   7.16477
 Alpha virt. eigenvalues --    7.24913   7.36212   7.37574   7.48622   7.53190
 Alpha virt. eigenvalues --    7.56273   7.61329  23.94808  23.99170  24.07297
 Alpha virt. eigenvalues --   24.08132  24.12092  24.13719  24.14237  24.15381
 Alpha virt. eigenvalues --   24.18454  24.19020  50.16336  50.19742  50.24828
          Condensed to atoms (all electrons):
               1          2          3          4          5          6
     1  C    6.433760   0.170429  -0.020414  -0.909975  -0.158566  -0.046724
     2  C    0.170429   5.588862   0.011641   0.050989  -0.087487   0.004694
     3  C   -0.020414   0.011641   6.182251   0.162069   0.043905  -0.027491
     4  C   -0.909975   0.050989   0.162069   7.690336  -0.711843   0.006763
     5  C   -0.158566  -0.087487   0.043905  -0.711843   6.484054   0.045450
     6  O   -0.046724   0.004694  -0.027491   0.006763   0.045450   8.372571
     7  C   -0.005970  -0.008501  -0.231611  -0.008835   0.011907  -0.002477
     8  O   -0.035515   0.122696  -0.000046  -0.039839  -0.025614  -0.000023
     9  C   -0.008304  -0.000672  -0.096096   0.036475  -0.007081  -0.061429
    10  C    0.140168  -0.042071  -0.618843  -0.625082  -0.106072   0.226382
    11  C    0.001390   0.002839   0.099169  -0.022626   0.001179   0.019951
    12  C   -0.087707  -0.277168  -0.009116   0.023925   0.158062  -0.012460
    13  O   -0.077734   0.023038  -0.173036   0.170537  -0.214960   0.002249
    14  H    0.472510   0.013446  -0.001060   0.028161  -0.060859  -0.001130
    15  H    0.475267   0.002157  -0.004905  -0.083263  -0.014509   0.006632
    16  H    0.001193   0.426447   0.001621   0.011155  -0.034747   0.000579
    17  H   -0.021980   0.453652  -0.000996   0.040989  -0.075605  -0.000275
    18  H    0.002222   0.004532   0.445358   0.027702  -0.022100  -0.010050
    19  H   -0.000691  -0.002135   0.455803  -0.004769   0.001578   0.005144
    20  H    0.008000  -0.022121  -0.032234   0.361248   0.032906  -0.004575
    21  H    0.000019  -0.022318   0.012716  -0.073303   0.470016  -0.000589
    22  H   -0.045144  -0.092366  -0.002482   0.030251   0.457327   0.000053
    23  H    0.000589  -0.000290  -0.038450  -0.004856   0.001002  -0.001168
    24  H    0.000094   0.000088  -0.038294   0.000928  -0.000887   0.001021
    25  H   -0.000617  -0.000250  -0.000048   0.002400   0.000673  -0.002213
    26  H    0.000331  -0.000081   0.005006  -0.000522  -0.000237   0.005341
    27  H    0.019093  -0.000071  -0.076911  -0.023781  -0.002307  -0.032808
    28  H    0.001810  -0.000628   0.010327  -0.011505   0.001344  -0.045279
    29  H    0.003748   0.000611   0.002207  -0.005105  -0.002235  -0.071855
    30  H   -0.063374  -0.003546   0.001061   0.042030  -0.032538   0.000268
    31  H   -0.023261   0.005439  -0.000643  -0.001533   0.002452  -0.001053
               7          8          9         10         11         12
     1  C   -0.005970  -0.035515  -0.008304   0.140168   0.001390  -0.087707
     2  C   -0.008501   0.122696  -0.000672  -0.042071   0.002839  -0.277168
     3  C   -0.231611  -0.000046  -0.096096  -0.618843   0.099169  -0.009116
     4  C   -0.008835  -0.039839   0.036475  -0.625082  -0.022626   0.023925
     5  C    0.011907  -0.025614  -0.007081  -0.106072   0.001179   0.158062
     6  O   -0.002477  -0.000023  -0.061429   0.226382   0.019951  -0.012460
     7  C    5.716274   0.000050   0.021536   0.151202  -0.035748  -0.001257
     8  O    0.000050   8.448392   0.000077   0.005429  -0.000081   0.109820
     9  C    0.021536   0.000077   5.530230   0.021879   0.074469   0.000102
    10  C    0.151202   0.005429   0.021879   6.622429  -0.113783  -0.001175
    11  C   -0.035748  -0.000081   0.074469  -0.113783   5.368407  -0.000346
    12  C   -0.001257   0.109820   0.000102  -0.001175  -0.000346   5.619347
    13  O    0.026938  -0.001513   0.001452   0.175997  -0.001767   0.017932
    14  H    0.000897  -0.004019   0.000904   0.015117   0.000615  -0.096579
    15  H   -0.001667   0.009571  -0.002537   0.009746   0.000885  -0.002088
    16  H    0.000333  -0.069441  -0.000022  -0.006035   0.000246   0.008777
    17  H   -0.000587  -0.042459   0.000288   0.011262  -0.000384  -0.007137
    18  H   -0.013172  -0.000130  -0.020192  -0.026129   0.007451  -0.004685
    19  H   -0.019168  -0.000002   0.008413  -0.060807  -0.002068   0.001221
    20  H    0.017956  -0.005625  -0.004307   0.013851  -0.005132   0.000951
    21  H   -0.002644   0.008466  -0.001485  -0.005167   0.000153   0.004687
    22  H    0.000324  -0.004514   0.000539   0.008347  -0.000935   0.017638
    23  H    0.405473   0.000003  -0.026659   0.021740   0.008983  -0.000024
    24  H    0.514384  -0.000007  -0.058838  -0.027212  -0.012517  -0.000053
    25  H   -0.038214  -0.000008   0.491585  -0.005269  -0.067410   0.000362
    26  H   -0.050598   0.000002   0.456798  -0.000690  -0.035024   0.000076
    27  H   -0.000215   0.000348   0.006215   0.493491  -0.013151  -0.001726
    28  H   -0.019860   0.000002  -0.045325  -0.011068   0.480377   0.001078
    29  H    0.011715  -0.000008  -0.046554   0.012001   0.449013  -0.001115
    30  H   -0.001212  -0.042373   0.000808   0.009036   0.000168   0.444985
    31  H    0.000404  -0.072759  -0.000256   0.000774  -0.000487   0.423288
              13         14         15         16         17         18
     1  C   -0.077734   0.472510   0.475267   0.001193  -0.021980   0.002222
     2  C    0.023038   0.013446   0.002157   0.426447   0.453652   0.004532
     3  C   -0.173036  -0.001060  -0.004905   0.001621  -0.000996   0.445358
     4  C    0.170537   0.028161  -0.083263   0.011155   0.040989   0.027702
     5  C   -0.214960  -0.060859  -0.014509  -0.034747  -0.075605  -0.022100
     6  O    0.002249  -0.001130   0.006632   0.000579  -0.000275  -0.010050
     7  C    0.026938   0.000897  -0.001667   0.000333  -0.000587  -0.013172
     8  O   -0.001513  -0.004019   0.009571  -0.069441  -0.042459  -0.000130
     9  C    0.001452   0.000904  -0.002537  -0.000022   0.000288  -0.020192
    10  C    0.175997   0.015117   0.009746  -0.006035   0.011262  -0.026129
    11  C   -0.001767   0.000615   0.000885   0.000246  -0.000384   0.007451
    12  C    0.017932  -0.096579  -0.002088   0.008777  -0.007137  -0.004685
    13  O    8.470962  -0.003742   0.000369  -0.002426  -0.001505  -0.002292
    14  H   -0.003742   0.460106  -0.022495  -0.001632   0.002437   0.001082
    15  H    0.000369  -0.022495   0.470192   0.001019  -0.002061  -0.000303
    16  H   -0.002426  -0.001632   0.001019   0.474252  -0.020010   0.000261
    17  H   -0.001505   0.002437  -0.002061  -0.020010   0.500623  -0.000182
    18  H   -0.002292   0.001082  -0.000303   0.000261  -0.000182   0.477384
    19  H   -0.004837  -0.000150  -0.000401  -0.000038  -0.000010  -0.021574
    20  H   -0.003394  -0.003861  -0.004222   0.002839  -0.019683  -0.009703
    21  H    0.006614  -0.004503   0.001042  -0.011299   0.000132  -0.004597
    22  H   -0.006036   0.006031  -0.004118  -0.006361   0.004792   0.000368
    23  H   -0.003079  -0.000002  -0.000077   0.000007  -0.000009  -0.005352
    24  H    0.002291   0.000049  -0.000102  -0.000009  -0.000021   0.002847
    25  H    0.000745   0.000038  -0.000495  -0.000018   0.000184   0.002568
    26  H    0.000612   0.000007   0.000056   0.000002  -0.000016  -0.003765
    27  H   -0.075385   0.001081   0.000449  -0.000150   0.000436  -0.001019
    28  H    0.003020  -0.000147  -0.000507   0.000000   0.000030  -0.000765
    29  H   -0.002052   0.000293  -0.001813  -0.000027  -0.000006  -0.000160
    30  H   -0.001916   0.005483  -0.002078  -0.004264   0.014779   0.000915
    31  H   -0.001031  -0.006289  -0.008620   0.001214  -0.004137  -0.000144
              19         20         21         22         23         24
     1  C   -0.000691   0.008000   0.000019  -0.045144   0.000589   0.000094
     2  C   -0.002135  -0.022121  -0.022318  -0.092366  -0.000290   0.000088
     3  C    0.455803  -0.032234   0.012716  -0.002482  -0.038450  -0.038294
     4  C   -0.004769   0.361248  -0.073303   0.030251  -0.004856   0.000928
     5  C    0.001578   0.032906   0.470016   0.457327   0.001002  -0.000887
     6  O    0.005144  -0.004575  -0.000589   0.000053  -0.001168   0.001021
     7  C   -0.019168   0.017956  -0.002644   0.000324   0.405473   0.514384
     8  O   -0.000002  -0.005625   0.008466  -0.004514   0.000003  -0.000007
     9  C    0.008413  -0.004307  -0.001485   0.000539  -0.026659  -0.058838
    10  C   -0.060807   0.013851  -0.005167   0.008347   0.021740  -0.027212
    11  C   -0.002068  -0.005132   0.000153  -0.000935   0.008983  -0.012517
    12  C    0.001221   0.000951   0.004687   0.017638  -0.000024  -0.000053
    13  O   -0.004837  -0.003394   0.006614  -0.006036  -0.003079   0.002291
    14  H   -0.000150  -0.003861  -0.004503   0.006031  -0.000002   0.000049
    15  H   -0.000401  -0.004222   0.001042  -0.004118  -0.000077  -0.000102
    16  H   -0.000038   0.002839  -0.011299  -0.006361   0.000007  -0.000009
    17  H   -0.000010  -0.019683   0.000132   0.004792  -0.000009  -0.000021
    18  H   -0.021574  -0.009703  -0.004597   0.000368  -0.005352   0.002847
    19  H    0.467497   0.001900  -0.000182   0.000553  -0.008953  -0.007065
    20  H    0.001900   0.409248  -0.005142  -0.002770   0.000382   0.000161
    21  H   -0.000182  -0.005142   0.485944  -0.019959   0.000402   0.000026
    22  H    0.000553  -0.002770  -0.019959   0.458899  -0.000023  -0.000021
    23  H   -0.008953   0.000382   0.000402  -0.000023   0.489155  -0.004995
    24  H   -0.007065   0.000161   0.000026  -0.000021  -0.004995   0.450248
    25  H   -0.001734  -0.003355   0.000153   0.000070  -0.004380   0.003492
    26  H    0.002045   0.000682  -0.000067  -0.000010  -0.006334  -0.005524
    27  H    0.001254   0.001503   0.000008   0.000112   0.001326  -0.007468
    28  H    0.000498  -0.000822   0.000212   0.000085  -0.000579   0.001356
    29  H    0.000742  -0.000374  -0.000078  -0.000005   0.000202  -0.001946
    30  H    0.000027  -0.017626  -0.003051   0.002500   0.000002  -0.000023
    31  H   -0.000013   0.002920   0.001854  -0.001478   0.000005   0.000008
              25         26         27         28         29         30
     1  C   -0.000617   0.000331   0.019093   0.001810   0.003748  -0.063374
     2  C   -0.000250  -0.000081  -0.000071  -0.000628   0.000611  -0.003546
     3  C   -0.000048   0.005006  -0.076911   0.010327   0.002207   0.001061
     4  C    0.002400  -0.000522  -0.023781  -0.011505  -0.005105   0.042030
     5  C    0.000673  -0.000237  -0.002307   0.001344  -0.002235  -0.032538
     6  O   -0.002213   0.005341  -0.032808  -0.045279  -0.071855   0.000268
     7  C   -0.038214  -0.050598  -0.000215  -0.019860   0.011715  -0.001212
     8  O   -0.000008   0.000002   0.000348   0.000002  -0.000008  -0.042373
     9  C    0.491585   0.456798   0.006215  -0.045325  -0.046554   0.000808
    10  C   -0.005269  -0.000690   0.493491  -0.011068   0.012001   0.009036
    11  C   -0.067410  -0.035024  -0.013151   0.480377   0.449013   0.000168
    12  C    0.000362   0.000076  -0.001726   0.001078  -0.001115   0.444985
    13  O    0.000745   0.000612  -0.075385   0.003020  -0.002052  -0.001916
    14  H    0.000038   0.000007   0.001081  -0.000147   0.000293   0.005483
    15  H   -0.000495   0.000056   0.000449  -0.000507  -0.001813  -0.002078
    16  H   -0.000018   0.000002  -0.000150   0.000000  -0.000027  -0.004264
    17  H    0.000184  -0.000016   0.000436   0.000030  -0.000006   0.014779
    18  H    0.002568  -0.003765  -0.001019  -0.000765  -0.000160   0.000915
    19  H   -0.001734   0.002045   0.001254   0.000498   0.000742   0.000027
    20  H   -0.003355   0.000682   0.001503  -0.000822  -0.000374  -0.017626
    21  H    0.000153  -0.000067   0.000008   0.000212  -0.000078  -0.003051
    22  H    0.000070  -0.000010   0.000112   0.000085  -0.000005   0.002500
    23  H   -0.004380  -0.006334   0.001326  -0.000579   0.000202   0.000002
    24  H    0.003492  -0.005524  -0.007468   0.001356  -0.001946  -0.000023
    25  H    0.470728  -0.011458  -0.000508   0.003482  -0.002858   0.000099
    26  H   -0.011458   0.472326  -0.001034   0.000224  -0.009619  -0.000009
    27  H   -0.000508  -0.001034   0.445671  -0.003879   0.000997   0.000210
    28  H    0.003482   0.000224  -0.003879   0.475426  -0.011137   0.000062
    29  H   -0.002858  -0.009619   0.000997  -0.011137   0.478153  -0.000020
    30  H    0.000099  -0.000009   0.000210   0.000062  -0.000020   0.499337
    31  H    0.000017  -0.000003   0.000136  -0.000015   0.000055  -0.018790
              31
     1  C   -0.023261
     2  C    0.005439
     3  C   -0.000643
     4  C   -0.001533
     5  C    0.002452
     6  O   -0.001053
     7  C    0.000404
     8  O   -0.072759
     9  C   -0.000256
    10  C    0.000774
    11  C   -0.000487
    12  C    0.423288
    13  O   -0.001031
    14  H   -0.006289
    15  H   -0.008620
    16  H    0.001214
    17  H   -0.004137
    18  H   -0.000144
    19  H   -0.000013
    20  H    0.002920
    21  H    0.001854
    22  H   -0.001478
    23  H    0.000005
    24  H    0.000008
    25  H    0.000017
    26  H   -0.000003
    27  H    0.000136
    28  H   -0.000015
    29  H    0.000055
    30  H   -0.018790
    31  H    0.484178
 Mulliken charges:
               1
     1  C   -0.224644
     2  C   -0.321854
     3  C   -0.060460
     4  C   -0.159123
     5  C   -0.154207
     6  O   -0.375499
     7  C   -0.437656
     8  O   -0.360881
     9  C   -0.272013
    10  C   -0.289451
    11  C   -0.203834
    12  C   -0.329616
    13  O   -0.326050
    14  H    0.198212
    15  H    0.178875
    16  H    0.226534
    17  H    0.167460
    18  H    0.173625
    19  H    0.187918
    20  H    0.290400
    21  H    0.161943
    22  H    0.198333
    23  H    0.175958
    24  H    0.187990
    25  H    0.162239
    26  H    0.181485
    27  H    0.268085
    28  H    0.172182
    29  H    0.197231
    30  H    0.169049
    31  H    0.217769
 Sum of Mulliken charges =  -0.00000
 Mulliken charges with hydrogens summed into heavy atoms:
               1
     1  C    0.152443
     2  C    0.072139
     3  C    0.301084
     4  C    0.131277
     5  C    0.206069
     6  O   -0.375499
     7  C   -0.073709
     8  O   -0.360881
     9  C    0.071712
    10  C   -0.021366
    11  C    0.165579
    12  C    0.057202
    13  O   -0.326050
 Electronic spatial extent (au):  <R**2>=           3179.1981
 Charge=             -0.0000 electrons
 Dipole moment (field-independent basis, Debye):
    X=             -4.3886    Y=             -0.0640    Z=              1.9108  Tot=              4.7869
 Quadrupole moment (field-independent basis, Debye-Ang):
   XX=            -81.5719   YY=            -75.7355   ZZ=            -79.9854
   XY=             -2.0557   XZ=              2.1129   YZ=             -1.8591
 Traceless Quadrupole moment (field-independent basis, Debye-Ang):
   XX=             -2.4743   YY=              3.3621   ZZ=             -0.8878
   XY=             -2.0557   XZ=              2.1129   YZ=             -1.8591
 Octapole moment (field-independent basis, Debye-Ang**2):
  XXX=            -99.2705  YYY=              6.9080  ZZZ=              1.5110  XYY=              9.3141
  XXY=              0.2720  XXZ=             -0.1267  XZZ=              0.2193  YZZ=              2.0024
  YYZ=              3.2219  XYZ=             -4.3526
 Hexadecapole moment (field-independent basis, Debye-Ang**3):
 XXXX=          -3535.3801 YYYY=           -614.4901 ZZZZ=           -301.2034 XXXY=            -68.1444
 XXXZ=             -2.3104 YYYX=             -5.4463 YYYZ=              1.6302 ZZZX=             12.1793
 ZZZY=             -1.4293 XXYY=           -586.4314 XXZZ=           -584.3711 YYZZ=           -155.8882
 XXYZ=            -11.3238 YYXZ=             -0.0028 ZZXY=             -1.9906
 N-N= 8.864565636045D+02 E-N=-3.215051347356D+03  KE= 6.153603882254D+02
 D1PCM: PCM CHGder 1st derivatives, ID1Alg=3 FixD1E=F DoIter=F DoCFld=F I1PDM=0.
 Calling FoFJK, ICntrl=      2127 FMM=F ISym2X=0 I1Cent= 0 IOpClX= 0 NMat=1 NMatS=1 NMatT=0.
 ***** Axes restored to original set *****
 -------------------------------------------------------------------
 Center     Atomic                   Forces (Hartrees/Bohr)
 Number     Number              X              Y              Z
 -------------------------------------------------------------------
      1        6           0.000262295    0.001161408   -0.003570123
      2        6          -0.006038344    0.000084324    0.002724296
      3        6          -0.003301680   -0.002019344    0.001275879
      4        6           0.003968409    0.001820236   -0.001229524
      5        6          -0.000271902   -0.002572870   -0.002617961
      6        8           0.010319185   -0.009282140   -0.002608954
      7        6           0.003154514   -0.002447874   -0.000975103
      8        8           0.011010516   -0.000252299    0.004124256
      9        6           0.000615087    0.000891393    0.003253984
     10        6          -0.005333333    0.009014554   -0.010439904
     11        6          -0.003228075    0.005533837   -0.002212581
     12        6          -0.005612054    0.002247687    0.002097143
     13        8           0.005533867    0.000438225    0.013255618
     14        1           0.001265974    0.001542215    0.003199731
     15        1          -0.002996906   -0.002588725   -0.000359339
     16        1           0.002940213    0.003416024    0.000174651
     17        1          -0.002560656   -0.000844498   -0.004966794
     18        1           0.002834127   -0.000591707   -0.003496842
     19        1           0.000351660    0.002326772    0.002033480
     20        1          -0.002054480   -0.001458724   -0.006624006
     21        1          -0.002024736    0.002344497   -0.001447642
     22        1           0.001145447   -0.000034675    0.003709138
     23        1          -0.001126335    0.001838415   -0.001608062
     24        1          -0.001105214   -0.000696522    0.003118114
     25        1           0.002006264    0.000245254   -0.002715012
     26        1          -0.002611351   -0.000911952   -0.000042998
     27        1          -0.004045980   -0.000513093    0.006563468
     28        1          -0.003036436   -0.000168772    0.004851448
     29        1           0.000205848   -0.003996538   -0.002373048
     30        1          -0.002555227   -0.001050877   -0.004932535
     31        1           0.002289304   -0.003474230    0.001839224
 -------------------------------------------------------------------
 Cartesian Forces:  Max     0.013255618 RMS     0.003854144

 GradGradGradGradGradGradGradGradGradGradGradGradGradGradGradGradGradGrad
 Berny optimization.
 FormGI is forming the generalized inverse of G from B-inverse, IUseBI=4.
 Internal  Forces:  Max     0.014103111 RMS     0.002271839
 Search for a local minimum.
 Step number   1 out of a maximum of  186
 All quantities printed in internal units (Hartrees-Bohrs-Radians)
 Mixed Optimization -- RFO/linear search
 Second derivative matrix not updated -- first step.
 ITU=  0
     Eigenvalues ---    0.00615   0.00690   0.00727   0.00743   0.01405
     Eigenvalues ---    0.01431   0.01486   0.02704   0.02709   0.03122
     Eigenvalues ---    0.03402   0.04160   0.04248   0.04631   0.04749
     Eigenvalues ---    0.04773   0.04909   0.04998   0.05148   0.05184
     Eigenvalues ---    0.05285   0.05677   0.05742   0.06138   0.06146
     Eigenvalues ---    0.06253   0.06351   0.06699   0.07609   0.07923
     Eigenvalues ---    0.07936   0.07948   0.07977   0.08001   0.08441
     Eigenvalues ---    0.08693   0.08997   0.09159   0.10900   0.11486
     Eigenvalues ---    0.11714   0.11731   0.11761   0.12331   0.13155
     Eigenvalues ---    0.14165   0.14416   0.16347   0.16548   0.17686
     Eigenvalues ---    0.19275   0.21547   0.21737   0.25000   0.28525
     Eigenvalues ---    0.28646   0.28726   0.28916   0.29124   0.29223
     Eigenvalues ---    0.30095   0.30329   0.35006   0.35053   0.35062
     Eigenvalues ---    0.35125   0.35125   0.35126   0.35159   0.35185
     Eigenvalues ---    0.35245   0.35293   0.35337   0.35358   0.35442
     Eigenvalues ---    0.35481   0.35758   0.35853   0.35857   0.35898
     Eigenvalues ---    0.40976   0.41664   0.42015   0.42211   0.43590
     Eigenvalues ---    0.456111000.000001000.000001000.000001000.00000
     Eigenvalues --- 1000.000001000.000001000.000001000.000001000.00000
     Eigenvalues --- 1000.000001000.000001000.000001000.000001000.00000
     Eigenvalues --- 1000.000001000.000001000.000001000.000001000.00000
     Eigenvalues --- 1000.000001000.000001000.000001000.000001000.00000
     Eigenvalues --- 1000.000001000.000001000.000001000.000001000.00000
     Eigenvalues --- 1000.000001000.000001000.000001000.000001000.00000
     Eigenvalues --- 1000.000001000.000001000.000001000.000001000.00000
     Eigenvalues --- 1000.000001000.000001000.000001000.000001000.00000
     Eigenvalues --- 1000.000001000.000001000.000001000.000001000.00000
     Eigenvalues --- 1000.000001000.000001000.000001000.000001000.00000
     Eigenvalues --- 1000.000001000.000001000.000001000.000001000.00000
     Eigenvalues --- 1000.000001000.000001000.000001000.000001000.00000
     Eigenvalues --- 1000.000001000.000001000.000001000.000001000.00000
     Eigenvalues --- 1000.000001000.000001000.000001000.000001000.00000
     Eigenvalues --- 1000.000001000.000001000.000001000.000001000.00000
     Eigenvalues --- 1000.000001000.000001000.000001000.000001000.00000
     Eigenvalues --- 1000.000001000.000001000.000001000.000001000.00000
     Eigenvalues --- 1000.000001000.000001000.000001000.000001000.00000
     Eigenvalues --- 1000.000001000.000001000.000001000.000001000.00000
 RFO step:  Lambda=-3.23667386D-03 EMin= 6.15256894D-03
 Linear search not attempted -- first point.
 Iteration  1 RMS(Cart)=  0.05757687 RMS(Int)=  0.00072370
 Iteration  2 RMS(Cart)=  0.00220408 RMS(Int)=  0.00002501
 Iteration  3 RMS(Cart)=  0.00000109 RMS(Int)=  0.00002500
 Iteration  4 RMS(Cart)=  0.00000000 RMS(Int)=  0.00002500
 Iteration  1 RMS(Cart)=  0.00002638 RMS(Int)=  0.00000591
 Iteration  2 RMS(Cart)=  0.00001411 RMS(Int)=  0.00000660
 Iteration  3 RMS(Cart)=  0.00000755 RMS(Int)=  0.00000744
 Iteration  4 RMS(Cart)=  0.00000404 RMS(Int)=  0.00000798
 Iteration  5 RMS(Cart)=  0.00000216 RMS(Int)=  0.00000829
 Iteration  6 RMS(Cart)=  0.00000116 RMS(Int)=  0.00000846
 Iteration  7 RMS(Cart)=  0.00000062 RMS(Int)=  0.00000855
 Variable       Old X    -DE/DX   Delta X   Delta X   Delta X     New X
                                 (Linear)    (Quad)   (Total)
    R1        2.88176  -0.00183   0.00000  -0.00671  -0.00673   2.87503
    R2        2.87828  -0.00040   0.00000  -0.00131  -0.00131   2.87697
    R3        2.05417   0.00362   0.00000   0.01019   0.01019   2.06436
    R4        2.04900   0.00388   0.00000   0.01082   0.01082   2.05983
    R5        2.87720  -0.00055   0.00000  -0.00176  -0.00176   2.87545
    R6        2.67187   0.00626   0.00000   0.01479   0.01480   2.68667
    R7        2.04312   0.00450   0.00000   0.01245   0.01245   2.05557
    R8        2.05574   0.00554   0.00000   0.01566   0.01566   2.07140
    R9        2.89248  -0.00107   0.00000  -0.00407  -0.00409   2.88839
   R10        2.87456  -0.00135   0.00000  -0.00300  -0.00298   2.87158
   R11        2.05472   0.00428   0.00000   0.01207   0.01207   2.06679
   R12        2.05132   0.00307   0.00000   0.00861   0.00861   2.05993
   R13        2.87966  -0.00189   0.00000  -0.00693  -0.00695   2.87272
   R14        2.68656   0.00403   0.00000   0.00948   0.00948   2.69604
   R15        2.04461   0.00704   0.00000   0.01952   0.01952   2.06413
   R16        2.05202   0.00336   0.00000   0.00944   0.00944   2.06146
   R17        2.05376   0.00374   0.00000   0.01054   0.01054   2.06429
   R18        2.64916   0.00785   0.00000   0.01868   0.01872   2.66788
   R19        2.68380   0.00550   0.00000   0.01326   0.01329   2.69709
   R20        2.88893  -0.00053   0.00000  -0.00410  -0.00413   2.88480
   R21        2.05098   0.00269   0.00000   0.00753   0.00753   2.05851
   R22        2.05665   0.00327   0.00000   0.00926   0.00926   2.06591
   R23        2.67217   0.00607   0.00000   0.01439   0.01440   2.68657
   R24        2.87176  -0.00043   0.00000  -0.00266  -0.00267   2.86908
   R25        2.05471   0.00328   0.00000   0.00927   0.00927   2.06398
   R26        2.05280   0.00276   0.00000   0.00776   0.00776   2.06055
   R27        2.64572   0.00523   0.00000   0.01140   0.01140   2.65712
   R28        2.04963   0.00765   0.00000   0.02140   0.02140   2.07103
   R29        2.05473   0.00563   0.00000   0.01589   0.01589   2.07062
   R30        2.04241   0.00465   0.00000   0.01283   0.01283   2.05524
   R31        2.05590   0.00555   0.00000   0.01570   0.01570   2.07159
   R32        2.04305   0.00454   0.00000   0.01255   0.01255   2.05560
    A1        1.92465  -0.00021   0.00000  -0.00523  -0.00529   1.91937
    A2        1.90176   0.00013   0.00000  -0.00338  -0.00335   1.89841
    A3        1.93779  -0.00088   0.00000  -0.00563  -0.00560   1.93218
    A4        1.90877   0.00004   0.00000   0.00170   0.00168   1.91045
    A5        1.90724   0.00058   0.00000   0.00558   0.00558   1.91282
    A6        1.88298   0.00035   0.00000   0.00728   0.00724   1.89022
    A7        1.94275   0.00117   0.00000   0.00528   0.00526   1.94801
    A8        1.93617  -0.00037   0.00000  -0.00319  -0.00319   1.93298
    A9        1.93005  -0.00130   0.00000  -0.00850  -0.00850   1.92155
   A10        1.86082  -0.00068   0.00000  -0.00052  -0.00051   1.86031
   A11        1.90310   0.00063   0.00000   0.00435   0.00437   1.90748
   A12        1.88877   0.00059   0.00000   0.00298   0.00295   1.89172
   A13        1.92961  -0.00072   0.00000  -0.00416  -0.00422   1.92539
   A14        1.92418   0.00105   0.00000   0.00505   0.00502   1.92919
   A15        1.93660   0.00004   0.00000   0.00414   0.00414   1.94074
   A16        1.89150  -0.00082   0.00000  -0.00959  -0.00956   1.88193
   A17        1.89891   0.00023   0.00000  -0.00236  -0.00235   1.89656
   A18        1.88174   0.00022   0.00000   0.00678   0.00673   1.88847
   A19        1.91074   0.00224   0.00000   0.00309   0.00306   1.91380
   A20        1.93921  -0.00076   0.00000  -0.00194  -0.00192   1.93729
   A21        1.91523  -0.00095   0.00000  -0.00529  -0.00529   1.90994
   A22        1.88391  -0.00062   0.00000   0.00058   0.00060   1.88451
   A23        1.90079  -0.00060   0.00000  -0.00032  -0.00032   1.90047
   A24        1.91333   0.00071   0.00000   0.00403   0.00402   1.91734
   A25        1.92711  -0.00033   0.00000  -0.00614  -0.00619   1.92091
   A26        1.90990   0.00052   0.00000   0.00470   0.00470   1.91460
   A27        1.90987   0.00005   0.00000   0.00154   0.00151   1.91138
   A28        1.92518  -0.00066   0.00000  -0.00325  -0.00323   1.92195
   A29        1.90798   0.00015   0.00000  -0.00336  -0.00334   1.90464
   A30        1.88321   0.00029   0.00000   0.00683   0.00681   1.89002
   A31        1.98181  -0.00523   0.00000  -0.02478  -0.02471   1.95709
   A32        1.92130   0.00190   0.00000  -0.00273  -0.00281   1.91849
   A33        1.92347  -0.00050   0.00000   0.00095   0.00099   1.92446
   A34        1.90949  -0.00081   0.00000  -0.00238  -0.00238   1.90711
   A35        1.93321  -0.00043   0.00000   0.00049   0.00050   1.93371
   A36        1.90869  -0.00080   0.00000  -0.00108  -0.00106   1.90763
   A37        1.86678   0.00056   0.00000   0.00490   0.00489   1.87166
   A38        1.97003  -0.00459   0.00000  -0.02458  -0.02454   1.94549
   A39        1.92031   0.00018   0.00000  -0.00415  -0.00420   1.91611
   A40        1.91944   0.00058   0.00000   0.00160   0.00161   1.92105
   A41        1.93804  -0.00070   0.00000  -0.00039  -0.00038   1.93766
   A42        1.90445  -0.00040   0.00000  -0.00216  -0.00216   1.90228
   A43        1.90439   0.00004   0.00000   0.00007   0.00011   1.90450
   A44        1.87641   0.00029   0.00000   0.00518   0.00517   1.88158
   A45        1.92464   0.00211   0.00000   0.00045   0.00032   1.92496
   A46        1.94184   0.00055   0.00000  -0.00622  -0.00633   1.93552
   A47        1.92728  -0.00024   0.00000   0.00086   0.00083   1.92812
   A48        1.92030  -0.00260   0.00000  -0.01785  -0.01790   1.90240
   A49        1.90304  -0.00057   0.00000   0.00998   0.01004   1.91308
   A50        1.84496   0.00062   0.00000   0.01344   0.01351   1.85847
   A51        1.93803   0.00107   0.00000   0.00395   0.00392   1.94196
   A52        1.90141   0.00075   0.00000   0.00388   0.00391   1.90531
   A53        1.84801  -0.00083   0.00000  -0.00005  -0.00004   1.84798
   A54        1.93158  -0.00145   0.00000  -0.00753  -0.00752   1.92406
   A55        1.95103  -0.00004   0.00000  -0.00257  -0.00258   1.94845
   A56        1.89102   0.00055   0.00000   0.00283   0.00281   1.89383
   A57        1.94418   0.00099   0.00000   0.00398   0.00397   1.94816
   A58        1.93020  -0.00127   0.00000  -0.00807  -0.00808   1.92211
   A59        1.93573  -0.00024   0.00000  -0.00242  -0.00242   1.93332
   A60        1.90288   0.00066   0.00000   0.00435   0.00437   1.90725
   A61        1.86035  -0.00064   0.00000  -0.00046  -0.00046   1.85989
   A62        1.88826   0.00055   0.00000   0.00303   0.00301   1.89127
   A63        2.11376  -0.01410   0.00000  -0.05569  -0.05569   2.05807
    D1       -0.92043   0.00002   0.00000  -0.00721  -0.00719  -0.92762
    D2       -2.99960  -0.00017   0.00000  -0.00870  -0.00869  -3.00830
[...]
 .00268114,-0.01850686,0.00000102,0.00000372,-0.00001587,-0.00027950,-0
 .00001939,-0.00006373,-0.00000109,0.00000004,0.00000044,0.00000078,-0.
 00000334,-0.00000230,-0.00000323,0.00000059,0.00000297,-0.00000045,0.0
 0000080,0.00000484,-0.00044122,-0.00005828,-0.00007249,-0.00013117,-0.
 00011375,0.00020449,-0.00001918,0.00000109,-0.00001749,0.00000041,-0.0
 0000306,-0.00000062,-0.00000022,-0.00000115,0.00000043,-0.00011291,-0.
 00004825,0.00081799,-0.00017955,-0.00262741,-0.00014921,-0.10807708,-0
 .01566901,0.28633101,-0.00003903,0.00002004,0.00004489,0.00000343,-0.0
 0002001,-0.00001173,0.00128001,0.00026944,0.00004468,0.00018004,-0.000
 00189,-0.00011545,-0.00002086,0.00002437,0.00001107,-0.00311732,0.0018
 3344,-0.00386921,0.00287733,0.00105372,0.00061127,-0.00002198,-0.00000
 415,0.00000931,-0.28212701,-0.08542761,-0.02645880,0.00044036,0.001466
 92,0.00108657,-0.01453687,-0.00800097,0.00119477,0.00000972,0.00000668
 ,-0.00003258,-0.00035118,-0.00025457,-0.00003927,-0.00000952,-0.000001
 03,-0.00000779,-0.00001913,-0.00003358,-0.00000042,-0.00000907,0.00000
 121,0.00000503,0.00000008,0.00000075,0.00000253,0.00009302,0.00004097,
 0.00002824,-0.00006013,0.00017819,0.00004431,0.00000265,0.00001307,-0.
 00001509,0.00000031,-0.00000462,0.00000085,-0.00000660,-0.00000683,-0.
 00000256,0.00021793,-0.00053063,-0.00014030,0.00047007,-0.00028303,-0.
 00033200,-0.01109334,-0.00350391,-0.00109310,0.30473071,-0.00000306,-0
 .00001708,0.00000199,-0.00000091,-0.00000414,0.00000160,0.00185930,-0.
 00532173,-0.00329946,-0.00003089,-0.00004176,-0.00004821,-0.00000116,0
 .00000408,0.00001986,0.00558168,-0.00120207,0.00443194,-0.02906307,-0.
 00944761,-0.00274331,0.00001200,0.00000712,-0.00000765,-0.08591923,-0.
 07832014,-0.00783765,0.00070016,-0.00227612,-0.00016538,0.01793346,0.0
 0879336,-0.00060280,-0.00000391,0.00001425,0.00001143,-0.00019333,0.00
 058425,0.00006728,0.00000605,0.00000233,0.00000466,0.00002174,0.000031
 40,0.00000105,0.00000012,0.00000029,-0.00000045,0.00000010,-0.00000006
 ,-0.00000062,0.00022364,0.00007597,0.00017414,-0.00191450,-0.00039766,
 -0.00074101,0.00000551,-0.00000871,0.00002440,0.00000343,0.00000287,-0
 .00000169,0.00000554,0.00000486,-0.00000209,0.00026846,0.00105435,0.00
 092633,0.00046770,0.00143013,0.00026517,-0.00153950,-0.00135921,0.0000
 2180,0.09308216,0.08505778,-0.00004701,0.00001870,0.00005019,0.0000023
 1,-0.00001823,-0.00001423,0.00062303,-0.00253975,-0.00053148,0.0001683
 1,-0.00000685,-0.00012063,-0.00002031,0.00002386,0.00001353,-0.0043504
 9,0.00171294,-0.00217032,-0.01345001,-0.00460973,-0.00290787,-0.000020
 43,-0.00000357,0.00001028,-0.02366872,-0.00714294,-0.05090418,0.000653
 29,0.00104222,0.00099540,-0.01536737,-0.00854951,-0.00181660,0.0000069
 7,0.00000749,-0.00003403,-0.00039106,-0.00018851,-0.00005134,-0.000008
 19,-0.00000100,-0.00000668,-0.00001850,-0.00003115,-0.00000164,-0.0000
 0829,0.00000145,0.00000548,0.00000049,0.00000102,0.00000339,-0.0003412
 4,-0.00003856,0.00010958,-0.00073319,-0.00027421,0.00004470,-0.0000144
 9,0.00001140,-0.00002037,0.00000051,-0.00000531,-0.00000063,-0.0000052
 3,-0.00000805,-0.00000097,0.00040942,0.00034813,0.00032479,-0.00023357
 ,0.00071051,0.00049175,0.02675564,0.00948193,0.00435531,0.02896554,0.0
 1061617,0.05138595,-0.00013271,-0.00007948,0.00036945,-0.00020925,-0.0
 0091398,-0.00025619,0.00754895,0.00350260,-0.01288831,0.00052337,-0.00
 616608,-0.00242797,-0.00141173,0.00107644,0.00158438,0.00219094,0.0014
 4680,0.00219490,0.00148282,-0.00021211,0.00012095,-0.00010591,0.000119
 80,0.00002156,-0.00013855,0.00023134,0.00000752,-0.08957343,-0.0137065
 0,0.08677044,0.00168158,-0.00061438,-0.00174481,0.00011209,0.00018233,
 -0.00031242,-0.03597331,-0.00467741,0.02765389,-0.00003250,0.00004352,
 -0.00007835,0.00003694,0.00007851,-0.00007315,-0.00027865,0.00009114,0
 .00015847,0.00001423,0.00001613,0.00003168,-0.00104077,0.00235624,-0.0
 0200435,0.00031848,-0.00022109,0.00067453,-0.00016114,0.00014317,0.000
 37249,0.00006837,-0.00002184,0.00000380,-0.00000266,-0.00001999,-0.000
 08569,0.00013769,0.00002075,0.00019308,0.00001752,0.00009306,0.0002809
 4,-0.00008217,-0.00007363,0.00010561,0.00001661,-0.00003629,0.00001169
 ,0.11427246,-0.00002120,-0.00013726,0.00011341,-0.00004973,-0.00020692
 ,-0.00005737,-0.00832969,-0.00205287,0.02369334,0.00088253,-0.00142932
 ,-0.00066728,-0.00030763,0.00020183,0.00031358,0.01020243,-0.01076583,
 -0.03989956,-0.00091200,0.00005298,-0.00033912,-0.00000214,0.00002608,
 -0.00000190,-0.00051633,-0.00028165,0.00008642,-0.01610717,-0.05879788
 ,0.04063754,0.00524312,0.00199667,-0.00086702,0.00002348,0.00006680,-0
 .00006681,-0.00912302,0.00390023,0.00489600,0.00000272,0.00001819,-0.0
 0002310,0.00006374,0.00007062,-0.00001001,-0.00006266,0.00002394,0.000
 03372,0.00000414,0.00000145,0.00000406,0.00253787,-0.00269583,0.003019
 13,-0.00050145,0.00101249,-0.00087517,-0.00003172,0.00001656,0.0002142
 8,0.00000816,0.00000094,0.00000076,-0.00000232,-0.00000491,-0.00002140
 ,0.00027004,-0.00001915,-0.00027107,0.00038635,0.00022271,-0.00034848,
 -0.00001297,-0.00004301,0.00004156,-0.00013608,0.00023561,-0.00003861,
 0.01685459,0.06844911,0.00003806,-0.00001349,-0.00005004,-0.00005624,-
 0.00010782,-0.00002157,0.00786251,0.00445050,-0.01473550,-0.00182041,-
 0.00035962,0.00112580,-0.00019934,0.00008241,0.00022261,0.00550859,-0.
 01433884,-0.02006857,0.00054715,-0.00025842,0.00021964,0.00001235,0.00
 001714,-0.00000587,-0.00033126,-0.00019211,0.00006600,0.09401657,0.038
 57534,-0.25387649,0.00248867,0.00102963,0.00066387,0.00002871,-0.00000
 332,-0.00003089,-0.00314440,-0.00010212,0.01089563,0.00000573,0.000024
 49,-0.00001939,-0.00000210,0.00005651,-0.00000915,-0.00003945,0.000008
 84,0.00001422,0.00000672,-0.00000384,-0.00000212,-0.00153058,0.0022743
 9,-0.00080914,-0.00014513,0.00035173,0.00059401,-0.00019078,0.00000533
 ,0.00014494,0.00000223,0.00000121,0.00000212,0.00000566,0.00000554,-0.
 00001053,-0.00023437,0.00000551,0.00017636,-0.00045774,-0.00018884,0.0
 0005970,0.00012276,0.00005391,-0.00005631,-0.00010088,0.00000926,-0.00
 009993,-0.10099504,-0.03096781,0.27525838,-0.00003840,-0.00002838,0.00
 009474,0.00002719,-0.00003343,-0.00003200,0.00002328,-0.00037630,-0.00
 044362,0.00018684,-0.00005085,0.00007547,-0.00003696,0.00003752,-0.000
 15429,-0.03446645,-0.01434638,0.02480523,0.00031624,-0.00096015,-0.000
 27853,-0.00004881,-0.00000710,0.00002155,0.00868725,0.00324084,-0.0165
 6857,0.00025601,0.00498447,0.00435611,-0.08763891,-0.01133493,0.090353
 85,0.00002619,0.00001761,-0.00007216,-0.00039515,-0.00022529,-0.000419
 09,-0.00003059,0.00001296,-0.00002508,-0.00000869,-0.00006800,0.000007
 66,-0.00001940,0.00000315,0.00001122,0.00000166,0.00000427,0.00000633,
 -0.00003400,0.00003916,0.00000567,0.00015850,-0.00019795,0.00008618,-0
 .00010129,-0.00001398,-0.00026698,0.00000126,-0.00001650,0.00000499,-0
 .00005762,-0.00005846,0.00000012,-0.00006164,-0.00014040,0.00005086,-0
 .00011582,-0.00016513,0.00032433,-0.00111270,0.00331952,-0.00222040,0.
 00073599,-0.00075820,0.00080499,0.00063638,-0.00027981,-0.00100948,0.1
 1284296,0.00000477,-0.00001143,0.00001912,0.00000502,-0.00000763,-0.00
 000830,0.00003998,-0.00033658,-0.00021129,-0.00004570,-0.00007836,0.00
 000906,-0.00002397,0.00001460,-0.00005846,-0.01249590,-0.00236705,0.00
 800443,-0.00093795,0.00110080,0.00066787,-0.00001096,-0.00000066,0.000
 00519,-0.00750583,-0.00258979,0.02037505,-0.00156710,0.00122797,0.0031
 9882,-0.00882191,-0.05812069,0.02225155,0.00000443,-0.00000156,-0.0000
 1546,-0.00000372,-0.00005701,-0.00012239,-0.00000660,0.00000411,-0.000
 00628,-0.00000138,-0.00001475,0.00000154,-0.00000411,0.00000132,0.0000
 0350,0.00000069,0.00000082,0.00000197,0.00001033,0.00004163,-0.0000876
 9,0.00003191,-0.00007166,-0.00000599,-0.00000430,-0.00002012,-0.000102
 45,0.00000207,-0.00000173,0.00000185,-0.00002043,-0.00001785,0.0000026
 5,0.00010649,0.00018017,-0.00018631,0.00016083,0.00004979,-0.00021942,
 0.00210101,-0.00197285,0.00251939,-0.00002148,0.00073297,-0.00059730,0
 .00034052,0.00020223,-0.00021520,0.01683247,0.05675298,0.00001196,-0.0
 0001445,-0.00003154,-0.00000949,0.00000064,0.00000041,0.00004233,0.000
 00852,-0.00003808,-0.00022724,-0.00016250,-0.00006310,-0.00004366,0.00
 000235,-0.00000416,0.00014479,-0.00064828,0.00913451,0.00035886,-0.001
 05175,0.00093795,0.00001047,0.00000298,-0.00000135,0.00726925,0.001760
 40,-0.01840261,-0.00167286,-0.00032154,0.00222496,0.09423059,0.0249025
 4,-0.25728940,-0.00000411,-0.00001062,0.00001410,0.00007522,0.00021779
 ,0.00033988,0.00000555,0.00000260,0.00000805,0.00000480,0.00001317,-0.
 00000110,0.00000212,0.00000106,0.00000083,0.00000014,0.00000003,0.0000
 0071,-0.00000886,-0.00005364,-0.00017805,0.00012265,0.00005384,0.00001
 693,0.00006261,-0.00001463,-0.00001046,0.00000290,0.00000585,0.0000000
 4,-0.00000068,0.00000183,0.00000294,-0.00024990,-0.00005370,0.00021777
 ,0.00002060,0.00053006,0.00051831,-0.00235427,0.00284793,-0.00108735,-
 0.00018251,-0.00018353,0.00040402,0.00039331,0.00116745,0.00006284,-0.
 10285269,-0.03059150,0.27453068,-0.00006379,-0.00000193,0.00009736,0.0
 0000149,-0.00006591,-0.00001649,-0.00032703,-0.00052407,-0.00036471,0.
 00062532,-0.00005272,-0.00045216,-0.00006722,0.00008360,0.00009072,-0.
 00675022,-0.03965580,-0.02129937,-0.00166515,0.00196771,-0.00355102,-0
 .00001559,0.00001164,0.00000425,-0.00007961,0.01498827,0.00974176,-0.0
 0452532,0.00183844,0.00189630,-0.05176843,0.03642258,0.02039264,0.0000
 0412,0.00004559,-0.00004528,-0.00170130,-0.00224517,-0.00097931,-0.000
 00198,0.00000281,-0.00000936,0.00000923,0.00001097,-0.00000369,-0.0000
 2265,0.00000506,0.00001308,-0.00000247,0.00000216,0.00000619,0.0000705
 0,0.00001812,0.00002848,0.00026761,-0.00016222,0.00016035,-0.00000220,
 0.00003934,0.00004476,0.00000601,-0.00000762,-0.00000077,0.00000161,0.
 00000042,-0.00000184,0.00022481,0.00139953,0.00042389,-0.00000011,-0.0
 0033337,-0.00015634,0.00058766,-0.00077067,-0.00021493,0.00036455,-0.0
 0070719,0.00028700,0.00020705,-0.00005535,-0.00038617,0.00029288,0.011
 83486,0.00484336,0.06435528,-0.00006501,0.00001912,0.00006908,0.000002
 38,-0.00004061,-0.00001967,0.00026146,0.00043238,-0.00010921,0.0003541
 8,-0.00005224,-0.00026308,-0.00004305,0.00005467,0.00003625,-0.0057685
 4,-0.01214377,-0.00749918,0.00262261,-0.00111050,0.00362121,-0.0000218
 3,0.00000226,0.00001296,0.00287242,-0.01671732,-0.00928715,-0.00118749
 ,0.00307737,0.00229061,0.02587997,-0.26390260,-0.10753486,0.00000453,0
 .00001314,-0.00004924,-0.00080924,-0.00077555,-0.00037287,-0.00000960,
 0.00000142,-0.00000808,-0.00002498,-0.00003640,-0.00000510,-0.00001536
 ,0.00000369,0.00000946,-0.00000073,0.00000164,0.00000529,-0.00007038,-
 0.00001823,0.00001530,-0.00001775,-0.00010054,-0.00003397,-0.00001305,
 0.00001484,-0.00000544,0.00000331,-0.00000551,-0.00000058,-0.00000594,
 -0.00000817,-0.00000165,-0.00003064,-0.00120516,-0.00066013,0.00003787
 ,0.00009238,-0.00014233,-0.00075075,0.00088721,-0.00014637,0.00023563,
 0.00036522,0.00007329,0.00010956,-0.00006804,-0.00020063,0.00056141,0.
 00535861,0.00158834,-0.02409422,0.28585405,-0.00001822,-0.00000027,0.0
 0002720,-0.00000263,-0.00003248,-0.00000956,-0.00013018,-0.00015879,-0
 .00021418,0.00013001,-0.00012545,-0.00011851,-0.00004743,0.00004582,0.
 00003671,-0.00235925,-0.00505787,-0.00205195,-0.00230225,0.00195348,-0
 .00208199,-0.00001039,0.00000414,0.00000338,-0.00155831,0.01911293,0.0
 0984156,-0.00077854,0.00107591,0.00092364,0.01403091,-0.11001497,-0.10
 779387,0.00000478,0.00000401,-0.00001970,-0.00043590,-0.00056910,0.000
 08921,-0.00000513,0.00000004,-0.00000499,-0.00000945,-0.00001625,-0.00
 000061,-0.00001118,0.00000287,0.00000652,0.,0.00000163,0.00000232,0.00
 006133,-0.00000611,0.00000718,0.00010363,-0.00004594,0.00003014,-0.000
 00628,0.00001272,-0.00000452,0.00000257,-0.00000146,0.00000026,-0.0000
 0237,-0.00000371,-0.00000379,-0.00012601,0.00108321,0.00049414,-0.0001
 1841,0.00012217,0.00023074,0.00068882,-0.00062085,0.00106387,0.0003440
 7,-0.00094295,0.00047590,-0.00018462,0.00021372,0.00028461,0.00331509,
 -0.02463892,-0.01130623,-0.01056747,0.11859883,0.11008524,0.00806408,0
 .00470718,0.02570921,-0.00052164,0.00359030,-0.00076927,-0.00002840,-0
 .00001197,0.00000058,0.00117186,-0.00061640,0.00074527,-0.00006102,-0.
 00025368,0.00035608,-0.00000131,0.00000074,-0.00000794,-0.00000255,0.0
 0000836,-0.00000490,-0.01597758,-0.01853077,-0.02209884,-0.00000119,-0
 .00000031,0.00000166,0.00001123,0.00005398,-0.00005580,0.00000190,0.00
 000057,-0.00000103,-0.07009987,-0.00732033,-0.06748219,-0.00021226,-0.
 00003581,-0.00030521,-0.00377903,0.00176392,0.00320027,0.00101363,-0.0
 0046959,-0.00099910,0.00002590,-0.00005471,0.00031889,0.00055670,-0.00
 023011,0.00071959,0.00000129,-0.00000057,-0.00000025,-0.00000052,-0.00
 000012,0.00000031,-0.00006195,-0.00009749,-0.00028420,0.00018018,-0.00
 000194,-0.00008627,-0.00005142,0.00001351,-0.00011242,-0.00000374,-0.0
 0000045,-0.00000093,-0.00000015,0.00000007,-0.00000040,-0.00000068,0.0
 0000034,-0.00000114,-0.00000002,0.,-0.00000077,0.00000209,0.00000057,0
 .00000181,0.00000098,0.00000062,-0.00000191,-0.00000210,-0.00000043,0.
 00000041,0.08343592,-0.00077644,0.00046624,-0.00646346,-0.00253513,0.0
 0291542,-0.00426800,0.00000618,0.00000462,-0.00000415,-0.00064301,-0.0
 0013953,-0.00059136,0.00031383,-0.00042837,0.00033639,0.00000310,-0.00
 001300,-0.00000131,-0.00000039,-0.00000089,0.00000231,-0.02036361,-0.0
 1818005,-0.02437489,0.00000039,0.00000010,-0.00000109,0.00002003,0.000
 00044,0.00000528,0.00000124,0.00000144,0.00000101,-0.00402889,-0.05672
 924,-0.02986749,0.00006093,0.00004112,0.00011677,0.00056045,0.00086454
 ,-0.00067817,0.00017688,0.00030077,0.00006151,0.00007994,0.00006638,0.
 00024834,0.00046159,0.00057611,0.00074702,-0.00000140,-0.00000051,0.00
 000125,-0.00000077,-0.00000026,0.00000086,0.00003913,0.00004210,-0.000
 08579,0.00019028,-0.00003051,-0.00004739,-0.00003357,0.00000775,0.0000
 9182,0.00000118,-0.00000026,-0.00000012,-0.00000048,-0.00000010,0.0000
 0019,-0.00000028,-0.00000022,0.00000079,-0.00000019,0.00000006,0.00000
 020,-0.00000041,0.00000038,0.00000023,-0.00000051,-0.00000034,0.000000
 51,-0.00000097,0.00000025,0.00000066,0.01949404,0.06416831,-0.00490914
 ,-0.00249721,-0.01973662,0.00105370,0.00091914,0.00206128,0.00005197,0
 .00002236,0.00001099,-0.00145173,0.00095346,0.00034356,0.00004279,-0.0
 0005455,-0.00011362,0.00012142,0.00002452,0.00002079,-0.00000069,-0.00
 001779,0.00001130,-0.00451075,-0.00397919,0.00471260,0.00001151,0.0000
 0409,-0.00000777,-0.00015635,-0.00011120,-0.00006293,-0.00002978,-0.00
 002941,-0.00000635,-0.06940937,-0.03346741,-0.27346527,0.00060367,0.00
 000475,0.00014562,0.00348330,-0.00093724,-0.00129386,0.00007519,0.0001
 7953,0.00039877,0.00014955,-0.00016603,0.00035904,0.00032155,-0.001248
 98,-0.00015083,0.00000168,-0.00000322,-0.00000184,0.00000064,0.0000005
 7,-0.00000067,0.00030132,-0.00054309,0.00038672,-0.00005598,-0.0001295
 7,-0.00001904,-0.00002312,0.00007680,-0.00014514,0.00001012,0.00000112
 ,0.00000296,0.00000103,0.00000119,-0.00000027,-0.00000082,-0.00000088,
 0.00000506,0.00000342,-0.00000060,0.00000435,0.00003139,0.00000387,0.0
 0000249,0.00000558,0.00000252,0.00000070,0.00000611,0.00000961,0.00000
 351,0.07666035,0.04178790,0.29486467,-0.01309135,0.02068417,-0.0094665
 1,-0.00284144,-0.00262168,-0.00037587,-0.00017547,-0.00009999,-0.00003
 440,-0.00112700,-0.00248169,0.00402876,-0.00007303,-0.00059117,0.00006
 694,-0.00026570,-0.00026169,-0.00013064,0.00000141,0.00006451,-0.00005
 314,0.01186736,-0.02707378,0.00997557,-0.00002582,-0.00000667,0.000012
 09,0.00096510,0.00058231,0.00028231,0.00012789,0.00005721,0.00001599,-
 0.12730795,0.12057162,-0.05110620,-0.00256786,0.00204976,0.00065247,0.
 00132540,-0.00052615,0.00000843,0.00065024,-0.00052092,-0.00036266,0.0
 0048663,-0.00110779,0.00034319,0.00004740,0.00001427,0.00022191,0.0000
 0175,0.00000126,-0.00000097,-0.00000324,-0.00000793,0.00000494,0.00004
 550,-0.00021388,-0.00005749,0.00023064,0.00012604,-0.00015832,0.000078
 27,0.00008235,-0.00001001,-0.00003725,-0.00000472,-0.00001127,-0.00000
 350,-0.00000188,0.00000452,0.00000267,-0.00000021,-0.00000351,-0.00001
 074,0.00000020,-0.00001031,-0.00012478,-0.00002846,-0.00000416,-0.0000
 2716,-0.00000468,0.00000668,-0.00002295,-0.00001634,-0.00000759,-0.003
 66032,0.00697686,-0.00238855,0.13553532,0.00417563,-0.00299472,0.00108
 922,-0.00551946,-0.00042043,-0.00172235,0.00004158,0.00002204,0.000010
 08,-0.00016179,0.00175135,-0.00064208,-0.00008408,0.00007492,0.0002112
 6,0.00012187,0.00005570,0.00003068,-0.00000282,-0.00001545,0.00001128,
 0.00860950,-0.03200314,0.01119647,0.00000975,0.00000436,-0.00000391,-0
 .00021791,-0.00007405,-0.00006614,-0.00003714,-0.00002646,-0.00000570,
 0.10914344,-0.21371491,0.06723088,0.00048075,-0.00026717,0.00000806,-0
 .00037577,0.00010149,0.00009201,0.00034703,0.00018793,-0.00023321,0.00
 063747,-0.00140332,0.00051786,0.00017460,0.00004428,0.00025035,-0.0000
 0235,-0.00000029,-0.00000051,-0.00000124,0.00000068,-0.00000133,0.0000
 3154,-0.00011742,0.00013723,0.00020353,-0.00003753,-0.00008876,0.00001
 149,-0.00000514,-0.00004856,0.00000910,0.00000079,0.00000276,0.0000014
 4,0.00000073,-0.00000150,-0.00000088,-0.00000034,0.00000148,0.00000400
 ,-0.00000060,0.00000397,0.00003668,0.00000386,0.00000009,0.00000840,0.
 00000208,-0.00000176,0.00000611,0.00000640,0.00000296,-0.00200954,0.00
 606725,-0.00080505,-0.11564093,0.24275712,0.01241365,-0.01874027,0.007
 24355,0.00075592,-0.00018006,0.00061735,0.00010369,0.00005874,0.000022
 95,0.00182973,0.00155691,-0.00220018,-0.00005078,0.00013242,-0.0001508
 2,0.00013452,0.00014675,0.00006812,0.00000166,-0.00003712,0.00003459,0
 .00075697,0.00004640,0.00085042,0.00001368,0.00000322,-0.00000809,-0.0
 0052085,-0.00038124,-0.00018518,-0.00006614,-0.00002896,-0.00000891,-0
 .04880639,0.07246505,-0.08161015,0.00191666,-0.00129468,-0.00041998,-0
 .00101016,0.00004385,0.00104621,-0.00077289,0.00058519,0.00058396,-0.0
 0007952,0.00024203,0.00029149,0.00021300,-0.00016703,0.00035946,-0.000
 00126,-0.00000287,0.00000277,0.00000376,0.00000768,-0.00000298,0.00009
 979,-0.00020075,0.00034034,-0.00004805,-0.00005385,0.00000861,-0.00006
 683,-0.00003724,-0.00001091,0.00002237,0.00000279,0.00000678,0.0000011
 3,0.00000076,-0.00000184,-0.00000114,-0.00000008,0.00000293,0.00000512
 ,0.00000035,0.00000628,0.00007082,0.00001584,0.00000227,0.00001292,0.0
 0000247,-0.00000220,0.00001267,0.00000933,0.00000379,-0.01550187,0.022
 98016,-0.00833020,0.04855782,-0.07717578,0.08143958\\0.00000679,-0.000
 00855,0.00001300,0.00002036,0.00000658,-0.00000767,0.00001008,0.000005
 23,0.00000273,0.00061440,-0.00378145,0.00228279,-0.00002157,0.00000233
 ,0.00000877,0.00013235,0.00211888,-0.00368862,-0.00000709,0.00000880,-
 0.00001205,0.00000360,0.00000819,-0.00000090,-0.00001094,0.00000541,-0
 .00001370,0.00007780,-0.00465536,0.00606714,0.00003413,-0.00000221,0.0
 0001787,-0.00001183,-0.00002229,-0.00000072,-0.00086289,0.00633000,-0.
 00466632,-0.00000670,0.00000077,-0.00001027,-0.00000174,0.00000681,0.0
 0000262,-0.00000556,-0.00001268,-0.00001089,-0.00000098,0.00000078,0.0
 0000815,-0.00000168,-0.00000479,0.00000834,0.00000628,-0.00000608,-0.0
 0001032,0.00000581,-0.00000189,0.00001547,0.00001057,-0.00000292,0.000
 00030,0.00000130,0.00000182,-0.00001563,-0.00000029,-0.00000853,0.0000
 0935,0.00000148,0.00000275,-0.00000040,-0.00000389,-0.00000136,0.00000
 857,0.00000874,-0.00000459,0.00000321,0.00001163,-0.00000144,-0.000020
 57,-0.00000108,0.00000031,-0.00000745,-0.00000859,0.00000852,0.0000088
 9,0.00000336,-0.00000373,0.00001263,-0.00000386,0.00001069,-0.00000431
 \\\@


 "PERFECTION IS NOT AN ACCIDENT"
         --  EAGLE ELECTRIC MANUFACTURING CO.,INC. NY
 Job cpu time:       0 days 12 hours 33 minutes 49.7 seconds.
 Elapsed time:       0 days  1 hours  3 minutes  7.9 seconds.
 File lengths (MBytes):  RWF=    721 Int=      0 D2E=      0 Chk=     34 Scr=      1
 Normal termination of Gaussian 16 at Sat Mar  9 08:15:08 2019.
