 Entering Gaussian System, Link 0=g16
 Initial command:
 /sw/Projects/G16/g16/l1.exe "/nvme/pbs/tmpdir/pbs.74204[24].flm1/Gau-1951.inp" -scrdir="/nvme/pbs/tmpdir/pbs.74204[24].flm1/"
 Entering Link 1 = /sw/Projects/G16/g16/l1.exe PID=      1952.
  
 Copyright (c) 1988-2017, Gaussian, Inc.  All Rights Reserved.
  
 This is part of the Gaussian(R) 16 program.  It is based on
 the Gaussian(R) 09 system (copyright 2009, Gaussian, Inc.),
 the Gaussian(R) 03 system (copyright 2003, Gaussian, Inc.),
 the Gaussian(R) 98 system (copyright 1998, Gaussian, Inc.),
 the Gaussian(R) 94 system (copyright 1995, Gaussian, Inc.),
 the Gaussian 92(TM) system (copyright 1992, Gaussian, Inc.),
 the Gaussian 90(TM) system (copyright 1990, Gaussian, Inc.),
 the Gaussian 88(TM) system (copyright 1988, Gaussian, Inc.),
 the Gaussian 86(TM) system (copyright 1986, Carnegie Mellon
 University), and the Gaussian 82(TM) system (copyright 1983,
 Carnegie Mellon University). Gaussian is a federally registered
 trademark of Gaussian, Inc.
  
 This software contains proprietary and confidential information,
 including trade secrets, belonging to Gaussian, Inc.
  
 This software is provided under written license and may be
 used, copied, transmitted, or stored only in accord with that
 written license.
  
 The following legend is applicable only to US Government
 contracts under FAR:
  
                    RESTRICTED RIGHTS LEGEND
  
 Use, reproduction and disclosure by the US Government is
 subject to restrictions as set forth in subparagraphs (a)
 and (c) of the Commercial Computer Software - Restricted
 Rights clause in FAR 52.227-19.
  
 Gaussian, Inc.
 340 Quinnipiac St., Bldg. 40, Wallingford CT 06492
  
  
 ---------------------------------------------------------------
 Warning -- This program may not be used in any manner that
 competes with the business of Gaussian, Inc. or will provide
 assistance to any competitor of Gaussian, Inc.  The licensee
 of this program is prohibited from giving any competitor of
 Gaussian, Inc. access to this program.  By using this program,
 the user acknowledges that Gaussian, Inc. is engaged in the
 business of creating and licensing software in the field of
 computational chemistry and represents and warrants to the
 licensee that it is not a competitor of Gaussian, Inc. and that
 it will not use this program in any manner prohibited above.
 ---------------------------------------------------------------
  

 Cite this work as:
 Gaussian 16, Revision B.01,
 M. J. Frisch, G. W. Trucks, H. B. Schlegel, G. E. Scuseria, 
 M. A. Robb, J. R. Cheeseman, G. Scalmani, V. Barone, 
 G. A. Petersson, H. Nakatsuji, X. Li, M. Caricato, A. V. Marenich, 
 J. Bloino, B. G. Janesko, R. Gomperts, B. Mennucci, H. P. Hratchian, 
 J. V. Ortiz, A. F. Izmaylov, J. L. Sonnenberg, D. Williams-Young, 
 F. Ding, F. Lipparini, F. Egidi, J. Goings, B. Peng, A. Petrone, 
 T. Henderson, D. Ranasinghe, V. G. Zakrzewski, J. Gao, N. Rega, 
 G. Zheng, W. Liang, M. Hada, M. Ehara, K. Toyota, R. Fukuda, 
 J. Hasegawa, M. Ishida, T. Nakajima, Y. Honda, O. Kitao, H. Nakai, 
 T. Vreven, K. Throssell, J. A. Montgomery, Jr., J. E. Peralta, 
 F. Ogliaro, M. J. Bearpark, J. J. Heyd, E. N. Brothers, K. N. Kudin, 
 V. N. Staroverov, T. A. Keith, R. Kobayashi, J. Normand, 
 K. Raghavachari, A. P. Rendell, J. C. Burant, S. S. Iyengar, 
 J. Tomasi, M. Cossi, J. M. Millam, M. Klene, C. Adamo, R. Cammi, 
 J. W. Ochterski, R. L. Martin, K. Morokuma, O. Farkas, 
 J. B. Foresman, and D. J. Fox, Gaussian, Inc., Wallingford CT, 2016.
 
 ******************************************
 Gaussian 16:  ES64L-G16RevB.01 20-Dec-2017
                 9-Mar-2019 
 ******************************************
 %mem=20gb
 %nproc=12
 Will use up to   12 processors via shared memory.
 %chk=4c1_b1_e3_4c1_PHI.inp_extract_24.chk
 ----------------------------------------------------------------------
 #M062X/6-311++G(2d,2p) opt=ModRedundant freq=noraman SCRF=(SMD,solvent
 =water)
 ----------------------------------------------------------------------
 1/18=120,19=15,26=3,38=1/1,3;
 2/9=110,12=2,17=6,18=5,40=1/2;
 3/5=4,6=6,7=1212,11=2,25=1,30=1,70=32201,71=1,72=1,74=-55/1,2,3;
 4//1;
 5/5=2,38=5,53=1/2;
 6/7=2,8=2,9=2,10=2,28=1/1;
 7//1,2,3,16;
 1/18=20,19=15,26=3/3(2);
 2/9=110/2;
 99//99;
 2/9=110/2;
 3/5=4,6=6,7=1212,11=2,25=1,30=1,70=32205,71=1,72=1,74=-55/1,2,3;
 4/5=5,16=3,69=1/1;
 5/5=2,38=5,53=1/2;
 7//1,2,3,16;
 1/18=20,19=15,26=3/3(-5);
 2/9=110/2;
 6/7=2,8=2,9=2,10=2,19=2,28=1/1;
 99/9=1/99;
 --------------------------------
 4c1_b1_e3_4c1_PHI.inp_extract_24
 --------------------------------
 Symbolic Z-matrix:
 Charge =  0 Multiplicity = 1
 C                     2.26938  -1.31515   0.26832 
 C                     3.00741   1.38338  -0.31105 
 C                    -2.29004  -1.36715   0.0838 
 C                     1.19666  -0.3358   -0.1877 
 C                     1.60018   1.08628   0.19142 
 O                    -1.57845   0.90525   0.41708 
 C                    -3.64716  -0.87238  -0.42275 
 O                     3.94065   0.43634   0.16845 
 C                    -3.95257   0.51414   0.14468 
 C                    -1.21608  -0.32472  -0.16716 
 C                    -2.78038   1.4495   -0.10346 
 C                     3.63849  -0.88321  -0.23803 
 O                    -0.02583  -0.74376   0.41016 
 H                     2.28174  -1.35071   1.3543 
 H                     2.0466   -2.31315  -0.09645 
 H                     3.34219   2.35077   0.03638 
 H                     3.03189   1.38613  -1.39871 
 H                    -2.33385  -1.5589    1.15285 
 H                    -2.00542  -2.29101  -0.40942 
 H                     1.08576  -0.40365  -1.26603 
 H                     0.91657   1.81247  -0.23339 
 H                     1.57072   1.19047   1.2727 
 H                    -4.42544  -1.57832  -0.15094 
 H                    -3.63013  -0.82164  -1.50962 
 H                    -4.1324    0.44584   1.21485 
 H                    -4.84603   0.93166  -0.31088 
 H                    -1.07324  -0.16894  -1.23292 
 H                    -2.65555   1.63289  -1.16842 
 H                    -2.91664   2.40147   0.39029 
 H                     3.68153  -0.93978  -1.32342 
 H                     4.41552  -1.51762   0.16486 
 
 The following ModRedundant input section has been read:
 D       6      10      13       4 F                                           
 

 GradGradGradGradGradGradGradGradGradGradGradGradGradGradGradGradGradGrad
 Berny optimization.
 Initialization pass.
                           ----------------------------
                           !    Initial Parameters    !
                           ! (Angstroms and Degrees)  !
 --------------------------                            --------------------------
 ! Name  Definition              Value          Derivative Info.                !
 --------------------------------------------------------------------------------
 ! R1    R(1,4)                  1.5224         estimate D2E/DX2                !
 ! R2    R(1,12)                 1.5223         estimate D2E/DX2                !
 ! R3    R(1,14)                 1.0866         estimate D2E/DX2                !
 ! R4    R(1,15)                 1.0857         estimate D2E/DX2                !
 ! R5    R(2,5)                  1.5235         estimate D2E/DX2                !
 ! R6    R(2,8)                  1.4134         estimate D2E/DX2                !
 ! R7    R(2,16)                 1.081          estimate D2E/DX2                !
 ! R8    R(2,17)                 1.0879         estimate D2E/DX2                !
 ! R9    R(3,7)                  1.5307         estimate D2E/DX2                !
 ! R10   R(3,10)                 1.5176         estimate D2E/DX2                !
 ! R11   R(3,18)                 1.087          estimate D2E/DX2                !
 ! R12   R(3,19)                 1.0853         estimate D2E/DX2                !
 ! R13   R(4,5)                  1.5261         estimate D2E/DX2                !
 ! R14   R(4,13)                 1.4207         estimate D2E/DX2                !
 ! R15   R(4,20)                 1.0861         estimate D2E/DX2                !
 ! R16   R(5,21)                 1.084          estimate D2E/DX2                !
 ! R17   R(5,22)                 1.0867         estimate D2E/DX2                !
 ! R18   R(6,10)                 1.4091         estimate D2E/DX2                !
 ! R19   R(6,11)                 1.4184         estimate D2E/DX2                !
 ! R20   R(7,9)                  1.5289         estimate D2E/DX2                !
 ! R21   R(7,23)                 1.0853         estimate D2E/DX2                !
 ! R22   R(7,24)                 1.0882         estimate D2E/DX2                !
 ! R23   R(8,12)                 1.4134         estimate D2E/DX2                !
 ! R24   R(9,11)                 1.52           estimate D2E/DX2                !
 ! R25   R(9,25)                 1.0873         estimate D2E/DX2                !
 ! R26   R(9,26)                 1.0863         estimate D2E/DX2                !
 ! R27   R(10,13)                1.3877         estimate D2E/DX2                !
 ! R28   R(10,27)                1.0865         estimate D2E/DX2                !
 ! R29   R(11,28)                1.0878         estimate D2E/DX2                !
 ! R30   R(11,29)                1.081          estimate D2E/DX2                !
 ! R31   R(12,30)                1.0877         estimate D2E/DX2                !
 ! R32   R(12,31)                1.081          estimate D2E/DX2                !
 ! A1    A(4,1,12)             110.5818         estimate D2E/DX2                !
 ! A2    A(4,1,14)             109.1725         estimate D2E/DX2                !
 ! A3    A(4,1,15)             110.2496         estimate D2E/DX2                !
 ! A4    A(12,1,14)            109.3579         estimate D2E/DX2                !
 ! A5    A(12,1,15)            109.4889         estimate D2E/DX2                !
 ! A6    A(14,1,15)            107.941          estimate D2E/DX2                !
 ! A7    A(5,2,8)              111.5508         estimate D2E/DX2                !
 ! A8    A(5,2,16)             110.7671         estimate D2E/DX2                !
 ! A9    A(5,2,17)             110.549          estimate D2E/DX2                !
 ! A10   A(8,2,16)             106.624          estimate D2E/DX2                !
 ! A11   A(8,2,17)             109.0259         estimate D2E/DX2                !
 ! A12   A(16,2,17)            108.1846         estimate D2E/DX2                !
 ! A13   A(7,3,10)             110.5285         estimate D2E/DX2                !
 ! A14   A(7,3,18)             110.2884         estimate D2E/DX2                !
 ! A15   A(7,3,19)             110.933          estimate D2E/DX2                !
 ! A16   A(10,3,18)            108.1999         estimate D2E/DX2                !
 ! A17   A(10,3,19)            108.9045         estimate D2E/DX2                !
 ! A18   A(18,3,19)            107.9004         estimate D2E/DX2                !
 ! A19   A(1,4,5)              109.7991         estimate D2E/DX2                !
 ! A20   A(1,4,13)             107.1898         estimate D2E/DX2                !
 ! A21   A(1,4,20)             109.216          estimate D2E/DX2                !
 ! A22   A(5,4,13)             112.9907         estimate D2E/DX2                !
 ! A23   A(5,4,20)             109.3813         estimate D2E/DX2                !
 ! A24   A(13,4,20)            108.1798         estimate D2E/DX2                !
 ! A25   A(2,5,4)              110.1228         estimate D2E/DX2                !
 ! A26   A(2,5,21)             108.8204         estimate D2E/DX2                !
 ! A27   A(2,5,22)             109.5433         estimate D2E/DX2                !
 ! A28   A(4,5,21)             111.1089         estimate D2E/DX2                !
 ! A29   A(4,5,22)             109.2306         estimate D2E/DX2                !
 ! A30   A(21,5,22)            107.9751         estimate D2E/DX2                !
 ! A31   A(10,6,11)            113.6218         estimate D2E/DX2                !
 ! A32   A(3,7,9)              110.3278         estimate D2E/DX2                !
 ! A33   A(3,7,23)             110.038          estimate D2E/DX2                !
 ! A34   A(3,7,24)             109.3729         estimate D2E/DX2                !
 ! A35   A(9,7,23)             110.7113         estimate D2E/DX2                !
 ! A36   A(9,7,24)             109.3612         estimate D2E/DX2                !
 ! A37   A(23,7,24)            106.9589         estimate D2E/DX2                !
 ! A38   A(2,8,12)             112.757          estimate D2E/DX2                !
 ! A39   A(7,9,11)             110.0846         estimate D2E/DX2                !
 ! A40   A(7,9,25)             109.9587         estimate D2E/DX2                !
 ! A41   A(7,9,26)             110.9275         estimate D2E/DX2                !
 ! A42   A(11,9,25)            109.079          estimate D2E/DX2                !
 ! A43   A(11,9,26)            109.2249         estimate D2E/DX2                !
 ! A44   A(25,9,26)            107.509          estimate D2E/DX2                !
 ! A45   A(3,10,6)             110.428          estimate D2E/DX2                !
 ! A46   A(3,10,13)            109.3161         estimate D2E/DX2                !
 ! A47   A(3,10,27)            110.716          estimate D2E/DX2                !
 ! A48   A(6,10,13)            108.1604         estimate D2E/DX2                !
 ! A49   A(6,10,27)            108.3829         estimate D2E/DX2                !
 ! A50   A(13,10,27)           109.7931         estimate D2E/DX2                !
 ! A51   A(6,11,9)             110.9436         estimate D2E/DX2                !
 ! A52   A(6,11,28)            109.0707         estimate D2E/DX2                !
 ! A53   A(6,11,29)            106.0871         estimate D2E/DX2                !
 ! A54   A(9,11,28)            110.6128         estimate D2E/DX2                !
 ! A55   A(9,11,29)            111.7235         estimate D2E/DX2                !
 ! A56   A(28,11,29)           108.2486         estimate D2E/DX2                !
 ! A57   A(1,12,8)             111.193          estimate D2E/DX2                !
 ! A58   A(1,12,30)            110.6551         estimate D2E/DX2                !
 ! A59   A(1,12,31)            110.8537         estimate D2E/DX2                !
 ! A60   A(8,12,30)            109.0908         estimate D2E/DX2                !
 ! A61   A(8,12,31)            106.6813         estimate D2E/DX2                !
 ! A62   A(30,12,31)           108.2358         estimate D2E/DX2                !
 ! A63   A(4,13,10)            118.4431         estimate D2E/DX2                !
 ! D1    D(12,1,4,5)           -52.2989         estimate D2E/DX2                !
 ! D2    D(12,1,4,13)         -175.3852         estimate D2E/DX2                !
 ! D3    D(12,1,4,20)           67.6345         estimate D2E/DX2                !
 ! D4    D(14,1,4,5)            68.0607         estimate D2E/DX2                !
 ! D5    D(14,1,4,13)          -55.0256         estimate D2E/DX2                !
 ! D6    D(14,1,4,20)         -172.0059         estimate D2E/DX2                !
 ! D7    D(15,1,4,5)          -173.5225         estimate D2E/DX2                !
 ! D8    D(15,1,4,13)           63.3912         estimate D2E/DX2                !
 ! D9    D(15,1,4,20)          -53.5891         estimate D2E/DX2                !
 ! D10   D(4,1,12,8)            55.7794         estimate D2E/DX2                !
 ! D11   D(4,1,12,30)          -65.6236         estimate D2E/DX2                !
 ! D12   D(4,1,12,31)          174.279          estimate D2E/DX2                !
 ! D13   D(14,1,12,8)          -64.4693         estimate D2E/DX2                !
 ! D14   D(14,1,12,30)         174.1277         estimate D2E/DX2                !
 ! D15   D(14,1,12,31)          54.0303         estimate D2E/DX2                !
 ! D16   D(15,1,12,8)          177.4526         estimate D2E/DX2                !
 ! D17   D(15,1,12,30)          56.0496         estimate D2E/DX2                !
 ! D18   D(15,1,12,31)         -64.0478         estimate D2E/DX2                !
 ! D19   D(8,2,5,4)            -55.7201         estimate D2E/DX2                !
 ! D20   D(8,2,5,21)          -177.7322         estimate D2E/DX2                !
 ! D21   D(8,2,5,22)            64.4314         estimate D2E/DX2                !
 ! D22   D(16,2,5,4)          -174.3225         estimate D2E/DX2                !
 ! D23   D(16,2,5,21)           63.6654         estimate D2E/DX2                !
 ! D24   D(16,2,5,22)          -54.171          estimate D2E/DX2                !
 ! D25   D(17,2,5,4)            65.7705         estimate D2E/DX2                !
 ! D26   D(17,2,5,21)          -56.2415         estimate D2E/DX2                !
 ! D27   D(17,2,5,22)         -174.078          estimate D2E/DX2                !
 ! D28   D(5,2,8,12)            60.1598         estimate D2E/DX2                !
 ! D29   D(16,2,8,12)         -178.7916         estimate D2E/DX2                !
 ! D30   D(17,2,8,12)          -62.2102         estimate D2E/DX2                !
 ! D31   D(10,3,7,9)           -51.8887         estimate D2E/DX2                !
 ! D32   D(10,3,7,23)         -174.3389         estimate D2E/DX2                !
 ! D33   D(10,3,7,24)           68.4442         estimate D2E/DX2                !
 ! D34   D(18,3,7,9)            67.7151         estimate D2E/DX2                !
 ! D35   D(18,3,7,23)          -54.735          estimate D2E/DX2                !
 ! D36   D(18,3,7,24)         -171.952          estimate D2E/DX2                !
 ! D37   D(19,3,7,9)          -172.7955         estimate D2E/DX2                !
 ! D38   D(19,3,7,23)           64.7543         estimate D2E/DX2                !
 ! D39   D(19,3,7,24)          -52.4626         estimate D2E/DX2                !
 ! D40   D(7,3,10,6)            55.6388         estimate D2E/DX2                !
 ! D41   D(7,3,10,13)          174.5191         estimate D2E/DX2                !
 ! D42   D(7,3,10,27)          -64.4041         estimate D2E/DX2                !
 ! D43   D(18,3,10,6)          -65.2164         estimate D2E/DX2                !
 ! D44   D(18,3,10,13)          53.664          estimate D2E/DX2                !
 ! D45   D(18,3,10,27)         174.7407         estimate D2E/DX2                !
 ! D46   D(19,3,10,6)          177.7449         estimate D2E/DX2                !
 ! D47   D(19,3,10,13)         -63.3748         estimate D2E/DX2                !
 ! D48   D(19,3,10,27)          57.702          estimate D2E/DX2                !
 ! D49   D(1,4,5,2)             52.0642         estimate D2E/DX2                !
 ! D50   D(1,4,5,21)           172.7104         estimate D2E/DX2                !
 ! D51   D(1,4,5,22)           -68.276          estimate D2E/DX2                !
 ! D52   D(13,4,5,2)           171.665          estimate D2E/DX2                !
 ! D53   D(13,4,5,21)          -67.6889         estimate D2E/DX2                !
 ! D54   D(13,4,5,22)           51.3247         estimate D2E/DX2                !
 ! D55   D(20,4,5,2)           -67.7685         estimate D2E/DX2                !
 ! D56   D(20,4,5,21)           52.8777         estimate D2E/DX2                !
 ! D57   D(20,4,5,22)          171.8912         estimate D2E/DX2                !
 ! D58   D(1,4,13,10)         -158.6718         estimate D2E/DX2                !
 ! D59   D(5,4,13,10)           80.2365         estimate D2E/DX2                !
 ! D60   D(20,4,13,10)         -41.0125         estimate D2E/DX2                !
 ! D61   D(11,6,10,3)          -61.074          estimate D2E/DX2                !
 ! D62   D(11,6,10,13)         179.3451         estimate D2E/DX2                !
 ! D63   D(11,6,10,27)          60.3622         estimate D2E/DX2                !
 ! D64   D(10,6,11,9)           61.0367         estimate D2E/DX2                !
 ! D65   D(10,6,11,28)         -61.0472         estimate D2E/DX2                !
 ! D66   D(10,6,11,29)        -177.4403         estimate D2E/DX2                !
 ! D67   D(3,7,9,11)            51.3479         estimate D2E/DX2                !
 ! D68   D(3,7,9,25)           -68.8549         estimate D2E/DX2                !
 ! D69   D(3,7,9,26)           172.3577         estimate D2E/DX2                !
 ! D70   D(23,7,9,11)          173.4018         estimate D2E/DX2                !
 ! D71   D(23,7,9,25)           53.199          estimate D2E/DX2                !
 ! D72   D(23,7,9,26)          -65.5884         estimate D2E/DX2                !
 ! D73   D(24,7,9,11)          -68.992          estimate D2E/DX2                !
 ! D74   D(24,7,9,25)          170.8052         estimate D2E/DX2                !
 ! D75   D(24,7,9,26)           52.0178         estimate D2E/DX2                !
 ! D76   D(2,8,12,1)           -59.9372         estimate D2E/DX2                !
 ! D77   D(2,8,12,30)           62.3757         estimate D2E/DX2                !
 ! D78   D(2,8,12,31)          179.081          estimate D2E/DX2                !
 ! D79   D(7,9,11,6)           -54.9462         estimate D2E/DX2                !
 ! D80   D(7,9,11,28)           66.2343         estimate D2E/DX2                !
 ! D81   D(7,9,11,29)         -173.1022         estimate D2E/DX2                !
 ! D82   D(25,9,11,6)           65.7867         estimate D2E/DX2                !
 ! D83   D(25,9,11,28)        -173.0328         estimate D2E/DX2                !
 ! D84   D(25,9,11,29)         -52.3694         estimate D2E/DX2                !
 ! D85   D(26,9,11,6)         -176.9708         estimate D2E/DX2                !
 ! D86   D(26,9,11,28)         -55.7903         estimate D2E/DX2                !
 ! D87   D(26,9,11,29)          64.8731         estimate D2E/DX2                !
 ! D88   D(3,10,13,4)          149.9493         estimate D2E/DX2                !
 ! D89   D(6,10,13,4)          -89.7716         Frozen                          !
 ! D90   D(27,10,13,4)          28.3137         estimate D2E/DX2                !
 --------------------------------------------------------------------------------
 Trust Radius=3.00D-01 FncErr=1.00D-07 GrdErr=1.00D-06 EigMax=2.50D+02 EigMin=1.00D-04
 Number of steps in this run=    186 maximum allowed number of steps=    186.
 GradGradGradGradGradGradGradGradGradGradGradGradGradGradGradGradGradGrad

                          Input orientation:                          
 ---------------------------------------------------------------------
 Center     Atomic      Atomic             Coordinates (Angstroms)
 Number     Number       Type             X           Y           Z
 ---------------------------------------------------------------------
      1          6           0        2.269376   -1.315152    0.268318
      2          6           0        3.007406    1.383383   -0.311050
      3          6           0       -2.290042   -1.367145    0.083799
      4          6           0        1.196656   -0.335797   -0.187695
      5          6           0        1.600179    1.086278    0.191423
      6          8           0       -1.578451    0.905251    0.417078
      7          6           0       -3.647160   -0.872380   -0.422750
      8          8           0        3.940647    0.436341    0.168450
      9          6           0       -3.952565    0.514138    0.144684
     10          6           0       -1.216079   -0.324720   -0.167164
     11          6           0       -2.780378    1.449496   -0.103459
     12          6           0        3.638486   -0.883208   -0.238027
     13          8           0       -0.025833   -0.743760    0.410157
     14          1           0        2.281739   -1.350707    1.354303
     15          1           0        2.046598   -2.313146   -0.096448
     16          1           0        3.342189    2.350772    0.036381
     17          1           0        3.031887    1.386128   -1.398709
     18          1           0       -2.333846   -1.558898    1.152854
     19          1           0       -2.005417   -2.291011   -0.409420
     20          1           0        1.085760   -0.403647   -1.266030
     21          1           0        0.916566    1.812465   -0.233390
     22          1           0        1.570717    1.190469    1.272704
     23          1           0       -4.425438   -1.578319   -0.150936
     24          1           0       -3.630133   -0.821644   -1.509618
     25          1           0       -4.132399    0.445835    1.214854
     26          1           0       -4.846026    0.931662   -0.310877
     27          1           0       -1.073238   -0.168940   -1.232915
     28          1           0       -2.655552    1.632893   -1.168421
     29          1           0       -2.916642    2.401468    0.390286
     30          1           0        3.681534   -0.939781   -1.323421
     31          1           0        4.415520   -1.517619    0.164861
 ---------------------------------------------------------------------
                    Distance matrix (angstroms):
                    1          2          3          4          5
     1  C    0.000000
     2  C    2.857000   0.000000
     3  C    4.563446   5.981995   0.000000
     4  C    1.522436   2.499922   3.646156   0.000000
     5  C    2.494114   1.523495   4.600509   1.526060   0.000000
     6  O    4.445007   4.667854   2.404417   3.099543   3.191767
     7  C    5.973192   7.027389   1.530736   4.879111   5.634547
     8  O    2.422983   1.413417   6.487003   2.872720   2.429143
     9  C    6.486458   7.028832   2.511357   5.229469   5.582338
    10  C    3.649520   4.558086   1.517573   2.412848   3.170301
    11  C    5.769013   5.791883   2.865129   4.360180   4.405470
    12  C    1.522308   2.353939   5.956946   2.502943   2.866705
    13  O    2.369513   3.774310   2.371025   1.420683   2.457804
    14  H    1.086637   3.282566   4.745064   2.141309   2.784908
    15  H    1.085669   3.825380   4.442280   2.154214   3.440675
    16  H    3.826712   1.081032   6.748865   3.445457   2.158143
    17  H    3.264554   1.087938   6.172623   2.792786   2.160606
    18  H    4.693769   6.271284   1.086999   3.969571   4.837133
    19  H    4.436833   6.216047   1.085267   3.758363   4.976687
    20  H    2.141498   2.792523   3.761171   1.086144   2.146782
    21  H    3.444386   2.135826   4.526904   2.166926   1.084039
    22  H    2.788378   2.146990   4.781249   2.145268   1.086689
    23  H    6.713089   8.002780   2.158613   5.757877   6.597374
    24  H    6.181328   7.096170   2.152299   5.028063   5.821501
    25  H    6.706693   7.360991   2.821429   5.565691   5.858330
    26  H    7.484156   7.866413   3.460251   6.175405   6.467594
    27  H    3.839345   4.462196   2.156396   2.504545   3.278943
    28  H    5.916934   5.732925   3.271373   4.435884   4.501023
    29  H    6.381451   6.051670   3.832624   4.974525   4.708603
    30  H    2.160724   2.622296   6.150010   2.798087   3.275928
    31  H    2.158154   3.259615   6.707740   3.447040   3.834988
                    6          7          8          9         10
     6  O    0.000000
     7  C    2.853917   0.000000
     8  O    5.544559   7.722505   0.000000
     9  C    2.421484   1.528949   7.893631   0.000000
    10  C    1.409071   2.505077   5.223378   2.879112   0.000000
    11  C    1.418376   2.498873   6.802396   1.520030   2.366206
    12  C    5.553754   7.287995   1.413412   7.728072   4.887099
    13  O    2.264930   3.718103   4.145362   4.131829   1.387653
    14  H    4.568239   6.207943   2.711414   6.618714   3.949967
    15  H    4.874707   5.882275   3.349220   6.636387   3.821505
    16  H    5.142680   7.710416   2.010134   7.523190   5.289376
    17  H    4.978307   7.117796   2.045465   7.205900   4.742248
    18  H    2.680302   2.163014   6.657274   2.816760   2.124864
    19  H    3.328887   2.169795   6.567196   3.459375   2.132614
    20  H    3.412343   4.830255   3.303588   5.311983   2.551901
    21  H    2.733360   5.298287   3.346679   5.053418   3.019954
    22  H    3.275775   5.861412   2.721149   5.677719   3.483569
    23  H    3.820484   1.085334   8.611170   2.165497   3.445542
    24  H    3.302079   1.088185   7.855899   2.150579   2.806559
    25  H    2.714804   2.157520   8.140585   1.087322   3.317929
    26  H    3.347785   2.168954   8.813667   1.086340   3.843913
    27  H    2.032635   2.788596   5.241110   3.264184   1.086506
    28  H    2.050224   2.795658   6.835847   2.158263   2.628088
    29  H    2.007520   3.451487   7.136760   2.166904   3.261099
    30  H    5.839599   7.384139   2.046101   7.908772   5.069699
    31  H    6.470054   8.109774   2.010840   8.611230   5.766121
                   11         12         13         14         15
    11  C    0.000000
    12  C    6.830917   0.000000
    13  O    3.558327   3.723818   0.000000
    14  H    5.965839   2.143556   2.566064   0.000000
    15  H    6.120230   2.144499   2.648507   1.756775   0.000000
    16  H    6.190128   3.259098   4.589053   4.069695   4.842348
    17  H    5.955175   2.620120   4.142230   3.953740   4.043675
    18  H    3.290615   6.169267   2.557924   4.624668   4.617135
    19  H    3.832176   5.819358   2.642810   4.730179   4.064144
    20  H    4.442154   2.793417   2.039833   3.032068   2.436661
    21  H    3.716991   3.830865   2.799385   3.793432   4.279765
    22  H    4.570880   3.295165   2.652207   2.640035   3.791617
    23  H    3.446178   8.094296   4.513074   6.877774   6.513846
    24  H    2.803113   7.379265   4.084431   6.590310   6.037127
    25  H    2.138515   8.016475   4.350466   6.662445   6.892858
    26  H    2.139644   8.676751   5.153755   7.667272   7.621222
    27  H    2.609470   4.868298   2.031541   4.398425   3.952538
    28  H    1.087824   6.841879   3.880182   6.296257   6.231418
    29  H    1.081019   7.358911   4.271959   6.483156   6.862816
    30  H    6.996661   1.087720   4.097351   3.049343   2.462643
    31  H    7.788242   1.081008   4.514936   2.448602   2.512556
                   16         17         18         19         20
    16  H    0.000000
    17  H    1.756789   0.000000
    18  H    6.982077   6.631345   0.000000
    19  H    7.095194   6.314624   1.756290   0.000000
    20  H    3.791381   2.647321   4.345033   3.721733   0.000000
    21  H    2.499239   2.452410   4.883947   5.040584   2.450740
    22  H    2.452124   3.051188   4.776923   5.266781   3.036702
    23  H    8.706829   8.121366   2.464752   2.535990   5.744266
    24  H    7.814577   7.019193   3.051665   2.451362   4.740644
    25  H    7.803015   7.683870   2.693992   3.827877   5.839999
    26  H    8.317531   7.965641   3.828374   4.297021   6.154791
    27  H    5.239853   4.392923   3.035294   2.459733   2.171971
    28  H    6.159529   5.697446   3.959715   4.049170   4.260803
    29  H    6.269034   6.294157   4.075004   4.846568   5.160550
    30  H    3.576584   2.416105   6.534527   5.916302   2.651184
    31  H    4.016590   3.576442   6.821420   6.492793   3.791528
                   21         22         23         24         25
    21  H    0.000000
    22  H    1.755879   0.000000
    23  H    6.327813   6.756242   0.000000
    24  H    5.407380   6.232075   1.746735   0.000000
    25  H    5.427443   5.751813   2.459360   3.046559   0.000000
    26  H    5.830033   6.614325   2.549996   2.447337   1.753039
    27  H    2.980660   3.888009   3.793978   2.653356   3.965853
    28  H    3.696831   4.900631   3.805214   2.662889   3.044698
    29  H    3.928025   4.730916   4.290465   3.808826   2.445910
    30  H    4.050688   3.966532   8.216170   7.314991   8.331886
    31  H    4.846725   4.080926   8.846805   8.247472   8.833151
                   26         27         28         29         30
    26  H    0.000000
    27  H    4.036757   0.000000
    28  H    2.454645   2.398850   0.000000
    29  H    2.524774   3.555266   1.757397   0.000000
    30  H    8.789017   4.817701   6.841150   7.591881   0.000000
    31  H    9.591743   5.822300   7.855153   8.316890   1.757161
                   31
    31  H    0.000000
 Stoichiometry    C10H18O3
 Framework group  C1[X(C10H18O3)]
 Deg. of freedom    87
 Full point group                 C1      NOp   1
 Largest Abelian subgroup         C1      NOp   1
 Largest concise Abelian subgroup C1      NOp   1
                         Standard orientation:                         
 ---------------------------------------------------------------------
 Center     Atomic      Atomic             Coordinates (Angstroms)
 Number     Number       Type             X           Y           Z
 ---------------------------------------------------------------------
      1          6           0       -2.269376   -1.315152   -0.268318
      2          6           0       -3.007406    1.383383    0.311050
      3          6           0        2.290042   -1.367145   -0.083799
      4          6           0       -1.196656   -0.335797    0.187695
      5          6           0       -1.600179    1.086278   -0.191423
      6          8           0        1.578451    0.905251   -0.417078
      7          6           0        3.647160   -0.872380    0.422750
      8          8           0       -3.940647    0.436341   -0.168450
      9          6           0        3.952565    0.514138   -0.144684
     10          6           0        1.216079   -0.324720    0.167164
     11          6           0        2.780378    1.449496    0.103459
     12          6           0       -3.638486   -0.883208    0.238027
     13          8           0        0.025833   -0.743760   -0.410157
     14          1           0       -2.281739   -1.350707   -1.354303
     15          1           0       -2.046598   -2.313146    0.096448
     16          1           0       -3.342189    2.350772   -0.036381
     17          1           0       -3.031887    1.386128    1.398709
     18          1           0        2.333846   -1.558898   -1.152854
     19          1           0        2.005417   -2.291011    0.409420
     20          1           0       -1.085760   -0.403647    1.266030
     21          1           0       -0.916566    1.812465    0.233390
     22          1           0       -1.570717    1.190469   -1.272704
     23          1           0        4.425438   -1.578319    0.150936
     24          1           0        3.630133   -0.821644    1.509618
     25          1           0        4.132399    0.445835   -1.214854
     26          1           0        4.846026    0.931662    0.310877
     27          1           0        1.073238   -0.168940    1.232915
     28          1           0        2.655552    1.632893    1.168421
     29          1           0        2.916642    2.401468   -0.390286
     30          1           0       -3.681534   -0.939781    1.323421
     31          1           0       -4.415520   -1.517619   -0.164861
 ---------------------------------------------------------------------
 Rotational constants (GHZ):           2.2169901           0.3652647           0.3256278
 Standard basis: 6-311++G(2d,2p) (5D, 7F)
 There are   557 symmetry adapted cartesian basis functions of A   symmetry.
 There are   531 symmetry adapted basis functions of A   symmetry.
   531 basis functions,   762 primitive gaussians,   557 cartesian basis functions
    51 alpha electrons       51 beta electrons
       nuclear repulsion energy       877.7355935379 Hartrees.
 NAtoms=   31 NActive=   31 NUniq=   31 SFac= 1.00D+00 NAtFMM=   60 NAOKFM=F Big=F
 Integral buffers will be    131072 words long.
 Raffenetti 2 integral format.
 Two-electron integral symmetry is turned on.
 ------------------------------------------------------------------------------
 Polarizable Continuum Model (PCM)
 =================================
 Model                : PCM.
 Atomic radii         : SMD-Coulomb.
 Polarization charges : Total charges.
 Charge compensation  : None.
 Solution method      : On-the-fly selection.
 Cavity type          : VdW (van der Waals Surface) (Alpha=1.000).
 Cavity algorithm     : GePol (No added spheres)
                        Default sphere list used, NSphG=   31.
                        Lebedev-Laikov grids with approx.  5.0 points / Ang**2.
                        Smoothing algorithm: York/Karplus (Gamma=1.0000).
                        Polarization charges: spherical gaussians, with
                                              point-specific exponents (IZeta= 3).
                        Self-potential: point-specific (ISelfS= 7).
                        Self-field    : sphere-specific E.n sum rule (ISelfD= 2).
 1st derivatives      : Analytical E(r).r(x)/FMM algorithm (CHGder, D1EAlg=3).
                        Cavity 1st derivative terms included.
 Solvent              : Water, Eps=  78.355300 Eps(inf)=   1.777849
 ------------------------------------------------------------------------------
 ------------------------------------------------------------------------------
 Atomic radii for non-electrostatic terms: SMD-CDS.
 ------------------------------------------------------------------------------
 Nuclear repulsion after PCM non-electrostatic terms =      877.7420590904 Hartrees.
 One-electron integrals computed using PRISM.
 NBasis=   531 RedAO= T EigKep=  5.49D-06  NBF=   531
 NBsUse=   531 1.00D-06 EigRej= -1.00D+00 NBFU=   531
 ExpMin= 3.60D-02 ExpMax= 8.59D+03 ExpMxC= 1.30D+03 IAcc=3 IRadAn=         5 AccDes= 0.00D+00
 Harris functional with IExCor= 1009 and IRadAn=       5 diagonalized for initial guess.
 HarFok:  IExCor= 1009 AccDes= 0.00D+00 IRadAn=         5 IDoV= 1 UseB2=F ITyADJ=14
 ICtDFT=  3500011 ScaDFX=  1.000000  1.000000  1.000000  1.000000
 FoFCou: FMM=F IPFlag=           0 FMFlag=      100000 FMFlg1=           0
         NFxFlg=           0 DoJE=T BraDBF=F KetDBF=T FulRan=T
         wScrn=  0.000000 ICntrl=       500 IOpCl=  0 I1Cent=   200000004 NGrid=           0
         NMat0=    1 NMatS0=      1 NMatT0=    0 NMatD0=    1 NMtDS0=    0 NMtDT0=    0
 Petite list used in FoFCou.
 Requested convergence on RMS density matrix=1.00D-08 within 128 cycles.
 Requested convergence on MAX density matrix=1.00D-06.
 Requested convergence on             energy=1.00D-06.
 No special actions if energy rises.
 Inv3:  Mode=1 IEnd=    12216972.
 Iteration    1 A*A^-1 deviation from unit magnitude is 4.66D-15 for   2008.
 Iteration    1 A*A^-1 deviation from orthogonality  is 2.48D-15 for   1995    603.
 Iteration    1 A^-1*A deviation from unit magnitude is 4.44D-15 for   2008.
 Iteration    1 A^-1*A deviation from orthogonality  is 6.55D-15 for   1903   1800.
 Error on total polarization charges =  0.06318
 SCF Done:  E(RM062X) =  -617.507470888     A.U. after   12 cycles
            NFock= 12  Conv=0.48D-08     -V/T= 2.0035
 SMD-CDS (non-electrostatic) energy       (kcal/mol) =       4.06
 (included in total energy above)

 **********************************************************************

            Population analysis using the SCF Density.

 **********************************************************************

 Orbital symmetries:
       Occupied  (A) (A) (A) (A) (A) (A) (A) (A) (A) (A) (A) (A)
                 (A) (A) (A) (A) (A) (A) (A) (A) (A) (A) (A) (A)
                 (A) (A) (A) (A) (A) (A) (A) (A) (A) (A) (A) (A)
                 (A) (A) (A) (A) (A) (A) (A) (A) (A) (A) (A) (A)
                 (A) (A) (A)
       Virtual   (A) (A) (A) (A) (A) (A) (A) (A) (A) (A) (A) (A)
                 (A) (A) (A) (A) (A) (A) (A) (A) (A) (A) (A) (A)
                 (A) (A) (A) (A) (A) (A) (A) (A) (A) (A) (A) (A)
                 (A) (A) (A) (A) (A) (A) (A) (A) (A) (A) (A) (A)
                 (A) (A) (A) (A) (A) (A) (A) (A) (A) (A) (A) (A)
                 (A) (A) (A) (A) (A) (A) (A) (A) (A) (A) (A) (A)
                 (A) (A) (A) (A) (A) (A) (A) (A) (A) (A) (A) (A)
                 (A) (A) (A) (A) (A) (A) (A) (A) (A) (A) (A) (A)
                 (A) (A) (A) (A) (A) (A) (A) (A) (A) (A) (A) (A)
                 (A) (A) (A) (A) (A) (A) (A) (A) (A) (A) (A) (A)
                 (A) (A) (A) (A) (A) (A) (A) (A) (A) (A) (A) (A)
                 (A) (A) (A) (A) (A) (A) (A) (A) (A) (A) (A) (A)
                 (A) (A) (A) (A) (A) (A) (A) (A) (A) (A) (A) (A)
                 (A) (A) (A) (A) (A) (A) (A) (A) (A) (A) (A) (A)
                 (A) (A) (A) (A) (A) (A) (A) (A) (A) (A) (A) (A)
                 (A) (A) (A) (A) (A) (A) (A) (A) (A) (A) (A) (A)
                 (A) (A) (A) (A) (A) (A) (A) (A) (A) (A) (A) (A)
                 (A) (A) (A) (A) (A) (A) (A) (A) (A) (A) (A) (A)
                 (A) (A) (A) (A) (A) (A) (A) (A) (A) (A) (A) (A)
                 (A) (A) (A) (A) (A) (A) (A) (A) (A) (A) (A) (A)
                 (A) (A) (A) (A) (A) (A) (A) (A) (A) (A) (A) (A)
                 (A) (A) (A) (A) (A) (A) (A) (A) (A) (A) (A) (A)
                 (A) (A) (A) (A) (A) (A) (A) (A) (A) (A) (A) (A)
                 (A) (A) (A) (A) (A) (A) (A) (A) (A) (A) (A) (A)
                 (A) (A) (A) (A) (A) (A) (A) (A) (A) (A) (A) (A)
                 (A) (A) (A) (A) (A) (A) (A) (A) (A) (A) (A) (A)
                 (A) (A) (A) (A) (A) (A) (A) (A) (A) (A) (A) (A)
                 (A) (A) (A) (A) (A) (A) (A) (A) (A) (A) (A) (A)
                 (A) (A) (A) (A) (A) (A) (A) (A) (A) (A) (A) (A)
                 (A) (A) (A) (A) (A) (A) (A) (A) (A) (A) (A) (A)
                 (A) (A) (A) (A) (A) (A) (A) (A) (A) (A) (A) (A)
                 (A) (A) (A) (A) (A) (A) (A) (A) (A) (A) (A) (A)
                 (A) (A) (A) (A) (A) (A) (A) (A) (A) (A) (A) (A)
                 (A) (A) (A) (A) (A) (A) (A) (A) (A) (A) (A) (A)
                 (A) (A) (A) (A) (A) (A) (A) (A) (A) (A) (A) (A)
                 (A) (A) (A) (A) (A) (A) (A) (A) (A) (A) (A) (A)
                 (A) (A) (A) (A) (A) (A) (A) (A) (A) (A) (A) (A)
                 (A) (A) (A) (A) (A) (A) (A) (A) (A) (A) (A) (A)
                 (A) (A) (A) (A) (A) (A) (A) (A) (A) (A) (A) (A)
                 (A) (A) (A) (A) (A) (A) (A) (A) (A) (A) (A) (A)
 The electronic state is 1-A.
 Alpha  occ. eigenvalues --  -19.63423 -19.62732 -19.62676 -10.63071 -10.58504
 Alpha  occ. eigenvalues --  -10.57435 -10.57395 -10.57281 -10.52407 -10.52369
 Alpha  occ. eigenvalues --  -10.52220 -10.52190 -10.52088  -1.20306  -1.16579
 Alpha  occ. eigenvalues --   -1.14093  -0.90717  -0.89326  -0.86319  -0.84642
 Alpha  occ. eigenvalues --   -0.74808  -0.73470  -0.72440  -0.70022  -0.66212
 Alpha  occ. eigenvalues --   -0.64367  -0.60145  -0.57996  -0.56476  -0.54573
 Alpha  occ. eigenvalues --   -0.54555  -0.52958  -0.52046  -0.51277  -0.49919
 Alpha  occ. eigenvalues --   -0.49349  -0.46512  -0.45667  -0.45021  -0.44312
 Alpha  occ. eigenvalues --   -0.42338  -0.41448  -0.40783  -0.39827  -0.39110
 Alpha  occ. eigenvalues --   -0.38409  -0.37046  -0.36892  -0.34532  -0.33296
 Alpha  occ. eigenvalues --   -0.31850
 Alpha virt. eigenvalues --    0.00511   0.01248   0.01369   0.01489   0.02689
 Alpha virt. eigenvalues --    0.02845   0.02983   0.04006   0.04132   0.04665
 Alpha virt. eigenvalues --    0.05082   0.05393   0.05758   0.06211   0.07254
 Alpha virt. eigenvalues --    0.07489   0.08338   0.08453   0.09227   0.09682
 Alpha virt. eigenvalues --    0.10555   0.10949   0.11223   0.11739   0.12269
 Alpha virt. eigenvalues --    0.12874   0.13113   0.13177   0.13761   0.13958
 Alpha virt. eigenvalues --    0.14119   0.14378   0.15038   0.15082   0.15262
 Alpha virt. eigenvalues --    0.15609   0.16005   0.16368   0.16431   0.16739
 Alpha virt. eigenvalues --    0.16785   0.17139   0.17672   0.17799   0.18211
 Alpha virt. eigenvalues --    0.18548   0.19250   0.19335   0.19611   0.19723
 Alpha virt. eigenvalues --    0.20494   0.20561   0.21270   0.21443   0.21736
 Alpha virt. eigenvalues --    0.22260   0.22998   0.23498   0.24247   0.25613
 Alpha virt. eigenvalues --    0.25742   0.26087   0.26189   0.27078   0.27661
 Alpha virt. eigenvalues --    0.27749   0.28727   0.28938   0.29252   0.29781
 Alpha virt. eigenvalues --    0.30661   0.30773   0.31468   0.32088   0.32402
 Alpha virt. eigenvalues --    0.33025   0.33282   0.33454   0.34125   0.34616
 Alpha virt. eigenvalues --    0.35324   0.35640   0.35767   0.36047   0.36342
 Alpha virt. eigenvalues --    0.36853   0.37138   0.37287   0.37668   0.38443
 Alpha virt. eigenvalues --    0.38712   0.39185   0.39482   0.40129   0.40512
 Alpha virt. eigenvalues --    0.41180   0.42158   0.42914   0.43258   0.44372
 Alpha virt. eigenvalues --    0.47353   0.48241   0.49193   0.50577   0.51654
 Alpha virt. eigenvalues --    0.52183   0.52544   0.53923   0.54806   0.56121
 Alpha virt. eigenvalues --    0.56590   0.56954   0.57720   0.58886   0.59487
 Alpha virt. eigenvalues --    0.60005   0.60927   0.61097   0.61489   0.61871
 Alpha virt. eigenvalues --    0.62722   0.63345   0.63743   0.64240   0.64896
 Alpha virt. eigenvalues --    0.65056   0.66266   0.66599   0.67130   0.67394
 Alpha virt. eigenvalues --    0.67816   0.68044   0.68970   0.69762   0.70132
 Alpha virt. eigenvalues --    0.71202   0.72603   0.73075   0.73265   0.74114
 Alpha virt. eigenvalues --    0.74497   0.75001   0.75159   0.76029   0.76215
 Alpha virt. eigenvalues --    0.76854   0.77447   0.77972   0.78831   0.79557
 Alpha virt. eigenvalues --    0.81982   0.82857   0.83465   0.84305   0.85685
 Alpha virt. eigenvalues --    0.86428   0.88234   0.88459   0.89578   0.90344
 Alpha virt. eigenvalues --    0.90875   0.91458   0.92508   0.94571   0.96054
 Alpha virt. eigenvalues --    0.98407   0.98874   0.99963   1.01615   1.02854
 Alpha virt. eigenvalues --    1.03136   1.04228   1.04669   1.06536   1.06815
 Alpha virt. eigenvalues --    1.08067   1.08770   1.09229   1.10090   1.10887
 Alpha virt. eigenvalues --    1.12908   1.13588   1.14085   1.16040   1.16091
 Alpha virt. eigenvalues --    1.17170   1.17490   1.18844   1.19403   1.20210
 Alpha virt. eigenvalues --    1.20965   1.21608   1.22014   1.23571   1.23813
 Alpha virt. eigenvalues --    1.24514   1.25034   1.25625   1.27155   1.27792
 Alpha virt. eigenvalues --    1.28160   1.28915   1.29457   1.30071   1.30603
 Alpha virt. eigenvalues --    1.31448   1.31917   1.31984   1.33328   1.33923
 Alpha virt. eigenvalues --    1.34375   1.35251   1.36518   1.37013   1.38173
 Alpha virt. eigenvalues --    1.38956   1.39403   1.39999   1.40796   1.41565
 Alpha virt. eigenvalues --    1.42446   1.43666   1.44102   1.44470   1.45485
 Alpha virt. eigenvalues --    1.46455   1.46590   1.47497   1.48587   1.48915
 Alpha virt. eigenvalues --    1.49497   1.49590   1.50723   1.51555   1.52680
 Alpha virt. eigenvalues --    1.53243   1.53663   1.53991   1.55115   1.56052
 Alpha virt. eigenvalues --    1.56377   1.57059   1.57856   1.58733   1.59494
 Alpha virt. eigenvalues --    1.60051   1.60547   1.61193   1.61918   1.62429
 Alpha virt. eigenvalues --    1.63407   1.65201   1.65811   1.66291   1.67096
 Alpha virt. eigenvalues --    1.67645   1.68572   1.69003   1.71041   1.71516
 Alpha virt. eigenvalues --    1.73107   1.75261   1.76197   1.77199   1.78567
 Alpha virt. eigenvalues --    1.79923   1.80617   1.80969   1.83139   1.83956
 Alpha virt. eigenvalues --    1.85253   1.88142   1.92106   1.95734   1.97332
 Alpha virt. eigenvalues --    1.99262   2.11459   2.11948   2.13778   2.19684
 Alpha virt. eigenvalues --    2.23038   2.27024   2.28996   2.33969   2.36377
 Alpha virt. eigenvalues --    2.40870   2.42914   2.44531   2.48181   2.50670
 Alpha virt. eigenvalues --    2.58352   2.76415   2.77299   2.78675   2.82060
 Alpha virt. eigenvalues --    2.86604   2.89327   2.91625   2.93558   2.94400
 Alpha virt. eigenvalues --    2.97503   2.98640   3.01451   3.03305   3.06038
 Alpha virt. eigenvalues --    3.06913   3.07635   3.08774   3.10689   3.11149
 Alpha virt. eigenvalues --    3.12460   3.14041   3.16670   3.20450   3.21670
 Alpha virt. eigenvalues --    3.23995   3.30033   3.31651   3.33192   3.34875
 Alpha virt. eigenvalues --    3.35999   3.37712   3.38808   3.40087   3.40257
 Alpha virt. eigenvalues --    3.42513   3.42943   3.44225   3.46310   3.47272
 Alpha virt. eigenvalues --    3.47989   3.48978   3.49726   3.51215   3.52571
 Alpha virt. eigenvalues --    3.53902   3.54331   3.55190   3.56101   3.57110
 Alpha virt. eigenvalues --    3.57491   3.57769   3.58939   3.59523   3.60488
 Alpha virt. eigenvalues --    3.61430   3.61759   3.62841   3.63594   3.65008
 Alpha virt. eigenvalues --    3.66409   3.67286   3.67536   3.69326   3.70751
 Alpha virt. eigenvalues --    3.71490   3.71916   3.72740   3.73082   3.73870
 Alpha virt. eigenvalues --    3.74384   3.75667   3.76087   3.76574   3.77585
 Alpha virt. eigenvalues --    3.78788   3.79722   3.80499   3.81080   3.84436
 Alpha virt. eigenvalues --    3.86302   3.87050   3.89619   3.91196   3.91743
 Alpha virt. eigenvalues --    3.91817   3.93414   3.94771   3.94964   3.98177
 Alpha virt. eigenvalues --    4.00626   4.02717   4.03092   4.03836   4.04625
 Alpha virt. eigenvalues --    4.05736   4.06213   4.06851   4.07396   4.08254
 Alpha virt. eigenvalues --    4.09407   4.09895   4.10453   4.12023   4.12180
 Alpha virt. eigenvalues --    4.12542   4.13312   4.13557   4.13780   4.14840
 Alpha virt. eigenvalues --    4.15226   4.18399   4.19241   4.19918   4.20228
 Alpha virt. eigenvalues --    4.21970   4.22923   4.23408   4.26142   4.26730
 Alpha virt. eigenvalues --    4.28593   4.30634   4.31910   4.31994   4.32921
 Alpha virt. eigenvalues --    4.33339   4.34988   4.36720   4.37398   4.38827
 Alpha virt. eigenvalues --    4.39955   4.44221   4.44725   4.46174   4.57276
 Alpha virt. eigenvalues --    4.60017   4.62368   4.74406   4.77332   4.89096
 Alpha virt. eigenvalues --    4.90803   4.91316   4.92474   4.99563   4.99824
 Alpha virt. eigenvalues --    5.06671   5.07959   5.08902   5.09887   5.12138
 Alpha virt. eigenvalues --    5.12512   5.12980   5.14622   5.29973   5.35854
 Alpha virt. eigenvalues --    5.38191   5.56591   5.58112   5.62910   5.86768
 Alpha virt. eigenvalues --    5.89954   6.04392   7.01630   7.05851   7.06145
 Alpha virt. eigenvalues --    7.09444   7.10578   7.12480   7.13322   7.17186
 Alpha virt. eigenvalues --    7.22569   7.36104   7.41020   7.44866   7.52770
 Alpha virt. eigenvalues --    7.55638   7.62778  23.95449  23.97346  24.05357
 Alpha virt. eigenvalues --   24.09633  24.12158  24.13030  24.14323  24.16099
 Alpha virt. eigenvalues --   24.17225  24.19167  50.15957  50.19224  50.21973
          Condensed to atoms (all electrons):
               1          2          3          4          5          6
     1  C    6.368828   0.173970  -0.070666  -0.572994  -0.140805  -0.001222
     2  C    0.173970   5.887681   0.023890  -0.068617  -0.229975   0.017311
     3  C   -0.070666   0.023890   6.502839  -0.025974  -0.007877  -0.047760
     4  C   -0.572994  -0.068617  -0.025974   7.441450  -0.596042  -0.142343
     5  C   -0.140805  -0.229975  -0.007877  -0.596042   6.173620   0.042050
     6  O   -0.001222   0.017311  -0.047760  -0.142343   0.042050   8.450115
     7  C    0.001459   0.000294   0.009247  -0.070607   0.008098   0.027849
     8  O   -0.013253   0.126612  -0.000582  -0.057839  -0.050487  -0.000353
     9  C   -0.007766   0.000214  -0.059952  -0.029030  -0.007211  -0.042673
    10  C   -0.078951   0.026669  -0.553254  -0.558745   0.156043   0.273547
    11  C    0.019697  -0.002620   0.001585   0.029232  -0.007850  -0.013791
    12  C   -0.015607  -0.299056  -0.020017   0.018730   0.198763  -0.003928
    13  O   -0.164268   0.005703  -0.202778   0.196979  -0.097284   0.021268
    14  H    0.442194   0.021257   0.000706   0.026724  -0.039728  -0.000361
    15  H    0.445982  -0.000759   0.001116  -0.050499  -0.001798   0.000652
    16  H   -0.006478   0.425462   0.002338  -0.009167  -0.012670   0.000771
    17  H   -0.021462   0.431183  -0.001537   0.018099  -0.042351  -0.000262
    18  H   -0.001992   0.000877   0.525566   0.011583  -0.001755  -0.010538
    19  H    0.000183  -0.000190   0.408633   0.014567  -0.002015   0.006415
    20  H    0.001556  -0.001531   0.004239   0.495158  -0.041086  -0.005468
    21  H    0.004799  -0.008115  -0.008865  -0.056058   0.451581  -0.007096
    22  H   -0.038123  -0.110371  -0.003915   0.030530   0.467536  -0.009944
    23  H   -0.000570   0.000144  -0.056467  -0.005059   0.000103  -0.002906
    24  H    0.000862  -0.000049  -0.045368   0.005392   0.000135  -0.000101
    25  H   -0.000617   0.000038  -0.006853   0.003273   0.000197  -0.002904
    26  H    0.000200  -0.000045   0.003295  -0.000172  -0.000684   0.007321
    27  H   -0.007329  -0.007410  -0.087099   0.035818   0.002823  -0.051275
    28  H    0.001198   0.000720   0.017837   0.009532  -0.001474  -0.029946
    29  H    0.000492   0.000754   0.005337  -0.000163   0.000406  -0.067867
    30  H   -0.085327  -0.003845  -0.000192   0.026310  -0.008328   0.000036
    31  H   -0.027179  -0.000088  -0.001080   0.006186   0.002798  -0.000130
               7          8          9         10         11         12
     1  C    0.001459  -0.013253  -0.007766  -0.078951   0.019697  -0.015607
     2  C    0.000294   0.126612   0.000214   0.026669  -0.002620  -0.299056
     3  C    0.009247  -0.000582  -0.059952  -0.553254   0.001585  -0.020017
     4  C   -0.070607  -0.057839  -0.029030  -0.558745   0.029232   0.018730
     5  C    0.008098  -0.050487  -0.007211   0.156043  -0.007850   0.198763
     6  O    0.027849  -0.000353  -0.042673   0.273547  -0.013791  -0.003928
     7  C    5.669023   0.000069   0.039842  -0.029455  -0.072295  -0.002945
     8  O    0.000069   8.448411   0.000050   0.004133   0.000229   0.118532
     9  C    0.039842   0.000050   5.583392   0.101971   0.041398  -0.002096
    10  C   -0.029455   0.004133   0.101971   6.293645  -0.087711  -0.085603
    11  C   -0.072295   0.000229   0.041398  -0.087711   5.437884   0.005204
    12  C   -0.002945   0.118532  -0.002096  -0.085603   0.005204   5.583245
    13  O    0.039128  -0.000664   0.007814   0.132292  -0.011338   0.033834
    14  H   -0.000040  -0.002909   0.000651   0.003814  -0.000649  -0.085140
    15  H   -0.001355   0.007407   0.000345   0.010083  -0.000080  -0.024481
    16  H    0.000358  -0.075265   0.000034   0.006837  -0.001207   0.008784
    17  H   -0.000392  -0.038617   0.000328   0.008715   0.001130  -0.011241
    18  H   -0.031576  -0.000108  -0.011855  -0.118096  -0.000893  -0.000315
    19  H   -0.023575   0.000019   0.004900  -0.021788  -0.002496   0.000211
    20  H    0.004462  -0.006313  -0.001214  -0.060163  -0.001370   0.001063
    21  H   -0.002928   0.013065  -0.008208   0.001941   0.006651   0.002506
    22  H   -0.000517  -0.006159   0.002690  -0.004103  -0.001113   0.014914
    23  H    0.430899   0.000000  -0.032489   0.032598   0.005788  -0.000281
    24  H    0.523147  -0.000008  -0.067795  -0.022319  -0.009924   0.000367
    25  H   -0.009839  -0.000006   0.476809  -0.017219  -0.070328   0.000088
    26  H   -0.060774   0.000002   0.459966   0.010144  -0.041458  -0.000033
    27  H   -0.041268   0.001139   0.022228   0.480804   0.018618  -0.000585
    28  H    0.004859  -0.000033  -0.070423  -0.041141   0.476214  -0.000087
    29  H    0.003862   0.000032  -0.031753   0.004791   0.428340   0.000181
    30  H   -0.000206  -0.042233   0.000219   0.011962   0.000073   0.454107
    31  H    0.000085  -0.068014  -0.000148  -0.009304   0.000297   0.431904
              13         14         15         16         17         18
     1  C   -0.164268   0.442194   0.445982  -0.006478  -0.021462  -0.001992
     2  C    0.005703   0.021257  -0.000759   0.425462   0.431183   0.000877
     3  C   -0.202778   0.000706   0.001116   0.002338  -0.001537   0.525566
     4  C    0.196979   0.026724  -0.050499  -0.009167   0.018099   0.011583
     5  C   -0.097284  -0.039728  -0.001798  -0.012670  -0.042351  -0.001755
     6  O    0.021268  -0.000361   0.000652   0.000771  -0.000262  -0.010538
     7  C    0.039128  -0.000040  -0.001355   0.000358  -0.000392  -0.031576
     8  O   -0.000664  -0.002909   0.007407  -0.075265  -0.038617  -0.000108
     9  C    0.007814   0.000651   0.000345   0.000034   0.000328  -0.011855
    10  C    0.132292   0.003814   0.010083   0.006837   0.008715  -0.118096
    11  C   -0.011338  -0.000649  -0.000080  -0.001207   0.001130  -0.000893
    12  C    0.033834  -0.085140  -0.024481   0.008784  -0.011241  -0.000315
    13  O    8.484598  -0.002675  -0.001430  -0.000678  -0.000197  -0.000214
    14  H   -0.002675   0.456975  -0.018482  -0.001975   0.002335  -0.000319
    15  H   -0.001430  -0.018482   0.475901   0.001490  -0.001842   0.000530
    16  H   -0.000678  -0.001975   0.001490   0.490306  -0.017008   0.000003
    17  H   -0.000197   0.002335  -0.001842  -0.017008   0.493552  -0.000034
    18  H   -0.000214  -0.000319   0.000530   0.000003  -0.000034   0.457645
    19  H   -0.001837   0.000172  -0.000956  -0.000065   0.000103  -0.018578
    20  H   -0.018743  -0.002778  -0.006595   0.000930  -0.010719   0.003395
    21  H   -0.004344  -0.003485   0.000430  -0.012594  -0.004490  -0.000769
    22  H    0.004298   0.004882  -0.003025  -0.006642   0.005617  -0.000190
    23  H   -0.002043  -0.000024   0.000031   0.000023  -0.000020  -0.002512
    24  H    0.000872  -0.000061  -0.000016   0.000005  -0.000029   0.004923
    25  H    0.002621   0.000055  -0.000046   0.000010  -0.000013   0.001324
    26  H   -0.000105   0.000010   0.000001  -0.000022   0.000014  -0.002799
    27  H   -0.046006   0.002772   0.000142  -0.000872   0.002703  -0.007774
    28  H    0.005677   0.000029  -0.000148   0.000066  -0.000271   0.000929
    29  H   -0.002454  -0.000006   0.000018  -0.000031   0.000169  -0.000483
    30  H    0.000018   0.004260   0.001041  -0.003885   0.014364  -0.000158
    31  H   -0.002231  -0.007203  -0.010519   0.001142  -0.004675  -0.000013
              19         20         21         22         23         24
     1  C    0.000183   0.001556   0.004799  -0.038123  -0.000570   0.000862
     2  C   -0.000190  -0.001531  -0.008115  -0.110371   0.000144  -0.000049
     3  C    0.408633   0.004239  -0.008865  -0.003915  -0.056467  -0.045368
     4  C    0.014567   0.495158  -0.056058   0.030530  -0.005059   0.005392
     5  C   -0.002015  -0.041086   0.451581   0.467536   0.000103   0.000135
     6  O    0.006415  -0.005468  -0.007096  -0.009944  -0.002906  -0.000101
     7  C   -0.023575   0.004462  -0.002928  -0.000517   0.430899   0.523147
     8  O    0.000019  -0.006313   0.013065  -0.006159   0.000000  -0.000008
     9  C    0.004900  -0.001214  -0.008208   0.002690  -0.032489  -0.067795
    10  C   -0.021788  -0.060163   0.001941  -0.004103   0.032598  -0.022319
    11  C   -0.002496  -0.001370   0.006651  -0.001113   0.005788  -0.009924
    12  C    0.000211   0.001063   0.002506   0.014914  -0.000281   0.000367
    13  O   -0.001837  -0.018743  -0.004344   0.004298  -0.002043   0.000872
    14  H    0.000172  -0.002778  -0.003485   0.004882  -0.000024  -0.000061
    15  H   -0.000956  -0.006595   0.000430  -0.003025   0.000031  -0.000016
    16  H   -0.000065   0.000930  -0.012594  -0.006642   0.000023   0.000005
    17  H    0.000103  -0.010719  -0.004490   0.005617  -0.000020  -0.000029
    18  H   -0.018578   0.003395  -0.000769  -0.000190  -0.002512   0.004923
    19  H    0.477237  -0.002683   0.000263   0.000146  -0.011831  -0.006450
    20  H   -0.002683   0.409680  -0.007225  -0.001937  -0.000040   0.001897
    21  H    0.000263  -0.007225   0.488856  -0.020702  -0.000061  -0.000067
    22  H    0.000146  -0.001937  -0.020702   0.444834  -0.000060  -0.000038
    23  H   -0.011831  -0.000040  -0.000061  -0.000060   0.459341  -0.000075
    24  H   -0.006450   0.001897  -0.000067  -0.000038  -0.000075   0.450857
    25  H   -0.001556   0.000502  -0.000200  -0.000023   0.000195   0.002174
    26  H    0.001683  -0.000310   0.000100   0.000066  -0.009106  -0.005600
    27  H    0.006492  -0.009545   0.000601   0.002542  -0.002901  -0.010503
    28  H   -0.000093   0.002327   0.000080  -0.000416  -0.001504   0.002751
    29  H    0.001171  -0.000853  -0.000438  -0.000065   0.000326  -0.001995
    30  H    0.000089  -0.020696  -0.001328   0.001557   0.000008  -0.000090
    31  H    0.000081   0.004138   0.001276  -0.000304  -0.000015   0.000025
              25         26         27         28         29         30
     1  C   -0.000617   0.000200  -0.007329   0.001198   0.000492  -0.085327
     2  C    0.000038  -0.000045  -0.007410   0.000720   0.000754  -0.003845
     3  C   -0.006853   0.003295  -0.087099   0.017837   0.005337  -0.000192
     4  C    0.003273  -0.000172   0.035818   0.009532  -0.000163   0.026310
     5  C    0.000197  -0.000684   0.002823  -0.001474   0.000406  -0.008328
     6  O   -0.002904   0.007321  -0.051275  -0.029946  -0.067867   0.000036
     7  C   -0.009839  -0.060774  -0.041268   0.004859   0.003862  -0.000206
     8  O   -0.000006   0.000002   0.001139  -0.000033   0.000032  -0.042233
     9  C    0.476809   0.459966   0.022228  -0.070423  -0.031753   0.000219
    10  C   -0.017219   0.010144   0.480804  -0.041141   0.004791   0.011962
    11  C   -0.070328  -0.041458   0.018618   0.476214   0.428340   0.000073
    12  C    0.000088  -0.000033  -0.000585  -0.000087   0.000181   0.454107
    13  O    0.002621  -0.000105  -0.046006   0.005677  -0.002454   0.000018
    14  H    0.000055   0.000010   0.002772   0.000029  -0.000006   0.004260
    15  H   -0.000046   0.000001   0.000142  -0.000148   0.000018   0.001041
    16  H    0.000010  -0.000022  -0.000872   0.000066  -0.000031  -0.003885
    17  H   -0.000013   0.000014   0.002703  -0.000271   0.000169   0.014364
    18  H    0.001324  -0.002799  -0.007774   0.000929  -0.000483  -0.000158
    19  H   -0.001556   0.001683   0.006492  -0.000093   0.001171   0.000089
    20  H    0.000502  -0.000310  -0.009545   0.002327  -0.000853  -0.020696
    21  H   -0.000200   0.000100   0.000601   0.000080  -0.000438  -0.001328
    22  H   -0.000023   0.000066   0.002542  -0.000416  -0.000065   0.001557
    23  H    0.000195  -0.009106  -0.002901  -0.001504   0.000326   0.000008
    24  H    0.002174  -0.005600  -0.010503   0.002751  -0.001995  -0.000090
    25  H    0.466586  -0.010139  -0.001620   0.003519  -0.001804  -0.000013
    26  H   -0.010139   0.473515   0.002075   0.000079  -0.010598   0.000010
    27  H   -0.001620   0.002075   0.466774  -0.009384   0.000473   0.003908
    28  H    0.003519   0.000079  -0.009384   0.470034  -0.003023  -0.000137
    29  H   -0.001804  -0.010598   0.000473  -0.003023   0.470126   0.000041
    30  H   -0.000013   0.000010   0.003908  -0.000137   0.000041   0.501807
    31  H    0.000002  -0.000000  -0.000824   0.000029  -0.000005  -0.018765
              31
     1  C   -0.027179
     2  C   -0.000088
     3  C   -0.001080
     4  C    0.006186
     5  C    0.002798
     6  O   -0.000130
     7  C    0.000085
     8  O   -0.068014
     9  C   -0.000148
    10  C   -0.009304
    11  C    0.000297
    12  C    0.431904
    13  O   -0.002231
    14  H   -0.007203
    15  H   -0.010519
    16  H    0.001142
    17  H   -0.004675
    18  H   -0.000013
    19  H    0.000081
    20  H    0.004138
    21  H    0.001276
    22  H   -0.000304
    23  H   -0.000015
    24  H    0.000025
    25  H    0.000002
    26  H   -0.000000
    27  H   -0.000824
    28  H    0.000029
    29  H   -0.000005
    30  H   -0.018765
    31  H    0.476843
 Mulliken charges:
               1
     1  C   -0.206812
     2  C   -0.410107
     3  C   -0.306392
     4  C   -0.126255
     5  C   -0.214732
     6  O   -0.406466
     7  C   -0.414911
     8  O   -0.356860
     9  C   -0.370239
    10  C    0.127862
    11  C   -0.147220
    12  C   -0.321019
    13  O   -0.375813
    14  H    0.198998
    15  H    0.176863
    16  H    0.210000
    17  H    0.176848
    18  H    0.204197
    19  H    0.171749
    20  H    0.269919
    21  H    0.174821
    22  H    0.228036
    23  H    0.198509
    24  H    0.177083
    25  H    0.165787
    26  H    0.183367
    27  H    0.234483
    28  H    0.162199
    29  H    0.205019
    30  H    0.165394
    31  H    0.225692
 Sum of Mulliken charges =  -0.00000
 Mulliken charges with hydrogens summed into heavy atoms:
               1
     1  C    0.169049
     2  C   -0.023259
     3  C    0.069554
     4  C    0.143665
     5  C    0.188125
     6  O   -0.406466
     7  C   -0.039319
     8  O   -0.356860
     9  C   -0.021085
    10  C    0.362345
    11  C    0.219998
    12  C    0.070066
    13  O   -0.375813
 Electronic spatial extent (au):  <R**2>=           3402.6937
 Charge=             -0.0000 electrons
 Dipole moment (field-independent basis, Debye):
    X=              2.9602    Y=             -0.4303    Z=              4.0924  Tot=              5.0691
 Quadrupole moment (field-independent basis, Debye-Ang):
   XX=            -79.9229   YY=            -75.9957   ZZ=            -80.0347
   XY=              4.3097   XZ=             -1.7309   YZ=              0.4800
 Traceless Quadrupole moment (field-independent basis, Debye-Ang):
   XX=             -1.2718   YY=              2.6554   ZZ=             -1.3836
   XY=              4.3097   XZ=             -1.7309   YZ=              0.4800
 Octapole moment (field-independent basis, Debye-Ang**2):
  XXX=             88.1639  YYY=              8.4848  ZZZ=              1.8784  XYY=             -7.9799
  XXY=            -14.6477  XXZ=             16.5174  XZZ=             -3.0478  YZZ=              0.4040
  YYZ=              1.6704  XYZ=              0.2036
 Hexadecapole moment (field-independent basis, Debye-Ang**3):
 XXXX=          -3881.0967 YYYY=           -625.9111 ZZZZ=           -185.7388 XXXY=            119.5767
 XXXZ=            -46.3556 YYYX=              1.5726 YYYZ=             -6.7928 ZZZX=             -3.7055
 ZZZY=              1.2324 XXYY=           -657.1727 XXZZ=           -642.1149 YYZZ=           -140.8022
 XXYZ=             13.6525 YYXZ=             -0.0961 ZZXY=              1.3846
 N-N= 8.777420590904D+02 E-N=-3.197624313785D+03  KE= 6.153691752887D+02
 D1PCM: PCM CHGder 1st derivatives, ID1Alg=3 FixD1E=F DoIter=F DoCFld=F I1PDM=0.
 Calling FoFJK, ICntrl=      2127 FMM=F ISym2X=0 I1Cent= 0 IOpClX= 0 NMat=1 NMatS=1 NMatT=0.
 ***** Axes restored to original set *****
 -------------------------------------------------------------------
 Center     Atomic                   Forces (Hartrees/Bohr)
 Number     Number              X              Y              Z
 -------------------------------------------------------------------
      1        6           0.000136232    0.002003613   -0.002975692
      2        6          -0.005752115   -0.002620850    0.000741860
      3        6          -0.001498558    0.002051565   -0.002696999
      4        6           0.004974275    0.003349411    0.001758805
      5        6           0.001268927   -0.002041926   -0.002667017
      6        8           0.006374868    0.007732889    0.009801290
      7        6           0.002461646    0.002428835    0.002418086
      8        8           0.008973356    0.002825337    0.007082561
      9        6           0.002091458   -0.000950573   -0.002417561
     10        6          -0.005050118   -0.004883684   -0.002053472
     11        6          -0.004526097   -0.005090454   -0.000180316
     12        6          -0.006695637   -0.000569270    0.000725829
     13        8           0.000601499   -0.007320430    0.009952592
     14        1          -0.000077710    0.000902027    0.003806725
     15        1          -0.001037334   -0.002781573   -0.001312474
     16        1           0.001222585    0.004111173    0.001560686
     17        1          -0.000897521   -0.000349373   -0.005595464
     18        1           0.000340796    0.000446082    0.003888382
     19        1           0.001112807   -0.002445330   -0.001612920
     20        1           0.000261046    0.000055440   -0.006206315
     21        1          -0.003153530    0.002110965   -0.001829873
     22        1           0.000168174   -0.000576932    0.003872312
     23        1          -0.001824436   -0.001738093    0.000808457
     24        1           0.000688629    0.000668256   -0.003218908
     25        1           0.000262592   -0.000279708    0.003332356
     26        1          -0.002181725    0.001044891   -0.001330741
     27        1           0.000440225    0.000970763   -0.008354073
     28        1          -0.000078820    0.000238907   -0.005648516
     29        1          -0.000803565    0.003998808    0.002115294
     30        1          -0.000847785   -0.000489194   -0.005584658
     31        1           0.003045837   -0.002801572    0.001819763
 -------------------------------------------------------------------
 Cartesian Forces:  Max     0.009952592 RMS     0.003549148

 GradGradGradGradGradGradGradGradGradGradGradGradGradGradGradGradGradGrad
 Berny optimization.
 FormGI is forming the generalized inverse of G from B-inverse, IUseBI=4.
 Internal  Forces:  Max     0.011640069 RMS     0.002160297
 Search for a local minimum.
 Step number   1 out of a maximum of  186
 All quantities printed in internal units (Hartrees-Bohrs-Radians)
 Mixed Optimization -- RFO/linear search
 Second derivative matrix not updated -- first step.
 ITU=  0
     Eigenvalues ---    0.00614   0.00683   0.00729   0.00754   0.01418
     Eigenvalues ---    0.01435   0.01487   0.02711   0.02732   0.03101
     Eigenvalues ---    0.03376   0.04161   0.04216   0.04758   0.04772
     Eigenvalues ---    0.04825   0.04895   0.05054   0.05155   0.05183
     Eigenvalues ---    0.05222   0.05683   0.05719   0.06139   0.06161
     Eigenvalues ---    0.06246   0.06343   0.06784   0.07667   0.07919
     Eigenvalues ---    0.07940   0.07962   0.08007   0.08008   0.08508
     Eigenvalues ---    0.08704   0.08976   0.09168   0.10905   0.11448
     Eigenvalues ---    0.11709   0.11721   0.11765   0.12309   0.13157
     Eigenvalues ---    0.14265   0.14333   0.16376   0.16399   0.17743
     Eigenvalues ---    0.19105   0.21429   0.21759   0.25000   0.28554
     Eigenvalues ---    0.28642   0.28743   0.28959   0.29040   0.29352
     Eigenvalues ---    0.30090   0.30487   0.35023   0.35052   0.35065
     Eigenvalues ---    0.35078   0.35124   0.35162   0.35198   0.35204
     Eigenvalues ---    0.35220   0.35239   0.35262   0.35318   0.35358
     Eigenvalues ---    0.35365   0.35511   0.35870   0.35871   0.35873
     Eigenvalues ---    0.41233   0.41748   0.42081   0.42358   0.42508
     Eigenvalues ---    0.477301000.000001000.000001000.000001000.00000
     Eigenvalues --- 1000.000001000.000001000.000001000.000001000.00000
     Eigenvalues --- 1000.000001000.000001000.000001000.000001000.00000
     Eigenvalues --- 1000.000001000.000001000.000001000.000001000.00000
     Eigenvalues --- 1000.000001000.000001000.000001000.000001000.00000
     Eigenvalues --- 1000.000001000.000001000.000001000.000001000.00000
     Eigenvalues --- 1000.000001000.000001000.000001000.000001000.00000
     Eigenvalues --- 1000.000001000.000001000.000001000.000001000.00000
     Eigenvalues --- 1000.000001000.000001000.000001000.000001000.00000
     Eigenvalues --- 1000.000001000.000001000.000001000.000001000.00000
     Eigenvalues --- 1000.000001000.000001000.000001000.000001000.00000
     Eigenvalues --- 1000.000001000.000001000.000001000.000001000.00000
     Eigenvalues --- 1000.000001000.000001000.000001000.000001000.00000
     Eigenvalues --- 1000.000001000.000001000.000001000.000001000.00000
     Eigenvalues --- 1000.000001000.000001000.000001000.000001000.00000
     Eigenvalues --- 1000.000001000.000001000.000001000.000001000.00000
     Eigenvalues --- 1000.000001000.000001000.000001000.000001000.00000
     Eigenvalues --- 1000.000001000.000001000.000001000.000001000.00000
     Eigenvalues --- 1000.000001000.000001000.000001000.000001000.00000
     Eigenvalues --- 1000.000001000.000001000.000001000.000001000.00000
 RFO step:  Lambda=-3.01829365D-03 EMin= 6.14253791D-03
 Linear search not attempted -- first point.
 Iteration  1 RMS(Cart)=  0.05113049 RMS(Int)=  0.00066458
 Iteration  2 RMS(Cart)=  0.00157518 RMS(Int)=  0.00001897
 Iteration  3 RMS(Cart)=  0.00000063 RMS(Int)=  0.00001896
 Iteration  1 RMS(Cart)=  0.00000301 RMS(Int)=  0.00000064
 Iteration  2 RMS(Cart)=  0.00000161 RMS(Int)=  0.00000071
 Iteration  3 RMS(Cart)=  0.00000086 RMS(Int)=  0.00000081
 Variable       Old X    -DE/DX   Delta X   Delta X   Delta X     New X
                                 (Linear)    (Quad)   (Total)
    R1        2.87699  -0.00196   0.00000  -0.00734  -0.00736   2.86963
    R2        2.87675  -0.00062   0.00000  -0.00180  -0.00180   2.87494
    R3        2.05345   0.00378   0.00000   0.01064   0.01064   2.06408
    R4        2.05162   0.00321   0.00000   0.00901   0.00901   2.06063
    R5        2.87899  -0.00038   0.00000  -0.00142  -0.00142   2.87757
    R6        2.67097   0.00604   0.00000   0.01446   0.01448   2.68545
    R7        2.04285   0.00456   0.00000   0.01261   0.01261   2.05546
    R8        2.05590   0.00557   0.00000   0.01575   0.01575   2.07166
    R9        2.89267  -0.00103   0.00000  -0.00399  -0.00401   2.88866
   R10        2.86780  -0.00125   0.00000  -0.00365  -0.00365   2.86415
   R11        2.05413   0.00373   0.00000   0.01052   0.01052   2.06465
   R12        2.05086   0.00311   0.00000   0.00871   0.00871   2.05957
   R13        2.88384  -0.00189   0.00000  -0.00693  -0.00695   2.87689
   R14        2.68470   0.00427   0.00000   0.01000   0.01000   2.69470
   R15        2.05251   0.00613   0.00000   0.01724   0.01724   2.06975
   R16        2.04854   0.00412   0.00000   0.01150   0.01150   2.06004
   R17        2.05354   0.00380   0.00000   0.01069   0.01069   2.06424
   R18        2.66276   0.00856   0.00000   0.02021   0.02023   2.68299
   R19        2.68034   0.00592   0.00000   0.01414   0.01417   2.69451
   R20        2.88930  -0.00071   0.00000  -0.00380  -0.00382   2.88547
   R21        2.05098   0.00264   0.00000   0.00740   0.00740   2.05839
   R22        2.05637   0.00326   0.00000   0.00923   0.00923   2.06560
   R23        2.67096   0.00635   0.00000   0.01495   0.01498   2.68594
   R24        2.87244  -0.00072   0.00000  -0.00265  -0.00265   2.86979
   R25        2.05474   0.00325   0.00000   0.00917   0.00917   2.06391
   R26        2.05289   0.00276   0.00000   0.00775   0.00775   2.06064
   R27        2.62228   0.00531   0.00000   0.01105   0.01105   2.63333
   R28        2.05320   0.00839   0.00000   0.02363   0.02363   2.07683
   R29        2.05569   0.00556   0.00000   0.01573   0.01573   2.07142
   R30        2.04283   0.00459   0.00000   0.01268   0.01268   2.05551
   R31        2.05549   0.00556   0.00000   0.01571   0.01571   2.07121
   R32        2.04281   0.00451   0.00000   0.01248   0.01248   2.05529
    A1        1.93002  -0.00048   0.00000  -0.00770  -0.00776   1.92226
    A2        1.90542   0.00025   0.00000  -0.00280  -0.00280   1.90262
    A3        1.92422  -0.00056   0.00000  -0.00169  -0.00167   1.92255
    A4        1.90866  -0.00002   0.00000   0.00130   0.00126   1.90992
    A5        1.91094   0.00057   0.00000   0.00438   0.00439   1.91533
    A6        1.88393   0.00026   0.00000   0.00688   0.00686   1.89079
    A7        1.94693   0.00097   0.00000   0.00318   0.00319   1.95012
    A8        1.93325  -0.00021   0.00000  -0.00196  -0.00196   1.93129
    A9        1.92944  -0.00130   0.00000  -0.00817  -0.00818   1.92126
   A10        1.86094  -0.00060   0.00000  -0.00023  -0.00023   1.86071
   A11        1.90286   0.00063   0.00000   0.00449   0.00450   1.90736
   A12        1.88818   0.00054   0.00000   0.00312   0.00310   1.89128
   A13        1.92909  -0.00046   0.00000  -0.00566  -0.00573   1.92336
   A14        1.92490   0.00078   0.00000   0.00411   0.00409   1.92899
   A15        1.93615  -0.00009   0.00000   0.00291   0.00290   1.93905
   A16        1.88844  -0.00054   0.00000  -0.00656  -0.00654   1.88190
   A17        1.90074   0.00006   0.00000  -0.00147  -0.00144   1.89931
   A18        1.88322   0.00025   0.00000   0.00666   0.00663   1.88985
   A19        1.91636   0.00238   0.00000   0.00228   0.00223   1.91859
   A20        1.87082  -0.00016   0.00000   0.00333   0.00334   1.87416
   A21        1.90618  -0.00060   0.00000   0.00240   0.00240   1.90858
   A22        1.97206  -0.00173   0.00000  -0.01026  -0.01024   1.96182
   A23        1.90906  -0.00089   0.00000  -0.00483  -0.00482   1.90424
   A24        1.88809   0.00100   0.00000   0.00764   0.00759   1.89569
   A25        1.92200  -0.00034   0.00000  -0.00558  -0.00565   1.91635
   A26        1.89927   0.00057   0.00000   0.00626   0.00625   1.90553
   A27        1.91189   0.00022   0.00000   0.00241   0.00240   1.91429
   A28        1.93922  -0.00081   0.00000  -0.00566  -0.00562   1.93359
   A29        1.90643   0.00013   0.00000  -0.00326  -0.00324   1.90319
   A30        1.88452   0.00026   0.00000   0.00618   0.00614   1.89066
   A31        1.98307  -0.00497   0.00000  -0.02550  -0.02544   1.95763
   A32        1.92558   0.00203   0.00000  -0.00134  -0.00141   1.92417
   A33        1.92053  -0.00058   0.00000  -0.00025  -0.00021   1.92031
   A34        1.90892  -0.00083   0.00000  -0.00208  -0.00207   1.90684
   A35        1.93228  -0.00055   0.00000   0.00054   0.00057   1.93284
   A36        1.90871  -0.00073   0.00000  -0.00152  -0.00151   1.90720
   A37        1.86679   0.00058   0.00000   0.00476   0.00475   1.87154
   A38        1.96798  -0.00453   0.00000  -0.02426  -0.02422   1.94376
   A39        1.92134   0.00015   0.00000  -0.00433  -0.00440   1.91694
   A40        1.91914   0.00053   0.00000   0.00194   0.00195   1.92109
   A41        1.93605  -0.00062   0.00000  -0.00067  -0.00067   1.93538
   A42        1.90379  -0.00042   0.00000  -0.00187  -0.00186   1.90193
   A43        1.90633   0.00008   0.00000  -0.00012  -0.00010   1.90623
   A44        1.87639   0.00028   0.00000   0.00524   0.00523   1.88162
   A45        1.92733   0.00134   0.00000   0.00482   0.00480   1.93213
   A46        1.90793   0.00022   0.00000  -0.00135  -0.00135   1.90658
   A47        1.93236  -0.00062   0.00000  -0.00264  -0.00265   1.92971
   A48        1.88775  -0.00175   0.00000  -0.01006  -0.01005   1.87770
   A49        1.89164   0.00024   0.00000   0.00374   0.00375   1.89539
   A50        1.91625   0.00054   0.00000   0.00540   0.00541   1.92166
   A51        1.93633   0.00098   0.00000   0.00368   0.00368   1.94001
   A52        1.90364   0.00075   0.00000   0.00448   0.00450   1.90814
   A53        1.85157  -0.00075   0.00000  -0.00028  -0.00029   1.85128
   A54        1.93056  -0.00132   0.00000  -0.00781  -0.00782   1.92274
   A55        1.94994  -0.00012   0.00000  -0.00218  -0.00219   1.94776
   A56        1.88929   0.00052   0.00000   0.00261   0.00259   1.89188
   A57        1.94068   0.00113   0.00000   0.00567   0.00566   1.94635
   A58        1.93130  -0.00126   0.00000  -0.00841  -0.00842   1.92288
   A59        1.93476  -0.00037   0.00000  -0.00326  -0.00327   1.93149
   A60        1.90399   0.00066   0.00000   0.00416   0.00418   1.90817
   A61        1.86194  -0.00072   0.00000  -0.00076  -0.00075   1.86119
   A62        1.88907   0.00058   0.00000   0.00297   0.00294   1.89202
   A63        2.06722  -0.01164   0.00000  -0.04600  -0.04600   2.02122
    D1       -0.91279  -0.00012   0.00000  -0.00997  -0.00995  -0.92274
    D2       -3.06105   0.00065   0.00000  -0.00090  -0.00089  -3.06194
    D3        1.18044  -0.00013   0.00000  -0.01302  -0.01302   1.16743
    D4        1.18788  -0.00029   0.00000  -0.01496  -0.01494   1.17294
    D5       -0.96038   0.00048   0.00000  -0.00589  -0.00588  -0.96626
    D6       -3.00207  -0.00030   0.00000  -0.01801  -0.01801  -3.02008
[...]
 2,-0.29116926,-0.00039231,0.00006668,0.00027181,-0.00054949,0.00101313
 ,-0.00242617,0.00000071,-0.00001065,0.00000834,0.00030705,-0.00000541,
 -0.00001593,0.00000097,-0.00000033,0.00000294,-0.00000066,-0.00000187,
 0.,0.00000413,0.00000205,-0.00000095,0.00000021,0.00000041,-0.00000057
 ,0.00048413,-0.00007447,0.00027491,-0.00002631,-0.00017879,0.00024943,
 0.00000830,0.00000444,-0.00000651,-0.00000450,-0.00000140,0.00000107,0
 .00000138,0.00000147,0.00000095,-0.00032047,0.00007451,0.00070922,0.00
 068160,-0.00327746,-0.00045651,-0.05095708,-0.05212016,0.31657491,-0.0
 0004098,-0.00003066,0.00003536,0.00003706,0.00000562,-0.00001839,0.001
 09872,0.00049087,0.00076389,0.00027252,0.00006546,-0.00015360,-0.00009
 648,-0.00004001,0.00008294,-0.00757557,-0.00202116,0.00044006,-0.00263
 983,0.00126907,-0.00061366,-0.00004054,0.00000518,-0.00000229,-0.21511
 540,0.10010125,-0.07960083,0.00126958,-0.00199319,-0.00111029,-0.01689
 810,0.01564255,-0.01044071,0.00000380,0.00001730,-0.00002348,-0.000555
 09,0.00041688,0.00002975,-0.00000085,0.00000172,-0.00000349,0.00000017
 ,0.00000486,-0.00000106,-0.00001325,-0.00000703,0.00000231,-0.00000801
 ,-0.00000072,0.00000905,-0.00007753,0.00003056,-0.00013077,-0.00016388
 ,0.00002876,-0.00026687,-0.00002375,-0.00000814,0.00002482,-0.00002050
 ,0.00002677,-0.00002726,0.00000239,-0.00000411,0.00001667,0.00034075,0
 .00026152,0.00026988,0.00016329,-0.00009482,0.00011700,0.00580083,-0.0
 0351532,0.00178120,0.23258698,0.00001082,0.00000758,-0.00000747,0.0000
 0360,0.00002311,0.00000076,-0.00034020,-0.00435365,-0.00445978,0.00003
 598,0.00001095,0.00005293,-0.00000732,-0.00002784,0.00001586,-0.006585
 23,-0.00049199,0.00008247,0.02272551,-0.01293677,0.01166440,-0.0000140
 3,0.00000576,-0.00000169,0.10128296,-0.10855869,0.05050659,-0.00063477
 ,-0.00192564,-0.00069249,-0.01261569,0.01061720,-0.00809947,-0.0000000
 7,-0.00001170,0.00000116,0.00011406,0.00054352,0.00011866,-0.00000033,
 -0.00000027,0.00000012,-0.00000140,-0.00000007,0.00000045,0.00000219,-
 0.00000004,-0.00000068,-0.00000324,-0.00000076,0.00000280,-0.00029925,
 0.00011031,0.00000787,0.00187491,-0.00058361,0.00036166,-0.00000468,-0
 .00000094,-0.00000055,-0.00001925,0.00000969,-0.00001527,0.00000118,-0
 .00000403,0.00001259,-0.00063071,0.00089908,0.00071343,-0.00041376,0.0
 0138794,0.00003797,0.00438190,-0.00338411,0.00216134,-0.11077844,0.117
 48332,0.00000964,0.00000532,-0.00000904,-0.00000233,0.00000883,-0.0000
 0068,0.00022542,-0.00294651,-0.00132304,-0.00002400,-0.00000594,0.0000
 3221,0.00001496,-0.00000255,0.00000086,0.00016232,-0.00000890,0.001459
 12,0.01518229,-0.00829345,0.00594996,-0.00000098,0.00000152,0.00000011
 ,-0.08216859,0.05108647,-0.08684648,-0.00042971,-0.00029566,-0.0001226
 6,0.00265349,-0.00128837,-0.00100704,0.00000031,-0.00000617,0.00000340
 ,0.00011345,0.00005581,0.00002617,0.00000046,-0.00000030,0.00000052,-0
 .00000011,-0.00000028,0.00000014,0.00000255,0.00000044,-0.00000070,0.0
 0000038,-0.00000017,-0.00000010,0.00017079,-0.00009435,0.00022779,0.00
 072498,-0.00050269,0.00031713,0.00000320,0.00000245,-0.00000313,-0.000
 00609,0.00000351,-0.00000195,0.00000091,0.00000062,-0.00000034,-0.0004
 1765,0.00073939,0.00037315,0.00005732,0.00084506,0.00088269,-0.0242478
 2,0.01354150,-0.01049206,0.08829517,-0.05251515,0.09026583,-0.00015232
 ,-0.00005069,-0.00000877,0.00002220,-0.00007889,0.00001435,-0.00301337
 ,-0.00872533,0.02246580,0.00238900,0.00143820,-0.00470052,-0.00049068,
 -0.00013590,-0.00010617,0.00085611,0.00442685,0.00806532,0.00134023,-0
 .00009712,0.00085700,-0.00001227,-0.00004859,-0.00001820,-0.00020544,-
 0.00002856,-0.00020345,-0.06263248,-0.01788953,0.04423791,0.00141019,-
 0.00038852,0.00204060,0.00003498,0.00007581,0.00005585,-0.00940394,0.0
 1561962,-0.03396066,-0.00011676,0.00003421,0.00018544,0.00002525,-0.00
 001212,-0.00000669,-0.00002184,-0.00000643,0.00001179,-0.00000873,-0.0
 0000035,0.00001648,-0.00326531,-0.00324723,0.00040196,0.00071982,0.000
 14391,-0.00065240,-0.00009621,0.00030645,0.00056140,0.00002449,-0.0001
 3423,-0.00009738,0.00003716,0.00009044,-0.00000221,0.00009017,0.000015
 40,-0.00022908,-0.00008945,0.00012220,-0.00036805,0.00003414,0.0000325
 9,-0.00003815,-0.00005136,0.00004738,0.00002306,0.07270442,0.00013499,
 0.00005694,-0.00027487,-0.00003211,0.00014826,0.00006491,-0.00517288,-
 0.00509189,0.02091188,-0.00282688,-0.00057449,0.00065576,0.00005982,0.
 00008772,-0.00038581,0.01151974,-0.00568409,-0.03714511,0.00091937,0.0
 0019464,0.00001244,-0.00000114,0.00003331,-0.00001152,0.00031338,-0.00
 023916,0.00031727,-0.01539592,-0.07131959,0.07071871,-0.00326769,0.002
 42960,-0.00368386,0.00001627,-0.00011838,0.00005693,0.00794876,-0.0041
 1625,0.01727463,-0.00003871,0.00003030,-0.00004538,-0.00001509,-0.0000
 0893,0.00000786,0.00005492,0.00001675,-0.00001457,0.00000543,-0.000002
 53,-0.00000044,-0.00340117,-0.00208344,0.00058233,0.00079744,0.0007897
 6,-0.00023134,0.00039273,-0.00008567,-0.00060515,-0.00002085,-0.000025
 99,-0.00007549,-0.00002247,-0.00001602,-0.00002657,0.00001223,0.000005
 81,-0.00030999,-0.00014399,0.00030225,-0.00041877,-0.00001429,-0.00006
 507,0.00006346,0.00014029,0.00018611,0.00007322,0.00846070,0.08517329,
 -0.00007765,-0.00008645,0.00071716,-0.00001895,-0.00013814,0.00005644,
 -0.00000906,0.00162356,-0.00052890,0.00286490,0.00062442,0.00095121,-0
 .00020478,-0.00018955,-0.00003672,0.00846079,-0.01109561,-0.02605555,0
 .00020007,-0.00026891,0.00028426,0.00009151,-0.00004546,0.00001267,0.0
 0018597,-0.00039001,0.00015007,0.03676204,0.06849566,-0.25860699,-0.00
 212310,0.00181094,-0.00006482,-0.00007009,0.00014427,-0.00006939,-0.00
 820071,0.00943792,-0.01451519,0.00022130,-0.00010466,0.00002023,0.0000
 1411,-0.00001914,-0.00001064,-0.00003249,-0.00000613,0.00000369,-0.000
 01006,-0.00000203,0.00000269,-0.00052768,-0.00008369,0.00086149,0.0003
 7877,0.00049113,0.00021328,-0.00107336,-0.00016945,0.00045439,-0.00018
 152,-0.00024570,-0.00014801,0.00004529,0.00000156,0.00002596,0.0001092
 2,-0.00002847,0.00014868,0.00032691,-0.00021955,0.00007257,-0.00005745
 ,0.00009763,-0.00014546,0.00015564,0.00006551,0.00000328,-0.03829318,-
 0.06877753,0.29510655,-0.00002888,-0.00002691,0.00002884,0.00000991,-0
 .00002085,0.00001337,-0.00012485,0.00023202,0.00035818,0.00021938,0.00
 013089,-0.00001820,-0.00005891,0.00007374,-0.00002258,-0.00617678,0.01
 771650,-0.03377860,0.00072524,0.00138351,0.00032507,0.00000219,-0.0000
 0516,-0.00000180,-0.00539362,-0.00776226,0.02722463,0.00174646,-0.0031
 8612,-0.00431049,-0.05757651,-0.01269779,0.04925571,-0.00000046,0.0000
 2208,-0.00001445,-0.00074964,0.00017596,0.00041922,-0.00000026,0.00000
 185,-0.00000221,0.00000199,0.00000224,0.00000046,-0.00000934,-0.000002
 96,0.00000175,-0.00000380,0.00000081,0.00000313,-0.00007400,-0.0000030
 6,0.00006211,0.00020636,0.00008701,0.00005862,-0.00005524,-0.00001667,
 0.00002432,0.00021648,-0.00007158,0.00008623,0.00002381,-0.00001229,0.
 00002003,-0.00005404,0.00019408,-0.00024069,0.00022145,-0.00009887,-0.
 00055226,-0.00391426,-0.00422811,0.00013576,0.00100070,0.00077666,-0.0
 0037108,-0.00005448,-0.00039032,0.00093453,0.06934434,0.00001003,0.000
 01097,-0.00002477,-0.00001781,-0.00000998,0.00001737,0.00004790,-0.000
 36097,-0.00030402,-0.00009650,-0.00006583,0.00001845,0.00004040,0.0000
 4081,-0.00005646,0.00769444,-0.00841684,0.01871063,0.00058200,0.000908
 02,0.00104543,0.00002431,-0.00000469,-0.00000131,-0.00556344,-0.004645
 72,0.01865098,-0.00088582,0.00157319,0.00408170,-0.01296612,-0.0692110
 8,0.05344769,-0.00000083,-0.00000388,0.00001126,0.00048777,-0.00014576
 ,-0.00041532,-0.00000172,0.00000095,0.00000171,0.00000019,-0.00000386,
 0.00000110,0.00000557,0.00000355,-0.00000112,0.00000426,-0.00000029,-0
 .00000515,0.00004636,0.00005227,-0.00006151,-0.00004847,-0.00009576,-0
 .00003669,0.00004268,0.00000452,-0.00002175,0.00008099,-0.00004533,0.0
 0005026,-0.00000055,0.00000277,-0.00000751,0.00002831,0.00018620,-0.00
 020168,0.00001855,-0.00003121,-0.00023760,-0.00304931,-0.00141387,0.00
 040860,0.00024214,0.00065227,-0.00037352,0.00001533,0.00002455,-0.0005
 5891,0.00901901,0.07226385,-0.00003878,-0.00002813,0.00003106,0.000030
 54,0.00002195,-0.00003808,-0.00013963,0.00012911,0.00017809,0.00019857
 ,0.00008720,-0.00015003,-0.00008408,-0.00009665,0.00010739,-0.01091253
 ,0.01045925,-0.01263762,-0.00054490,-0.00019306,0.00080513,-0.00004635
 ,0.00000237,0.00000415,0.00147941,-0.00053144,-0.00240853,0.00143213,-
 0.00320083,0.00061144,0.04641803,0.05719213,-0.27448153,0.00000325,0.0
 0001469,-0.00002512,-0.00055475,0.00011571,0.00045028,-0.00000213,0.00
 000200,-0.00000261,0.00000044,0.00000515,-0.00000091,-0.00001338,-0.00
 000818,0.00000159,-0.00000926,0.00000056,0.00001162,0.00007056,-0.0000
 4015,-0.00016759,0.00002140,0.00014551,-0.00001911,-0.00003791,-0.0000
 0381,0.00001396,-0.00019616,0.00009607,-0.00010897,-0.00000194,0.00000
 062,0.00000968,0.00005968,0.00004130,0.00019068,-0.00014757,0.00052450
 ,0.00018942,0.00042377,-0.00001346,0.00116723,0.00063213,0.00030381,0.
 00019076,-0.00024660,0.00110077,0.00057661,-0.04187383,-0.07003093,0.3
 0074864,-0.00010287,-0.00008694,0.00009081,0.00003940,-0.00002594,-0.0
 0003396,-0.00049921,0.00054379,0.00021914,0.00058551,0.00031238,-0.000
 28117,-0.00006625,-0.00002478,0.00010338,-0.01184238,0.03333315,0.0169
 0945,-0.00511588,-0.00260224,0.00155449,-0.00003509,-0.00001371,0.0000
 0042,0.00488484,-0.02298558,-0.01630937,-0.00196688,-0.00147165,-0.004
 04881,-0.04886316,0.01209390,0.00972575,-0.00000340,0.00005392,-0.0000
 4992,-0.00196733,0.00217221,0.00018631,0.00000089,0.00000206,-0.000007
 86,0.00000525,0.00000174,0.00000150,-0.00002442,-0.00000947,0.00000553
 ,-0.00000394,0.00000056,0.00000621,0.00009537,-0.00002086,0.00002983,0
 .00032455,0.00011560,0.00005035,-0.00006675,-0.00002601,0.00005364,-0.
 00000606,0.00001354,-0.00000668,0.00000386,-0.00000336,-0.00001109,0.0
 0030872,-0.00179200,-0.00078320,-0.00002885,0.00021535,-0.00002805,0.0
 0110235,0.00091825,0.00032005,0.00075838,0.00108877,0.00002547,-0.0000
 2483,-0.00008871,0.00017620,0.00056612,0.00423412,0.00409313,0.0619709
 4,0.00008274,0.00006554,-0.00007351,-0.00003436,0.00001807,0.00002384,
 -0.00003458,0.00039251,-0.00017277,-0.00044092,-0.00023359,0.00024734,
 0.00008040,0.00003276,-0.00008665,0.00984878,-0.01831516,-0.00814743,-
 0.00385891,-0.00071335,0.00106466,0.00003256,0.00000563,0.00000063,0.0
 0089925,-0.01410117,-0.01080995,0.00009534,0.00304126,0.00354807,0.018
 17196,-0.23080284,-0.12391039,0.00000124,-0.00004216,0.00004112,0.0014
 2026,-0.00109564,-0.00025962,0.00000004,-0.00000240,0.00000683,-0.0000
 0415,-0.00000260,-0.00000033,0.00002041,0.00000903,-0.00000440,0.00000
 550,0.00000060,-0.00000686,0.00003525,-0.00002861,0.00005032,-0.000023
 77,-0.00011656,-0.00003491,0.00005347,0.00001765,-0.00004189,0.0000132
 8,-0.00002360,0.00002067,0.00000056,0.00000016,-0.00000569,0.00023565,
 -0.00097476,-0.00066527,0.00006583,0.00004472,-0.00016902,0.00076546,0
 .00068046,0.00029967,-0.00025480,0.00034091,-0.00003129,0.00002808,-0.
 00006764,-0.00034419,-0.00128882,0.00873076,0.00390553,-0.02593897,0.2
 5313345,-0.00002501,-0.00002124,0.00002213,0.00000824,-0.00001043,-0.0
 0000752,-0.00008140,0.00020849,-0.00002660,0.00007702,0.00011836,-0.00
 006783,0.00001640,-0.00000297,0.00001909,-0.00419357,0.01517452,0.0095
 0611,0.00001597,0.00019613,0.00103018,-0.00000302,-0.00000323,0.000001
 83,0.00038207,0.00446138,0.00215109,-0.00104930,0.00029941,-0.00076752
 ,0.01624704,-0.13240769,-0.14277239,-0.00000379,0.00001086,-0.00001242
 ,-0.00085133,0.00049485,0.00020988,0.00000136,-0.00000077,-0.00000231,
 0.00000236,-0.00000008,0.00000115,-0.00000350,-0.00000005,0.00000128,-
 0.00000012,0.00000029,0.00000056,0.00000141,-0.00001288,-0.00001288,0.
 00009029,0.00003072,-0.00001840,-0.00001837,-0.00000100,0.00001856,-0.
 00001297,-0.00001069,-0.00001111,0.00000024,-0.00000098,-0.00000650,0.
 00014878,-0.00010914,0.00017017,-0.00004030,0.00025375,0.00029854,-0.0
 0063610,0.00000725,0.00073185,-0.00026988,-0.00031730,0.00007468,-0.00
 002438,0.00018296,0.00052572,0.00223150,-0.02410408,-0.01525512,-0.012
 00317,0.13556508,0.14419566,-0.00287756,0.00305888,0.03035972,-0.00042
 011,0.00109384,0.00123752,-0.00001084,0.00001429,-0.00000444,0.0014061
 9,0.00009797,0.00127626,-0.00022838,-0.00009679,0.00005661,-0.00000048
 ,0.00001807,0.00000866,-0.00000556,-0.00000655,0.00000546,0.00301389,-
 0.00355021,-0.00652703,-0.00000092,0.00000072,-0.00000222,0.00005993,-
 0.00006133,-0.00014089,0.00000838,-0.00000769,0.00000862,-0.05468904,0
 .00411957,0.01515745,-0.00019379,-0.00008911,-0.00029758,-0.00488725,-
 0.00157785,0.00190728,0.00116484,0.00004295,-0.00074844,-0.00003815,-0
 .00006392,0.00002122,0.00019303,-0.00012243,0.00023888,0.00000083,-0.0
 0000199,0.00000097,-0.00000070,-0.00000019,-0.00000003,-0.00008657,-0.
 00000043,-0.00033970,0.00004033,0.00007148,-0.00002079,0.00001646,0.00
 000376,-0.00010184,-0.00000462,0.00000102,-0.00000051,0.00000025,-0.00
 000004,-0.00000074,0.00000032,0.00000007,-0.00000013,-0.00000153,0.000
 00051,0.00000004,-0.00003623,0.00001555,-0.00001075,-0.00000051,0.0000
 0053,-0.00000139,-0.00000206,0.00000152,-0.00000058,0.05450706,-0.0009
 0584,0.00304981,0.01123791,-0.00328008,0.00289542,-0.00476832,-0.00001
 085,0.00000865,-0.00000533,0.00056306,-0.00035600,-0.00005813,0.000356
 31,-0.00036329,0.00054134,0.00001659,0.00002284,0.00000292,-0.00000325
 ,-0.00000520,0.00000231,0.00062287,-0.02782493,-0.03835152,0.00000138,
 -0.00000082,-0.00000042,0.00002726,-0.00005520,-0.00003298,0.00000169,
 0.00000309,0.00000107,0.00612503,-0.05140890,-0.02502488,-0.00012392,0
 .00001565,-0.00011356,-0.00283120,0.00034606,0.00062026,0.00066498,0.0
 0042597,-0.00030579,-0.00006122,0.00003250,0.00032303,-0.00004369,0.00
 060517,0.00120405,0.00000046,-0.00000024,0.00000069,0.00000058,0.00000
 063,0.00000021,0.00000667,0.00007128,-0.00025878,0.00022614,0.00014198
 ,-0.00000765,-0.00005672,-0.00003057,0.00003076,-0.00000244,0.00000074
 ,-0.00000017,0.00000022,0.00000021,0.00000020,-0.00000007,0.00000006,0
 .00000013,-0.00000005,0.00000067,0.00000032,-0.00001350,0.00000792,-0.
 00000262,-0.00000079,-0.00000059,0.00000041,-0.00000111,0.00000060,0.,
 0.00055246,0.06851811,0.00126324,-0.00028148,-0.01168392,-0.00077473,0
 .00188801,0.00194591,0.00003361,-0.00003415,0.00000927,-0.00118741,0.0
 0003031,0.00009452,0.00008123,-0.00007878,0.00003097,0.00006546,-0.000
 03270,-0.00000810,0.00000642,0.00001761,-0.00000791,-0.00204237,-0.012
 05491,-0.00445487,0.00000249,-0.00000205,0.00000548,-0.00003768,0.0000
 6812,-0.00001752,-0.00002087,0.00001424,-0.00001992,0.01599098,-0.0295
 3085,-0.29558365,0.00023913,0.00006436,0.00028818,0.00212856,0.0008154
 3,0.00037959,0.00024546,0.00022252,0.00023084,0.00010879,-0.00013441,0
 .00045953,0.00100834,-0.00082401,0.00017568,0.00000179,0.00000305,-0.0
 0000071,-0.00000042,0.00000353,0.00000137,0.00042082,-0.00034159,0.000
 38739,0.00006366,-0.00009873,-0.00004301,-0.00002505,0.00008250,-0.000
 17086,0.00000907,-0.00000221,0.00000240,0.00000032,-0.00000116,0.00000
 268,-0.00000014,0.,-0.00000049,0.00000367,-0.00000016,-0.00000021,0.00
 001939,-0.00000864,-0.00000724,0.00000112,-0.00000147,0.00000443,0.000
 00512,-0.00000412,0.00000051,-0.01867617,0.04111813,0.32081100,-0.0224
 9298,0.01322411,-0.01403563,0.00121697,-0.00152615,0.00051584,-0.00017
 849,0.00019162,-0.00009919,-0.00081284,-0.00413982,0.00370924,0.000222
 09,-0.00044370,-0.00004119,-0.00027399,0.00026309,-0.00000079,-0.00003
 733,-0.00009953,0.00003125,0.00644852,-0.00228853,0.00346096,-0.000004
 69,0.00000666,-0.00002368,0.00030964,-0.00066611,0.00055907,0.00008612
 ,-0.00002117,0.00008110,-0.20910156,0.09798982,-0.09707068,-0.00301434
 ,0.00124513,-0.00084487,0.00158677,0.00037657,0.00013475,0.00081105,-0
 .00026312,-0.00017138,0.00019445,-0.00015817,-0.00003045,-0.00008870,-
 0.00002154,-0.00006626,0.00000085,-0.00000613,0.00000955,0.00000055,-0
 .00000824,-0.00000484,0.00007347,-0.00009964,-0.00016565,0.00004989,0.
 00016885,-0.00005430,0.00001124,0.00009041,0.00003794,-0.00004380,0.00
 001476,-0.00001358,-0.00000187,0.00000350,-0.00000586,-0.00000114,-0.0
 0000011,0.00000514,-0.00001250,0.00000195,0.00000213,-0.00001248,0.000
 04061,-0.00003644,-0.00000885,0.00000567,-0.00001183,-0.00002683,0.000
 02169,-0.00000587,0.00307278,-0.00183100,0.00106617,0.22202799,-0.0083
 5782,0.00741081,-0.00603154,-0.00386660,-0.00425950,-0.00347618,-0.000
 07457,0.00007433,-0.00004216,-0.00150922,-0.00080302,0.00152712,0.0000
 1678,-0.00028840,0.00023912,-0.00003095,0.00009410,-0.00000983,-0.0000
 1634,-0.00003784,0.00000936,0.02869527,-0.03029717,0.01747678,0.000001
 91,-0.00000167,-0.00000509,-0.00001907,-0.00029903,0.00021425,0.000019
 25,0.00000671,0.00001766,0.08877106,-0.10195234,0.05258809,-0.00122712
 ,0.00066648,-0.00025678,0.00052202,0.00010997,0.00005722,0.00083813,0.
 00027956,-0.00023196,0.00145845,-0.00120162,0.00075713,0.00001069,0.00
 009168,0.00029713,0.00000189,-0.00000007,0.00000344,0.00000144,-0.0000
 0233,-0.00000157,0.00010283,-0.00015095,0.00006320,0.00024332,0.000215
 13,-0.00006823,0.00003645,0.00006991,-0.00002685,-0.00001575,0.0000064
 2,-0.00000504,-0.00000119,0.00000105,-0.00000200,-0.00000037,0.0000001
 8,0.00000131,-0.00000237,0.00000169,0.00000084,-0.00000017,0.00001193,
 -0.00001640,-0.00000378,0.00000097,-0.00000200,-0.00000803,0.00000596,
 -0.00000152,-0.00351468,0.00389839,-0.00089638,-0.10207144,0.12634867,
 0.01188466,-0.00670068,0.00615114,0.00025522,-0.00090229,0.00042600,0.
 00005192,-0.00004865,0.00002545,0.00127893,0.00150938,-0.00059428,0.00
 000660,-0.00005933,-0.00010158,0.00006557,-0.00005529,-0.00000556,0.00
 001209,0.00002506,-0.00000753,0.00668988,-0.00524321,0.00480005,0.0000
 0138,-0.00000140,0.00000615,0.00006383,0.00013406,-0.00011390,-0.00001
 829,0.00000553,-0.00002286,-0.09982190,0.06085887,-0.11325583,0.000915
 43,-0.00025559,0.00037437,-0.00063477,-0.00054773,0.00081172,-0.000745
 00,0.00000157,0.00026271,0.00001305,-0.00009768,0.00037744,0.00016290,
 -0.00009141,0.00044248,0.00000004,0.00000205,-0.00000305,-0.00000067,0
 .00000216,0.00000108,0.00013020,-0.00017209,0.00032531,0.00002140,0.00
 001357,-0.00002777,-0.00001929,-0.00002429,-0.00002469,0.00001168,-0.0
 0000382,0.00000349,0.00000034,-0.00000070,0.00000140,0.00000022,-0.000
 00011,-0.00000081,0.00000303,-0.00000035,-0.00000038,-0.00000048,-0.00
 000808,0.00000197,0.00000161,-0.00000139,0.00000306,0.00000651,-0.0000
 0545,0.00000161,-0.02340545,0.01384640,-0.01283133,0.10306933,-0.06217
 910,0.11297413\\-0.00000394,-0.00001317,0.00000445,-0.00001487,0.00001
 898,-0.00002462,0.00000608,0.00000511,-0.00000167,0.00006961,0.0006575
 6,0.00057568,-0.00000492,-0.00000384,0.00000496,0.00045183,0.00047731,
 -0.00050107,0.00000169,-0.00000014,-0.00001457,0.00000443,-0.00000516,
 0.00001741,0.00000652,0.00000676,-0.00000038,-0.00050825,-0.00037053,0
 .00094841,-0.00001775,0.00001637,-0.00000792,0.00000709,-0.00002264,-0
 .00001112,0.00001140,-0.00076168,-0.00105771,0.00000400,-0.00000905,-0
 .00001121,-0.00000725,0.00000155,-0.00000563,0.00000053,-0.00000852,0.
 00001270,0.00000313,0.00000856,0.00001805,-0.00000039,-0.00000392,-0.0
 0001135,-0.00000637,0.00000094,-0.00000801,-0.00000821,-0.00000011,0.0
 0001636,0.00000208,-0.00000269,0.00001086,0.00000034,-0.00000419,-0.00
 000074,0.00000526,0.00000288,-0.00000392,-0.00000353,0.00000528,0.0000
 0214,-0.00000058,-0.00000011,-0.00000311,-0.00000159,-0.00000121,0.000
 00691,0.00000173,0.00000417,0.00001244,0.00000224,-0.00000026,0.000020
 22,0.00000355,-0.00000597,0.00000611,0.00000060,0.00000738,0.00001056,
 -0.00000446,0.00000034,-0.00000423\\\@


 THE ONLY TROUBLE WITH A SURE THING IS THE UNCERTAINTY.
     -- FROM A TEABAG (BELONGING TO W.H.?)
 Job cpu time:       0 days 12 hours 13 minutes  9.1 seconds.
 Elapsed time:       0 days  1 hours  1 minutes 23.8 seconds.
 File lengths (MBytes):  RWF=    720 Int=      0 D2E=      0 Chk=     34 Scr=      1
 Normal termination of Gaussian 16 at Sat Mar  9 12:05:13 2019.
