 Entering Gaussian System, Link 0=g16
 Initial command:
 /sw/Projects/G16/g16/l1.exe "/nvme/pbs/tmpdir/pbs.74204[2].flm1/Gau-22362.inp" -scrdir="/nvme/pbs/tmpdir/pbs.74204[2].flm1/"
 Entering Link 1 = /sw/Projects/G16/g16/l1.exe PID=     22363.
  
 Copyright (c) 1988-2017, Gaussian, Inc.  All Rights Reserved.
  
 This is part of the Gaussian(R) 16 program.  It is based on
 the Gaussian(R) 09 system (copyright 2009, Gaussian, Inc.),
 the Gaussian(R) 03 system (copyright 2003, Gaussian, Inc.),
 the Gaussian(R) 98 system (copyright 1998, Gaussian, Inc.),
 the Gaussian(R) 94 system (copyright 1995, Gaussian, Inc.),
 the Gaussian 92(TM) system (copyright 1992, Gaussian, Inc.),
 the Gaussian 90(TM) system (copyright 1990, Gaussian, Inc.),
 the Gaussian 88(TM) system (copyright 1988, Gaussian, Inc.),
 the Gaussian 86(TM) system (copyright 1986, Carnegie Mellon
 University), and the Gaussian 82(TM) system (copyright 1983,
 Carnegie Mellon University). Gaussian is a federally registered
 trademark of Gaussian, Inc.
  
 This software contains proprietary and confidential information,
 including trade secrets, belonging to Gaussian, Inc.
  
 This software is provided under written license and may be
 used, copied, transmitted, or stored only in accord with that
 written license.
  
 The following legend is applicable only to US Government
 contracts under FAR:
  
                    RESTRICTED RIGHTS LEGEND
  
 Use, reproduction and disclosure by the US Government is
 subject to restrictions as set forth in subparagraphs (a)
 and (c) of the Commercial Computer Software - Restricted
 Rights clause in FAR 52.227-19.
  
 Gaussian, Inc.
 340 Quinnipiac St., Bldg. 40, Wallingford CT 06492
  
  
 ---------------------------------------------------------------
 Warning -- This program may not be used in any manner that
 competes with the business of Gaussian, Inc. or will provide
 assistance to any competitor of Gaussian, Inc.  The licensee
 of this program is prohibited from giving any competitor of
 Gaussian, Inc. access to this program.  By using this program,
 the user acknowledges that Gaussian, Inc. is engaged in the
 business of creating and licensing software in the field of
 computational chemistry and represents and warrants to the
 licensee that it is not a competitor of Gaussian, Inc. and that
 it will not use this program in any manner prohibited above.
 ---------------------------------------------------------------
  

 Cite this work as:
 Gaussian 16, Revision B.01,
 M. J. Frisch, G. W. Trucks, H. B. Schlegel, G. E. Scuseria, 
 M. A. Robb, J. R. Cheeseman, G. Scalmani, V. Barone, 
 G. A. Petersson, H. Nakatsuji, X. Li, M. Caricato, A. V. Marenich, 
 J. Bloino, B. G. Janesko, R. Gomperts, B. Mennucci, H. P. Hratchian, 
 J. V. Ortiz, A. F. Izmaylov, J. L. Sonnenberg, D. Williams-Young, 
 F. Ding, F. Lipparini, F. Egidi, J. Goings, B. Peng, A. Petrone, 
 T. Henderson, D. Ranasinghe, V. G. Zakrzewski, J. Gao, N. Rega, 
 G. Zheng, W. Liang, M. Hada, M. Ehara, K. Toyota, R. Fukuda, 
 J. Hasegawa, M. Ishida, T. Nakajima, Y. Honda, O. Kitao, H. Nakai, 
 T. Vreven, K. Throssell, J. A. Montgomery, Jr., J. E. Peralta, 
 F. Ogliaro, M. J. Bearpark, J. J. Heyd, E. N. Brothers, K. N. Kudin, 
 V. N. Staroverov, T. A. Keith, R. Kobayashi, J. Normand, 
 K. Raghavachari, A. P. Rendell, J. C. Burant, S. S. Iyengar, 
 J. Tomasi, M. Cossi, J. M. Millam, M. Klene, C. Adamo, R. Cammi, 
 J. W. Ochterski, R. L. Martin, K. Morokuma, O. Farkas, 
 J. B. Foresman, and D. J. Fox, Gaussian, Inc., Wallingford CT, 2016.
 
 ******************************************
 Gaussian 16:  ES64L-G16RevB.01 20-Dec-2017
                 9-Mar-2019 
 ******************************************
 %mem=20gb
 %nproc=12
 Will use up to   12 processors via shared memory.
 %chk=4c1_b1_e3_4c1_PHI.inp_extract_2.chk
 ----------------------------------------------------------------------
 #M062X/6-311++G(2d,2p) opt=ModRedundant freq=noraman SCRF=(SMD,solvent
 =water)
 ----------------------------------------------------------------------
 1/18=120,19=15,26=3,38=1/1,3;
 2/9=110,12=2,17=6,18=5,40=1/2;
 3/5=4,6=6,7=1212,11=2,25=1,30=1,70=32201,71=1,72=1,74=-55/1,2,3;
 4//1;
 5/5=2,38=5,53=1/2;
 6/7=2,8=2,9=2,10=2,28=1/1;
 7//1,2,3,16;
 1/18=20,19=15,26=3/3(2);
 2/9=110/2;
 99//99;
 2/9=110/2;
 3/5=4,6=6,7=1212,11=2,25=1,30=1,70=32205,71=1,72=1,74=-55/1,2,3;
 4/5=5,16=3,69=1/1;
 5/5=2,38=5,53=1/2;
 7//1,2,3,16;
 1/18=20,19=15,26=3/3(-5);
 2/9=110/2;
 6/7=2,8=2,9=2,10=2,19=2,28=1/1;
 99/9=1/99;
 -------------------------------
 4c1_b1_e3_4c1_PHI.inp_extract_2
 -------------------------------
 Symbolic Z-matrix:
 Charge =  0 Multiplicity = 1
 C                     1.75159  -0.36475   1.16326 
 C                     3.46927   0.25373  -1.04344 
 C                    -2.32441   1.23709   0.52091 
 C                     1.13941   0.1033   -0.15429 
 C                     2.13634   0.97604  -0.90245 
 O                    -1.5185   -0.62784  -0.77359 
 C                    -3.67321   0.53454   0.69764 
 O                     3.97425  -0.14252   0.2163 
 C                    -3.91137  -0.45329  -0.44553 
 C                    -1.22514   0.2136    0.31528 
 C                    -2.71237  -1.37495  -0.60126 
 C                     3.10443  -1.01637   0.90818 
 O                    -0.03324   0.87953   0.05503 
 H                     1.87999   0.49085   1.82107 
 H                     1.10585  -1.07826   1.66516 
 H                     4.2137    0.90114  -1.48533 
 H                     3.36321  -0.62473  -1.67604 
 H                    -2.35001   1.88921  -0.34817 
 H                    -2.08602   1.84431   1.38816 
 H                     0.89234  -0.75574  -0.76422 
 H                     1.75433   1.2256   -1.88767 
 H                     2.28354   1.90334  -0.35534 
 H                    -4.47118   1.26872   0.74187 
 H                    -3.68112  -0.00063   1.64492 
 H                    -4.06708   0.08713  -1.37608 
 H                    -4.7997   -1.05103  -0.26224 
 H                    -1.11782  -0.41057   1.1986 
 H                    -2.60632  -2.01685   0.27031 
 H                    -2.80079  -2.00312  -1.47642 
 H                     2.98574  -1.93047   0.33055 
 H                     3.594    -1.26582   1.83915 
 
 The following ModRedundant input section has been read:
 D       6      10      13       4 F                                           
 

 GradGradGradGradGradGradGradGradGradGradGradGradGradGradGradGradGradGrad
 Berny optimization.
 Initialization pass.
                           ----------------------------
                           !    Initial Parameters    !
                           ! (Angstroms and Degrees)  !
 --------------------------                            --------------------------
 ! Name  Definition              Value          Derivative Info.                !
 --------------------------------------------------------------------------------
 ! R1    R(1,4)                  1.5264         estimate D2E/DX2                !
 ! R2    R(1,12)                 1.5231         estimate D2E/DX2                !
 ! R3    R(1,14)                 1.0869         estimate D2E/DX2                !
 ! R4    R(1,15)                 1.0853         estimate D2E/DX2                !
 ! R5    R(2,5)                  1.5226         estimate D2E/DX2                !
 ! R6    R(2,8)                  1.4139         estimate D2E/DX2                !
 ! R7    R(2,16)                 1.081          estimate D2E/DX2                !
 ! R8    R(2,17)                 1.0877         estimate D2E/DX2                !
 ! R9    R(3,7)                  1.531          estimate D2E/DX2                !
 ! R10   R(3,10)                 1.516          estimate D2E/DX2                !
 ! R11   R(3,18)                 1.0868         estimate D2E/DX2                !
 ! R12   R(3,19)                 1.0852         estimate D2E/DX2                !
 ! R13   R(4,5)                  1.5216         estimate D2E/DX2                !
 ! R14   R(4,13)                 1.4218         estimate D2E/DX2                !
 ! R15   R(4,20)                 1.0821         estimate D2E/DX2                !
 ! R16   R(5,21)                 1.0858         estimate D2E/DX2                !
 ! R17   R(5,22)                 1.0867         estimate D2E/DX2                !
 ! R18   R(6,10)                 1.407          estimate D2E/DX2                !
 ! R19   R(6,11)                 1.4189         estimate D2E/DX2                !
 ! R20   R(7,9)                  1.5295         estimate D2E/DX2                !
 ! R21   R(7,23)                 1.0852         estimate D2E/DX2                !
 ! R22   R(7,24)                 1.088          estimate D2E/DX2                !
 ! R23   R(8,12)                 1.4138         estimate D2E/DX2                !
 ! R24   R(9,11)                 1.5203         estimate D2E/DX2                !
 ! R25   R(9,25)                 1.0873         estimate D2E/DX2                !
 ! R26   R(9,26)                 1.0863         estimate D2E/DX2                !
 ! R27   R(10,13)                1.3899         estimate D2E/DX2                !
 ! R28   R(10,27)                1.0869         estimate D2E/DX2                !
 ! R29   R(11,28)                1.0876         estimate D2E/DX2                !
 ! R30   R(11,29)                1.0809         estimate D2E/DX2                !
 ! R31   R(12,30)                1.0878         estimate D2E/DX2                !
 ! R32   R(12,31)                1.081          estimate D2E/DX2                !
 ! A1    A(4,1,12)             110.0515         estimate D2E/DX2                !
 ! A2    A(4,1,14)             109.1738         estimate D2E/DX2                !
 ! A3    A(4,1,15)             111.2319         estimate D2E/DX2                !
 ! A4    A(12,1,14)            109.464          estimate D2E/DX2                !
 ! A5    A(12,1,15)            108.9438         estimate D2E/DX2                !
 ! A6    A(14,1,15)            107.9344         estimate D2E/DX2                !
 ! A7    A(5,2,8)              111.2921         estimate D2E/DX2                !
 ! A8    A(5,2,16)             110.8921         estimate D2E/DX2                !
 ! A9    A(5,2,17)             110.5864         estimate D2E/DX2                !
 ! A10   A(8,2,16)             106.6248         estimate D2E/DX2                !
 ! A11   A(8,2,17)             109.0667         estimate D2E/DX2                !
 ! A12   A(16,2,17)            108.2457         estimate D2E/DX2                !
 ! A13   A(7,3,10)             110.1614         estimate D2E/DX2                !
 ! A14   A(7,3,18)             110.2964         estimate D2E/DX2                !
 ! A15   A(7,3,19)             110.9801         estimate D2E/DX2                !
 ! A16   A(10,3,18)            108.2825         estimate D2E/DX2                !
 ! A17   A(10,3,19)            109.0795         estimate D2E/DX2                !
 ! A18   A(18,3,19)            107.9677         estimate D2E/DX2                !
 ! A19   A(1,4,5)              109.7268         estimate D2E/DX2                !
 ! A20   A(1,4,13)             111.7848         estimate D2E/DX2                !
 ! A21   A(1,4,20)             109.5527         estimate D2E/DX2                !
 ! A22   A(5,4,13)             107.4355         estimate D2E/DX2                !
 ! A23   A(5,4,20)             109.1339         estimate D2E/DX2                !
 ! A24   A(13,4,20)            109.1514         estimate D2E/DX2                !
 ! A25   A(2,5,4)              110.3044         estimate D2E/DX2                !
 ! A26   A(2,5,21)             109.4523         estimate D2E/DX2                !
 ! A27   A(2,5,22)             109.4414         estimate D2E/DX2                !
 ! A28   A(4,5,21)             110.3333         estimate D2E/DX2                !
 ! A29   A(4,5,22)             109.3075         estimate D2E/DX2                !
 ! A30   A(21,5,22)            107.961          estimate D2E/DX2                !
 ! A31   A(10,6,11)            113.3489         estimate D2E/DX2                !
 ! A32   A(3,7,9)              110.3205         estimate D2E/DX2                !
 ! A33   A(3,7,23)             110.0017         estimate D2E/DX2                !
 ! A34   A(3,7,24)             109.4273         estimate D2E/DX2                !
 ! A35   A(9,7,23)             110.6649         estimate D2E/DX2                !
 ! A36   A(9,7,24)             109.3848         estimate D2E/DX2                !
 ! A37   A(23,7,24)            106.9734         estimate D2E/DX2                !
 ! A38   A(2,8,12)             112.9242         estimate D2E/DX2                !
 ! A39   A(7,9,11)             110.2003         estimate D2E/DX2                !
 ! A40   A(7,9,25)             109.9352         estimate D2E/DX2                !
 ! A41   A(7,9,26)             110.8925         estimate D2E/DX2                !
 ! A42   A(11,9,25)            109.062          estimate D2E/DX2                !
 ! A43   A(11,9,26)            109.186          estimate D2E/DX2                !
 ! A44   A(25,9,26)            107.5046         estimate D2E/DX2                !
 ! A45   A(3,10,6)             110.9488         estimate D2E/DX2                !
 ! A46   A(3,10,13)            108.8897         estimate D2E/DX2                !
 ! A47   A(3,10,27)            110.4302         estimate D2E/DX2                !
 ! A48   A(6,10,13)            108.6881         estimate D2E/DX2                !
 ! A49   A(6,10,27)            107.824          estimate D2E/DX2                !
 ! A50   A(13,10,27)           110.0377         estimate D2E/DX2                !
 ! A51   A(6,11,9)             110.905          estimate D2E/DX2                !
 ! A52   A(6,11,28)            109.0292         estimate D2E/DX2                !
 ! A53   A(6,11,29)            106.051          estimate D2E/DX2                !
 ! A54   A(9,11,28)            110.6471         estimate D2E/DX2                !
 ! A55   A(9,11,29)            111.7618         estimate D2E/DX2                !
 ! A56   A(28,11,29)           108.2893         estimate D2E/DX2                !
 ! A57   A(1,12,8)             111.3446         estimate D2E/DX2                !
 ! A58   A(1,12,30)            110.5803         estimate D2E/DX2                !
 ! A59   A(1,12,31)            110.9007         estimate D2E/DX2                !
 ! A60   A(8,12,30)            109.0655         estimate D2E/DX2                !
 ! A61   A(8,12,31)            106.5855         estimate D2E/DX2                !
 ! A62   A(30,12,31)           108.2283         estimate D2E/DX2                !
 ! A63   A(4,13,10)            118.247          estimate D2E/DX2                !
 ! D1    D(12,1,4,5)           -52.7992         estimate D2E/DX2                !
 ! D2    D(12,1,4,13)         -171.8841         estimate D2E/DX2                !
 ! D3    D(12,1,4,20)           66.9941         estimate D2E/DX2                !
 ! D4    D(14,1,4,5)            67.3639         estimate D2E/DX2                !
 ! D5    D(14,1,4,13)          -51.721          estimate D2E/DX2                !
 ! D6    D(14,1,4,20)         -172.8428         estimate D2E/DX2                !
 ! D7    D(15,1,4,5)          -173.6334         estimate D2E/DX2                !
 ! D8    D(15,1,4,13)           67.2816         estimate D2E/DX2                !
 ! D9    D(15,1,4,20)          -53.8401         estimate D2E/DX2                !
 ! D10   D(4,1,12,8)            55.9421         estimate D2E/DX2                !
 ! D11   D(4,1,12,30)          -65.4802         estimate D2E/DX2                !
 ! D12   D(4,1,12,31)          174.4502         estimate D2E/DX2                !
 ! D13   D(14,1,12,8)          -64.0453         estimate D2E/DX2                !
 ! D14   D(14,1,12,30)         174.5323         estimate D2E/DX2                !
 ! D15   D(14,1,12,31)          54.4628         estimate D2E/DX2                !
 ! D16   D(15,1,12,8)          178.1412         estimate D2E/DX2                !
 ! D17   D(15,1,12,30)          56.7188         estimate D2E/DX2                !
 ! D18   D(15,1,12,31)         -63.3508         estimate D2E/DX2                !
 ! D19   D(8,2,5,4)            -55.8261         estimate D2E/DX2                !
 ! D20   D(8,2,5,21)          -177.4008         estimate D2E/DX2                !
 ! D21   D(8,2,5,22)            64.4693         estimate D2E/DX2                !
 ! D22   D(16,2,5,4)          -174.3438         estimate D2E/DX2                !
 ! D23   D(16,2,5,21)           64.0815         estimate D2E/DX2                !
 ! D24   D(16,2,5,22)          -54.0484         estimate D2E/DX2                !
 ! D25   D(17,2,5,4)            65.5665         estimate D2E/DX2                !
 ! D26   D(17,2,5,21)          -56.0082         estimate D2E/DX2                !
 ! D27   D(17,2,5,22)         -174.1381         estimate D2E/DX2                !
 ! D28   D(5,2,8,12)            59.7638         estimate D2E/DX2                !
 ! D29   D(16,2,8,12)         -179.1855         estimate D2E/DX2                !
 ! D30   D(17,2,8,12)          -62.5113         estimate D2E/DX2                !
 ! D31   D(10,3,7,9)           -51.8152         estimate D2E/DX2                !
 ! D32   D(10,3,7,23)         -174.1778         estimate D2E/DX2                !
 ! D33   D(10,3,7,24)           68.5769         estimate D2E/DX2                !
 ! D34   D(18,3,7,9)            67.6631         estimate D2E/DX2                !
 ! D35   D(18,3,7,23)          -54.6995         estimate D2E/DX2                !
 ! D36   D(18,3,7,24)         -171.9448         estimate D2E/DX2                !
 ! D37   D(19,3,7,9)          -172.7282         estimate D2E/DX2                !
 ! D38   D(19,3,7,23)           64.9093         estimate D2E/DX2                !
 ! D39   D(19,3,7,24)          -52.3361         estimate D2E/DX2                !
 ! D40   D(7,3,10,6)            55.8605         estimate D2E/DX2                !
 ! D41   D(7,3,10,13)          175.4395         estimate D2E/DX2                !
 ! D42   D(7,3,10,27)          -63.6358         estimate D2E/DX2                !
 ! D43   D(18,3,10,6)          -64.8344         estimate D2E/DX2                !
 ! D44   D(18,3,10,13)          54.7446         estimate D2E/DX2                !
 ! D45   D(18,3,10,27)         175.6693         estimate D2E/DX2                !
 ! D46   D(19,3,10,6)          177.9051         estimate D2E/DX2                !
 ! D47   D(19,3,10,13)         -62.5159         estimate D2E/DX2                !
 ! D48   D(19,3,10,27)          58.4088         estimate D2E/DX2                !
 ! D49   D(1,4,5,2)             52.7984         estimate D2E/DX2                !
 ! D50   D(1,4,5,21)           173.849          estimate D2E/DX2                !
 ! D51   D(1,4,5,22)           -67.5774         estimate D2E/DX2                !
 ! D52   D(13,4,5,2)           174.5248         estimate D2E/DX2                !
 ! D53   D(13,4,5,21)          -64.4247         estimate D2E/DX2                !
 ! D54   D(13,4,5,22)           54.1489         estimate D2E/DX2                !
 ! D55   D(20,4,5,2)           -67.2503         estimate D2E/DX2                !
 ! D56   D(20,4,5,21)           53.8003         estimate D2E/DX2                !
 ! D57   D(20,4,5,22)          172.3739         estimate D2E/DX2                !
 ! D58   D(1,4,13,10)          -80.1272         estimate D2E/DX2                !
 ! D59   D(5,4,13,10)          159.4406         estimate D2E/DX2                !
 ! D60   D(20,4,13,10)          41.227          estimate D2E/DX2                !
 ! D61   D(11,6,10,3)          -61.2192         estimate D2E/DX2                !
 ! D62   D(11,6,10,13)         179.0812         estimate D2E/DX2                !
 ! D63   D(11,6,10,27)          59.8258         estimate D2E/DX2                !
 ! D64   D(10,6,11,9)           60.7708         estimate D2E/DX2                !
 ! D65   D(10,6,11,28)         -61.3033         estimate D2E/DX2                !
 ! D66   D(10,6,11,29)        -177.7044         estimate D2E/DX2                !
 ! D67   D(3,7,9,11)            51.4608         estimate D2E/DX2                !
 ! D68   D(3,7,9,25)           -68.7791         estimate D2E/DX2                !
 ! D69   D(3,7,9,26)           172.4758         estimate D2E/DX2                !
 ! D70   D(23,7,9,11)          173.4326         estimate D2E/DX2                !
 ! D71   D(23,7,9,25)           53.1927         estimate D2E/DX2                !
 ! D72   D(23,7,9,26)          -65.5524         estimate D2E/DX2                !
 ! D73   D(24,7,9,11)          -68.9568         estimate D2E/DX2                !
 ! D74   D(24,7,9,25)          170.8033         estimate D2E/DX2                !
 ! D75   D(24,7,9,26)           52.0582         estimate D2E/DX2                !
 ! D76   D(2,8,12,1)           -59.9399         estimate D2E/DX2                !
 ! D77   D(2,8,12,30)           62.3611         estimate D2E/DX2                !
 ! D78   D(2,8,12,31)          178.9932         estimate D2E/DX2                !
 ! D79   D(7,9,11,6)           -54.9471         estimate D2E/DX2                !
 ! D80   D(7,9,11,28)           66.1782         estimate D2E/DX2                !
 ! D81   D(7,9,11,29)         -173.0572         estimate D2E/DX2                !
 ! D82   D(25,9,11,6)           65.8177         estimate D2E/DX2                !
 ! D83   D(25,9,11,28)        -173.057          estimate D2E/DX2                !
 ! D84   D(25,9,11,29)         -52.2924         estimate D2E/DX2                !
 ! D85   D(26,9,11,6)         -176.9769         estimate D2E/DX2                !
 ! D86   D(26,9,11,28)         -55.8517         estimate D2E/DX2                !
 ! D87   D(26,9,11,29)          64.913          estimate D2E/DX2                !
 ! D88   D(3,10,13,4)          179.2536         estimate D2E/DX2                !
 ! D89   D(6,10,13,4)          -59.7717         Frozen                          !
 ! D90   D(27,10,13,4)          58.0885         estimate D2E/DX2                !
 --------------------------------------------------------------------------------
 Trust Radius=3.00D-01 FncErr=1.00D-07 GrdErr=1.00D-06 EigMax=2.50D+02 EigMin=1.00D-04
 Number of steps in this run=    186 maximum allowed number of steps=    186.
 GradGradGradGradGradGradGradGradGradGradGradGradGradGradGradGradGradGrad

                          Input orientation:                          
 ---------------------------------------------------------------------
 Center     Atomic      Atomic             Coordinates (Angstroms)
 Number     Number       Type             X           Y           Z
 ---------------------------------------------------------------------
      1          6           0        1.751585   -0.364746    1.163257
      2          6           0        3.469267    0.253733   -1.043442
      3          6           0       -2.324409    1.237090    0.520913
      4          6           0        1.139412    0.103304   -0.154291
      5          6           0        2.136336    0.976035   -0.902449
      6          8           0       -1.518499   -0.627843   -0.773594
      7          6           0       -3.673205    0.534543    0.697635
      8          8           0        3.974250   -0.142520    0.216303
      9          6           0       -3.911365   -0.453290   -0.445526
     10          6           0       -1.225139    0.213595    0.315281
     11          6           0       -2.712374   -1.374954   -0.601258
     12          6           0        3.104431   -1.016370    0.908181
     13          8           0       -0.033237    0.879526    0.055031
     14          1           0        1.879993    0.490846    1.821070
     15          1           0        1.105848   -1.078258    1.665159
     16          1           0        4.213704    0.901144   -1.485331
     17          1           0        3.363205   -0.624732   -1.676039
     18          1           0       -2.350011    1.889206   -0.348173
     19          1           0       -2.086020    1.844311    1.388156
     20          1           0        0.892335   -0.755741   -0.764219
     21          1           0        1.754329    1.225598   -1.887665
     22          1           0        2.283541    1.903336   -0.355337
     23          1           0       -4.471178    1.268724    0.741867
     24          1           0       -3.681119   -0.000634    1.644920
     25          1           0       -4.067077    0.087126   -1.376083
     26          1           0       -4.799697   -1.051027   -0.262240
     27          1           0       -1.117817   -0.410574    1.198604
     28          1           0       -2.606322   -2.016851    0.270305
     29          1           0       -2.800788   -2.003116   -1.476415
     30          1           0        2.985738   -1.930472    0.330545
     31          1           0        3.593999   -1.265825    1.839148
 ---------------------------------------------------------------------
                    Distance matrix (angstroms):
                    1          2          3          4          5
     1  C    0.000000
     2  C    2.863995   0.000000
     3  C    4.426309   6.081191   0.000000
     4  C    1.526355   2.498288   3.706673   0.000000
     5  C    2.492563   1.522598   4.689601   1.521597   0.000000
     6  O    3.809732   5.072258   2.408986   2.825350   3.993350
     7  C    5.518503   7.356977   1.531030   4.906427   6.042015
     8  O    2.426179   1.413854   6.455170   2.869508   2.425015
     9  C    5.887701   7.438489   2.511935   5.089692   6.231086
    10  C    3.148718   4.887247   1.515988   2.413247   3.655639
    11  C    4.905198   6.407873   2.869244   4.149853   5.397023
    12  C    1.523112   2.356926   5.890701   2.498763   2.860990
    13  O    2.441714   3.723680   2.365241   1.421774   2.373421
    14  H    1.086851   3.284424   4.463663   2.144924   2.778251
    15  H    1.085348   3.833597   4.293809   2.169704   3.445959
    16  H    3.831387   1.081015   6.847247   3.443761   2.158893
    17  H    3.275136   1.087717   6.375103   2.791238   2.160117
    18  H    4.918110   6.084584   1.086840   3.924679   4.611769
    19  H    4.433703   6.269276   1.085199   3.976639   4.881502
    20  H    2.146241   2.781651   3.996296   1.082136   2.136748
    21  H    3.440542   2.144352   4.736822   2.154589   1.085754
    22  H    2.780881   2.144907   4.737605   2.142327   1.086687
    23  H    6.447369   8.201719   2.158342   5.800002   6.815327
    24  H    5.466155   7.643299   2.153141   5.146405   6.425399
    25  H    6.364689   7.545521   2.820976   5.347950   6.284650
    26  H    6.739608   8.407642   3.460615   6.051211   7.254475
    27  H    2.869986   5.148729   2.151726   2.681320   4.114197
    28  H    4.745331   6.617724   3.275731   4.325027   5.729356
    29  H    5.511463   6.677906   3.836038   4.659420   5.794823
    30  H    2.160565   2.625337   6.186061   2.789306   3.269486
    31  H    2.159459   3.260972   6.559716   3.445767   3.829761
                    6          7          8          9         10
     6  O    0.000000
     7  C    2.856294   0.000000
     8  O    5.602296   7.692442   0.000000
     9  C    2.421550   1.529494   7.919439   0.000000
    10  C    1.407028   2.498445   5.212510   2.870431   0.000000
    11  C    1.418877   2.501299   6.848229   1.520295   2.361228
    12  C    4.934653   6.956005   1.413823   7.167355   4.539771
    13  O    2.272616   3.712320   4.138906   4.131202   1.389901
    14  H    4.419671   5.665865   2.713364   6.290364   3.462097
    15  H    3.610760   5.135813   3.347016   5.478869   2.987399
    16  H    5.975159   8.191646   2.010505   8.302556   5.770263
    17  H    4.964418   7.515937   2.046182   7.379900   5.071592
    18  H    2.684759   2.163254   6.666545   2.816841   2.124425
    19  H    3.332685   2.170592   6.484413   3.460238   2.133404
    20  H    2.414242   4.964474   3.291757   4.823751   2.566832
    21  H    3.922729   6.051401   3.350594   6.082641   3.841139
    22  H    4.586645   6.202029   2.714921   6.628626   3.951682
    23  H    3.822552   1.085237   8.578641   2.165323   3.439774
    24  H    3.304471   1.088038   7.788822   2.151250   2.801013
    25  H    2.714668   2.157689   8.200693   1.087305   3.309580
    26  H    3.347660   2.168957   8.833829   1.086286   3.835396
    27  H    2.024183   2.770239   5.192872   3.241743   1.086906
    28  H    2.049982   2.798296   6.842511   2.158767   2.623848
    29  H    2.007386   3.453595   7.226912   2.167504   3.256786
    30  H    4.817065   7.110033   2.046211   7.096082   4.725330
    31  H    5.776771   7.573416   2.009983   7.887359   5.266398
                   11         12         13         14         15
    11  C    0.000000
    12  C    6.020150   0.000000
    13  O    3.562467   3.763940   0.000000
    14  H    5.517129   2.145767   2.632568   0.000000
    15  H    4.450112   2.138032   2.779019   1.756615   0.000000
    16  H    7.343893   3.261326   4.517709   4.067781   4.847926
    17  H    6.215356   2.626507   4.098196   3.959066   4.057703
    18  H    3.293949   6.306484   2.559193   4.955195   4.980192
    19  H    3.835851   5.945978   2.630960   4.212902   4.336607
    20  H    3.661135   2.785358   2.049866   3.035320   2.459976
    21  H    5.326270   3.829615   2.662560   3.782905   4.283788
    22  H    5.980538   3.285578   2.565940   2.625781   3.789362
    23  H    3.447667   7.914491   4.507609   6.489002   6.120785
    24  H    2.805804   6.900594   4.075472   5.585566   4.906805
    25  H    2.138516   7.606977   4.352913   6.764053   6.112808
    26  H    2.139341   7.990390   5.152362   7.164901   6.212171
    27  H    2.590781   4.275361   2.036770   3.191690   2.368156
    28  H    1.087612   5.832714   3.880220   5.368467   4.075142
    29  H    1.080881   6.444500   4.279520   6.245235   5.097711
    30  H    5.800460   1.087811   4.133547   3.050757   2.457936
    31  H    6.762975   1.081020   4.576292   2.454391   2.501269
                   16         17         18         19         20
    16  H    0.000000
    17  H    1.757275   0.000000
    18  H    6.734371   6.381532   0.000000
    19  H    6.988062   6.721571   1.756857   0.000000
    20  H    3.781106   2.637002   4.204955   4.501509   0.000000
    21  H    2.513099   2.461095   4.433511   5.085478   2.435338
    22  H    2.450878   3.049763   4.633579   4.704925   3.028750
    23  H    8.973444   8.414808   2.464251   2.537315   5.927396
    24  H    8.540486   7.812859   3.052174   2.452364   5.224042
    25  H    8.321412   7.470328   2.693029   3.827963   5.067600
    26  H    9.303135   8.295392   3.827965   4.297771   5.721748
    27  H    6.111401   5.328132   3.033119   2.461271   2.830640
    28  H    7.622972   6.431291   3.963015   4.053255   3.860212
    29  H    7.591963   6.319383   4.077536   4.849676   3.962616
    30  H    3.580971   2.423596   6.597031   6.410168   2.638340
    31  H    4.016460   3.580615   7.076005   6.491453   3.786383
                   21         22         23         24         25
    21  H    0.000000
    22  H    1.757106   0.000000
    23  H    6.758198   6.872614   0.000000
    24  H    6.597492   6.572922   1.746702   0.000000
    25  H    5.953705   6.683629   2.458696   3.046822   0.000000
    26  H    7.126029   7.675232   2.549000   2.447816   1.752932
    27  H    4.522316   4.397516   3.778052   2.633964   3.946499
    28  H    5.846844   6.298417   3.807238   2.666437   3.044851
    29  H    5.598465   6.509039   4.291377   3.811515   2.445949
    30  H    4.049395   3.957474   8.124632   7.063911   7.531632
    31  H    4.845690   4.071443   8.524966   7.386865   8.417854
                   26         27         28         29         30
    26  H    0.000000
    27  H    4.012541   0.000000
    28  H    2.455059   2.378552   0.000000
    29  H    2.525140   3.538970   1.757565   0.000000
    30  H    7.857342   4.461253   5.593052   6.062530   0.000000
    31  H    8.655409   4.831455   6.439665   7.240846   1.757163
                   31
    31  H    0.000000
 Stoichiometry    C10H18O3
 Framework group  C1[X(C10H18O3)]
 Deg. of freedom    87
 Full point group                 C1      NOp   1
 Largest Abelian subgroup         C1      NOp   1
 Largest concise Abelian subgroup C1      NOp   1
                         Standard orientation:                         
 ---------------------------------------------------------------------
 Center     Atomic      Atomic             Coordinates (Angstroms)
 Number     Number       Type             X           Y           Z
 ---------------------------------------------------------------------
      1          6           0       -1.751585    0.364746    1.163257
      2          6           0       -3.469267   -0.253733   -1.043442
      3          6           0        2.324409   -1.237090    0.520913
      4          6           0       -1.139412   -0.103304   -0.154291
      5          6           0       -2.136336   -0.976035   -0.902449
      6          8           0        1.518499    0.627843   -0.773594
      7          6           0        3.673205   -0.534543    0.697635
      8          8           0       -3.974250    0.142520    0.216303
      9          6           0        3.911365    0.453290   -0.445526
     10          6           0        1.225139   -0.213595    0.315281
     11          6           0        2.712374    1.374954   -0.601258
     12          6           0       -3.104431    1.016370    0.908181
     13          8           0        0.033237   -0.879526    0.055031
     14          1           0       -1.879993   -0.490846    1.821070
     15          1           0       -1.105848    1.078258    1.665159
     16          1           0       -4.213704   -0.901144   -1.485331
     17          1           0       -3.363205    0.624732   -1.676039
     18          1           0        2.350011   -1.889206   -0.348173
     19          1           0        2.086020   -1.844311    1.388156
     20          1           0       -0.892335    0.755741   -0.764219
     21          1           0       -1.754329   -1.225598   -1.887665
     22          1           0       -2.283541   -1.903336   -0.355337
     23          1           0        4.471178   -1.268724    0.741867
     24          1           0        3.681119    0.000634    1.644920
     25          1           0        4.067077   -0.087126   -1.376083
     26          1           0        4.799697    1.051027   -0.262240
     27          1           0        1.117817    0.410574    1.198604
     28          1           0        2.606322    2.016851    0.270305
     29          1           0        2.800788    2.003116   -1.476415
     30          1           0       -2.985738    1.930472    0.330545
     31          1           0       -3.593999    1.265825    1.839148
 ---------------------------------------------------------------------
 Rotational constants (GHZ):           2.1851133           0.3498250           0.3454566
 Standard basis: 6-311++G(2d,2p) (5D, 7F)
 There are   557 symmetry adapted cartesian basis functions of A   symmetry.
 There are   531 symmetry adapted basis functions of A   symmetry.
   531 basis functions,   762 primitive gaussians,   557 cartesian basis functions
    51 alpha electrons       51 beta electrons
       nuclear repulsion energy       878.4559287884 Hartrees.
 NAtoms=   31 NActive=   31 NUniq=   31 SFac= 1.00D+00 NAtFMM=   60 NAOKFM=F Big=F
 Integral buffers will be    131072 words long.
 Raffenetti 2 integral format.
 Two-electron integral symmetry is turned on.
 ------------------------------------------------------------------------------
 Polarizable Continuum Model (PCM)
 =================================
 Model                : PCM.
 Atomic radii         : SMD-Coulomb.
 Polarization charges : Total charges.
 Charge compensation  : None.
 Solution method      : On-the-fly selection.
 Cavity type          : VdW (van der Waals Surface) (Alpha=1.000).
 Cavity algorithm     : GePol (No added spheres)
                        Default sphere list used, NSphG=   31.
                        Lebedev-Laikov grids with approx.  5.0 points / Ang**2.
                        Smoothing algorithm: York/Karplus (Gamma=1.0000).
                        Polarization charges: spherical gaussians, with
                                              point-specific exponents (IZeta= 3).
                        Self-potential: point-specific (ISelfS= 7).
                        Self-field    : sphere-specific E.n sum rule (ISelfD= 2).
 1st derivatives      : Analytical E(r).r(x)/FMM algorithm (CHGder, D1EAlg=3).
                        Cavity 1st derivative terms included.
 Solvent              : Water, Eps=  78.355300 Eps(inf)=   1.777849
 ------------------------------------------------------------------------------
 ------------------------------------------------------------------------------
 Atomic radii for non-electrostatic terms: SMD-CDS.
 ------------------------------------------------------------------------------
 Nuclear repulsion after PCM non-electrostatic terms =      878.4624162812 Hartrees.
 One-electron integrals computed using PRISM.
 NBasis=   531 RedAO= T EigKep=  6.16D-06  NBF=   531
 NBsUse=   531 1.00D-06 EigRej= -1.00D+00 NBFU=   531
 ExpMin= 3.60D-02 ExpMax= 8.59D+03 ExpMxC= 1.30D+03 IAcc=3 IRadAn=         5 AccDes= 0.00D+00
 Harris functional with IExCor= 1009 and IRadAn=       5 diagonalized for initial guess.
 HarFok:  IExCor= 1009 AccDes= 0.00D+00 IRadAn=         5 IDoV= 1 UseB2=F ITyADJ=14
 ICtDFT=  3500011 ScaDFX=  1.000000  1.000000  1.000000  1.000000
 FoFCou: FMM=F IPFlag=           0 FMFlag=      100000 FMFlg1=           0
         NFxFlg=           0 DoJE=T BraDBF=F KetDBF=T FulRan=T
         wScrn=  0.000000 ICntrl=       500 IOpCl=  0 I1Cent=   200000004 NGrid=           0
         NMat0=    1 NMatS0=      1 NMatT0=    0 NMatD0=    1 NMtDS0=    0 NMtDT0=    0
 Petite list used in FoFCou.
 Requested convergence on RMS density matrix=1.00D-08 within 128 cycles.
 Requested convergence on MAX density matrix=1.00D-06.
 Requested convergence on             energy=1.00D-06.
 No special actions if energy rises.
 Inv3:  Mode=1 IEnd=    12277587.
 Iteration    1 A*A^-1 deviation from unit magnitude is 6.22D-15 for    207.
 Iteration    1 A*A^-1 deviation from orthogonality  is 5.44D-15 for   2023    584.
 Iteration    1 A^-1*A deviation from unit magnitude is 6.00D-15 for    172.
 Iteration    1 A^-1*A deviation from orthogonality  is 1.69D-15 for   1432    950.
 Error on total polarization charges =  0.06314
 SCF Done:  E(RM062X) =  -617.507489522     A.U. after   12 cycles
            NFock= 12  Conv=0.48D-08     -V/T= 2.0035
 SMD-CDS (non-electrostatic) energy       (kcal/mol) =       4.07
 (included in total energy above)

 **********************************************************************

            Population analysis using the SCF Density.

 **********************************************************************

 Orbital symmetries:
       Occupied  (A) (A) (A) (A) (A) (A) (A) (A) (A) (A) (A) (A)
                 (A) (A) (A) (A) (A) (A) (A) (A) (A) (A) (A) (A)
                 (A) (A) (A) (A) (A) (A) (A) (A) (A) (A) (A) (A)
                 (A) (A) (A) (A) (A) (A) (A) (A) (A) (A) (A) (A)
                 (A) (A) (A)
       Virtual   (A) (A) (A) (A) (A) (A) (A) (A) (A) (A) (A) (A)
                 (A) (A) (A) (A) (A) (A) (A) (A) (A) (A) (A) (A)
                 (A) (A) (A) (A) (A) (A) (A) (A) (A) (A) (A) (A)
                 (A) (A) (A) (A) (A) (A) (A) (A) (A) (A) (A) (A)
                 (A) (A) (A) (A) (A) (A) (A) (A) (A) (A) (A) (A)
                 (A) (A) (A) (A) (A) (A) (A) (A) (A) (A) (A) (A)
                 (A) (A) (A) (A) (A) (A) (A) (A) (A) (A) (A) (A)
                 (A) (A) (A) (A) (A) (A) (A) (A) (A) (A) (A) (A)
                 (A) (A) (A) (A) (A) (A) (A) (A) (A) (A) (A) (A)
                 (A) (A) (A) (A) (A) (A) (A) (A) (A) (A) (A) (A)
                 (A) (A) (A) (A) (A) (A) (A) (A) (A) (A) (A) (A)
                 (A) (A) (A) (A) (A) (A) (A) (A) (A) (A) (A) (A)
                 (A) (A) (A) (A) (A) (A) (A) (A) (A) (A) (A) (A)
                 (A) (A) (A) (A) (A) (A) (A) (A) (A) (A) (A) (A)
                 (A) (A) (A) (A) (A) (A) (A) (A) (A) (A) (A) (A)
                 (A) (A) (A) (A) (A) (A) (A) (A) (A) (A) (A) (A)
                 (A) (A) (A) (A) (A) (A) (A) (A) (A) (A) (A) (A)
                 (A) (A) (A) (A) (A) (A) (A) (A) (A) (A) (A) (A)
                 (A) (A) (A) (A) (A) (A) (A) (A) (A) (A) (A) (A)
                 (A) (A) (A) (A) (A) (A) (A) (A) (A) (A) (A) (A)
                 (A) (A) (A) (A) (A) (A) (A) (A) (A) (A) (A) (A)
                 (A) (A) (A) (A) (A) (A) (A) (A) (A) (A) (A) (A)
                 (A) (A) (A) (A) (A) (A) (A) (A) (A) (A) (A) (A)
                 (A) (A) (A) (A) (A) (A) (A) (A) (A) (A) (A) (A)
                 (A) (A) (A) (A) (A) (A) (A) (A) (A) (A) (A) (A)
                 (A) (A) (A) (A) (A) (A) (A) (A) (A) (A) (A) (A)
                 (A) (A) (A) (A) (A) (A) (A) (A) (A) (A) (A) (A)
                 (A) (A) (A) (A) (A) (A) (A) (A) (A) (A) (A) (A)
                 (A) (A) (A) (A) (A) (A) (A) (A) (A) (A) (A) (A)
                 (A) (A) (A) (A) (A) (A) (A) (A) (A) (A) (A) (A)
                 (A) (A) (A) (A) (A) (A) (A) (A) (A) (A) (A) (A)
                 (A) (A) (A) (A) (A) (A) (A) (A) (A) (A) (A) (A)
                 (A) (A) (A) (A) (A) (A) (A) (A) (A) (A) (A) (A)
                 (A) (A) (A) (A) (A) (A) (A) (A) (A) (A) (A) (A)
                 (A) (A) (A) (A) (A) (A) (A) (A) (A) (A) (A) (A)
                 (A) (A) (A) (A) (A) (A) (A) (A) (A) (A) (A) (A)
                 (A) (A) (A) (A) (A) (A) (A) (A) (A) (A) (A) (A)
                 (A) (A) (A) (A) (A) (A) (A) (A) (A) (A) (A) (A)
                 (A) (A) (A) (A) (A) (A) (A) (A) (A) (A) (A) (A)
                 (A) (A) (A) (A) (A) (A) (A) (A) (A) (A) (A) (A)
 The electronic state is 1-A.
 Alpha  occ. eigenvalues --  -19.63366 -19.62856 -19.62723 -10.63066 -10.58253
 Alpha  occ. eigenvalues --  -10.57421 -10.57417 -10.57378 -10.52458 -10.52358
 Alpha  occ. eigenvalues --  -10.52311 -10.52220 -10.52130  -1.20415  -1.16546
 Alpha  occ. eigenvalues --   -1.14021  -0.90773  -0.89319  -0.86314  -0.84661
 Alpha  occ. eigenvalues --   -0.75208  -0.73180  -0.72643  -0.69749  -0.65303
 Alpha  occ. eigenvalues --   -0.64993  -0.60392  -0.57653  -0.57105  -0.54552
 Alpha  occ. eigenvalues --   -0.54522  -0.52878  -0.51964  -0.50851  -0.50226
 Alpha  occ. eigenvalues --   -0.49660  -0.46485  -0.45571  -0.44894  -0.43893
 Alpha  occ. eigenvalues --   -0.42911  -0.41587  -0.40373  -0.40086  -0.39091
 Alpha  occ. eigenvalues --   -0.38906  -0.37175  -0.36785  -0.34025  -0.33019
 Alpha  occ. eigenvalues --   -0.32238
 Alpha virt. eigenvalues --    0.00483   0.01283   0.01414   0.01425   0.02736
 Alpha virt. eigenvalues --    0.02841   0.02932   0.03962   0.04064   0.04887
 Alpha virt. eigenvalues --    0.05122   0.05314   0.05779   0.05887   0.07448
 Alpha virt. eigenvalues --    0.07716   0.07847   0.08099   0.09231   0.09915
 Alpha virt. eigenvalues --    0.10669   0.11007   0.11386   0.11878   0.12208
 Alpha virt. eigenvalues --    0.12618   0.13005   0.13354   0.13725   0.13759
 Alpha virt. eigenvalues --    0.14192   0.14667   0.14837   0.15005   0.15278
 Alpha virt. eigenvalues --    0.15736   0.15759   0.16255   0.16590   0.16962
 Alpha virt. eigenvalues --    0.17039   0.17230   0.17540   0.17962   0.18279
 Alpha virt. eigenvalues --    0.18618   0.18669   0.19047   0.19419   0.19696
 Alpha virt. eigenvalues --    0.19906   0.20699   0.20823   0.21237   0.21519
 Alpha virt. eigenvalues --    0.22286   0.22956   0.23245   0.24477   0.25328
 Alpha virt. eigenvalues --    0.25633   0.25774   0.26162   0.27438   0.28003
 Alpha virt. eigenvalues --    0.28164   0.28644   0.29122   0.29666   0.30014
 Alpha virt. eigenvalues --    0.30547   0.30983   0.31629   0.31955   0.32223
 Alpha virt. eigenvalues --    0.32814   0.32962   0.33569   0.34370   0.34678
 Alpha virt. eigenvalues --    0.35551   0.35757   0.35844   0.36153   0.36442
 Alpha virt. eigenvalues --    0.36948   0.37106   0.37416   0.37722   0.38594
 Alpha virt. eigenvalues --    0.38690   0.38800   0.40318   0.40335   0.40985
 Alpha virt. eigenvalues --    0.41092   0.41447   0.42243   0.43538   0.45412
 Alpha virt. eigenvalues --    0.45451   0.48715   0.49791   0.50576   0.51624
 Alpha virt. eigenvalues --    0.51918   0.53487   0.53837   0.55104   0.55611
 Alpha virt. eigenvalues --    0.56658   0.56849   0.58073   0.58581   0.59269
 Alpha virt. eigenvalues --    0.60136   0.60211   0.61088   0.61854   0.62173
 Alpha virt. eigenvalues --    0.62507   0.63263   0.63836   0.64003   0.64550
 Alpha virt. eigenvalues --    0.65080   0.66209   0.66727   0.67190   0.67265
 Alpha virt. eigenvalues --    0.67845   0.68423   0.69307   0.70027   0.71165
 Alpha virt. eigenvalues --    0.71885   0.72288   0.72864   0.73220   0.74395
 Alpha virt. eigenvalues --    0.74767   0.75188   0.75245   0.75406   0.76473
 Alpha virt. eigenvalues --    0.76631   0.77167   0.77604   0.77731   0.78999
 Alpha virt. eigenvalues --    0.81069   0.83226   0.84016   0.84436   0.85292
 Alpha virt. eigenvalues --    0.86769   0.88359   0.89227   0.89729   0.90090
 Alpha virt. eigenvalues --    0.91127   0.91933   0.92462   0.94652   0.97116
 Alpha virt. eigenvalues --    0.97365   0.99626   0.99956   1.01011   1.01585
 Alpha virt. eigenvalues --    1.03428   1.04115   1.05456   1.06648   1.07281
 Alpha virt. eigenvalues --    1.08070   1.08902   1.09324   1.10913   1.12048
 Alpha virt. eigenvalues --    1.12692   1.13565   1.14060   1.15170   1.15554
 Alpha virt. eigenvalues --    1.17252   1.17685   1.19072   1.20067   1.20257
 Alpha virt. eigenvalues --    1.21570   1.22233   1.22610   1.23005   1.23679
 Alpha virt. eigenvalues --    1.24520   1.24667   1.26172   1.27262   1.27824
 Alpha virt. eigenvalues --    1.28056   1.29246   1.29284   1.29691   1.30731
 Alpha virt. eigenvalues --    1.31322   1.31671   1.32817   1.33159   1.33926
 Alpha virt. eigenvalues --    1.34048   1.34987   1.36167   1.36997   1.37514
 Alpha virt. eigenvalues --    1.38331   1.39819   1.40801   1.41213   1.41905
 Alpha virt. eigenvalues --    1.42057   1.42473   1.42906   1.44577   1.45117
 Alpha virt. eigenvalues --    1.46535   1.47039   1.47272   1.47934   1.49012
 Alpha virt. eigenvalues --    1.49549   1.49938   1.51424   1.51872   1.52667
 Alpha virt. eigenvalues --    1.53226   1.53558   1.54112   1.55729   1.56535
 Alpha virt. eigenvalues --    1.56799   1.57543   1.58239   1.58615   1.59260
 Alpha virt. eigenvalues --    1.59583   1.60081   1.60828   1.61940   1.62645
 Alpha virt. eigenvalues --    1.63339   1.63741   1.65692   1.66194   1.66733
 Alpha virt. eigenvalues --    1.67620   1.68928   1.69661   1.70851   1.72172
 Alpha virt. eigenvalues --    1.73012   1.73721   1.76599   1.77816   1.79007
 Alpha virt. eigenvalues --    1.79450   1.80151   1.80909   1.82180   1.84055
 Alpha virt. eigenvalues --    1.84974   1.87891   1.92146   1.94374   1.98186
 Alpha virt. eigenvalues --    2.00086   2.10842   2.15746   2.15988   2.18093
 Alpha virt. eigenvalues --    2.24674   2.28098   2.30187   2.31031   2.34177
 Alpha virt. eigenvalues --    2.41343   2.42868   2.44710   2.49686   2.50811
 Alpha virt. eigenvalues --    2.58267   2.76431   2.77968   2.79173   2.81085
 Alpha virt. eigenvalues --    2.87725   2.88091   2.92825   2.93268   2.96520
 Alpha virt. eigenvalues --    2.96881   2.97977   3.01370   3.04042   3.05582
 Alpha virt. eigenvalues --    3.07959   3.08305   3.09467   3.11057   3.12181
 Alpha virt. eigenvalues --    3.12457   3.14652   3.14991   3.17652   3.21618
 Alpha virt. eigenvalues --    3.25331   3.29157   3.31927   3.32945   3.35005
 Alpha virt. eigenvalues --    3.35739   3.38090   3.38445   3.40138   3.41670
 Alpha virt. eigenvalues --    3.43013   3.43527   3.44383   3.46117   3.47159
 Alpha virt. eigenvalues --    3.47849   3.48972   3.51084   3.51518   3.52578
 Alpha virt. eigenvalues --    3.53229   3.54396   3.55075   3.55695   3.55990
 Alpha virt. eigenvalues --    3.57794   3.58229   3.58770   3.60258   3.60664
 Alpha virt. eigenvalues --    3.61222   3.62047   3.62635   3.64198   3.65683
 Alpha virt. eigenvalues --    3.66296   3.67025   3.68193   3.69521   3.70705
 Alpha virt. eigenvalues --    3.71386   3.71999   3.73124   3.73330   3.74228
 Alpha virt. eigenvalues --    3.74650   3.75817   3.76586   3.77310   3.77893
 Alpha virt. eigenvalues --    3.78470   3.79002   3.79776   3.81672   3.83846
 Alpha virt. eigenvalues --    3.87615   3.88946   3.89325   3.90780   3.91856
 Alpha virt. eigenvalues --    3.92429   3.93191   3.94142   3.94689   3.97773
 Alpha virt. eigenvalues --    3.99807   4.02642   4.03343   4.03791   4.04213
 Alpha virt. eigenvalues --    4.05869   4.06622   4.06776   4.06988   4.07764
 Alpha virt. eigenvalues --    4.08518   4.09977   4.10268   4.11627   4.12402
 Alpha virt. eigenvalues --    4.12433   4.12774   4.13818   4.14660   4.15051
 Alpha virt. eigenvalues --    4.16370   4.17180   4.17890   4.19883   4.20356
 Alpha virt. eigenvalues --    4.21869   4.22500   4.23781   4.26510   4.27183
 Alpha virt. eigenvalues --    4.28281   4.29200   4.31027   4.31605   4.32676
 Alpha virt. eigenvalues --    4.32948   4.34049   4.35229   4.37003   4.37993
 Alpha virt. eigenvalues --    4.40058   4.44263   4.46009   4.50329   4.54505
 Alpha virt. eigenvalues --    4.60016   4.62066   4.74341   4.77477   4.89058
 Alpha virt. eigenvalues --    4.91186   4.91335   4.92817   4.99780   5.00776
 Alpha virt. eigenvalues --    5.06833   5.08245   5.08530   5.10095   5.11991
 Alpha virt. eigenvalues --    5.12340   5.12958   5.14434   5.30012   5.35233
 Alpha virt. eigenvalues --    5.35881   5.57356   5.58031   5.61807   5.86661
 Alpha virt. eigenvalues --    5.88342   6.04796   7.02972   7.05256   7.05829
 Alpha virt. eigenvalues --    7.08405   7.09740   7.12615   7.13534   7.16580
 Alpha virt. eigenvalues --    7.20572   7.36295   7.39786   7.46765   7.52752
 Alpha virt. eigenvalues --    7.56134   7.62817  23.95394  23.97082  24.05085
 Alpha virt. eigenvalues --   24.09707  24.12586  24.13843  24.14248  24.16090
 Alpha virt. eigenvalues --   24.17554  24.19393  50.16212  50.20387  50.22207
          Condensed to atoms (all electrons):
               1          2          3          4          5          6
     1  C    6.592682   0.227260  -0.099833  -0.829006  -0.146299  -0.042379
     2  C    0.227260   5.557983  -0.016669   0.013155  -0.036398  -0.003374
     3  C   -0.099833  -0.016669   6.426539   0.120681  -0.016198  -0.022239
     4  C   -0.829006   0.013155   0.120681   7.572085  -0.676519   0.118464
     5  C   -0.146299  -0.036398  -0.016198  -0.676519   6.351908  -0.029516
     6  O   -0.042379  -0.003374  -0.022239   0.118464  -0.029516   8.419413
     7  C   -0.001585  -0.001229  -0.091252  -0.096140   0.013206   0.016717
     8  O   -0.055529   0.111589  -0.000281  -0.041221  -0.021924   0.000068
     9  C    0.012343  -0.000162  -0.086875  -0.030145  -0.009844  -0.059758
    10  C    0.071420  -0.068811  -0.573552  -0.495279  -0.008153   0.133912
    11  C    0.018756  -0.000284   0.031638  -0.024781   0.006558   0.026929
    12  C   -0.394862  -0.295261   0.035568   0.133234   0.184388   0.000271
    13  O   -0.108657   0.041023  -0.238467   0.114564  -0.125359  -0.003590
    14  H    0.487588   0.015417  -0.009345   0.011030  -0.039358   0.000888
    15  H    0.422268   0.000071   0.008509  -0.060407  -0.001610  -0.000432
    16  H    0.005724   0.431259  -0.000722   0.000429  -0.031304  -0.000217
    17  H   -0.014815   0.446643   0.000566   0.042348  -0.083141   0.000211
    18  H   -0.001694  -0.001990   0.496678   0.009827   0.004477  -0.009425
    19  H    0.004627   0.001125   0.451545  -0.008476  -0.003148   0.005539
    20  H   -0.046319   0.006271   0.000953   0.460982  -0.003786  -0.007230
    21  H   -0.001366  -0.017094   0.002220  -0.037552   0.431895  -0.000553
    22  H   -0.042577  -0.089336   0.001361   0.033445   0.448711   0.000095
    23  H   -0.001515  -0.000137  -0.065342  -0.002513   0.000232  -0.002190
    24  H    0.000989  -0.000121  -0.047410   0.003622   0.000165   0.000579
    25  H   -0.000180   0.000328  -0.010468   0.009360  -0.000368  -0.003588
    26  H    0.001107   0.000009   0.004343  -0.005154   0.000019   0.007518
    27  H    0.052040   0.002089  -0.069776  -0.041490  -0.010780  -0.058335
    28  H   -0.001854   0.000197   0.013087   0.013406   0.002743  -0.027117
    29  H    0.000785  -0.000363   0.007369  -0.002540   0.000512  -0.072692
    30  H   -0.029776  -0.015211  -0.002259   0.023609  -0.026413   0.000198
    31  H   -0.005175   0.010052   0.001071  -0.009415  -0.002188  -0.000340
               7          8          9         10         11         12
     1  C   -0.001585  -0.055529   0.012343   0.071420   0.018756  -0.394862
     2  C   -0.001229   0.111589  -0.000162  -0.068811  -0.000284  -0.295261
     3  C   -0.091252  -0.000281  -0.086875  -0.573552   0.031638   0.035568
     4  C   -0.096140  -0.041221  -0.030145  -0.495279  -0.024781   0.133234
     5  C    0.013206  -0.021924  -0.009844  -0.008153   0.006558   0.184388
     6  O    0.016717   0.000068  -0.059758   0.133912   0.026929   0.000271
     7  C    5.703856   0.000053   0.010807   0.111310  -0.059412   0.006592
     8  O    0.000053   8.446788   0.000011   0.004648   0.000055   0.135458
     9  C    0.010807   0.000011   5.536991   0.120163   0.051849  -0.003634
    10  C    0.111310   0.004648   0.120163   6.280766  -0.122141  -0.008482
    11  C   -0.059412   0.000055   0.051849  -0.122141   5.462687  -0.001073
    12  C    0.006592   0.135458  -0.003634  -0.008482  -0.001073   5.886269
    13  O    0.024249  -0.001119   0.020783   0.169359  -0.013629  -0.010841
    14  H    0.000038  -0.004571   0.001144   0.003586  -0.002281  -0.112356
    15  H    0.004500   0.011032  -0.004382  -0.004467   0.002608   0.038112
    16  H   -0.000039  -0.069351  -0.000088  -0.002343   0.000024   0.004385
    17  H    0.000374  -0.042272   0.000155   0.004317   0.000007   0.000857
    18  H   -0.012550  -0.000002  -0.020080  -0.099967   0.002407   0.001387
    19  H   -0.025928  -0.000078  -0.000158  -0.046417   0.002670   0.000723
    20  H   -0.011343  -0.005585  -0.003137  -0.026900   0.005477  -0.016819
    21  H    0.000190   0.007120   0.000788  -0.002051  -0.000534   0.001829
    22  H   -0.001046  -0.003153  -0.000113   0.003282   0.000237   0.019215
    23  H    0.422230   0.000001  -0.027361   0.041545   0.008372   0.000130
    24  H    0.525841  -0.000002  -0.067330  -0.019196  -0.011888   0.001099
    25  H   -0.019517   0.000002   0.490488  -0.009992  -0.083535   0.000072
    26  H   -0.058362  -0.000002   0.459368   0.004419  -0.032308  -0.000165
    27  H   -0.034616   0.000845   0.028578   0.520993   0.008519  -0.039568
    28  H   -0.009783  -0.000035  -0.058038  -0.039391   0.474123   0.001276
    29  H    0.009238   0.000010  -0.039777   0.005205   0.438173  -0.000041
    30  H    0.000343  -0.038350  -0.000131   0.008873   0.000320   0.426451
    31  H   -0.000379  -0.076133   0.000326   0.000331   0.000282   0.414010
              13         14         15         16         17         18
     1  C   -0.108657   0.487588   0.422268   0.005724  -0.014815  -0.001694
     2  C    0.041023   0.015417   0.000071   0.431259   0.446643  -0.001990
     3  C   -0.238467  -0.009345   0.008509  -0.000722   0.000566   0.496678
     4  C    0.114564   0.011030  -0.060407   0.000429   0.042348   0.009827
     5  C   -0.125359  -0.039358  -0.001610  -0.031304  -0.083141   0.004477
     6  O   -0.003590   0.000888  -0.000432  -0.000217   0.000211  -0.009425
     7  C    0.024249   0.000038   0.004500  -0.000039   0.000374  -0.012550
     8  O   -0.001119  -0.004571   0.011032  -0.069351  -0.042272  -0.000002
     9  C    0.020783   0.001144  -0.004382  -0.000088   0.000155  -0.020080
    10  C    0.169359   0.003586  -0.004467  -0.002343   0.004317  -0.099967
    11  C   -0.013629  -0.002281   0.002608   0.000024   0.000007   0.002407
    12  C   -0.010841  -0.112356   0.038112   0.004385   0.000857   0.001387
    13  O    8.528829   0.001397   0.000067  -0.001338  -0.001155  -0.000552
    14  H    0.001397   0.455070  -0.027019  -0.001163   0.002209  -0.000106
    15  H    0.000067  -0.027019   0.490797   0.000865  -0.001406   0.000610
    16  H   -0.001338  -0.001163   0.000865   0.474625  -0.020265  -0.000053
    17  H   -0.001155   0.002209  -0.001406  -0.020265   0.502976   0.000156
    18  H   -0.000552  -0.000106   0.000610  -0.000053   0.000156   0.457065
    19  H    0.001637  -0.001108   0.000886  -0.000015  -0.000041  -0.018941
    20  H   -0.016433  -0.002293  -0.004520   0.004290  -0.018603  -0.001274
    21  H    0.004088  -0.003140   0.000359  -0.010201   0.000849  -0.000128
    22  H   -0.005889   0.004559  -0.003345  -0.007009   0.004171   0.000333
    23  H   -0.002834  -0.000014  -0.000003   0.000003  -0.000005  -0.005375
    24  H   -0.000301  -0.000212   0.001754  -0.000017   0.000042   0.005928
    25  H    0.002987   0.000038   0.000318  -0.000010   0.000049   0.002545
    26  H    0.000275  -0.000011  -0.000328   0.000003  -0.000021  -0.003421
    27  H   -0.035266   0.006673  -0.015797   0.000212  -0.000187  -0.007574
    28  H    0.004476  -0.000145   0.001050   0.000021  -0.000033   0.000349
    29  H   -0.001990  -0.000063   0.000180  -0.000005   0.000032  -0.000806
    30  H   -0.000731   0.005665  -0.005252  -0.005309   0.014270  -0.000047
    31  H   -0.000842  -0.004320  -0.011869   0.001794  -0.003965   0.000019
              19         20         21         22         23         24
     1  C    0.004627  -0.046319  -0.001366  -0.042577  -0.001515   0.000989
     2  C    0.001125   0.006271  -0.017094  -0.089336  -0.000137  -0.000121
     3  C    0.451545   0.000953   0.002220   0.001361  -0.065342  -0.047410
     4  C   -0.008476   0.460982  -0.037552   0.033445  -0.002513   0.003622
     5  C   -0.003148  -0.003786   0.431895   0.448711   0.000232   0.000165
     6  O    0.005539  -0.007230  -0.000553   0.000095  -0.002190   0.000579
     7  C   -0.025928  -0.011343   0.000190  -0.001046   0.422230   0.525841
     8  O   -0.000078  -0.005585   0.007120  -0.003153   0.000001  -0.000002
     9  C   -0.000158  -0.003137   0.000788  -0.000113  -0.027361  -0.067330
    10  C   -0.046417  -0.026900  -0.002051   0.003282   0.041545  -0.019196
    11  C    0.002670   0.005477  -0.000534   0.000237   0.008372  -0.011888
    12  C    0.000723  -0.016819   0.001829   0.019215   0.000130   0.001099
    13  O    0.001637  -0.016433   0.004088  -0.005889  -0.002834  -0.000301
    14  H   -0.001108  -0.002293  -0.003140   0.004559  -0.000014  -0.000212
    15  H    0.000886  -0.004520   0.000359  -0.003345  -0.000003   0.001754
    16  H   -0.000015   0.004290  -0.010201  -0.007009   0.000003  -0.000017
    17  H   -0.000041  -0.018603   0.000849   0.004171  -0.000005   0.000042
    18  H   -0.018941  -0.001274  -0.000128   0.000333  -0.005375   0.005928
    19  H    0.470713   0.000475  -0.000080  -0.000074  -0.009124  -0.006212
    20  H    0.000475   0.417410  -0.006410  -0.000140   0.000086  -0.001063
    21  H   -0.000080  -0.006410   0.472531  -0.019692   0.000005   0.000017
    22  H   -0.000074  -0.000140  -0.019692   0.459741  -0.000034   0.000047
    23  H   -0.009124   0.000086   0.000005  -0.000034   0.457387  -0.002317
    24  H   -0.006212  -0.001063   0.000017   0.000047  -0.002317   0.456224
    25  H   -0.001631  -0.001472   0.000039  -0.000052  -0.002179   0.004066
    26  H    0.001555   0.000701   0.000002  -0.000009  -0.008018  -0.006862
    27  H   -0.000670   0.005465   0.000013   0.000016  -0.000866  -0.015601
    28  H    0.000110  -0.000456  -0.000024  -0.000006  -0.001810   0.002760
    29  H    0.001286  -0.000913  -0.000016   0.000070   0.000746  -0.001989
    30  H   -0.000036  -0.010231  -0.001767   0.002412  -0.000003   0.000008
    31  H    0.000032   0.000042   0.001676  -0.001871  -0.000005  -0.000026
              25         26         27         28         29         30
     1  C   -0.000180   0.001107   0.052040  -0.001854   0.000785  -0.029776
     2  C    0.000328   0.000009   0.002089   0.000197  -0.000363  -0.015211
     3  C   -0.010468   0.004343  -0.069776   0.013087   0.007369  -0.002259
     4  C    0.009360  -0.005154  -0.041490   0.013406  -0.002540   0.023609
     5  C   -0.000368   0.000019  -0.010780   0.002743   0.000512  -0.026413
     6  O   -0.003588   0.007518  -0.058335  -0.027117  -0.072692   0.000198
     7  C   -0.019517  -0.058362  -0.034616  -0.009783   0.009238   0.000343
     8  O    0.000002  -0.000002   0.000845  -0.000035   0.000010  -0.038350
     9  C    0.490488   0.459368   0.028578  -0.058038  -0.039777  -0.000131
    10  C   -0.009992   0.004419   0.520993  -0.039391   0.005205   0.008873
    11  C   -0.083535  -0.032308   0.008519   0.474123   0.438173   0.000320
    12  C    0.000072  -0.000165  -0.039568   0.001276  -0.000041   0.426451
    13  O    0.002987   0.000275  -0.035266   0.004476  -0.001990  -0.000731
    14  H    0.000038  -0.000011   0.006673  -0.000145  -0.000063   0.005665
    15  H    0.000318  -0.000328  -0.015797   0.001050   0.000180  -0.005252
    16  H   -0.000010   0.000003   0.000212   0.000021  -0.000005  -0.005309
    17  H    0.000049  -0.000021  -0.000187  -0.000033   0.000032   0.014270
    18  H    0.002545  -0.003421  -0.007574   0.000349  -0.000806  -0.000047
    19  H   -0.001631   0.001555  -0.000670   0.000110   0.001286  -0.000036
    20  H   -0.001472   0.000701   0.005465  -0.000456  -0.000913  -0.010231
    21  H    0.000039   0.000002   0.000013  -0.000024  -0.000016  -0.001767
    22  H   -0.000052  -0.000009   0.000016  -0.000006   0.000070   0.002412
    23  H   -0.002179  -0.008018  -0.000866  -0.001810   0.000746  -0.000003
    24  H    0.004066  -0.006862  -0.015601   0.002760  -0.001989   0.000008
    25  H    0.474633  -0.013465  -0.002524   0.004302  -0.003302   0.000020
    26  H   -0.013465   0.475578   0.002248  -0.000114  -0.010112  -0.000014
    27  H   -0.002524   0.002248   0.459312  -0.007922  -0.001206   0.001770
    28  H    0.004302  -0.000114  -0.007922   0.470299  -0.005842  -0.000078
    29  H   -0.003302  -0.010112  -0.001206  -0.005842   0.474397  -0.000022
    30  H    0.000020  -0.000014   0.001770  -0.000078  -0.000022   0.491520
    31  H   -0.000011   0.000016   0.000809  -0.000039   0.000035  -0.015890
              31
     1  C   -0.005175
     2  C    0.010052
     3  C    0.001071
     4  C   -0.009415
     5  C   -0.002188
     6  O   -0.000340
     7  C   -0.000379
     8  O   -0.076133
     9  C    0.000326
    10  C    0.000331
    11  C    0.000282
    12  C    0.414010
    13  O   -0.000842
    14  H   -0.004320
    15  H   -0.011869
    16  H    0.001794
    17  H   -0.003965
    18  H    0.000019
    19  H    0.000032
    20  H    0.000042
    21  H    0.001676
    22  H   -0.001871
    23  H   -0.000005
    24  H   -0.000026
    25  H   -0.000011
    26  H    0.000016
    27  H    0.000809
    28  H   -0.000039
    29  H    0.000035
    30  H   -0.015890
    31  H    0.489131
 Mulliken charges:
               1
     1  C   -0.074169
     2  C   -0.318033
     3  C   -0.251438
     4  C   -0.319601
     5  C   -0.172508
     6  O   -0.387826
     7  C   -0.426361
     8  O   -0.358073
     9  C   -0.322782
    10  C    0.043011
    11  C   -0.189827
    12  C   -0.408223
    13  O   -0.344743
    14  H    0.212202
    15  H    0.156853
    16  H    0.225816
    17  H    0.165676
    18  H    0.202205
    19  H    0.179215
    20  H    0.282773
    21  H    0.176984
    22  H    0.196650
    23  H    0.200911
    24  H    0.177407
    25  H    0.163049
    26  H    0.181207
    27  H    0.252593
    28  H    0.164487
    29  H    0.203644
    30  H    0.176059
    31  H    0.212844
 Sum of Mulliken charges =  -0.00000
 Mulliken charges with hydrogens summed into heavy atoms:
               1
     1  C    0.294887
     2  C    0.073459
     3  C    0.129982
     4  C   -0.036828
     5  C    0.201126
     6  O   -0.387826
     7  C   -0.048042
     8  O   -0.358073
     9  C    0.021473
    10  C    0.295604
    11  C    0.178303
    12  C   -0.019321
    13  O   -0.344743
 Electronic spatial extent (au):  <R**2>=           3377.4465
 Charge=             -0.0000 electrons
 Dipole moment (field-independent basis, Debye):
    X=              3.3801    Y=              2.3084    Z=              0.9523  Tot=              4.2024
 Quadrupole moment (field-independent basis, Debye-Ang):
   XX=            -81.2778   YY=            -78.2646   ZZ=            -77.1518
   XY=              0.3720   XZ=              5.2787   YZ=              1.7746
 Traceless Quadrupole moment (field-independent basis, Debye-Ang):
   XX=             -2.3797   YY=              0.6334   ZZ=              1.7463
   XY=              0.3720   XZ=              5.2787   YZ=              1.7746
 Octapole moment (field-independent basis, Debye-Ang**2):
  XXX=             98.7168  YYY=              7.4010  ZZZ=              0.4950  XYY=             -0.7528
  XXY=              6.7232  XXZ=            -15.8455  XZZ=            -12.1008  YZZ=              2.0494
  YYZ=             -0.7521  XYZ=             -7.8372
 Hexadecapole moment (field-independent basis, Debye-Ang**3):
 XXXX=          -3889.0026 YYYY=           -446.9777 ZZZZ=           -393.8277 XXXY=             29.7542
 XXXZ=             56.3573 YYYX=              6.1731 YYYZ=             -4.1416 ZZZX=             -8.1562
 ZZZY=              1.9758 XXYY=           -637.2759 XXZZ=           -635.0634 YYZZ=           -133.2652
 XXYZ=             16.9724 YYXZ=             -5.6170 ZZXY=             -0.2681
 N-N= 8.784624162812D+02 E-N=-3.199014488713D+03  KE= 6.153645969979D+02
 D1PCM: PCM CHGder 1st derivatives, ID1Alg=3 FixD1E=F DoIter=F DoCFld=F I1PDM=0.
 Calling FoFJK, ICntrl=      2127 FMM=F ISym2X=0 I1Cent= 0 IOpClX= 0 NMat=1 NMatS=1 NMatT=0.
 ***** Axes restored to original set *****
 -------------------------------------------------------------------
 Center     Atomic                   Forces (Hartrees/Bohr)
 Number     Number              X              Y              Z
 -------------------------------------------------------------------
      1        6           0.000513013   -0.001457215   -0.002993433
      2        6          -0.006551188    0.001117903    0.001108891
      3        6          -0.001094531   -0.002983208    0.001514249
      4        6           0.005979643   -0.000391133    0.005790526
      5        6          -0.000088332   -0.003608687   -0.000037485
      6        8           0.005467240   -0.000147326   -0.012665946
      7        6           0.002706024   -0.001137184   -0.003127569
      8        8           0.010053432    0.003956350    0.004554818
      9        6           0.002012570   -0.000150782    0.002689819
     10        6          -0.003747098    0.000158763    0.005905000
     11        6          -0.004440903    0.004453745    0.002283684
     12        6          -0.005992744    0.002399938   -0.000928350
     13        8          -0.000200884    0.013502388   -0.006329344
     14        1           0.000742591    0.003485172    0.001380155
     15        1          -0.002701644   -0.002368847    0.001186920
     16        1           0.002891536    0.002934093   -0.001851957
     17        1          -0.001602930   -0.004335910   -0.003245766
     18        1           0.000450802    0.001329943   -0.003651235
     19        1           0.000981649    0.001526914    0.002638422
     20        1          -0.000671077   -0.005664027   -0.003809880
     21        1          -0.001510883    0.000465806   -0.002833845
     22        1           0.000477489    0.002711499    0.002803296
     23        1          -0.001828933    0.001884830   -0.000028341
     24        1           0.000621226   -0.002034520    0.002608216
     25        1           0.000338703    0.001770956   -0.002839053
     26        1          -0.002175806   -0.001585493    0.000644310
     27        1          -0.000053988   -0.005064260    0.007075961
     28        1          -0.000209887   -0.002743284    0.004946460
     29        1          -0.000600755   -0.002626345   -0.003753534
     30        1          -0.001655113   -0.004445260   -0.003082256
     31        1           0.001890778   -0.000954820    0.004047267
 -------------------------------------------------------------------
 Cartesian Forces:  Max     0.013502388 RMS     0.003690662

 GradGradGradGradGradGradGradGradGradGradGradGradGradGradGradGradGradGrad
 Berny optimization.
 FormGI is forming the generalized inverse of G from B-inverse, IUseBI=4.
 Internal  Forces:  Max     0.012262679 RMS     0.002192538
 Search for a local minimum.
 Step number   1 out of a maximum of  186
 All quantities printed in internal units (Hartrees-Bohrs-Radians)
 Mixed Optimization -- RFO/linear search
 Second derivative matrix not updated -- first step.
 ITU=  0
     Eigenvalues ---    0.00611   0.00690   0.00733   0.00760   0.01404
     Eigenvalues ---    0.01432   0.01493   0.02715   0.02728   0.03112
     Eigenvalues ---    0.03393   0.04173   0.04254   0.04763   0.04775
     Eigenvalues ---    0.04807   0.04901   0.05050   0.05162   0.05189
     Eigenvalues ---    0.05267   0.05685   0.05733   0.06142   0.06189
     Eigenvalues ---    0.06256   0.06352   0.06748   0.07658   0.07910
     Eigenvalues ---    0.07950   0.07953   0.07962   0.07965   0.08453
     Eigenvalues ---    0.08687   0.08972   0.09124   0.10899   0.11438
     Eigenvalues ---    0.11709   0.11717   0.11757   0.12308   0.13144
     Eigenvalues ---    0.14204   0.14364   0.16334   0.16371   0.17711
     Eigenvalues ---    0.19153   0.21447   0.21741   0.25000   0.28541
     Eigenvalues ---    0.28647   0.28726   0.28962   0.29003   0.29418
     Eigenvalues ---    0.30093   0.30566   0.35040   0.35067   0.35078
     Eigenvalues ---    0.35090   0.35126   0.35173   0.35179   0.35180
     Eigenvalues ---    0.35198   0.35245   0.35308   0.35356   0.35369
     Eigenvalues ---    0.35373   0.35738   0.35871   0.35872   0.35888
     Eigenvalues ---    0.41171   0.41681   0.42032   0.42194   0.42805
     Eigenvalues ---    0.473361000.000001000.000001000.000001000.00000
     Eigenvalues --- 1000.000001000.000001000.000001000.000001000.00000
     Eigenvalues --- 1000.000001000.000001000.000001000.000001000.00000
     Eigenvalues --- 1000.000001000.000001000.000001000.000001000.00000
     Eigenvalues --- 1000.000001000.000001000.000001000.000001000.00000
     Eigenvalues --- 1000.000001000.000001000.000001000.000001000.00000
     Eigenvalues --- 1000.000001000.000001000.000001000.000001000.00000
     Eigenvalues --- 1000.000001000.000001000.000001000.000001000.00000
     Eigenvalues --- 1000.000001000.000001000.000001000.000001000.00000
     Eigenvalues --- 1000.000001000.000001000.000001000.000001000.00000
     Eigenvalues --- 1000.000001000.000001000.000001000.000001000.00000
     Eigenvalues --- 1000.000001000.000001000.000001000.000001000.00000
     Eigenvalues --- 1000.000001000.000001000.000001000.000001000.00000
     Eigenvalues --- 1000.000001000.000001000.000001000.000001000.00000
     Eigenvalues --- 1000.000001000.000001000.000001000.000001000.00000
     Eigenvalues --- 1000.000001000.000001000.000001000.000001000.00000
     Eigenvalues --- 1000.000001000.000001000.000001000.000001000.00000
     Eigenvalues --- 1000.000001000.000001000.000001000.000001000.00000
     Eigenvalues --- 1000.000001000.000001000.000001000.000001000.00000
     Eigenvalues --- 1000.000001000.000001000.000001000.000001000.00000
 RFO step:  Lambda=-3.03922514D-03 EMin= 6.11210889D-03
 Linear search not attempted -- first point.
 Iteration  1 RMS(Cart)=  0.04974099 RMS(Int)=  0.00062654
 Iteration  2 RMS(Cart)=  0.00151902 RMS(Int)=  0.00001856
 Iteration  3 RMS(Cart)=  0.00000050 RMS(Int)=  0.00001856
 Iteration  1 RMS(Cart)=  0.00000452 RMS(Int)=  0.00000099
 Iteration  2 RMS(Cart)=  0.00000240 RMS(Int)=  0.00000111
 Iteration  3 RMS(Cart)=  0.00000128 RMS(Int)=  0.00000125
 Iteration  4 RMS(Cart)=  0.00000068 RMS(Int)=  0.00000134
 Variable       Old X    -DE/DX   Delta X   Delta X   Delta X     New X
                                 (Linear)    (Quad)   (Total)
    R1        2.88439  -0.00171   0.00000  -0.00639  -0.00641   2.87798
    R2        2.87826  -0.00052   0.00000  -0.00182  -0.00182   2.87644
    R3        2.05385   0.00367   0.00000   0.01033   0.01033   2.06418
    R4        2.05101   0.00371   0.00000   0.01042   0.01042   2.06143
    R5        2.87729  -0.00063   0.00000  -0.00185  -0.00185   2.87544
    R6        2.67180   0.00620   0.00000   0.01468   0.01470   2.68649
    R7        2.04282   0.00451   0.00000   0.01245   0.01245   2.05528
    R8        2.05549   0.00555   0.00000   0.01567   0.01567   2.07116
    R9        2.89323  -0.00112   0.00000  -0.00426  -0.00429   2.88894
   R10        2.86480  -0.00135   0.00000  -0.00476  -0.00475   2.86005
   R11        2.05383   0.00371   0.00000   0.01044   0.01044   2.06427
   R12        2.05073   0.00318   0.00000   0.00891   0.00891   2.05964
   R13        2.87540  -0.00201   0.00000  -0.00744  -0.00746   2.86794
   R14        2.68676   0.00452   0.00000   0.01064   0.01064   2.69740
   R15        2.04494   0.00680   0.00000   0.01886   0.01886   2.06380
   R16        2.05178   0.00321   0.00000   0.00901   0.00901   2.06079
   R17        2.05354   0.00379   0.00000   0.01068   0.01068   2.06422
   R18        2.65890   0.00816   0.00000   0.01868   0.01870   2.67760
   R19        2.68129   0.00562   0.00000   0.01340   0.01343   2.69472
   R20        2.89032  -0.00096   0.00000  -0.00383  -0.00386   2.88647
   R21        2.05080   0.00262   0.00000   0.00734   0.00734   2.05814
   R22        2.05609   0.00327   0.00000   0.00925   0.00925   2.06534
   R23        2.67174   0.00598   0.00000   0.01429   0.01431   2.68605
   R24        2.87294  -0.00092   0.00000  -0.00255  -0.00255   2.87039
   R25        2.05471   0.00326   0.00000   0.00921   0.00921   2.06392
   R26        2.05278   0.00276   0.00000   0.00776   0.00776   2.06055
   R27        2.62653   0.00566   0.00000   0.01188   0.01188   2.63841
   R28        2.05395   0.00865   0.00000   0.02439   0.02439   2.07835
   R29        2.05529   0.00556   0.00000   0.01571   0.01571   2.07100
   R30        2.04257   0.00461   0.00000   0.01275   0.01275   2.05532
   R31        2.05567   0.00555   0.00000   0.01570   0.01570   2.07137
   R32        2.04283   0.00456   0.00000   0.01261   0.01261   2.05544
    A1        1.92076  -0.00036   0.00000  -0.00618  -0.00625   1.91451
    A2        1.90544   0.00015   0.00000  -0.00304  -0.00302   1.90242
    A3        1.94136  -0.00070   0.00000  -0.00422  -0.00419   1.93717
    A4        1.91051   0.00014   0.00000   0.00155   0.00154   1.91205
    A5        1.90143   0.00048   0.00000   0.00502   0.00502   1.90645
    A6        1.88381   0.00031   0.00000   0.00721   0.00718   1.89099
    A7        1.94241   0.00117   0.00000   0.00559   0.00558   1.94799
    A8        1.93543  -0.00040   0.00000  -0.00356  -0.00357   1.93186
    A9        1.93010  -0.00126   0.00000  -0.00823  -0.00824   1.92186
   A10        1.86095  -0.00071   0.00000  -0.00075  -0.00074   1.86022
   A11        1.90357   0.00065   0.00000   0.00436   0.00438   1.90796
   A12        1.88924   0.00059   0.00000   0.00297   0.00294   1.89218
   A13        1.92268  -0.00030   0.00000  -0.00679  -0.00685   1.91583
   A14        1.92503   0.00071   0.00000   0.00436   0.00432   1.92936
   A15        1.93697  -0.00012   0.00000   0.00307   0.00307   1.94004
   A16        1.88989  -0.00048   0.00000  -0.00661  -0.00660   1.88329
   A17        1.90380  -0.00009   0.00000  -0.00092  -0.00089   1.90291
   A18        1.88439   0.00027   0.00000   0.00687   0.00684   1.89123
   A19        1.91509   0.00233   0.00000   0.00221   0.00216   1.91725
   A20        1.95101  -0.00124   0.00000  -0.00618  -0.00616   1.94485
   A21        1.91205  -0.00086   0.00000  -0.00391  -0.00391   1.90815
   A22        1.87510  -0.00046   0.00000   0.00131   0.00133   1.87643
   A23        1.90475  -0.00064   0.00000   0.00057   0.00057   1.90532
   A24        1.90505   0.00088   0.00000   0.00627   0.00625   1.91130
   A25        1.92517  -0.00047   0.00000  -0.00742  -0.00748   1.91770
   A26        1.91030   0.00051   0.00000   0.00414   0.00414   1.91445
   A27        1.91011   0.00005   0.00000   0.00169   0.00166   1.91178
   A28        1.92568  -0.00054   0.00000  -0.00178  -0.00176   1.92392
   A29        1.90778   0.00021   0.00000  -0.00309  -0.00308   1.90469
   A30        1.88427   0.00026   0.00000   0.00679   0.00677   1.89105
   A31        1.97831  -0.00471   0.00000  -0.02595  -0.02589   1.95242
   A32        1.92546   0.00184   0.00000  -0.00135  -0.00142   1.92403
   A33        1.91989  -0.00049   0.00000  -0.00071  -0.00068   1.91921
   A34        1.90987  -0.00081   0.00000  -0.00179  -0.00178   1.90809
   A35        1.93147  -0.00061   0.00000   0.00055   0.00058   1.93204
   A36        1.90913  -0.00055   0.00000  -0.00143  -0.00142   1.90771
   A37        1.86704   0.00056   0.00000   0.00486   0.00485   1.87189
   A38        1.97090  -0.00454   0.00000  -0.02445  -0.02442   1.94648
   A39        1.92336   0.00019   0.00000  -0.00423  -0.00431   1.91905
   A40        1.91873   0.00045   0.00000   0.00195   0.00196   1.92069
   A41        1.93544  -0.00057   0.00000  -0.00081  -0.00080   1.93464
   A42        1.90349  -0.00048   0.00000  -0.00181  -0.00180   1.90169
   A43        1.90565   0.00012   0.00000  -0.00020  -0.00018   1.90547
   A44        1.87631   0.00029   0.00000   0.00531   0.00529   1.88160
   A45        1.93642   0.00079   0.00000   0.00715   0.00713   1.94355
   A46        1.90048  -0.00080   0.00000  -0.00307  -0.00307   1.89741
   A47        1.92737  -0.00094   0.00000  -0.00304  -0.00304   1.92433
   A48        1.89697  -0.00134   0.00000  -0.00955  -0.00954   1.88743
   A49        1.88188   0.00106   0.00000   0.00110   0.00111   1.88300
   A50        1.92052   0.00126   0.00000   0.00746   0.00746   1.92798
   A51        1.93566   0.00086   0.00000   0.00338   0.00339   1.93904
   A52        1.90292   0.00073   0.00000   0.00456   0.00457   1.90749
   A53        1.85094  -0.00064   0.00000  -0.00031  -0.00032   1.85062
   A54        1.93116  -0.00117   0.00000  -0.00795  -0.00797   1.92319
   A55        1.95061  -0.00024   0.00000  -0.00204  -0.00204   1.94857
   A56        1.89001   0.00052   0.00000   0.00290   0.00288   1.89289
   A57        1.94333   0.00100   0.00000   0.00350   0.00350   1.94683
   A58        1.92999  -0.00128   0.00000  -0.00801  -0.00802   1.92197
   A59        1.93558  -0.00024   0.00000  -0.00233  -0.00233   1.93326
   A60        1.90355   0.00065   0.00000   0.00471   0.00473   1.90828
   A61        1.86027  -0.00065   0.00000  -0.00058  -0.00058   1.85969
   A62        1.88894   0.00055   0.00000   0.00313   0.00311   1.89205
   A63        2.06380  -0.01226   0.00000  -0.04846  -0.04846   2.01534
    D1       -0.92152  -0.00012   0.00000  -0.01126  -0.01125  -0.93277
    D2       -2.99994  -0.00030   0.00000  -0.01044  -0.01043  -3.01037
    D3        1.16927  -0.00001   0.00000  -0.01162  -0.01163   1.15764
    D4        1.17572  -0.00007   0.00000  -0.01504  -0.01503   1.16069
    D5       -0.90270  -0.00025   0.00000  -0.01422  -0.01421  -0.91692
[...]
 .04964549,0.08169348,-0.26892284,0.00036616,-0.00004223,0.00018161,0.0
 0127130,-0.00037418,0.00140822,0.00001025,-0.00000260,-0.00000966,-0.0
 0029595,0.00003260,0.00003148,0.00000119,0.00000037,-0.00000163,-0.000
 00219,-0.00000647,0.00000137,-0.00000513,0.00000186,0.00000034,-0.0000
 0063,0.00000154,0.00000115,-0.00047682,-0.00014261,0.00033888,0.000085
 39,-0.00021985,0.00025066,-0.00001080,0.00000787,0.00000067,0.00000052
 ,-0.00000233,0.00000275,-0.00000083,-0.00000208,-0.00000005,0.00038769
 ,0.00016204,0.00084521,-0.00089147,-0.00373171,-0.00145168,0.05460326,
 -0.08630916,0.29293876,-0.00003032,0.00002389,0.00003436,0.00000799,-0
 .00003284,0.00000777,0.00106772,-0.00038243,-0.00081707,0.00022152,-0.
 00010703,0.00005174,-0.00002601,0.00002871,-0.00002832,-0.00768234,0.0
 0197875,0.00001134,-0.00266809,-0.00143934,0.00050004,-0.00002261,0.00
 000263,-0.00000052,-0.20944840,-0.11105595,0.06560407,0.00123429,0.001
 82883,0.00137962,-0.01677921,-0.01732507,0.00833648,0.00002741,-0.0000
 0826,-0.00002571,-0.00053668,-0.00034468,-0.00002758,-0.00000208,0.000
 00119,-0.00000987,0.00000880,-0.00001419,0.00000632,-0.00001343,0.0000
 0497,0.00000007,-0.00000112,0.00000361,0.00000154,-0.00007181,-0.00005
 332,0.00012929,-0.00015548,-0.00007182,0.00026897,-0.00004924,-0.00001
 242,-0.00004061,0.00000089,-0.00000432,0.00000426,-0.00001348,-0.00001
 228,0.00000400,0.00033886,-0.00021732,-0.00031771,0.00015371,0.0001098
 9,-0.00008504,0.00632106,0.00421871,-0.00157532,0.22638595,-0.00001172
 ,0.00001289,-0.00000299,-0.00000498,-0.00000748,0.00000068,0.00027164,
 -0.00318386,-0.00473013,-0.00003845,-0.00001940,0.00000999,-0.00001582
 ,0.00002966,0.00001758,0.00653225,-0.00036596,-0.00033296,-0.01983777,
 -0.01326714,0.00917826,-0.00000095,0.00000066,0.00000070,-0.11257608,-
 0.12612345,0.04801091,0.00057298,-0.00172849,-0.00095377,0.01233681,0.
 01165830,-0.00631005,0.00000143,-0.00000147,-0.00000127,-0.00004783,0.
 00049979,0.00020144,0.00000306,-0.00000070,0.00000189,-0.00000729,-0.0
 0000135,-0.00000428,-0.00000213,0.00000107,-0.00000019,0.00000041,-0.0
 0000023,0.00000032,0.00032774,0.00013731,-0.00002102,-0.00172541,-0.00
 056321,0.00027873,-0.00001544,0.00002288,0.00002715,0.00000135,-0.0000
 0012,-0.00000088,0.00000927,0.00000342,-0.00000398,0.00056547,0.000661
 51,0.00072742,0.00040758,0.00123769,0.00008166,-0.00777082,-0.00595191
 ,0.00299161,0.12295617,0.13575862,-0.00001471,0.00001387,0.00000431,-0
 .00000136,-0.00000816,0.00000148,-0.00019942,-0.00319694,-0.00244506,-
 0.00000477,-0.00001944,0.00000737,-0.00001036,0.00001657,0.00000381,0.
 00100606,-0.00034416,0.00140403,-0.01808007,-0.01139110,0.00638951,-0.
 00000326,0.00000040,0.00000012,0.06796535,0.04856238,-0.07501585,0.000
 48106,-0.00056575,-0.00035504,-0.00044065,0.00095717,-0.00233373,0.000
 00428,-0.00000198,-0.00000601,-0.00008939,0.00015063,0.00008200,0.0000
 0206,0.00000061,-0.00000092,-0.00000507,-0.00000344,-0.00000158,-0.000
 00276,0.00000135,-0.00000023,-0.00000031,0.00000036,0.00000027,-0.0001
 1281,-0.00010351,0.00021358,-0.00097594,-0.00064364,0.00030130,-0.0000
 1449,0.00000907,0.00000563,0.00000008,-0.00000106,0.00000039,0.0000014
 4,-0.00000008,-0.00000062,0.00049438,0.00078493,0.00058055,0.00001917,
 0.00089368,0.00101161,0.02283570,0.01446835,-0.00845157,-0.07286101,-0
 .04939251,0.07833805,-0.00122275,0.00141842,-0.00045589,0.00003326,-0.
 00013784,0.00002988,-0.00377079,0.01226707,-0.02083992,0.00376604,-0.0
 0203190,0.00082139,-0.00029824,0.00027859,-0.00018274,0.00118839,-0.00
 286202,-0.00847719,0.00124456,0.00022460,-0.00081290,-0.00010476,0.000
 09778,-0.00011456,-0.00017852,-0.00000131,0.00020269,-0.06261754,0.025
 40145,-0.04346864,0.00132182,0.00069392,-0.00185312,0.00002355,-0.0002
 6738,0.00023053,-0.00693046,-0.02144845,0.03247614,-0.00001811,0.00006
 395,-0.00031855,-0.00239729,0.00103985,-0.00013113,-0.00004504,0.00001
 362,0.00000636,-0.00000283,0.00000757,0.00000093,-0.00319763,0.0031939
 5,0.00011153,0.00069042,-0.00021313,0.00061203,-0.00031788,0.00031205,
 0.00002326,0.00005407,0.00009922,-0.00007765,0.00002671,-0.00000740,-0
 .00001420,0.00010595,-0.00004706,0.00021078,-0.00006336,-0.00014216,0.
 00031540,0.00003511,-0.00003216,0.00003135,-0.00004350,-0.00004440,-0.
 00002937,0.07255224,0.00055671,-0.00023411,0.00001811,0.00002008,-0.00
 021547,0.00008057,0.00581501,-0.00828090,0.01966699,0.00259248,-0.0014
 8992,-0.00110239,-0.00020631,0.00028031,0.00005036,-0.01077907,0.00011
 208,-0.03390314,-0.00091542,0.00026016,0.00004545,0.00010527,0.0000698
 7,-0.00008267,-0.00027846,-0.00021943,0.00028855,0.02381643,-0.0947449
 9,0.09636483,0.00302362,0.00295018,-0.00337227,-0.00000427,0.00021922,
 -0.00038053,-0.01032533,-0.01012312,0.01981222,-0.00016553,-0.00008565
 ,-0.00002597,0.00185592,-0.00035585,-0.00024229,-0.00007267,0.00003005
 ,-0.00000178,-0.00001179,0.00001482,-0.00000065,0.00315683,-0.00205105
 ,0.00015702,-0.00077103,0.00069598,-0.00013106,-0.00020445,0.00029232,
 0.00010437,0.00000581,0.00002128,-0.00001480,0.00001155,-0.00001835,-0
 .00000851,-0.00001490,0.00006768,-0.00034435,0.00016466,0.00041070,-0.
 00037783,0.00000788,-0.00009252,0.00006580,-0.00012160,0.00016103,0.00
 009978,-0.01784060,0.11237709,-0.00069182,0.00094555,0.00041271,0.0000
 0371,0.00019525,-0.00017302,0.00074995,0.00045495,0.00262422,-0.002024
 41,0.00152151,-0.00011389,0.00025170,-0.00023712,0.00006522,-0.0108284
 2,-0.00737315,-0.03339301,-0.00026057,-0.00033448,0.00027011,-0.000463
 26,-0.00011273,0.00018605,-0.00023993,-0.00047980,0.00012697,-0.037967
 85,0.09301153,-0.23584014,0.00255080,0.00218212,-0.00033063,0.00019729
 ,-0.00063867,0.00035751,0.00852508,0.01034010,-0.00818439,0.00012210,0
 .00014959,-0.00021025,-0.00079483,-0.00061326,0.00038159,0.00004792,-0
 .00003078,0.00001653,0.00001033,-0.00000807,0.00001412,0.00105585,-0.0
 0057000,0.00088856,-0.00051322,0.00055963,0.00025482,0.00018778,-0.000
 12764,0.00000793,-0.00003189,-0.00004798,0.00003586,-0.00001210,0.0000
 0722,0.00000237,-0.00008722,-0.00004752,0.00012517,-0.00027782,-0.0001
 9556,0.00002771,0.00005024,0.00011648,-0.00011723,-0.00017661,0.000093
 09,0.00003431,0.04140584,-0.09792388,0.27120699,-0.00005907,-0.0000134
 2,0.00006776,0.00000358,-0.00002806,0.00001102,-0.00014301,-0.00015890
 ,-0.00031713,0.00027017,-0.00013910,-0.00001273,-0.00002134,0.00002994
 ,-0.00000761,-0.00527030,-0.02236606,0.03030126,0.00079644,-0.00134488
 ,-0.00052105,-0.00000683,0.00000168,-0.00000496,-0.00609322,0.01172110
 ,-0.02577230,0.00171979,0.00253072,0.00452699,-0.05990569,0.02232302,-
 0.05206201,0.00001380,0.00001222,-0.00001844,-0.00081888,-0.00023818,-
 0.00045472,0.00001691,0.00001561,-0.00001242,0.00016002,0.00007716,-0.
 00000186,-0.00000945,0.00000453,-0.00000044,-0.00000186,0.00000203,-0.
 00000003,-0.00006632,-0.00000299,-0.00005570,0.00020093,-0.00007079,-0
 .00007437,-0.00000259,0.00000455,0.00000809,-0.00000060,-0.00000137,0.
 00000288,-0.00000468,-0.00000670,-0.00000018,-0.00004139,-0.00024002,0
 .00020972,0.00022280,0.00004079,0.00057447,-0.00399431,0.00416462,0.00
 062670,0.00100085,-0.00080052,0.00023751,0.00009188,0.00056285,-0.0006
 1644,0.07146854,-0.00001533,0.00000387,-0.00000534,0.00000577,-0.00001
 815,0.00000904,-0.00009990,-0.00031928,-0.00035757,0.00018459,-0.00008
 253,0.00002857,-0.00001240,0.00001784,-0.00000745,-0.00874174,-0.01313
 781,0.01913639,-0.00065270,0.00079504,0.00103697,-0.00000814,0.0000034
 7,-0.00000327,0.00602295,-0.00707131,0.01745462,0.00113174,0.00139945,
 0.00412805,0.02177022,-0.08985437,0.08086451,0.00001203,0.00000116,-0.
 00001681,-0.00062765,-0.00015439,-0.00056155,-0.00001177,-0.00000431,-
 0.00000149,-0.00002960,-0.00002641,0.00000963,-0.00000753,0.00000289,-
 0.00000029,-0.00000036,0.00000167,0.00000006,-0.00003050,0.00005477,-0
 .00002734,0.00004942,-0.00010841,-0.00004971,-0.00000466,0.00000299,-0
 .00000329,0.00000020,-0.00000107,0.00000235,-0.00000621,-0.00000603,0.
 00000123,-0.00002320,0.00020006,-0.00019014,-0.00002949,-0.00006993,-0
 .00028353,0.00308417,-0.00134039,-0.00004240,-0.00015298,0.00064585,-0
 .00029735,0.00000882,-0.00004909,-0.00043523,-0.01770892,0.09790648,0.
 00002300,-0.00002334,0.00001681,-0.00000540,0.00002625,-0.00000805,0.0
 0013105,0.00005724,0.00014936,-0.00016177,0.00006131,-0.00007058,0.000
 02513,-0.00002790,0.00002049,0.00949336,0.01088525,-0.00906120,0.00045
 846,-0.00016004,0.00094680,0.00001850,-0.00000789,0.00000272,-0.000533
 88,-0.00151441,0.00082871,-0.00127942,-0.00308417,0.00049275,-0.048834
 67,0.08471529,-0.25193364,-0.00002131,0.00001923,0.00001612,0.00037138
 ,-0.00004421,0.00040024,0.00001976,0.00000076,0.00000291,0.00012027,0.
 00008841,-0.00001616,0.00000958,-0.00000380,-0.00000032,0.00000132,-0.
 00000227,-0.00000097,-0.00007644,-0.00001373,-0.00017367,-0.00001756,0
 .00012698,-0.00000511,0.00000841,0.00000116,0.00003120,-0.00000208,0.0
 0000353,-0.00000307,0.00000835,0.00000825,-0.00000218,-0.00005317,0.00
 004347,0.00015901,0.00013586,0.00049296,0.00020051,0.00017057,-0.00050
 289,0.00116425,-0.00066368,0.00037861,0.00020158,0.00030077,0.00101609
 ,0.00082770,0.04545987,-0.10038218,0.27330883,-0.00007134,0.00005216,0
 .00005307,0.00000324,-0.00005607,0.00002192,-0.00051428,-0.00049398,-0
 .00022634,0.00063193,-0.00032031,-0.00004733,-0.00007800,0.00010259,-0
 .00000017,-0.01176119,-0.03002143,-0.02108796,-0.00528464,0.00277377,-
 0.00104042,-0.00002783,0.00000567,-0.00000201,0.00506714,0.02049392,0.
 01965406,-0.00213074,0.00062806,0.00422968,-0.04940020,-0.01144068,-0.
 01268751,0.00003900,-0.00000653,-0.00004641,-0.00177152,-0.00220407,-0
 .00053166,-0.00000044,-0.00000184,-0.00000734,0.00001791,-0.00002109,0
 .00000386,-0.00002170,0.00000947,0.00000066,-0.00000637,0.00000561,0.0
 0000269,0.00009997,0.00001893,-0.00002778,0.00031442,-0.00009708,-0.00
 007148,-0.00004870,0.00008350,0.00002257,0.00000441,-0.00000573,0.0000
 0437,-0.00000007,0.00000105,0.00000098,0.00030215,0.00166570,0.0010520
 6,-0.00002141,-0.00021452,0.00000671,0.00115489,-0.00086468,-0.0004707
 7,0.00079014,-0.00108540,-0.00019844,0.00000024,0.00011158,-0.00018387
 ,0.00048560,-0.00409882,-0.00512094,0.06225466,-0.00006558,0.00004338,
 0.00004267,0.00000260,-0.00005464,0.00001678,-0.00000491,0.00035181,-0
 .00009844,0.00044525,-0.00023188,0.00002512,-0.00006084,0.00008966,-0.
 00000976,-0.01056334,-0.01915854,-0.01245631,0.00377862,-0.00074981,0.
 00069414,-0.00002512,0.00000519,-0.00000057,-0.00087318,-0.01249998,-0
 .01280334,-0.00042517,0.00229086,0.00410825,-0.01633240,-0.19084636,-0
 .13123364,0.00003326,-0.00000938,-0.00004220,-0.00140836,-0.00121002,-
 0.00047043,-0.00000178,-0.00000123,-0.00000882,0.00000022,-0.00001977,
 0.00000389,-0.00002047,0.00000850,0.00000055,-0.00000424,0.00000578,0.
 00000255,-0.00002692,-0.00003899,0.00004803,0.00003235,-0.00011015,-0.
 00004787,-0.00006833,0.00003763,-0.00001032,0.00000355,-0.00000616,0.0
 0000530,-0.00000228,-0.00000546,-0.00000005,-0.00022749,-0.00081440,-0
 .00078371,-0.00007181,0.00003176,-0.00020285,-0.00086407,0.00062682,0.
 00029970,0.00019006,0.00038317,0.00000845,-0.00000774,-0.00004110,-0.0
 0044275,0.00162500,0.01120287,0.00785219,0.02496552,0.21070648,0.00000
 968,-0.00000182,0.00000569,0.00000148,-0.00000072,-0.00000695,0.000084
 19,0.00026367,-0.00002140,-0.00009493,0.00005497,-0.00000561,0.0000086
 1,-0.00001123,-0.00001503,0.00306115,0.01155816,0.01019835,0.00069377,
 -0.00012733,0.00119735,-0.00000141,0.00000287,0.00000169,-0.00062199,0
 .00177133,0.00048435,0.00106132,0.00078986,-0.00022952,-0.02005779,-0.
 13998531,-0.18281462,0.00000048,-0.00000793,0.00000255,0.00067063,0.00
 041912,0.00030563,0.00000272,0.00000537,-0.00000158,0.00001459,0.00000
 497,-0.00000495,0.00000069,-0.00000042,0.00000013,0.00000135,0.0000006
 3,0.00000127,-0.00000820,-0.00001301,-0.00000815,-0.00008856,0.0000146
 3,-0.00001668,-0.00000009,-0.00004244,-0.00002627,-0.00000029,0.000000
 18,0.00000002,-0.00000295,-0.00000507,-0.00000037,-0.00018095,-0.00029
 481,0.00000548,0.00003638,0.00022202,0.00029450,0.00051552,0.00001531,
 0.00077437,0.00028809,-0.00024635,0.00003000,0.00000766,0.00011860,0.0
 0049353,-0.00209528,-0.02000695,-0.01749265,0.01669383,0.14549970,0.18
 684725,0.00015395,0.02203171,0.02215894,-0.00017111,0.00169783,-0.0036
 5113,0.00000281,-0.00000218,-0.00002298,0.00106595,-0.00025618,0.00141
 151,-0.00016649,0.00000839,0.00045896,-0.00003813,-0.00005515,-0.00003
 523,0.00000150,0.00000531,-0.00000068,-0.01016445,-0.03091988,-0.01324
 370,-0.00000061,-0.00000079,0.00000393,0.00011767,0.00006887,0.0000247
 8,0.00002114,0.00000614,-0.00000436,-0.04856079,-0.00061110,-0.0037521
 5,-0.00032461,-0.00020159,-0.00036957,-0.00506805,0.00315357,-0.000012
 39,0.00124886,-0.00081620,-0.00026014,-0.00007083,0.00013939,0.0001637
 2,0.00027054,0.00068387,0.00065082,-0.00001081,0.00000825,-0.00000078,
 0.00000042,-0.00000038,0.00000189,-0.00003868,-0.00015309,-0.00036905,
 0.00022477,-0.00000567,-0.00001886,-0.00003467,-0.00003596,-0.00004269
 ,-0.00000387,-0.00000137,0.00000068,0.00000042,-0.00000033,-0.00000019
 ,-0.00000061,0.00000044,-0.00000101,-0.00000175,-0.00000051,-0.0000006
 7,0.00005724,0.00000682,-0.00001633,-0.00000167,-0.00000021,0.00000306
 ,-0.00000558,-0.00000352,-0.00000041,0.06073189,0.00163321,-0.00927075
 ,-0.01142320,-0.00040782,0.00126203,-0.00403941,0.00000101,0.00000968,
 0.00002449,-0.00107610,0.00004654,-0.00085971,0.00014520,-0.00016487,0
 .00049442,0.00004071,0.00004429,0.00004006,-0.00000050,-0.00000984,0.0
 0000282,-0.01615413,-0.02759136,-0.00978248,0.00000158,0.00000185,-0.0
 0000523,-0.00004962,-0.00007065,-0.00009442,-0.00002411,-0.00001452,0.
 00000848,-0.00021734,-0.16711187,-0.12039836,0.00032368,0.00016044,0.0
 0019404,0.00237733,-0.00008525,-0.00029790,0.00017746,0.00045555,0.000
 09589,0.00001585,0.00022992,0.00039477,0.00035807,0.00006462,0.0008583
 2,0.00001185,-0.00001027,0.00000100,0.00000088,-0.00000101,-0.00000117
 ,0.00012203,-0.00013779,0.00031678,0.00013808,-0.00010058,0.00005124,-
 0.00003582,0.00003036,-0.00005937,0.00000592,0.00000189,-0.00000148,-0
 .00000013,0.00000099,-0.00000030,0.00000007,-0.00000013,0.00000150,0.0
 0000262,0.00000063,0.00000051,-0.00000302,-0.00000745,0.00005455,0.000
 00051,0.00000132,-0.00000492,0.00000524,0.00000526,0.00000211,0.011965
 68,0.19119727,0.00021971,-0.00282198,-0.00262065,0.00089750,0.00243433
 ,0.00339605,0.00001751,0.00001609,0.00000648,-0.00055926,0.00093101,0.
 00007193,-0.00009419,-0.00002930,-0.00027192,0.00005130,0.00003604,0.0
 0002957,0.00000111,-0.00001153,0.00000202,0.00041096,0.00821637,0.0083
 7981,0.00000329,0.00000239,-0.00000557,-0.00011129,-0.00010317,-0.0000
 6062,-0.00002061,-0.00001948,0.00000976,-0.00674562,-0.12446660,-0.185
 52384,0.00034012,0.00001380,0.00007220,0.00095463,-0.00024318,0.001017
 78,0.00027963,-0.00012854,0.00014604,-0.00000939,-0.00000723,0.0003025
 8,0.00010472,-0.00120208,0.00053827,0.00000738,-0.00000535,-0.00000076
 ,-0.00000081,-0.00000085,0.00000019,0.00002531,-0.00018976,0.00053980,
 -0.00010307,-0.00008144,0.00000691,0.00005257,-0.00006997,-0.00018270,
 0.00000620,0.00000230,-0.00000117,0.00000026,0.00000056,-0.00000067,-0
 .00000034,0.00000022,0.00000129,0.00000266,0.00000072,0.00000069,-0.00
 001288,0.00000915,0.00003063,0.00000133,0.00000138,-0.00000503,0.00000
 484,0.00000499,0.00000205,0.00440089,0.13616449,0.19185478,-0.00958987
 ,0.01249397,-0.02680409,-0.00346642,-0.00275524,-0.00021031,-0.0001139
 4,-0.00013924,0.00003133,-0.00359196,0.00052417,0.00432717,-0.00019131
 ,-0.00039143,0.00049063,-0.00025432,-0.00021122,-0.00003585,-0.0000201
 4,0.00007132,-0.00000617,0.00505547,-0.01670516,0.02849775,-0.00001108
 ,-0.00001484,0.00002213,0.00098252,0.00060089,-0.00021273,0.00008296,0
 .00005870,-0.00006502,-0.07703597,0.03870181,-0.08191845,-0.00222772,0
 .00209963,-0.00172207,0.00145729,-0.00044934,0.00050628,0.00097062,-0.
 00066859,0.00015652,0.00028985,-0.00081740,0.00113746,-0.00002814,0.00
 013176,0.00006483,-0.00000941,0.00000216,0.00000613,0.00000202,0.00000
 604,0.00000332,0.00008655,-0.00022804,-0.00005304,0.00029849,0.0000287
 0,-0.00011873,0.00010210,0.00007623,-0.00003463,-0.00003298,-0.0000116
 0,0.00001013,-0.00000613,-0.00000540,0.00000589,0.00000023,0.00000068,
 -0.00000386,-0.00001364,-0.00000063,-0.00000221,0.00001720,-0.00010207
 ,0.00002801,-0.00001008,-0.00000779,0.00001162,-0.00002170,-0.00001888
 ,0.00000072,0.00076555,0.00064160,-0.00012446,0.08651395,0.00693734,-0
 .00618689,0.01253128,-0.00380561,-0.00152689,-0.00170745,0.00004710,0.
 00004774,-0.00000642,0.00162087,0.00083812,-0.00200636,-0.00013255,0.0
 0008040,-0.00000520,0.00010428,0.00008205,0.00001959,0.00000792,-0.000
 02924,0.00000348,0.00188459,-0.01606465,0.02664287,0.00000421,0.000006
 01,-0.00000931,-0.00039878,-0.00028189,0.00009843,-0.00003582,-0.00002
 469,0.00002732,0.03294288,-0.09288188,0.08705925,0.00102894,-0.0005398
 0,0.00066970,-0.00093678,0.00036734,0.00025736,-0.00008956,0.00041582,
 -0.00021939,0.00020613,-0.00047367,0.00123171,0.00012196,0.00021262,0.
 00044898,0.00000961,-0.00000245,-0.00000550,0.00000029,-0.00000363,-0.
 00000196,-0.00004708,0.00000137,0.00039668,0.00017078,-0.00005940,0.00
 000975,-0.00001781,-0.00004724,-0.00002757,0.00001341,0.00000457,-0.00
 000362,0.00000186,0.00000264,-0.00000285,0.00000017,-0.00000053,0.0000
 0180,0.00000580,0.00000028,0.00000101,-0.00003426,0.00004624,-0.000012
 95,0.00000359,0.00000375,-0.00000523,0.00000946,0.00000868,-0.00000012
 ,-0.00671216,0.01106371,-0.01845337,-0.03291078,0.10494154,0.00198332,
 -0.00378794,0.00616152,0.00227700,0.00049599,0.00227341,0.00000169,-0.
 00000679,-0.00001193,0.00112300,-0.00041314,0.00051971,0.00004220,-0.0
 0022267,-0.00012208,-0.00001501,-0.00001477,-0.00000749,0.00000167,0.0
 0000551,-0.00000486,0.00124566,0.00671860,-0.00839505,-0.00000058,-0.0
 0000147,0.00000226,-0.00003659,-0.00001358,0.00004137,0.00000859,0.000
 00971,-0.00000413,-0.07414196,0.09514056,-0.25271965,0.00040858,-0.000
 32328,0.00028781,-0.00037727,0.00025380,0.00064849,-0.00072652,0.00031
 382,0.00008537,-0.00020938,0.00052887,-0.00044560,0.00000173,-0.000015
 23,0.00026697,-0.00000316,0.00000487,-0.00000187,0.00000023,0.00000094
 ,0.00000074,-0.00000236,-0.00002945,0.00024244,-0.00007578,0.00001446,
 -0.00002609,-0.00003810,0.00000014,0.00000564,-0.00000233,-0.00000072,
 0.00000064,0.00000047,-0.00000050,0.00000108,0.00000022,0.00000002,-0.
 00000037,-0.00000158,-0.00000040,0.00000004,0.00000223,0.00001423,-0.0
 0002803,0.00000007,-0.00000091,0.00000267,-0.00000087,-0.00000123,-0.0
 0000045,-0.00747687,0.00826247,-0.01773589,0.07601168,-0.10693190,0.26
 896333\\0.00001719,-0.00000625,-0.00000656,-0.00000162,0.00000309,-0.0
 0000276,-0.00000396,0.00000168,0.00000364,-0.00002385,-0.00006037,-0.0
 0020762,0.00001314,0.00000008,-0.00000113,0.00013197,-0.00012443,0.000
 10138,0.00001020,-0.00000250,0.00000578,-0.00001188,0.00000628,-0.0000
 0525,0.00000767,0.00000072,-0.00000566,-0.00017798,0.00016165,-0.00025
 823,-0.00001505,-0.00001120,0.00000198,-0.00000232,-0.00000840,0.00001
 113,0.00005964,0.00001690,0.00036313,0.00000249,-0.00000838,0.00000128
 ,-0.00001486,0.00000425,-0.00000872,0.00000039,0.00000621,-0.00000227,
 0.00000155,0.00000762,-0.00000006,-0.00000066,0.00000320,0.00000301,-0
 .00000258,0.00000051,0.00000588,-0.00000247,0.00000088,0.00000201,-0.0
 0000336,0.00000121,0.00000307,-0.00000240,-0.00000061,0.00000268,0.000
 00178,0.00000064,-0.00000083,-0.00000025,-0.00000207,-0.00000048,-0.00
 000108,-0.00000033,-0.00000130,-0.00000058,0.00000095,-0.00000108,0.00
 000486,0.00000532,0.00000853,0.00000566,0.00000155,-0.00000347,0.00000
 461,0.00000397,-0.00000455,0.00000466,0.00000454,-0.00000150,-0.000000
 94,-0.00000671,-0.00000204\\\@


 PICNIC:  A SNACK IN THE GRASS.
 Job cpu time:       0 days 12 hours 35 minutes  3.1 seconds.
 Elapsed time:       0 days  1 hours  3 minutes 10.7 seconds.
 File lengths (MBytes):  RWF=    723 Int=      0 D2E=      0 Chk=     34 Scr=      1
 Normal termination of Gaussian 16 at Sat Mar  9 06:55:43 2019.
