 Entering Gaussian System, Link 0=g16
 Initial command:
 /sw/Projects/G16/g16/l1.exe "/nvme/pbs/tmpdir/pbs.74204[22].flm1/Gau-28355.inp" -scrdir="/nvme/pbs/tmpdir/pbs.74204[22].flm1/"
 Entering Link 1 = /sw/Projects/G16/g16/l1.exe PID=     28356.
  
 Copyright (c) 1988-2017, Gaussian, Inc.  All Rights Reserved.
  
 This is part of the Gaussian(R) 16 program.  It is based on
 the Gaussian(R) 09 system (copyright 2009, Gaussian, Inc.),
 the Gaussian(R) 03 system (copyright 2003, Gaussian, Inc.),
 the Gaussian(R) 98 system (copyright 1998, Gaussian, Inc.),
 the Gaussian(R) 94 system (copyright 1995, Gaussian, Inc.),
 the Gaussian 92(TM) system (copyright 1992, Gaussian, Inc.),
 the Gaussian 90(TM) system (copyright 1990, Gaussian, Inc.),
 the Gaussian 88(TM) system (copyright 1988, Gaussian, Inc.),
 the Gaussian 86(TM) system (copyright 1986, Carnegie Mellon
 University), and the Gaussian 82(TM) system (copyright 1983,
 Carnegie Mellon University). Gaussian is a federally registered
 trademark of Gaussian, Inc.
  
 This software contains proprietary and confidential information,
 including trade secrets, belonging to Gaussian, Inc.
  
 This software is provided under written license and may be
 used, copied, transmitted, or stored only in accord with that
 written license.
  
 The following legend is applicable only to US Government
 contracts under FAR:
  
                    RESTRICTED RIGHTS LEGEND
  
 Use, reproduction and disclosure by the US Government is
 subject to restrictions as set forth in subparagraphs (a)
 and (c) of the Commercial Computer Software - Restricted
 Rights clause in FAR 52.227-19.
  
 Gaussian, Inc.
 340 Quinnipiac St., Bldg. 40, Wallingford CT 06492
  
  
 ---------------------------------------------------------------
 Warning -- This program may not be used in any manner that
 competes with the business of Gaussian, Inc. or will provide
 assistance to any competitor of Gaussian, Inc.  The licensee
 of this program is prohibited from giving any competitor of
 Gaussian, Inc. access to this program.  By using this program,
 the user acknowledges that Gaussian, Inc. is engaged in the
 business of creating and licensing software in the field of
 computational chemistry and represents and warrants to the
 licensee that it is not a competitor of Gaussian, Inc. and that
 it will not use this program in any manner prohibited above.
 ---------------------------------------------------------------
  

 Cite this work as:
 Gaussian 16, Revision B.01,
 M. J. Frisch, G. W. Trucks, H. B. Schlegel, G. E. Scuseria, 
 M. A. Robb, J. R. Cheeseman, G. Scalmani, V. Barone, 
 G. A. Petersson, H. Nakatsuji, X. Li, M. Caricato, A. V. Marenich, 
 J. Bloino, B. G. Janesko, R. Gomperts, B. Mennucci, H. P. Hratchian, 
 J. V. Ortiz, A. F. Izmaylov, J. L. Sonnenberg, D. Williams-Young, 
 F. Ding, F. Lipparini, F. Egidi, J. Goings, B. Peng, A. Petrone, 
 T. Henderson, D. Ranasinghe, V. G. Zakrzewski, J. Gao, N. Rega, 
 G. Zheng, W. Liang, M. Hada, M. Ehara, K. Toyota, R. Fukuda, 
 J. Hasegawa, M. Ishida, T. Nakajima, Y. Honda, O. Kitao, H. Nakai, 
 T. Vreven, K. Throssell, J. A. Montgomery, Jr., J. E. Peralta, 
 F. Ogliaro, M. J. Bearpark, J. J. Heyd, E. N. Brothers, K. N. Kudin, 
 V. N. Staroverov, T. A. Keith, R. Kobayashi, J. Normand, 
 K. Raghavachari, A. P. Rendell, J. C. Burant, S. S. Iyengar, 
 J. Tomasi, M. Cossi, J. M. Millam, M. Klene, C. Adamo, R. Cammi, 
 J. W. Ochterski, R. L. Martin, K. Morokuma, O. Farkas, 
 J. B. Foresman, and D. J. Fox, Gaussian, Inc., Wallingford CT, 2016.
 
 ******************************************
 Gaussian 16:  ES64L-G16RevB.01 20-Dec-2017
                 9-Mar-2019 
 ******************************************
 %mem=20gb
 %nproc=12
 Will use up to   12 processors via shared memory.
 %chk=4c1_b1_e3_4c1_PHI.inp_extract_22.chk
 ----------------------------------------------------------------------
 #M062X/6-311++G(2d,2p) opt=ModRedundant freq=noraman SCRF=(SMD,solvent
 =water)
 ----------------------------------------------------------------------
 1/18=120,19=15,26=3,38=1/1,3;
 2/9=110,12=2,17=6,18=5,40=1/2;
 3/5=4,6=6,7=1212,11=2,25=1,30=1,70=32201,71=1,72=1,74=-55/1,2,3;
 4//1;
 5/5=2,38=5,53=1/2;
 6/7=2,8=2,9=2,10=2,28=1/1;
 7//1,2,3,16;
 1/18=20,19=15,26=3/3(2);
 2/9=110/2;
 99//99;
 2/9=110/2;
 3/5=4,6=6,7=1212,11=2,25=1,30=1,70=32205,71=1,72=1,74=-55/1,2,3;
 4/5=5,16=3,69=1/1;
 5/5=2,38=5,53=1/2;
 7//1,2,3,16;
 1/18=20,19=15,26=3/3(-5);
 2/9=110/2;
 6/7=2,8=2,9=2,10=2,19=2,28=1/1;
 99/9=1/99;
 --------------------------------
 4c1_b1_e3_4c1_PHI.inp_extract_22
 --------------------------------
 Symbolic Z-matrix:
 Charge =  0 Multiplicity = 1
 C                     2.25692  -1.19483   0.57775 
 C                     3.05601   1.26147  -0.65605 
 C                    -2.11563  -1.32769  -0.21664 
 C                     1.20735  -0.32007  -0.09024 
 C                     1.65771   1.13706  -0.06523 
 O                    -1.79267   0.85294   0.74408 
 C                    -3.46869  -0.88812  -0.78097 
 O                     3.97389   0.42546   0.02045 
 C                    -4.03965   0.25685   0.05604 
 C                    -1.18967  -0.13522  -0.0564 
 C                    -3.00476   1.35998   0.20747 
 C                     3.62437  -0.943    -0.04349 
 O                    -0.01892  -0.5098    0.59917 
 H                     2.29345  -0.96456   1.63897 
 H                     1.99836  -2.24387   0.47098 
 H                     3.42783   2.2717   -0.55786 
 H                     3.05029   1.00212  -1.71247 
 H                    -2.24611  -1.78737   0.75978 
 H                    -1.63966  -2.056    -0.86617 
 H                     1.07838  -0.64343  -1.11912 
 H                     0.97502   1.76663  -0.62767 
 H                     1.66621   1.48832   0.963 
 H                    -4.15528  -1.72846  -0.80176 
 H                    -3.34206  -0.55587  -1.80949 
 H                    -4.31803  -0.10768   1.04188 
 H                    -4.93337   0.66784  -0.40484 
 H                    -0.9548    0.2986   -1.02292 
 H                    -2.79839   1.82568  -0.75354 
 H                    -3.33593   2.12796   0.89228 
 H                     3.6374   -1.26498  -1.08234 
 H                     4.39445  -1.48403   0.4882 
 
 The following ModRedundant input section has been read:
 D       6      10      13       4 F                                           
 

 GradGradGradGradGradGradGradGradGradGradGradGradGradGradGradGradGradGrad
 Berny optimization.
 Initialization pass.
                           ----------------------------
                           !    Initial Parameters    !
                           ! (Angstroms and Degrees)  !
 --------------------------                            --------------------------
 ! Name  Definition              Value          Derivative Info.                !
 --------------------------------------------------------------------------------
 ! R1    R(1,4)                  1.5209         estimate D2E/DX2                !
 ! R2    R(1,12)                 1.5229         estimate D2E/DX2                !
 ! R3    R(1,14)                 1.0865         estimate D2E/DX2                !
 ! R4    R(1,15)                 1.0857         estimate D2E/DX2                !
 ! R5    R(2,5)                  1.5231         estimate D2E/DX2                !
 ! R6    R(2,8)                  1.4139         estimate D2E/DX2                !
 ! R7    R(2,16)                 1.081          estimate D2E/DX2                !
 ! R8    R(2,17)                 1.0878         estimate D2E/DX2                !
 ! R9    R(3,7)                  1.5305         estimate D2E/DX2                !
 ! R10   R(3,10)                 1.5182         estimate D2E/DX2                !
 ! R11   R(3,18)                 1.0871         estimate D2E/DX2                !
 ! R12   R(3,19)                 1.0858         estimate D2E/DX2                !
 ! R13   R(4,5)                  1.5253         estimate D2E/DX2                !
 ! R14   R(4,13)                 1.4195         estimate D2E/DX2                !
 ! R15   R(4,20)                 1.0862         estimate D2E/DX2                !
 ! R16   R(5,21)                 1.0857         estimate D2E/DX2                !
 ! R17   R(5,22)                 1.0866         estimate D2E/DX2                !
 ! R18   R(6,10)                 1.4074         estimate D2E/DX2                !
 ! R19   R(6,11)                 1.4192         estimate D2E/DX2                !
 ! R20   R(7,9)                  1.5289         estimate D2E/DX2                !
 ! R21   R(7,23)                 1.0854         estimate D2E/DX2                !
 ! R22   R(7,24)                 1.0883         estimate D2E/DX2                !
 ! R23   R(8,12)                 1.4138         estimate D2E/DX2                !
 ! R24   R(9,11)                 1.5201         estimate D2E/DX2                !
 ! R25   R(9,25)                 1.0873         estimate D2E/DX2                !
 ! R26   R(9,26)                 1.0863         estimate D2E/DX2                !
 ! R27   R(10,13)                1.3931         estimate D2E/DX2                !
 ! R28   R(10,27)                1.0851         estimate D2E/DX2                !
 ! R29   R(11,28)                1.0877         estimate D2E/DX2                !
 ! R30   R(11,29)                1.0809         estimate D2E/DX2                !
 ! R31   R(12,30)                1.0877         estimate D2E/DX2                !
 ! R32   R(12,31)                1.0809         estimate D2E/DX2                !
 ! A1    A(4,1,12)             110.2053         estimate D2E/DX2                !
 ! A2    A(4,1,14)             109.286          estimate D2E/DX2                !
 ! A3    A(4,1,15)             110.3777         estimate D2E/DX2                !
 ! A4    A(12,1,14)            109.4631         estimate D2E/DX2                !
 ! A5    A(12,1,15)            109.4815         estimate D2E/DX2                !
 ! A6    A(14,1,15)            107.989          estimate D2E/DX2                !
 ! A7    A(5,2,8)              111.2294         estimate D2E/DX2                !
 ! A8    A(5,2,16)             110.9096         estimate D2E/DX2                !
 ! A9    A(5,2,17)             110.6352         estimate D2E/DX2                !
 ! A10   A(8,2,16)             106.6084         estimate D2E/DX2                !
 ! A11   A(8,2,17)             109.0935         estimate D2E/DX2                !
 ! A12   A(16,2,17)            108.2306         estimate D2E/DX2                !
 ! A13   A(7,3,10)             110.6415         estimate D2E/DX2                !
 ! A14   A(7,3,18)             110.2744         estimate D2E/DX2                !
 ! A15   A(7,3,19)             111.077          estimate D2E/DX2                !
 ! A16   A(10,3,18)            108.0911         estimate D2E/DX2                !
 ! A17   A(10,3,19)            108.8222         estimate D2E/DX2                !
 ! A18   A(18,3,19)            107.8367         estimate D2E/DX2                !
 ! A19   A(1,4,5)              109.7852         estimate D2E/DX2                !
 ! A20   A(1,4,13)             107.8172         estimate D2E/DX2                !
 ! A21   A(1,4,20)             109.0724         estimate D2E/DX2                !
 ! A22   A(5,4,13)             112.0102         estimate D2E/DX2                !
 ! A23   A(5,4,20)             109.571          estimate D2E/DX2                !
 ! A24   A(13,4,20)            108.5227         estimate D2E/DX2                !
 ! A25   A(2,5,4)              110.0433         estimate D2E/DX2                !
 ! A26   A(2,5,21)             109.206          estimate D2E/DX2                !
 ! A27   A(2,5,22)             109.4804         estimate D2E/DX2                !
 ! A28   A(4,5,21)             111.0877         estimate D2E/DX2                !
 ! A29   A(4,5,22)             109.0641         estimate D2E/DX2                !
 ! A30   A(21,5,22)            107.9191         estimate D2E/DX2                !
 ! A31   A(10,6,11)            113.6853         estimate D2E/DX2                !
 ! A32   A(3,7,9)              110.0827         estimate D2E/DX2                !
 ! A33   A(3,7,23)             110.1175         estimate D2E/DX2                !
 ! A34   A(3,7,24)             109.4687         estimate D2E/DX2                !
 ! A35   A(9,7,23)             110.7367         estimate D2E/DX2                !
 ! A36   A(9,7,24)             109.404          estimate D2E/DX2                !
 ! A37   A(23,7,24)            106.9709         estimate D2E/DX2                !
 ! A38   A(2,8,12)             112.9656         estimate D2E/DX2                !
 ! A39   A(7,9,11)             110.1053         estimate D2E/DX2                !
 ! A40   A(7,9,25)             109.9317         estimate D2E/DX2                !
 ! A41   A(7,9,26)             110.9963         estimate D2E/DX2                !
 ! A42   A(11,9,25)            109.1026         estimate D2E/DX2                !
 ! A43   A(11,9,26)            109.1358         estimate D2E/DX2                !
 ! A44   A(25,9,26)            107.5106         estimate D2E/DX2                !
 ! A45   A(3,10,6)             110.4983         estimate D2E/DX2                !
 ! A46   A(3,10,13)            110.5502         estimate D2E/DX2                !
 ! A47   A(3,10,27)            110.6094         estimate D2E/DX2                !
 ! A48   A(6,10,13)            106.3319         estimate D2E/DX2                !
 ! A49   A(6,10,27)            108.5796         estimate D2E/DX2                !
 ! A50   A(13,10,27)           110.1661         estimate D2E/DX2                !
 ! A51   A(6,11,9)             111.0901         estimate D2E/DX2                !
 ! A52   A(6,11,28)            108.9647         estimate D2E/DX2                !
 ! A53   A(6,11,29)            106.0186         estimate D2E/DX2                !
 ! A54   A(9,11,28)            110.6016         estimate D2E/DX2                !
 ! A55   A(9,11,29)            111.7226         estimate D2E/DX2                !
 ! A56   A(28,11,29)           108.2816         estimate D2E/DX2                !
 ! A57   A(1,12,8)             111.3204         estimate D2E/DX2                !
 ! A58   A(1,12,30)            110.5744         estimate D2E/DX2                !
 ! A59   A(1,12,31)            110.871          estimate D2E/DX2                !
 ! A60   A(8,12,30)            109.0722         estimate D2E/DX2                !
 ! A61   A(8,12,31)            106.624          estimate D2E/DX2                !
 ! A62   A(30,12,31)           108.2459         estimate D2E/DX2                !
 ! A63   A(4,13,10)            117.4841         estimate D2E/DX2                !
 ! D1    D(12,1,4,5)           -52.8488         estimate D2E/DX2                !
 ! D2    D(12,1,4,13)         -175.1225         estimate D2E/DX2                !
 ! D3    D(12,1,4,20)           67.22           estimate D2E/DX2                !
 ! D4    D(14,1,4,5)            67.4786         estimate D2E/DX2                !
 ! D5    D(14,1,4,13)          -54.7951         estimate D2E/DX2                !
 ! D6    D(14,1,4,20)         -172.4526         estimate D2E/DX2                !
 ! D7    D(15,1,4,5)          -173.9            estimate D2E/DX2                !
 ! D8    D(15,1,4,13)           63.8263         estimate D2E/DX2                !
 ! D9    D(15,1,4,20)          -53.8312         estimate D2E/DX2                !
 ! D10   D(4,1,12,8)            55.7662         estimate D2E/DX2                !
 ! D11   D(4,1,12,30)          -65.6441         estimate D2E/DX2                !
 ! D12   D(4,1,12,31)          174.2876         estimate D2E/DX2                !
 ! D13   D(14,1,12,8)          -64.4545         estimate D2E/DX2                !
 ! D14   D(14,1,12,30)         174.1351         estimate D2E/DX2                !
 ! D15   D(14,1,12,31)          54.0669         estimate D2E/DX2                !
 ! D16   D(15,1,12,8)          177.3515         estimate D2E/DX2                !
 ! D17   D(15,1,12,30)          55.9411         estimate D2E/DX2                !
 ! D18   D(15,1,12,31)         -64.1272         estimate D2E/DX2                !
 ! D19   D(8,2,5,4)            -56.0194         estimate D2E/DX2                !
 ! D20   D(8,2,5,21)          -178.2044         estimate D2E/DX2                !
 ! D21   D(8,2,5,22)            63.8382         estimate D2E/DX2                !
 ! D22   D(16,2,5,4)          -174.4876         estimate D2E/DX2                !
 ! D23   D(16,2,5,21)           63.3274         estimate D2E/DX2                !
 ! D24   D(16,2,5,22)          -54.63           estimate D2E/DX2                !
 ! D25   D(17,2,5,4)            65.398          estimate D2E/DX2                !
 ! D26   D(17,2,5,21)          -56.787          estimate D2E/DX2                !
 ! D27   D(17,2,5,22)         -174.7444         estimate D2E/DX2                !
 ! D28   D(5,2,8,12)            59.9511         estimate D2E/DX2                !
 ! D29   D(16,2,8,12)         -179.0238         estimate D2E/DX2                !
 ! D30   D(17,2,8,12)          -62.3625         estimate D2E/DX2                !
 ! D31   D(10,3,7,9)           -52.1526         estimate D2E/DX2                !
 ! D32   D(10,3,7,23)         -174.5244         estimate D2E/DX2                !
 ! D33   D(10,3,7,24)           68.1409         estimate D2E/DX2                !
 ! D34   D(18,3,7,9)            67.3789         estimate D2E/DX2                !
 ! D35   D(18,3,7,23)          -54.9929         estimate D2E/DX2                !
 ! D36   D(18,3,7,24)         -172.3276         estimate D2E/DX2                !
 ! D37   D(19,3,7,9)          -173.1279         estimate D2E/DX2                !
 ! D38   D(19,3,7,23)           64.5003         estimate D2E/DX2                !
 ! D39   D(19,3,7,24)          -52.8344         estimate D2E/DX2                !
 ! D40   D(7,3,10,6)            55.6845         estimate D2E/DX2                !
 ! D41   D(7,3,10,13)          173.1208         estimate D2E/DX2                !
 ! D42   D(7,3,10,27)          -64.5812         estimate D2E/DX2                !
 ! D43   D(18,3,10,6)          -65.1531         estimate D2E/DX2                !
 ! D44   D(18,3,10,13)          52.2832         estimate D2E/DX2                !
 ! D45   D(18,3,10,27)         174.5813         estimate D2E/DX2                !
 ! D46   D(19,3,10,6)          177.9881         estimate D2E/DX2                !
 ! D47   D(19,3,10,13)         -64.5755         estimate D2E/DX2                !
 ! D48   D(19,3,10,27)          57.7225         estimate D2E/DX2                !
 ! D49   D(1,4,5,2)             52.9804         estimate D2E/DX2                !
 ! D50   D(1,4,5,21)           174.0443         estimate D2E/DX2                !
 ! D51   D(1,4,5,22)           -67.1295         estimate D2E/DX2                !
 ! D52   D(13,4,5,2)           172.7263         estimate D2E/DX2                !
 ! D53   D(13,4,5,21)          -66.2098         estimate D2E/DX2                !
 ! D54   D(13,4,5,22)           52.6165         estimate D2E/DX2                !
 ! D55   D(20,4,5,2)           -66.7846         estimate D2E/DX2                !
 ! D56   D(20,4,5,21)           54.2793         estimate D2E/DX2                !
 ! D57   D(20,4,5,22)          173.1055         estimate D2E/DX2                !
 ! D58   D(1,4,13,10)         -161.3199         estimate D2E/DX2                !
 ! D59   D(5,4,13,10)           77.7883         estimate D2E/DX2                !
 ! D60   D(20,4,13,10)         -43.308          estimate D2E/DX2                !
 ! D61   D(11,6,10,3)          -60.6182         estimate D2E/DX2                !
 ! D62   D(11,6,10,13)         179.3777         estimate D2E/DX2                !
 ! D63   D(11,6,10,27)          60.8562         estimate D2E/DX2                !
 ! D64   D(10,6,11,9)           60.6315         estimate D2E/DX2                !
 ! D65   D(10,6,11,28)         -61.4622         estimate D2E/DX2                !
 ! D66   D(10,6,11,29)        -177.8055         estimate D2E/DX2                !
 ! D67   D(3,7,9,11)            51.5688         estimate D2E/DX2                !
 ! D68   D(3,7,9,25)           -68.659          estimate D2E/DX2                !
 ! D69   D(3,7,9,26)           172.5258         estimate D2E/DX2                !
 ! D70   D(23,7,9,11)          173.5743         estimate D2E/DX2                !
 ! D71   D(23,7,9,25)           53.3464         estimate D2E/DX2                !
 ! D72   D(23,7,9,26)          -65.4687         estimate D2E/DX2                !
 ! D73   D(24,7,9,11)          -68.7637         estimate D2E/DX2                !
 ! D74   D(24,7,9,25)          171.0084         estimate D2E/DX2                !
 ! D75   D(24,7,9,26)           52.1933         estimate D2E/DX2                !
 ! D76   D(2,8,12,1)           -59.7715         estimate D2E/DX2                !
 ! D77   D(2,8,12,30)           62.5107         estimate D2E/DX2                !
 ! D78   D(2,8,12,31)          179.1875         estimate D2E/DX2                !
 ! D79   D(7,9,11,6)           -54.9479         estimate D2E/DX2                !
 ! D80   D(7,9,11,28)           66.1894         estimate D2E/DX2                !
 ! D81   D(7,9,11,29)         -173.1136         estimate D2E/DX2                !
 ! D82   D(25,9,11,6)           65.7793         estimate D2E/DX2                !
 ! D83   D(25,9,11,28)        -173.0834         estimate D2E/DX2                !
 ! D84   D(25,9,11,29)         -52.3864         estimate D2E/DX2                !
 ! D85   D(26,9,11,6)         -177.0135         estimate D2E/DX2                !
 ! D86   D(26,9,11,28)         -55.8762         estimate D2E/DX2                !
 ! D87   D(26,9,11,29)          64.8208         estimate D2E/DX2                !
 ! D88   D(3,10,13,4)          120.258          estimate D2E/DX2                !
 ! D89   D(6,10,13,4)         -119.7716         Frozen                          !
 ! D90   D(27,10,13,4)          -2.2994         estimate D2E/DX2                !
 --------------------------------------------------------------------------------
 Trust Radius=3.00D-01 FncErr=1.00D-07 GrdErr=1.00D-06 EigMax=2.50D+02 EigMin=1.00D-04
 Number of steps in this run=    186 maximum allowed number of steps=    186.
 GradGradGradGradGradGradGradGradGradGradGradGradGradGradGradGradGradGrad

                          Input orientation:                          
 ---------------------------------------------------------------------
 Center     Atomic      Atomic             Coordinates (Angstroms)
 Number     Number       Type             X           Y           Z
 ---------------------------------------------------------------------
      1          6           0        2.256925   -1.194834    0.577749
      2          6           0        3.056011    1.261470   -0.656051
      3          6           0       -2.115629   -1.327689   -0.216640
      4          6           0        1.207352   -0.320073   -0.090239
      5          6           0        1.657710    1.137061   -0.065233
      6          8           0       -1.792668    0.852940    0.744075
      7          6           0       -3.468693   -0.888121   -0.780965
      8          8           0        3.973892    0.425460    0.020451
      9          6           0       -4.039655    0.256853    0.056040
     10          6           0       -1.189666   -0.135219   -0.056395
     11          6           0       -3.004762    1.359980    0.207474
     12          6           0        3.624370   -0.943002   -0.043492
     13          8           0       -0.018917   -0.509797    0.599172
     14          1           0        2.293447   -0.964561    1.638973
     15          1           0        1.998364   -2.243868    0.470979
     16          1           0        3.427832    2.271699   -0.557856
     17          1           0        3.050292    1.002125   -1.712472
     18          1           0       -2.246111   -1.787366    0.759775
     19          1           0       -1.639664   -2.055996   -0.866169
     20          1           0        1.078377   -0.643430   -1.119120
     21          1           0        0.975020    1.766634   -0.627667
     22          1           0        1.666209    1.488316    0.962995
     23          1           0       -4.155279   -1.728455   -0.801760
     24          1           0       -3.342059   -0.555872   -1.809491
     25          1           0       -4.318025   -0.107681    1.041883
     26          1           0       -4.933372    0.667843   -0.404837
     27          1           0       -0.954799    0.298602   -1.022919
     28          1           0       -2.798386    1.825682   -0.753535
     29          1           0       -3.335928    2.127961    0.892281
     30          1           0        3.637403   -1.264982   -1.082335
     31          1           0        4.394446   -1.484034    0.488204
 ---------------------------------------------------------------------
                    Distance matrix (angstroms):
                    1          2          3          4          5
     1  C    0.000000
     2  C    2.862557   0.000000
     3  C    4.446114   5.800232   0.000000
     4  C    1.520861   2.497791   3.474690   0.000000
     5  C    2.492031   1.523085   4.509546   1.525348   0.000000
     6  O    4.540952   5.063293   2.404666   3.327485   3.555392
     7  C    5.892612   6.870816   1.530511   4.760796   5.558205
     8  O    2.425677   1.413886   6.341294   2.867371   2.424545
     9  C    6.482785   7.201722   2.507390   5.280656   5.766233
    10  C    3.661135   4.509557   1.518246   2.404373   3.118706
    11  C    5.860847   6.122773   2.862515   4.544570   4.675757
    12  C    1.522914   2.357532   5.755480   2.496438   2.862671
    13  O    2.376803   3.764061   2.393888   1.419513   2.442264
    14  H    1.086534   3.286922   4.797407   2.141294   2.779441
    15  H    1.085691   3.830954   4.270497   2.154450   3.440094
    16  H    3.831119   1.080951   6.618307   3.444776   2.159494
    17  H    3.271265   1.087804   5.861082   2.788597   2.161224
    18  H    4.545499   6.277935   1.087067   3.847321   4.946992
    19  H    4.243808   5.753181   1.085754   3.423594   4.659376
    20  H    2.138314   2.784621   3.388857   1.086182   2.148593
    21  H    3.444793   2.141616   4.392709   2.167292   1.085707
    22  H    2.774284   2.145768   4.860424   2.142457   1.086603
    23  H    6.580589   7.807918   2.159433   5.589956   6.522614
    24  H    6.120115   6.750441   2.153371   4.869145   5.559330
    25  H    6.680366   7.689861   2.814755   5.644165   6.203587
    26  H    7.492357   8.015344   3.457924   6.227635   6.616484
    27  H    3.886857   4.141051   2.154631   2.434656   2.906093
    28  H    6.037549   5.882330   3.270804   4.592403   4.561222
    29  H    6.513056   6.633628   3.828884   5.253533   5.180264
    30  H    2.160213   2.627298   5.818139   2.789669   3.274674
    31  H    2.158854   3.261674   6.549987   3.441943   3.829642
                    6          7          8          9         10
     6  O    0.000000
     7  C    2.857639   0.000000
     8  O    5.827485   7.599989   0.000000
     9  C    2.424389   1.528902   8.015400   0.000000
    10  C    1.407417   2.507155   5.194478   2.879028   0.000000
    11  C    1.419226   2.499240   7.043431   1.520140   2.366394
    12  C    5.761074   7.131509   1.413840   7.758018   4.881355
    13  O    2.241482   3.734817   4.141515   4.129053   1.393101
    14  H    4.560755   6.250136   2.715818   6.641213   3.961585
    15  H    4.902726   5.770106   3.351268   6.548546   3.858505
    16  H    5.564308   7.589222   2.010278   7.758855   5.231253
    17  H    5.432416   6.851124   2.046607   7.345095   4.691843
    18  H    2.679006   2.162690   6.643165   2.809070   2.124100
    19  H    3.328394   2.171759   6.201268   3.458279   2.132514
    20  H    3.735441   4.566187   3.290160   5.327829   2.555716
    21  H    3.221275   5.178591   3.348438   5.281464   2.937561
    22  H    3.523558   5.920816   2.709881   5.907280   3.439628
    23  H    3.825590   1.085354   8.449781   2.165788   3.448018
    24  H    3.302433   1.088251   7.604922   2.151132   2.807684
    25  H    2.718255   2.157134   8.371586   1.087318   3.315660
    26  H    3.349370   2.169742   8.920705   1.086301   3.844692
    27  H    2.032630   2.790433   5.039515   3.268368   1.085141
    28  H    2.049520   2.795495   6.958694   2.158098   2.630421
    29  H    2.007310   3.451685   7.555929   2.166928   3.260124
    30  H    6.107949   7.122461   2.046205   7.908799   5.062560
    31  H    6.618708   7.987168   2.010429   8.622732   5.770459
                   11         12         13         14         15
    11  C    0.000000
    12  C    7.022258   0.000000
    13  O    3.544681   3.724812   0.000000
    14  H    5.960176   2.145346   2.575854   0.000000
    15  H    6.171582   2.144954   2.663242   1.757245   0.000000
    16  H    6.541806   3.261518   4.577719   4.072624   4.846878
    17  H    6.362227   2.626515   4.129122   3.958895   4.050985
    18  H    3.284262   5.985043   2.572619   4.696550   4.278711
    19  H    3.832113   5.442941   2.676710   4.789189   3.880529
    20  H    4.737671   2.780072   2.043144   3.030940   2.436430
    21  H    4.086746   3.834376   2.770412   3.786203   4.282334
    22  H    4.733419   3.280048   2.639029   2.620492   3.779101
    23  H    3.446835   7.855880   4.534008   6.937347   6.304985
    24  H    2.802214   7.197205   4.104516   6.619506   6.047313
    25  H    2.138908   8.059618   4.340509   6.693454   6.692234
    26  H    2.138578   8.715523   5.152353   7.685624   7.569285
    27  H    2.615863   4.844548   2.039746   4.385471   4.173375
    28  H    1.087662   7.030047   3.874239   6.279834   6.408548
    29  H    1.080938   7.665001   4.248087   6.466151   6.909780
    30  H    7.257575   1.087674   4.094685   3.049916   2.461189
    31  H    7.931929   1.080941   4.520976   2.451187   2.513733
                   16         17         18         19         20
    16  H    0.000000
    17  H    1.757126   0.000000
    18  H    7.099703   6.476508   0.000000
    19  H    6.671096   5.662510   1.756028   0.000000
    20  H    3.785886   2.635975   3.986359   3.073609   0.000000
    21  H    2.505245   2.463337   4.993155   4.637451   2.461832
    22  H    2.455604   3.051261   5.106627   5.180423   3.037283
    23  H    8.576963   7.759234   2.467141   2.537666   5.354358
    24  H    7.442659   6.580191   3.052672   2.457311   4.474878
    25  H    8.259474   7.944195   2.682117   3.822331   5.837646
    26  H    8.515016   8.096947   3.821746   4.298911   6.194414
    27  H    4.828752   4.124461   3.032614   2.457182   2.242874
    28  H    6.245239   5.983715   3.955911   4.052499   4.610798
    29  H    6.918960   6.988280   4.066331   4.845096   5.586809
    30  H    3.581496   2.425190   6.187244   5.340400   2.633685
    31  H    4.016729   3.581998   6.653026   6.210632   3.779738
                   21         22         23         24         25
    21  H    0.000000
    22  H    1.756533   0.000000
    23  H    6.210147   6.881257   0.000000
    24  H    5.042610   6.078497   1.746940   0.000000
    25  H    5.858053   6.193907   2.460165   3.046920   0.000000
    26  H    6.013825   6.789596   2.550533   2.450063   1.753023
    27  H    2.456734   3.496993   3.794858   2.654775   3.967337
    28  H    3.775966   4.795091   3.804652   2.661282   3.044786
    29  H    4.585310   5.043364   4.291044   3.808224   2.446424
    30  H    4.060259   3.955961   7.811493   7.052977   8.315076
    31  H    4.848142   4.062458   8.649945   8.123694   8.837876
                   26         27         28         29         30
    26  H    0.000000
    27  H    4.043193   0.000000
    28  H    2.453639   2.409015   0.000000
    29  H    2.523150   3.561505   1.757565   0.000000
    30  H    8.812094   4.851458   7.147006   8.002407   0.000000
    31  H    9.614379   5.837440   8.014547   8.542158   1.757183
                   31
    31  H    0.000000
 Stoichiometry    C10H18O3
 Framework group  C1[X(C10H18O3)]
 Deg. of freedom    87
 Full point group                 C1      NOp   1
 Largest Abelian subgroup         C1      NOp   1
 Largest concise Abelian subgroup C1      NOp   1
                         Standard orientation:                         
 ---------------------------------------------------------------------
 Center     Atomic      Atomic             Coordinates (Angstroms)
 Number     Number       Type             X           Y           Z
 ---------------------------------------------------------------------
      1          6           0       -2.256925   -1.194834   -0.577749
      2          6           0       -3.056011    1.261470    0.656051
      3          6           0        2.115629   -1.327689    0.216640
      4          6           0       -1.207352   -0.320073    0.090239
      5          6           0       -1.657710    1.137061    0.065233
      6          8           0        1.792668    0.852940   -0.744075
      7          6           0        3.468693   -0.888121    0.780965
      8          8           0       -3.973892    0.425460   -0.020451
      9          6           0        4.039655    0.256853   -0.056040
     10          6           0        1.189666   -0.135219    0.056395
     11          6           0        3.004762    1.359980   -0.207474
     12          6           0       -3.624370   -0.943002    0.043492
     13          8           0        0.018917   -0.509797   -0.599172
     14          1           0       -2.293447   -0.964561   -1.638973
     15          1           0       -1.998364   -2.243868   -0.470979
     16          1           0       -3.427832    2.271699    0.557856
     17          1           0       -3.050292    1.002125    1.712472
     18          1           0        2.246111   -1.787366   -0.759775
     19          1           0        1.639664   -2.055996    0.866169
     20          1           0       -1.078377   -0.643430    1.119120
     21          1           0       -0.975020    1.766634    0.627667
     22          1           0       -1.666209    1.488316   -0.962995
     23          1           0        4.155279   -1.728455    0.801760
     24          1           0        3.342059   -0.555872    1.809491
     25          1           0        4.318025   -0.107681   -1.041883
     26          1           0        4.933372    0.667843    0.404837
     27          1           0        0.954799    0.298602    1.022919
     28          1           0        2.798386    1.825682    0.753535
     29          1           0        3.335928    2.127961   -0.892281
     30          1           0       -3.637403   -1.264982    1.082335
     31          1           0       -4.394446   -1.484034   -0.488204
 ---------------------------------------------------------------------
 Rotational constants (GHZ):           2.2091382           0.3549114           0.3261029
 Standard basis: 6-311++G(2d,2p) (5D, 7F)
 There are   557 symmetry adapted cartesian basis functions of A   symmetry.
 There are   531 symmetry adapted basis functions of A   symmetry.
   531 basis functions,   762 primitive gaussians,   557 cartesian basis functions
    51 alpha electrons       51 beta electrons
       nuclear repulsion energy       875.4694264202 Hartrees.
 NAtoms=   31 NActive=   31 NUniq=   31 SFac= 1.00D+00 NAtFMM=   60 NAOKFM=F Big=F
 Integral buffers will be    131072 words long.
 Raffenetti 2 integral format.
 Two-electron integral symmetry is turned on.
 ------------------------------------------------------------------------------
 Polarizable Continuum Model (PCM)
 =================================
 Model                : PCM.
 Atomic radii         : SMD-Coulomb.
 Polarization charges : Total charges.
 Charge compensation  : None.
 Solution method      : On-the-fly selection.
 Cavity type          : VdW (van der Waals Surface) (Alpha=1.000).
 Cavity algorithm     : GePol (No added spheres)
                        Default sphere list used, NSphG=   31.
                        Lebedev-Laikov grids with approx.  5.0 points / Ang**2.
                        Smoothing algorithm: York/Karplus (Gamma=1.0000).
                        Polarization charges: spherical gaussians, with
                                              point-specific exponents (IZeta= 3).
                        Self-potential: point-specific (ISelfS= 7).
                        Self-field    : sphere-specific E.n sum rule (ISelfD= 2).
 1st derivatives      : Analytical E(r).r(x)/FMM algorithm (CHGder, D1EAlg=3).
                        Cavity 1st derivative terms included.
 Solvent              : Water, Eps=  78.355300 Eps(inf)=   1.777849
 ------------------------------------------------------------------------------
 ------------------------------------------------------------------------------
 Atomic radii for non-electrostatic terms: SMD-CDS.
 ------------------------------------------------------------------------------
 Nuclear repulsion after PCM non-electrostatic terms =      875.4758034029 Hartrees.
 One-electron integrals computed using PRISM.
 NBasis=   531 RedAO= T EigKep=  5.82D-06  NBF=   531
 NBsUse=   531 1.00D-06 EigRej= -1.00D+00 NBFU=   531
 ExpMin= 3.60D-02 ExpMax= 8.59D+03 ExpMxC= 1.30D+03 IAcc=3 IRadAn=         5 AccDes= 0.00D+00
 Harris functional with IExCor= 1009 and IRadAn=       5 diagonalized for initial guess.
 HarFok:  IExCor= 1009 AccDes= 0.00D+00 IRadAn=         5 IDoV= 1 UseB2=F ITyADJ=14
 ICtDFT=  3500011 ScaDFX=  1.000000  1.000000  1.000000  1.000000
 FoFCou: FMM=F IPFlag=           0 FMFlag=      100000 FMFlg1=           0
         NFxFlg=           0 DoJE=T BraDBF=F KetDBF=T FulRan=T
         wScrn=  0.000000 ICntrl=       500 IOpCl=  0 I1Cent=   200000004 NGrid=           0
         NMat0=    1 NMatS0=      1 NMatT0=    0 NMatD0=    1 NMtDS0=    0 NMtDT0=    0
 Petite list used in FoFCou.
 Requested convergence on RMS density matrix=1.00D-08 within 128 cycles.
 Requested convergence on MAX density matrix=1.00D-06.
 Requested convergence on             energy=1.00D-06.
 No special actions if energy rises.
 Inv3:  Mode=1 IEnd=    12204867.
 Iteration    1 A*A^-1 deviation from unit magnitude is 5.11D-15 for    226.
 Iteration    1 A*A^-1 deviation from orthogonality  is 5.84D-15 for   1114    244.
 Iteration    1 A^-1*A deviation from unit magnitude is 4.00D-15 for    226.
 Iteration    1 A^-1*A deviation from orthogonality  is 5.42D-15 for   1529   1475.
 Error on total polarization charges =  0.06372
 SCF Done:  E(RM062X) =  -617.506095887     A.U. after   12 cycles
            NFock= 12  Conv=0.49D-08     -V/T= 2.0035
 SMD-CDS (non-electrostatic) energy       (kcal/mol) =       4.00
 (included in total energy above)

 **********************************************************************

            Population analysis using the SCF Density.

 **********************************************************************

 Orbital symmetries:
       Occupied  (A) (A) (A) (A) (A) (A) (A) (A) (A) (A) (A) (A)
                 (A) (A) (A) (A) (A) (A) (A) (A) (A) (A) (A) (A)
                 (A) (A) (A) (A) (A) (A) (A) (A) (A) (A) (A) (A)
                 (A) (A) (A) (A) (A) (A) (A) (A) (A) (A) (A) (A)
                 (A) (A) (A)
       Virtual   (A) (A) (A) (A) (A) (A) (A) (A) (A) (A) (A) (A)
                 (A) (A) (A) (A) (A) (A) (A) (A) (A) (A) (A) (A)
                 (A) (A) (A) (A) (A) (A) (A) (A) (A) (A) (A) (A)
                 (A) (A) (A) (A) (A) (A) (A) (A) (A) (A) (A) (A)
                 (A) (A) (A) (A) (A) (A) (A) (A) (A) (A) (A) (A)
                 (A) (A) (A) (A) (A) (A) (A) (A) (A) (A) (A) (A)
                 (A) (A) (A) (A) (A) (A) (A) (A) (A) (A) (A) (A)
                 (A) (A) (A) (A) (A) (A) (A) (A) (A) (A) (A) (A)
                 (A) (A) (A) (A) (A) (A) (A) (A) (A) (A) (A) (A)
                 (A) (A) (A) (A) (A) (A) (A) (A) (A) (A) (A) (A)
                 (A) (A) (A) (A) (A) (A) (A) (A) (A) (A) (A) (A)
                 (A) (A) (A) (A) (A) (A) (A) (A) (A) (A) (A) (A)
                 (A) (A) (A) (A) (A) (A) (A) (A) (A) (A) (A) (A)
                 (A) (A) (A) (A) (A) (A) (A) (A) (A) (A) (A) (A)
                 (A) (A) (A) (A) (A) (A) (A) (A) (A) (A) (A) (A)
                 (A) (A) (A) (A) (A) (A) (A) (A) (A) (A) (A) (A)
                 (A) (A) (A) (A) (A) (A) (A) (A) (A) (A) (A) (A)
                 (A) (A) (A) (A) (A) (A) (A) (A) (A) (A) (A) (A)
                 (A) (A) (A) (A) (A) (A) (A) (A) (A) (A) (A) (A)
                 (A) (A) (A) (A) (A) (A) (A) (A) (A) (A) (A) (A)
                 (A) (A) (A) (A) (A) (A) (A) (A) (A) (A) (A) (A)
                 (A) (A) (A) (A) (A) (A) (A) (A) (A) (A) (A) (A)
                 (A) (A) (A) (A) (A) (A) (A) (A) (A) (A) (A) (A)
                 (A) (A) (A) (A) (A) (A) (A) (A) (A) (A) (A) (A)
                 (A) (A) (A) (A) (A) (A) (A) (A) (A) (A) (A) (A)
                 (A) (A) (A) (A) (A) (A) (A) (A) (A) (A) (A) (A)
                 (A) (A) (A) (A) (A) (A) (A) (A) (A) (A) (A) (A)
                 (A) (A) (A) (A) (A) (A) (A) (A) (A) (A) (A) (A)
                 (A) (A) (A) (A) (A) (A) (A) (A) (A) (A) (A) (A)
                 (A) (A) (A) (A) (A) (A) (A) (A) (A) (A) (A) (A)
                 (A) (A) (A) (A) (A) (A) (A) (A) (A) (A) (A) (A)
                 (A) (A) (A) (A) (A) (A) (A) (A) (A) (A) (A) (A)
                 (A) (A) (A) (A) (A) (A) (A) (A) (A) (A) (A) (A)
                 (A) (A) (A) (A) (A) (A) (A) (A) (A) (A) (A) (A)
                 (A) (A) (A) (A) (A) (A) (A) (A) (A) (A) (A) (A)
                 (A) (A) (A) (A) (A) (A) (A) (A) (A) (A) (A) (A)
                 (A) (A) (A) (A) (A) (A) (A) (A) (A) (A) (A) (A)
                 (A) (A) (A) (A) (A) (A) (A) (A) (A) (A) (A) (A)
                 (A) (A) (A) (A) (A) (A) (A) (A) (A) (A) (A) (A)
                 (A) (A) (A) (A) (A) (A) (A) (A) (A) (A) (A) (A)
 The electronic state is 1-A.
 Alpha  occ. eigenvalues --  -19.63219 -19.62862 -19.62750 -10.63101 -10.58562
 Alpha  occ. eigenvalues --  -10.57464 -10.57438 -10.57328 -10.52415 -10.52387
 Alpha  occ. eigenvalues --  -10.52260 -10.52148 -10.52108  -1.20284  -1.16574
 Alpha  occ. eigenvalues --   -1.14122  -0.90544  -0.89441  -0.86359  -0.84672
 Alpha  occ. eigenvalues --   -0.74674  -0.73346  -0.72818  -0.70022  -0.65993
 Alpha  occ. eigenvalues --   -0.64583  -0.60191  -0.58052  -0.55891  -0.54963
 Alpha  occ. eigenvalues --   -0.54586  -0.52833  -0.52384  -0.51199  -0.49921
 Alpha  occ. eigenvalues --   -0.48851  -0.46749  -0.45965  -0.45029  -0.44619
 Alpha  occ. eigenvalues --   -0.42469  -0.41637  -0.40425  -0.39938  -0.39110
 Alpha  occ. eigenvalues --   -0.38530  -0.37090  -0.36894  -0.34593  -0.33194
 Alpha  occ. eigenvalues --   -0.31648
 Alpha virt. eigenvalues --    0.00501   0.01269   0.01408   0.01479   0.02715
 Alpha virt. eigenvalues --    0.02830   0.02980   0.03987   0.04150   0.04652
 Alpha virt. eigenvalues --    0.05173   0.05411   0.05705   0.06233   0.07400
 Alpha virt. eigenvalues --    0.07913   0.08081   0.08305   0.09231   0.09425
 Alpha virt. eigenvalues --    0.10451   0.10632   0.11387   0.11797   0.12399
 Alpha virt. eigenvalues --    0.12938   0.13068   0.13331   0.13751   0.13903
 Alpha virt. eigenvalues --    0.14189   0.14326   0.14796   0.15049   0.15247
 Alpha virt. eigenvalues --    0.15830   0.15946   0.16162   0.16264   0.16678
 Alpha virt. eigenvalues --    0.16887   0.17230   0.17372   0.17797   0.18248
 Alpha virt. eigenvalues --    0.18335   0.18861   0.19129   0.19397   0.19950
 Alpha virt. eigenvalues --    0.20138   0.20610   0.21177   0.21461   0.21688
 Alpha virt. eigenvalues --    0.22061   0.22173   0.23515   0.24496   0.25205
 Alpha virt. eigenvalues --    0.25805   0.26228   0.26534   0.27051   0.27456
 Alpha virt. eigenvalues --    0.28363   0.28892   0.29294   0.29514   0.29711
 Alpha virt. eigenvalues --    0.30359   0.30831   0.31344   0.31933   0.32269
 Alpha virt. eigenvalues --    0.32454   0.32998   0.33372   0.33761   0.34560
 Alpha virt. eigenvalues --    0.35067   0.35148   0.35584   0.36081   0.36596
 Alpha virt. eigenvalues --    0.36870   0.37006   0.37650   0.37755   0.38051
 Alpha virt. eigenvalues --    0.38425   0.39197   0.39781   0.40159   0.40463
 Alpha virt. eigenvalues --    0.41124   0.41870   0.42289   0.43043   0.44174
 Alpha virt. eigenvalues --    0.46427   0.48203   0.50644   0.51082   0.51893
 Alpha virt. eigenvalues --    0.52465   0.52935   0.54065   0.54497   0.56302
 Alpha virt. eigenvalues --    0.56894   0.57091   0.57826   0.58900   0.59424
 Alpha virt. eigenvalues --    0.59495   0.60306   0.60948   0.61078   0.62144
 Alpha virt. eigenvalues --    0.62213   0.63128   0.63446   0.64298   0.64958
 Alpha virt. eigenvalues --    0.65384   0.66002   0.66598   0.67157   0.67319
 Alpha virt. eigenvalues --    0.67761   0.68436   0.68986   0.69870   0.70101
 Alpha virt. eigenvalues --    0.71207   0.72345   0.72543   0.73057   0.73543
 Alpha virt. eigenvalues --    0.74158   0.75017   0.75670   0.75961   0.76220
 Alpha virt. eigenvalues --    0.76837   0.77149   0.77777   0.78660   0.79391
 Alpha virt. eigenvalues --    0.81323   0.83761   0.84243   0.85058   0.85618
 Alpha virt. eigenvalues --    0.86252   0.87028   0.87467   0.89724   0.89818
 Alpha virt. eigenvalues --    0.91360   0.92782   0.93342   0.94561   0.96018
 Alpha virt. eigenvalues --    0.97403   0.99575   0.99886   1.00403   1.01875
 Alpha virt. eigenvalues --    1.02729   1.03888   1.04866   1.06094   1.06571
 Alpha virt. eigenvalues --    1.06654   1.08481   1.09903   1.10293   1.11765
 Alpha virt. eigenvalues --    1.12601   1.13964   1.14531   1.15826   1.16437
 Alpha virt. eigenvalues --    1.17131   1.18287   1.19173   1.19791   1.20331
 Alpha virt. eigenvalues --    1.20814   1.21663   1.22317   1.22574   1.23857
 Alpha virt. eigenvalues --    1.24410   1.25334   1.25649   1.26297   1.27340
 Alpha virt. eigenvalues --    1.27736   1.28322   1.29949   1.30117   1.30956
 Alpha virt. eigenvalues --    1.31702   1.32027   1.32534   1.33295   1.34120
 Alpha virt. eigenvalues --    1.35137   1.35413   1.35631   1.36405   1.37609
 Alpha virt. eigenvalues --    1.38592   1.39478   1.40021   1.40959   1.41536
 Alpha virt. eigenvalues --    1.42542   1.42831   1.44309   1.44801   1.45105
 Alpha virt. eigenvalues --    1.45384   1.46581   1.47668   1.48139   1.48661
 Alpha virt. eigenvalues --    1.49553   1.50040   1.50420   1.51084   1.51629
 Alpha virt. eigenvalues --    1.53320   1.53855   1.54423   1.55594   1.56245
 Alpha virt. eigenvalues --    1.56500   1.57492   1.57948   1.58619   1.59432
 Alpha virt. eigenvalues --    1.59989   1.60357   1.61304   1.61615   1.62365
 Alpha virt. eigenvalues --    1.64348   1.65713   1.65794   1.66170   1.66896
 Alpha virt. eigenvalues --    1.67368   1.68982   1.69717   1.70612   1.71478
 Alpha virt. eigenvalues --    1.72617   1.75058   1.75603   1.77007   1.78062
 Alpha virt. eigenvalues --    1.78196   1.79287   1.80927   1.82140   1.84788
 Alpha virt. eigenvalues --    1.86262   1.90532   1.92258   1.93126   1.96371
 Alpha virt. eigenvalues --    1.99930   2.09649   2.14908   2.16236   2.18713
 Alpha virt. eigenvalues --    2.24294   2.26330   2.28657   2.34333   2.35246
 Alpha virt. eigenvalues --    2.40578   2.42905   2.45383   2.48139   2.50844
 Alpha virt. eigenvalues --    2.54969   2.76420   2.77949   2.78844   2.81652
 Alpha virt. eigenvalues --    2.86304   2.89134   2.91531   2.93749   2.95307
 Alpha virt. eigenvalues --    2.97321   2.98568   3.00936   3.03658   3.05995
 Alpha virt. eigenvalues --    3.07403   3.08160   3.09386   3.11264   3.11940
 Alpha virt. eigenvalues --    3.12360   3.13711   3.15226   3.17901   3.22517
 Alpha virt. eigenvalues --    3.25324   3.26940   3.31679   3.33683   3.35187
 Alpha virt. eigenvalues --    3.36339   3.37904   3.38847   3.40193   3.41847
 Alpha virt. eigenvalues --    3.42332   3.43749   3.44204   3.45584   3.47052
 Alpha virt. eigenvalues --    3.48534   3.49325   3.49949   3.50881   3.51932
 Alpha virt. eigenvalues --    3.53867   3.54597   3.55473   3.56085   3.56474
 Alpha virt. eigenvalues --    3.57113   3.57671   3.58577   3.59808   3.60308
 Alpha virt. eigenvalues --    3.60897   3.61771   3.63286   3.63874   3.65832
 Alpha virt. eigenvalues --    3.66657   3.67584   3.67838   3.69926   3.70407
 Alpha virt. eigenvalues --    3.71572   3.72271   3.72752   3.73239   3.73821
 Alpha virt. eigenvalues --    3.74572   3.75815   3.75947   3.76794   3.78046
 Alpha virt. eigenvalues --    3.79249   3.79975   3.80726   3.81663   3.84750
 Alpha virt. eigenvalues --    3.86355   3.87027   3.90139   3.91218   3.91739
 Alpha virt. eigenvalues --    3.92563   3.92739   3.94347   3.94989   3.97595
 Alpha virt. eigenvalues --    4.00641   4.01992   4.02612   4.03743   4.04127
 Alpha virt. eigenvalues --    4.06200   4.06549   4.06876   4.07238   4.08059
 Alpha virt. eigenvalues --    4.08416   4.10123   4.10539   4.11821   4.12092
 Alpha virt. eigenvalues --    4.12684   4.13440   4.13817   4.14059   4.14444
 Alpha virt. eigenvalues --    4.16351   4.17600   4.19310   4.20170   4.21037
 Alpha virt. eigenvalues --    4.22054   4.22812   4.23308   4.26476   4.28055
 Alpha virt. eigenvalues --    4.28377   4.30349   4.30531   4.31647   4.32576
 Alpha virt. eigenvalues --    4.33343   4.34234   4.36019   4.37693   4.38219
 Alpha virt. eigenvalues --    4.40751   4.44315   4.44732   4.50202   4.50785
 Alpha virt. eigenvalues --    4.60642   4.61845   4.74464   4.77191   4.89295
 Alpha virt. eigenvalues --    4.90945   4.91464   4.92733   4.99381   4.99958
 Alpha virt. eigenvalues --    5.06692   5.07967   5.08850   5.09923   5.11883
 Alpha virt. eigenvalues --    5.12483   5.12780   5.14538   5.30027   5.35564
 Alpha virt. eigenvalues --    5.40395   5.56292   5.57604   5.63553   5.86762
 Alpha virt. eigenvalues --    5.88695   6.02336   7.02291   7.05585   7.07859
 Alpha virt. eigenvalues --    7.08678   7.09748   7.12178   7.12773   7.16115
 Alpha virt. eigenvalues --    7.22725   7.35146   7.36861   7.47373   7.52985
 Alpha virt. eigenvalues --    7.56691   7.61377  23.94941  23.98278  24.06342
 Alpha virt. eigenvalues --   24.08956  24.12396  24.12822  24.14288  24.15970
 Alpha virt. eigenvalues --   24.17258  24.20214  50.16328  50.19870  50.22421
          Condensed to atoms (all electrons):
               1          2          3          4          5          6
     1  C    6.202290   0.174746   0.016943  -0.445337  -0.121087  -0.010517
     2  C    0.174746   5.836691  -0.007512   0.058051  -0.268164  -0.002657
     3  C    0.016943  -0.007512   6.791520   0.111739  -0.073067  -0.014130
     4  C   -0.445337   0.058051   0.111739   7.515261  -0.778810  -0.076196
     5  C   -0.121087  -0.268164  -0.073067  -0.778810   6.336290   0.028981
     6  O   -0.010517  -0.002657  -0.014130  -0.076196   0.028981   8.407352
     7  C    0.017219  -0.007871  -0.139705  -0.025783  -0.000576  -0.003522
     8  O   -0.024843   0.125330   0.000626  -0.043626  -0.050759  -0.000177
     9  C   -0.009975  -0.000300   0.000502  -0.049614  -0.003038  -0.024959
    10  C   -0.114155   0.023076  -0.880862  -0.746731   0.229679   0.257865
    11  C    0.006042   0.004531  -0.050638  -0.013950   0.008337  -0.030283
    12  C    0.001805  -0.295370  -0.002534   0.050590   0.166065  -0.003247
    13  O   -0.190925   0.010004  -0.235475   0.134134  -0.076964   0.045595
    14  H    0.450147   0.022091  -0.001619   0.031439  -0.053860  -0.000802
    15  H    0.452565  -0.000147   0.005111  -0.049810   0.000959   0.000943
    16  H   -0.000872   0.413044   0.001326  -0.006808  -0.004474   0.000911
    17  H   -0.020252   0.424239  -0.000819   0.033881  -0.053356  -0.000910
    18  H   -0.001171   0.001284   0.520665   0.011189  -0.002104  -0.010066
    19  H   -0.005375  -0.000698   0.411428   0.030477  -0.005119   0.006192
    20  H   -0.012114  -0.012585   0.003860   0.419786  -0.018338   0.002343
    21  H   -0.000430  -0.021052  -0.009739  -0.051478   0.452545  -0.006141
    22  H   -0.046096  -0.096048  -0.003393   0.031278   0.462324  -0.004754
    23  H    0.000946  -0.000127  -0.049792  -0.001171  -0.000192  -0.002444
    24  H   -0.000264  -0.000298  -0.048461   0.002000   0.001014   0.000091
    25  H   -0.000444  -0.000048  -0.009229  -0.001389  -0.000013  -0.002326
    26  H    0.000132   0.000004   0.004160   0.000620  -0.000527   0.006192
    27  H   -0.007601   0.006894  -0.047670   0.109423  -0.040557  -0.056983
    28  H    0.001950  -0.000039   0.026480   0.000029   0.002435  -0.027469
    29  H   -0.000310   0.001030  -0.001141  -0.000904   0.000006  -0.073618
    30  H   -0.084506   0.000630  -0.000460   0.038321  -0.015124   0.000052
    31  H   -0.029668   0.001066   0.000236   0.001613   0.004013  -0.000130
               7          8          9         10         11         12
     1  C    0.017219  -0.024843  -0.009975  -0.114155   0.006042   0.001805
     2  C   -0.007871   0.125330  -0.000300   0.023076   0.004531  -0.295370
     3  C   -0.139705   0.000626   0.000502  -0.880862  -0.050638  -0.002534
     4  C   -0.025783  -0.043626  -0.049614  -0.746731  -0.013950   0.050590
     5  C   -0.000576  -0.050759  -0.003038   0.229679   0.008337   0.166065
     6  O   -0.003522  -0.000177  -0.024959   0.257865  -0.030283  -0.003247
     7  C    5.774029   0.000011  -0.034595   0.036533  -0.085813   0.004268
     8  O    0.000011   8.448410   0.000033   0.009002   0.000253   0.112655
     9  C   -0.034595   0.000033   5.621879   0.087607   0.063860  -0.003682
    10  C    0.036533   0.009002   0.087607   6.653453  -0.022813  -0.099158
    11  C   -0.085813   0.000253   0.063860  -0.022813   5.418870   0.001929
    12  C    0.004268   0.112655  -0.003682  -0.099158   0.001929   5.565637
    13  O    0.047043  -0.001782   0.004654   0.224459  -0.007383   0.027442
    14  H   -0.000084  -0.003411   0.000479   0.008141  -0.000082  -0.085328
    15  H   -0.004034   0.007347   0.000372   0.000323   0.000170  -0.029036
    16  H   -0.000180  -0.074566   0.000473   0.005665  -0.000926   0.003753
    17  H   -0.000235  -0.038137  -0.000473   0.005922   0.001445  -0.007913
    18  H   -0.023521  -0.000029  -0.016560  -0.125460   0.002784  -0.000433
    19  H   -0.027115   0.000016   0.000908  -0.022617   0.001087   0.001191
    20  H    0.006156  -0.004200   0.002704   0.000530  -0.005322   0.000052
    21  H    0.002990   0.011380  -0.004531   0.017907   0.000309   0.006734
    22  H   -0.000742  -0.004787   0.000096  -0.013384   0.002495   0.017078
    23  H    0.427601  -0.000002  -0.028069   0.021030   0.003914  -0.000058
    24  H    0.528109   0.000012  -0.074034  -0.016283  -0.004981   0.000514
    25  H    0.000124  -0.000003   0.468218  -0.018420  -0.060623   0.000137
    26  H   -0.058658   0.000001   0.450692   0.008955  -0.039619  -0.000038
    27  H   -0.055373  -0.000295   0.013851   0.406740   0.016966  -0.011473
    28  H    0.015303  -0.000037  -0.080887  -0.051053   0.488675   0.000411
    29  H   -0.000188   0.000029  -0.029398   0.015611   0.428548  -0.000156
    30  H   -0.000642  -0.042780   0.000184   0.014413   0.000215   0.441672
    31  H    0.000447  -0.069334  -0.000184  -0.009428   0.000085   0.438438
              13         14         15         16         17         18
     1  C   -0.190925   0.450147   0.452565  -0.000872  -0.020252  -0.001171
     2  C    0.010004   0.022091  -0.000147   0.413044   0.424239   0.001284
     3  C   -0.235475  -0.001619   0.005111   0.001326  -0.000819   0.520665
     4  C    0.134134   0.031439  -0.049810  -0.006808   0.033881   0.011189
     5  C   -0.076964  -0.053860   0.000959  -0.004474  -0.053356  -0.002104
     6  O    0.045595  -0.000802   0.000943   0.000911  -0.000910  -0.010066
     7  C    0.047043  -0.000084  -0.004034  -0.000180  -0.000235  -0.023521
     8  O   -0.001782  -0.003411   0.007347  -0.074566  -0.038137  -0.000029
     9  C    0.004654   0.000479   0.000372   0.000473  -0.000473  -0.016560
    10  C    0.224459   0.008141   0.000323   0.005665   0.005922  -0.125460
    11  C   -0.007383  -0.000082   0.000170  -0.000926   0.001445   0.002784
    12  C    0.027442  -0.085328  -0.029036   0.003753  -0.007913  -0.000433
    13  O    8.432141  -0.004679   0.000744  -0.000589  -0.001637  -0.000333
    14  H   -0.004679   0.456787  -0.018981  -0.002118   0.002305   0.000420
    15  H    0.000744  -0.018981   0.476705   0.001794  -0.002114  -0.000125
    16  H   -0.000589  -0.002118   0.001794   0.488467  -0.019181  -0.000010
    17  H   -0.001637   0.002305  -0.002114  -0.019181   0.495934   0.000015
    18  H   -0.000333   0.000420  -0.000125  -0.000010   0.000015   0.453868
    19  H    0.000606   0.000094  -0.000521  -0.000205   0.000712  -0.017745
    20  H   -0.011327  -0.000993  -0.008883   0.000577  -0.010325   0.001923
    21  H   -0.006338  -0.004656   0.000832  -0.013205  -0.000489  -0.000323
    22  H    0.002537   0.005590  -0.003412  -0.005774   0.006565  -0.000061
    23  H   -0.001282  -0.000031  -0.000039   0.000022  -0.000056  -0.001550
    24  H   -0.000504  -0.000011  -0.000022  -0.000074   0.000167   0.003734
    25  H    0.001781   0.000034  -0.000065  -0.000011   0.000006  -0.000248
    26  H    0.000112   0.000009  -0.000001  -0.000006   0.000005  -0.001923
    27  H   -0.025237   0.002217   0.001191   0.001111  -0.000432  -0.003911
    28  H    0.004928   0.000012  -0.000074  -0.000017  -0.000028   0.000700
    29  H   -0.003133   0.000013   0.000059  -0.000010   0.000077  -0.000415
    30  H   -0.000235   0.004055   0.001068  -0.003409   0.012898  -0.000082
    31  H   -0.002425  -0.006966  -0.009767   0.001047  -0.003814  -0.000044
              19         20         21         22         23         24
     1  C   -0.005375  -0.012114  -0.000430  -0.046096   0.000946  -0.000264
     2  C   -0.000698  -0.012585  -0.021052  -0.096048  -0.000127  -0.000298
     3  C    0.411428   0.003860  -0.009739  -0.003393  -0.049792  -0.048461
     4  C    0.030477   0.419786  -0.051478   0.031278  -0.001171   0.002000
     5  C   -0.005119  -0.018338   0.452545   0.462324  -0.000192   0.001014
     6  O    0.006192   0.002343  -0.006141  -0.004754  -0.002444   0.000091
     7  C   -0.027115   0.006156   0.002990  -0.000742   0.427601   0.528109
     8  O    0.000016  -0.004200   0.011380  -0.004787  -0.000002   0.000012
     9  C    0.000908   0.002704  -0.004531   0.000096  -0.028069  -0.074034
    10  C   -0.022617   0.000530   0.017907  -0.013384   0.021030  -0.016283
    11  C    0.001087  -0.005322   0.000309   0.002495   0.003914  -0.004981
    12  C    0.001191   0.000052   0.006734   0.017078  -0.000058   0.000514
    13  O    0.000606  -0.011327  -0.006338   0.002537  -0.001282  -0.000504
    14  H    0.000094  -0.000993  -0.004656   0.005590  -0.000031  -0.000011
    15  H   -0.000521  -0.008883   0.000832  -0.003412  -0.000039  -0.000022
    16  H   -0.000205   0.000577  -0.013205  -0.005774   0.000022  -0.000074
    17  H    0.000712  -0.010325  -0.000489   0.006565  -0.000056   0.000167
    18  H   -0.017745   0.001923  -0.000323  -0.000061  -0.001550   0.003734
    19  H    0.483994  -0.007156   0.000416   0.000523  -0.012916  -0.004996
    20  H   -0.007156   0.419042  -0.007101  -0.000853   0.000814  -0.000412
    21  H    0.000416  -0.007101   0.493238  -0.017538   0.000025   0.000652
    22  H    0.000523  -0.000853  -0.017538   0.446718  -0.000121   0.000128
    23  H   -0.012916   0.000814   0.000025  -0.000121   0.463953  -0.001209
    24  H   -0.004996  -0.000412   0.000652   0.000128  -0.001209   0.451332
    25  H   -0.000864   0.000086   0.000051   0.000039   0.000722   0.001234
    26  H    0.001459  -0.000118  -0.000041   0.000023  -0.008722  -0.004713
    27  H    0.007229  -0.018247  -0.009474   0.003562  -0.003852  -0.008922
    28  H   -0.000724   0.001429  -0.001321  -0.000621   0.000130  -0.000887
    29  H    0.001276  -0.000565   0.000378   0.000037  -0.000045  -0.001650
    30  H    0.000384  -0.016135  -0.002423   0.001806  -0.000032   0.000013
    31  H    0.000053   0.001804   0.001470  -0.000872   0.000010   0.000000
              25         26         27         28         29         30
     1  C   -0.000444   0.000132  -0.007601   0.001950  -0.000310  -0.084506
     2  C   -0.000048   0.000004   0.006894  -0.000039   0.001030   0.000630
     3  C   -0.009229   0.004160  -0.047670   0.026480  -0.001141  -0.000460
     4  C   -0.001389   0.000620   0.109423   0.000029  -0.000904   0.038321
     5  C   -0.000013  -0.000527  -0.040557   0.002435   0.000006  -0.015124
     6  O   -0.002326   0.006192  -0.056983  -0.027469  -0.073618   0.000052
     7  C    0.000124  -0.058658  -0.055373   0.015303  -0.000188  -0.000642
     8  O   -0.000003   0.000001  -0.000295  -0.000037   0.000029  -0.042780
     9  C    0.468218   0.450692   0.013851  -0.080887  -0.029398   0.000184
    10  C   -0.018420   0.008955   0.406740  -0.051053   0.015611   0.014413
    11  C   -0.060623  -0.039619   0.016966   0.488675   0.428548   0.000215
    12  C    0.000137  -0.000038  -0.011473   0.000411  -0.000156   0.441672
    13  O    0.001781   0.000112  -0.025237   0.004928  -0.003133  -0.000235
    14  H    0.000034   0.000009   0.002217   0.000012   0.000013   0.004055
    15  H   -0.000065  -0.000001   0.001191  -0.000074   0.000059   0.001068
    16  H   -0.000011  -0.000006   0.001111  -0.000017  -0.000010  -0.003409
    17  H    0.000006   0.000005  -0.000432  -0.000028   0.000077   0.012898
    18  H   -0.000248  -0.001923  -0.003911   0.000700  -0.000415  -0.000082
    19  H   -0.000864   0.001459   0.007229  -0.000724   0.001276   0.000384
    20  H    0.000086  -0.000118  -0.018247   0.001429  -0.000565  -0.016135
    21  H    0.000051  -0.000041  -0.009474  -0.001321   0.000378  -0.002423
    22  H    0.000039   0.000023   0.003562  -0.000621   0.000037   0.001806
    23  H    0.000722  -0.008722  -0.003852   0.000130  -0.000045  -0.000032
    24  H    0.001234  -0.004713  -0.008922  -0.000887  -0.001650   0.000013
    25  H    0.462156  -0.007612  -0.001813   0.002148  -0.001053   0.000001
    26  H   -0.007612   0.474257   0.001702   0.001760  -0.010494   0.000001
    27  H   -0.001813   0.001702   0.460046  -0.006776   0.000961   0.002041
    28  H    0.002148   0.001760  -0.006776   0.476017  -0.005083  -0.000100
    29  H   -0.001053  -0.010494   0.000961  -0.005083   0.469799   0.000032
    30  H    0.000001   0.000001   0.002041  -0.000100   0.000032   0.502722
    31  H   -0.000004   0.000002  -0.000465   0.000041  -0.000015  -0.020564
              31
     1  C   -0.029668
     2  C    0.001066
     3  C    0.000236
     4  C    0.001613
     5  C    0.004013
     6  O   -0.000130
     7  C    0.000447
     8  O   -0.069334
     9  C   -0.000184
    10  C   -0.009428
    11  C    0.000085
    12  C    0.438438
    13  O   -0.002425
    14  H   -0.006966
    15  H   -0.009767
    16  H    0.001047
    17  H   -0.003814
    18  H   -0.000044
    19  H    0.000053
    20  H    0.001804
    21  H    0.001470
    22  H   -0.000872
    23  H    0.000010
    24  H    0.000000
    25  H   -0.000004
    26  H    0.000002
    27  H   -0.000465
    28  H    0.000041
    29  H   -0.000015
    30  H   -0.020564
    31  H    0.478404
 Mulliken charges:
               1
     1  C   -0.198842
     2  C   -0.389795
     3  C   -0.318349
     4  C   -0.288222
     5  C   -0.126517
     6  O   -0.405187
     7  C   -0.391196
     8  O   -0.356334
     9  C   -0.356212
    10  C    0.093452
    11  C   -0.128080
    12  C   -0.301942
    13  O   -0.365930
    14  H    0.199789
    15  H    0.176849
    16  H    0.214246
    17  H    0.176001
    18  H    0.209530
    19  H    0.158006
    20  H    0.273569
    21  H    0.167353
    22  H    0.217658
    23  H    0.192541
    24  H    0.178722
    25  H    0.167426
    26  H    0.182389
    27  H    0.265149
    28  H    0.152668
    29  H    0.210320
    30  H    0.165984
    31  H    0.224953
 Sum of Mulliken charges =  -0.00000
 Mulliken charges with hydrogens summed into heavy atoms:
               1
     1  C    0.177796
     2  C    0.000452
     3  C    0.049187
     4  C   -0.014653
     5  C    0.258495
     6  O   -0.405187
     7  C   -0.019932
     8  O   -0.356334
     9  C   -0.006397
    10  C    0.358601
    11  C    0.234908
    12  C    0.088995
    13  O   -0.365930
 Electronic spatial extent (au):  <R**2>=           3437.7284
 Charge=              0.0000 electrons
 Dipole moment (field-independent basis, Debye):
    X=              2.6226    Y=             -0.7688    Z=              4.5759  Tot=              5.3299
 Quadrupole moment (field-independent basis, Debye-Ang):
   XX=            -80.5225   YY=            -75.6470   ZZ=            -81.2982
   XY=              5.0297   XZ=              0.1208   YZ=              1.4820
 Traceless Quadrupole moment (field-independent basis, Debye-Ang):
   XX=             -1.3666   YY=              3.5089   ZZ=             -2.1423
   XY=              5.0297   XZ=              0.1208   YZ=              1.4820
 Octapole moment (field-independent basis, Debye-Ang**2):
  XXX=             93.3346  YYY=              6.1417  ZZZ=              2.3136  XYY=             -7.6690
  XXY=            -14.6112  XXZ=             10.5709  XZZ=             -6.5056  YZZ=              0.6554
  YYZ=              1.9766  XYZ=             -2.6900
 Hexadecapole moment (field-independent basis, Debye-Ang**3):
 XXXX=          -3923.8831 YYYY=           -577.3699 ZZZZ=           -245.4702 XXXY=            129.9253
 XXXZ=            -23.3368 YYYX=             -0.1919 YYYZ=             -1.1611 ZZZX=             -5.1242
 ZZZY=              0.3639 XXYY=           -655.2334 XXZZ=           -653.4644 YYZZ=           -139.0187
 XXYZ=             16.4216 YYXZ=             -5.5821 ZZXY=              2.6419
 N-N= 8.754758034029D+02 E-N=-3.192964569640D+03  KE= 6.153647850950D+02
 D1PCM: PCM CHGder 1st derivatives, ID1Alg=3 FixD1E=F DoIter=F DoCFld=F I1PDM=0.
 Calling FoFJK, ICntrl=      2127 FMM=F ISym2X=0 I1Cent= 0 IOpClX= 0 NMat=1 NMatS=1 NMatT=0.
 ***** Axes restored to original set *****
 -------------------------------------------------------------------
 Center     Atomic                   Forces (Hartrees/Bohr)
 Number     Number              X              Y              Z
 -------------------------------------------------------------------
      1        6          -0.000048240    0.001172268   -0.003407025
      2        6          -0.005826129   -0.002219734    0.001447461
      3        6          -0.001819286    0.002651399   -0.002334745
      4        6           0.005271160    0.004632424    0.001498893
      5        6           0.001088745   -0.002520234   -0.002297259
      6        8           0.004672381    0.006070188    0.011057263
      7        6           0.001657498    0.001930299    0.003163939
      8        8           0.009161815    0.004122912    0.006021603
      9        6           0.002525794   -0.000084092   -0.002293462
     10        6          -0.005407049   -0.006001308   -0.003524208
     11        6          -0.003547214   -0.005647094   -0.002015117
     12        6          -0.006675801   -0.000003922    0.000855802
     13        8           0.000896567   -0.006678608    0.010468270
     14        1           0.000038815    0.001814691    0.003482883
     15        1          -0.001137880   -0.003003464   -0.000568387
     16        1           0.001391166    0.004322676    0.000521828
     17        1          -0.001054344   -0.001646624   -0.005311471
     18        1          -0.000107185   -0.000501428    0.003850984
     19        1           0.001841967   -0.001820770   -0.002065505
     20        1           0.000311116   -0.001533185   -0.006033573
     21        1          -0.003020587    0.001558733   -0.002125936
     22        1           0.000357349    0.000277268    0.003905940
     23        1          -0.001655008   -0.002089321    0.000065622
     24        1           0.000928812    0.001579982   -0.002822785
     25        1          -0.000066761   -0.001108332    0.003162324
     26        1          -0.002171463    0.001088483   -0.001347840
     27        1           0.001469187    0.002987913   -0.008005406
     28        1           0.000514088    0.001679872   -0.005415878
     29        1          -0.001603475    0.003173254    0.002899670
     30        1          -0.000991331   -0.001837139   -0.005255341
     31        1           0.003005293   -0.002367108    0.002421455
 -------------------------------------------------------------------
 Cartesian Forces:  Max     0.011057263 RMS     0.003593238

 GradGradGradGradGradGradGradGradGradGradGradGradGradGradGradGradGradGrad
 Berny optimization.
 FormGI is forming the generalized inverse of G from B-inverse, IUseBI=4.
 Internal  Forces:  Max     0.010990819 RMS     0.002144776
 Search for a local minimum.
 Step number   1 out of a maximum of  186
 All quantities printed in internal units (Hartrees-Bohrs-Radians)
 Mixed Optimization -- RFO/linear search
 Second derivative matrix not updated -- first step.
 ITU=  0
     Eigenvalues ---    0.00618   0.00701   0.00734   0.00750   0.01432
     Eigenvalues ---    0.01434   0.01480   0.02723   0.02724   0.03103
     Eigenvalues ---    0.03379   0.04159   0.04249   0.04765   0.04767
     Eigenvalues ---    0.04821   0.04909   0.05050   0.05146   0.05197
     Eigenvalues ---    0.05247   0.05679   0.05739   0.06052   0.06143
     Eigenvalues ---    0.06231   0.06355   0.06768   0.07658   0.07911
     Eigenvalues ---    0.07923   0.07945   0.07949   0.08028   0.08472
     Eigenvalues ---    0.08752   0.08961   0.09279   0.10896   0.11457
     Eigenvalues ---    0.11705   0.11730   0.11753   0.12313   0.13140
     Eigenvalues ---    0.14247   0.14373   0.16336   0.16418   0.17735
     Eigenvalues ---    0.19115   0.21376   0.21758   0.25000   0.28538
     Eigenvalues ---    0.28635   0.28752   0.28944   0.29088   0.29483
     Eigenvalues ---    0.30080   0.30447   0.35015   0.35068   0.35083
     Eigenvalues ---    0.35084   0.35124   0.35154   0.35208   0.35216
     Eigenvalues ---    0.35244   0.35258   0.35308   0.35313   0.35315
     Eigenvalues ---    0.35355   0.35380   0.35880   0.35881   0.35881
     Eigenvalues ---    0.41123   0.41679   0.42030   0.42534   0.42761
     Eigenvalues ---    0.467831000.000001000.000001000.000001000.00000
     Eigenvalues --- 1000.000001000.000001000.000001000.000001000.00000
     Eigenvalues --- 1000.000001000.000001000.000001000.000001000.00000
     Eigenvalues --- 1000.000001000.000001000.000001000.000001000.00000
     Eigenvalues --- 1000.000001000.000001000.000001000.000001000.00000
     Eigenvalues --- 1000.000001000.000001000.000001000.000001000.00000
     Eigenvalues --- 1000.000001000.000001000.000001000.000001000.00000
     Eigenvalues --- 1000.000001000.000001000.000001000.000001000.00000
     Eigenvalues --- 1000.000001000.000001000.000001000.000001000.00000
     Eigenvalues --- 1000.000001000.000001000.000001000.000001000.00000
     Eigenvalues --- 1000.000001000.000001000.000001000.000001000.00000
     Eigenvalues --- 1000.000001000.000001000.000001000.000001000.00000
     Eigenvalues --- 1000.000001000.000001000.000001000.000001000.00000
     Eigenvalues --- 1000.000001000.000001000.000001000.000001000.00000
     Eigenvalues --- 1000.000001000.000001000.000001000.000001000.00000
     Eigenvalues --- 1000.000001000.000001000.000001000.000001000.00000
     Eigenvalues --- 1000.000001000.000001000.000001000.000001000.00000
     Eigenvalues --- 1000.000001000.000001000.000001000.000001000.00000
     Eigenvalues --- 1000.000001000.000001000.000001000.000001000.00000
     Eigenvalues --- 1000.000001000.000001000.000001000.000001000.00000
 RFO step:  Lambda=-2.95959733D-03 EMin= 6.17922577D-03
 Linear search not attempted -- first point.
 Iteration  1 RMS(Cart)=  0.05081881 RMS(Int)=  0.00069766
 Iteration  2 RMS(Cart)=  0.00166105 RMS(Int)=  0.00001935
 Iteration  3 RMS(Cart)=  0.00000070 RMS(Int)=  0.00001935
 Iteration  1 RMS(Cart)=  0.00000018 RMS(Int)=  0.00000004
 Variable       Old X    -DE/DX   Delta X   Delta X   Delta X     New X
                                 (Linear)    (Quad)   (Total)
    R1        2.87401  -0.00209   0.00000  -0.00768  -0.00770   2.86631
    R2        2.87789  -0.00058   0.00000  -0.00165  -0.00165   2.87624
    R3        2.05325   0.00379   0.00000   0.01067   0.01067   2.06392
    R4        2.05166   0.00323   0.00000   0.00906   0.00906   2.06072
    R5        2.87821  -0.00046   0.00000  -0.00169  -0.00168   2.87653
    R6        2.67186   0.00597   0.00000   0.01428   0.01430   2.68615
    R7        2.04270   0.00457   0.00000   0.01262   0.01262   2.05532
    R8        2.05565   0.00556   0.00000   0.01572   0.01572   2.07137
    R9        2.89225  -0.00100   0.00000  -0.00394  -0.00397   2.88828
   R10        2.86907  -0.00125   0.00000  -0.00348  -0.00348   2.86559
   R11        2.05426   0.00369   0.00000   0.01040   0.01040   2.06466
   R12        2.05178   0.00326   0.00000   0.00917   0.00917   2.06095
   R13        2.88249  -0.00194   0.00000  -0.00707  -0.00709   2.87540
   R14        2.68249   0.00435   0.00000   0.01016   0.01016   2.69265
   R15        2.05259   0.00614   0.00000   0.01726   0.01726   2.06984
   R16        2.05169   0.00391   0.00000   0.01097   0.01097   2.06266
   R17        2.05338   0.00379   0.00000   0.01067   0.01067   2.06405
   R18        2.65963   0.00774   0.00000   0.01826   0.01829   2.67792
   R19        2.68195   0.00578   0.00000   0.01390   0.01393   2.69588
   R20        2.88921  -0.00084   0.00000  -0.00425  -0.00428   2.88493
   R21        2.05102   0.00266   0.00000   0.00747   0.00747   2.05850
   R22        2.05650   0.00326   0.00000   0.00922   0.00922   2.06572
   R23        2.67177   0.00627   0.00000   0.01477   0.01479   2.68656
   R24        2.87265  -0.00062   0.00000  -0.00249  -0.00249   2.87016
   R25        2.05473   0.00326   0.00000   0.00920   0.00920   2.06393
   R26        2.05281   0.00277   0.00000   0.00779   0.00779   2.06060
   R27        2.63258   0.00601   0.00000   0.01276   0.01276   2.64534
   R28        2.05062   0.00864   0.00000   0.02422   0.02422   2.07484
   R29        2.05538   0.00560   0.00000   0.01583   0.01583   2.07121
   R30        2.04268   0.00458   0.00000   0.01267   0.01267   2.05534
   R31        2.05541   0.00555   0.00000   0.01569   0.01569   2.07110
   R32        2.04268   0.00452   0.00000   0.01248   0.01248   2.05516
    A1        1.92344  -0.00052   0.00000  -0.00793  -0.00798   1.91546
    A2        1.90740   0.00025   0.00000  -0.00288  -0.00288   1.90452
    A3        1.92645  -0.00052   0.00000  -0.00146  -0.00144   1.92502
    A4        1.91049  -0.00001   0.00000   0.00128   0.00125   1.91174
    A5        1.91081   0.00057   0.00000   0.00439   0.00439   1.91521
    A6        1.88476   0.00025   0.00000   0.00691   0.00689   1.89166
    A7        1.94132   0.00095   0.00000   0.00287   0.00287   1.94419
    A8        1.93574  -0.00021   0.00000  -0.00197  -0.00197   1.93377
    A9        1.93095  -0.00127   0.00000  -0.00796  -0.00797   1.92297
   A10        1.86067  -0.00060   0.00000  -0.00034  -0.00034   1.86033
   A11        1.90404   0.00063   0.00000   0.00465   0.00466   1.90870
   A12        1.88898   0.00054   0.00000   0.00319   0.00318   1.89216
   A13        1.93106  -0.00043   0.00000  -0.00499  -0.00506   1.92600
   A14        1.92465   0.00088   0.00000   0.00479   0.00478   1.92943
   A15        1.93866  -0.00011   0.00000   0.00308   0.00307   1.94173
   A16        1.88655  -0.00063   0.00000  -0.00660  -0.00658   1.87997
   A17        1.89931   0.00002   0.00000  -0.00310  -0.00307   1.89623
   A18        1.88211   0.00026   0.00000   0.00676   0.00672   1.88883
   A19        1.91611   0.00240   0.00000   0.00235   0.00230   1.91842
   A20        1.88177  -0.00027   0.00000   0.00257   0.00258   1.88435
   A21        1.90367  -0.00064   0.00000   0.00117   0.00118   1.90485
   A22        1.95495  -0.00159   0.00000  -0.00906  -0.00903   1.94591
   A23        1.91237  -0.00091   0.00000  -0.00489  -0.00488   1.90750
   A24        1.89408   0.00102   0.00000   0.00824   0.00821   1.90228
   A25        1.92062  -0.00031   0.00000  -0.00558  -0.00565   1.91497
   A26        1.90600   0.00055   0.00000   0.00606   0.00606   1.91206
   A27        1.91079   0.00018   0.00000   0.00206   0.00205   1.91285
   A28        1.93885  -0.00083   0.00000  -0.00590  -0.00587   1.93298
   A29        1.90353   0.00012   0.00000  -0.00328  -0.00326   1.90027
   A30        1.88354   0.00031   0.00000   0.00694   0.00690   1.89045
   A31        1.98418  -0.00505   0.00000  -0.02642  -0.02635   1.95783
   A32        1.92130   0.00192   0.00000  -0.00244  -0.00252   1.91878
   A33        1.92191  -0.00053   0.00000   0.00049   0.00052   1.92243
   A34        1.91059  -0.00079   0.00000  -0.00204  -0.00204   1.90855
   A35        1.93272  -0.00044   0.00000   0.00093   0.00096   1.93368
   A36        1.90946  -0.00080   0.00000  -0.00171  -0.00171   1.90775
   A37        1.86699   0.00057   0.00000   0.00492   0.00491   1.87190
   A38        1.97162  -0.00457   0.00000  -0.02447  -0.02443   1.94719
   A39        1.92170   0.00002   0.00000  -0.00446  -0.00453   1.91717
   A40        1.91867   0.00060   0.00000   0.00210   0.00212   1.92079
   A41        1.93725  -0.00063   0.00000  -0.00087  -0.00087   1.93638
   A42        1.90420  -0.00036   0.00000  -0.00159  -0.00157   1.90262
   A43        1.90478   0.00011   0.00000  -0.00022  -0.00020   1.90458
   A44        1.87641   0.00026   0.00000   0.00523   0.00522   1.88163
   A45        1.92856   0.00165   0.00000   0.00609   0.00608   1.93464
   A46        1.92947   0.00042   0.00000  -0.00057  -0.00057   1.92890
   A47        1.93050  -0.00068   0.00000  -0.00484  -0.00485   1.92565
   A48        1.85584  -0.00156   0.00000  -0.00613  -0.00613   1.84972
   A49        1.89507  -0.00003   0.00000   0.00393   0.00394   1.89901
   A50        1.92276   0.00018   0.00000   0.00167   0.00167   1.92443
   A51        1.93889   0.00118   0.00000   0.00481   0.00482   1.94370
   A52        1.90179   0.00071   0.00000   0.00411   0.00413   1.90592
   A53        1.85037  -0.00087   0.00000  -0.00079  -0.00079   1.84959
   A54        1.93036  -0.00140   0.00000  -0.00801  -0.00802   1.92234
   A55        1.94993  -0.00012   0.00000  -0.00230  -0.00230   1.94763
   A56        1.88987   0.00055   0.00000   0.00264   0.00262   1.89249
   A57        1.94291   0.00116   0.00000   0.00574   0.00572   1.94863
   A58        1.92989  -0.00124   0.00000  -0.00823  -0.00824   1.92165
   A59        1.93506  -0.00042   0.00000  -0.00361  -0.00361   1.93145
   A60        1.90367   0.00066   0.00000   0.00443   0.00446   1.90812
   A61        1.86094  -0.00072   0.00000  -0.00088  -0.00087   1.86007
   A62        1.88925   0.00059   0.00000   0.00292   0.00289   1.89213
   A63        2.05048  -0.01099   0.00000  -0.04345  -0.04345   2.00703
    D1       -0.92239  -0.00008   0.00000  -0.00969  -0.00967  -0.93206
    D2       -3.05646   0.00059   0.00000  -0.00164  -0.00163  -3.05810
    D3        1.17321  -0.00013   0.00000  -0.01352  -0.01352   1.15969
    D4        1.17772  -0.00025   0.00000  -0.01485  -0.01483   1.16289
    D5       -0.95635   0.00041   0.00000  -0.00681  -0.00680  -0.96315
    D6       -3.00987  -0.00030   0.00000  -0.01869  -0.01868  -3.02855
    D7       -3.03513  -0.00011   0.00000  -0.00904  -0.00903  -3.04415
[...]
 00045,0.00043080,-0.00006144,0.00042483,-0.00006346,-0.00023238,0.0002
 3915,0.00000455,0.00000107,-0.00000760,0.00000209,-0.00000316,0.000002
 43,0.00000123,0.00000127,0.00000168,-0.00047098,0.00010685,0.00070530,
 0.00171658,-0.00334462,-0.00106509,-0.07143116,-0.09118850,0.27651298,
 -0.00004783,-0.00002697,0.00004407,0.00002109,-0.00001856,-0.00001238,
 0.00047024,0.00152960,0.00205041,0.00023847,0.00007820,-0.00016338,-0.
 00003845,-0.00000303,0.00003431,-0.00565883,-0.00293962,-0.00101757,-0
 .00871324,0.00370088,-0.00420742,-0.00001712,-0.00000222,0.00000187,-0
 .21901555,0.08538669,-0.09319183,0.00174621,-0.00108194,-0.00079873,-0
 .01563481,0.01225790,-0.00911031,0.00000201,0.00002247,-0.00002625,-0.
 00061192,0.00024468,-0.00002865,-0.00000022,0.00000122,-0.00000405,0.0
 0000241,0.00000283,-0.00000046,-0.00001150,-0.00000345,0.00000370,-0.0
 0000258,0.00000135,0.00000409,-0.00002002,0.00003317,-0.00016416,-0.00
 055788,0.00016343,-0.00043887,-0.00002166,-0.00000452,0.00002246,0.000
 00165,0.00000548,-0.00000581,-0.00000064,-0.00000306,-0.00000043,0.000
 46950,0.00006149,0.00017157,0.00029014,-0.00038335,-0.00002798,0.00845
 031,-0.00381710,0.00348986,0.23739696,-0.00001248,-0.00000672,0.000007
 86,0.00000204,0.00000543,-0.00000047,0.00108750,-0.00301017,-0.0044243
 2,0.00000501,0.00008797,0.00002395,0.00001595,-0.00000536,-0.00000680,
 -0.00725666,-0.00199021,-0.00140103,0.01946514,-0.00952389,0.01191381,
 -0.00000153,-0.00000008,0.00000033,0.08690708,-0.09233935,0.04926762,0
 .00010581,-0.00197457,-0.00112918,-0.01596099,0.01164753,-0.00998315,-
 0.00000362,0.00000182,-0.00000544,-0.00007941,0.00049757,0.00024401,0.
 00000014,-0.00000005,-0.00000082,0.00000006,-0.00000034,0.00000066,0.0
 0000063,0.00000018,-0.00000007,-0.00000072,0.00000018,0.00000085,-0.00
 033370,0.00008003,-0.00009325,0.00170079,-0.00025820,0.00047487,-0.000
 01677,-0.00000733,0.00000035,-0.00000041,-0.00000167,-0.00000100,0.000
 00171,-0.00000275,0.00000209,-0.00071728,0.00059273,0.00066513,-0.0005
 7493,0.00109547,-0.00001145,0.00912723,-0.00510723,0.00455215,-0.09530
 686,0.09870895,-0.00000253,-0.00000281,-0.00000098,-0.00000087,0.00000
 413,0.00000041,0.00117910,-0.00289396,-0.00203602,-0.00000373,0.000034
 94,0.00001044,0.00001175,0.00000161,-0.00000613,-0.00196049,-0.0009408
 5,0.00110435,0.01760941,-0.00780629,0.00869982,0.00000034,0.00000017,0
 .00000007,-0.09566859,0.04919989,-0.09930046,-0.00009578,-0.00079434,-
 0.00053362,-0.00169013,0.00289273,-0.00363271,-0.00000117,-0.00000042,
 -0.00000097,0.00001787,0.00015785,0.00010526,0.00000066,-0.00000029,-0
 .00000025,0.00000039,0.00000019,0.00000008,0.00000091,-0.00000015,-0.0
 0000028,0.00000016,0.00000007,0.00000040,0.00009500,-0.00008693,0.0002
 1777,0.00095076,-0.00046044,0.00039864,-0.00000384,-0.00000207,-0.0000
 0007,0.00000222,-0.00000075,0.00000129,0.00000011,-0.00000003,0.000000
 41,-0.00064583,0.00070834,0.00052399,-0.00027497,0.00080934,0.00096433
 ,-0.02242559,0.01002530,-0.01152164,0.10273250,-0.05067224,0.10464288,
 -0.00017759,-0.00017056,0.00006305,0.00000456,0.00008683,0.00003505,-0
 .00339578,-0.01091844,0.01678606,0.00091245,0.00194385,-0.00402166,-0.
 00041919,-0.00032408,-0.00030046,-0.00613637,0.00358636,0.01779483,0.0
 0108572,0.00004547,0.00093450,-0.00003741,-0.00007719,0.00000764,-0.00
 021641,0.00005093,-0.00029088,-0.07019241,-0.03391280,0.05750461,0.001
 89943,-0.00108830,0.00291579,0.00003495,0.00006541,0.00000716,-0.00562
 989,0.01706956,-0.03187905,-0.00009440,0.00008178,0.00014564,0.0000413
 7,-0.00002851,0.00000538,0.00001765,0.00000509,-0.00000899,-0.00000457
 ,-0.00000239,0.00001246,-0.00196912,-0.00309495,-0.00058874,0.00062131
 ,0.00012427,-0.00054951,-0.00036830,0.00039895,0.00020686,-0.00104819,
 -0.00084222,-0.00028728,0.00008094,0.00008131,-0.00001080,0.00010713,0
 .00005760,-0.00017885,-0.00005642,0.00014056,-0.00027714,0.00003340,0.
 00003421,-0.00001657,-0.00008874,-0.00001376,-0.00000592,0.08495002,0.
 00013452,0.00001775,-0.00031016,0.00005178,0.00019289,0.00000177,-0.00
 866800,-0.01077854,0.02210920,-0.00160240,0.00017216,0.00191477,-0.000
 11033,-0.00000418,-0.00039499,0.01493092,0.00369940,-0.02974726,0.0008
 7458,0.00020549,0.00029698,-0.00006225,0.00004375,-0.00001036,0.000272
 03,-0.00020071,0.00027220,-0.03048296,-0.10279799,0.09872536,-0.002684
 83,0.00222398,-0.00317218,0.00003193,-0.00011123,0.00008660,0.00525913
 ,-0.00372378,0.01040045,-0.00002911,0.00002619,-0.00004477,-0.00001301
 ,-0.00000211,0.00000898,0.00005102,0.00000963,-0.00002640,0.00000371,-
 0.00000537,-0.00000460,-0.00336187,-0.00309655,-0.00046486,0.00079493,
 0.00100273,-0.00010117,0.00028688,-0.00030238,-0.00043712,-0.00117973,
 -0.00058693,-0.00037344,-0.00005175,-0.00000548,-0.00005406,0.00001373
 ,0.00008341,-0.00038389,-0.00020469,0.00038916,-0.00046381,0.00000510,
 -0.00008262,0.00006068,0.00006073,0.00017910,0.00010848,0.02657679,0.1
 1358972,-0.00005045,0.00003070,0.00063882,-0.00013881,-0.00021879,0.00
 025219,-0.00197388,-0.00146721,0.00539873,0.00380283,0.00016649,-0.000
 37326,-0.00013227,-0.00002182,0.00012671,0.01475708,-0.00485074,-0.026
 70771,0.00057266,-0.00020104,0.00052777,0.00025415,-0.00012030,-0.0000
 0206,0.00020258,-0.00039109,0.00009105,0.04867433,0.09480273,-0.226480
 24,-0.00202066,0.00135508,-0.00024768,-0.00006131,0.00017870,-0.000063
 08,-0.00721889,0.01176741,-0.01744036,0.00019700,-0.00011781,0.0000482
 9,0.00001646,-0.00004255,0.00000553,-0.00002087,0.00001094,0.00000231,
 0.00000418,-0.00000773,-0.00001948,-0.00140677,-0.00125611,0.00061995,
 0.00044535,0.00063750,0.00026146,-0.00010359,-0.00010630,0.00090538,-0
 .00000953,-0.00058338,0.00009147,0.00011165,-0.00000690,0.00006742,0.0
 0012934,-0.00001205,0.00005710,0.00034236,-0.00008652,-0.00002957,-0.0
 0004060,0.00011225,-0.00013290,0.00012218,0.00010593,0.00004806,-0.057
 32178,-0.09885562,0.26122600,-0.00003011,-0.00001819,0.00003881,0.0000
 1204,-0.00002307,-0.00000067,-0.00021715,0.00021305,0.00038372,0.00022
 586,0.00013416,-0.00000771,-0.00003059,0.00002858,-0.00001477,-0.00457
 032,0.02136410,-0.03260902,0.00042627,0.00128277,0.00030410,-0.0000034
 2,-0.00000399,0.00000072,-0.00650877,-0.01084675,0.02142340,0.00285416
 ,-0.00193400,-0.00490929,-0.06776280,-0.02893133,0.06464566,-0.0000003
 3,0.00001929,-0.00001837,-0.00078303,-0.00006776,0.00025293,0.00000166
 ,0.00000042,-0.00000377,0.00000139,0.00000285,-0.00000076,-0.00000873,
 -0.00000122,0.00000267,-0.00000178,0.00000118,0.00000079,-0.00009372,-
 0.00002790,0.00007283,0.00018776,0.00010752,0.00011089,-0.00005728,-0.
 00000614,0.00003868,0.00007270,-0.00002728,0.00001789,0.00000606,-0.00
 000343,0.00000249,-0.00005559,0.00017592,-0.00021244,0.00033003,-0.000
 04247,-0.00050443,-0.00252349,-0.00423077,-0.00113278,0.00073844,0.000
 72641,-0.00010342,0.00013221,-0.00081832,0.00082970,0.07897267,0.00001
 954,0.00001065,-0.00002960,-0.00000880,0.00000360,0.00000765,0.0001605
 0,-0.00027619,-0.00029544,-0.00009074,-0.00010253,0.00003524,0.0000063
 5,0.00000605,-0.00002693,0.00712819,-0.00773518,0.01502401,0.00042431,
 0.00111531,0.00116533,0.00000605,0.00000236,-0.00000338,-0.00847955,-0
 .00997005,0.02049479,-0.00145629,0.00084231,0.00299583,-0.02805964,-0.
 09622224,0.08527563,-0.00000016,-0.00001109,0.00001397,0.00049196,0.00
 005805,-0.00029033,-0.00000221,0.00000095,0.00000231,-0.00000104,-0.00
 000188,0.00000086,0.00000424,0.00000191,-0.00000136,0.00000213,-0.0000
 0083,-0.00000281,0.00001077,0.00005995,-0.00001567,-0.00000067,-0.0000
 9974,-0.00003985,0.00003582,-0.00000156,-0.00002368,0.00003945,-0.0000
 1318,0.00001405,-0.00000217,0.00000254,-0.00000084,0.00001187,0.000242
 03,-0.00022647,0.00013971,-0.00007824,-0.00034903,-0.00321250,-0.00254
 044,-0.00061841,0.00019666,0.00078003,-0.00030473,0.00003410,-0.000117
 43,-0.00044960,0.02759554,0.10279964,-0.00005188,-0.00003358,0.0000356
 7,0.00001728,-0.00001123,-0.00001766,-0.00018544,0.00007860,0.00019377
 ,0.00016507,0.00018527,-0.00012771,-0.00002329,-0.00000427,0.00004485,
 -0.01036209,0.01218592,-0.01532914,-0.00052095,-0.00007012,0.00092750,
 -0.00001459,-0.00000782,0.00000531,-0.00032368,-0.00298751,0.00395275,
 0.00195684,-0.00295602,0.00021400,0.06099328,0.08823717,-0.23826747,0.
 00000107,0.00002616,-0.00002950,-0.00065420,-0.00010978,0.00039710,-0.
 00000471,0.00000433,-0.00000561,0.00000214,0.00000331,-0.00000014,-0.0
 0001190,-0.00000436,0.00000324,-0.00000248,0.00000178,0.00000511,0.000
 08897,0.00000204,-0.00014989,0.00002299,0.00014971,0.00000826,-0.00004
 829,-0.00000672,0.00000961,-0.00005286,0.00003287,-0.00002083,0.000000
 01,-0.00000311,-0.00000421,0.00002001,0.00007594,0.00014247,-0.0002068
 8,0.00043872,0.00010615,-0.00059462,-0.00113577,0.00098893,0.00067237,
 0.00059247,0.00028213,-0.00058839,0.00084575,0.00066845,-0.05637085,-0
 .10349833,0.26177957,-0.00016404,-0.00008483,0.00015147,0.00003599,-0.
 00003924,-0.00002898,-0.00056797,0.00034232,0.00023579,0.00050799,0.00
 045502,-0.00042681,-0.00003514,-0.00000462,0.00007678,-0.02058796,0.02
 846539,0.01834698,-0.00391722,-0.00321886,0.00014031,-0.00002967,-0.00
 001525,0.00000570,0.01002990,-0.01711828,-0.01584092,-0.00088214,-0.00
 150202,-0.00472770,-0.07159197,0.05315679,0.05031692,-0.00001101,0.000
 06788,-0.00007730,-0.00235239,0.00157936,0.00029145,0.00000050,0.00000
 061,-0.00001099,0.00000887,0.00000250,0.00000147,-0.00002366,-0.000006
 29,0.00000816,-0.00000270,0.00000216,0.00000561,0.00008736,-0.00000621
 ,0.00003367,0.00028203,0.00016502,0.00012097,-0.00006981,-0.00001336,0
 .00005945,0.00000635,0.00000216,-0.00000444,-0.00000344,-0.00000450,-0
 .00000976,0.00060474,-0.00138187,-0.00081054,-0.00006220,0.00016639,-0
 .00001388,0.00082767,0.00087411,0.00041961,0.00062754,0.00113545,0.000
 28177,-0.00004288,-0.00012309,0.00008034,-0.00130460,0.00499951,0.0060
 9141,0.08866695,0.00008765,0.00004982,-0.00008621,-0.00002045,0.000025
 50,0.00001647,-0.00015563,0.00040936,-0.00010584,-0.00028650,-0.000250
 99,0.00026023,0.00003695,0.00000256,-0.00004666,0.01151454,-0.01227427
 ,-0.00714471,-0.00442926,-0.00195949,0.00019899,0.00001733,0.00000825,
 -0.00000308,0.00663844,-0.01531127,-0.01515687,-0.00078715,0.00209869,
 0.00306970,0.05707608,-0.18256186,-0.12002152,0.00000487,-0.00004064,0
 .00004603,0.00130064,-0.00044685,-0.00023661,0.00000019,-0.00000015,0.
 00000683,-0.00000570,-0.00000294,-0.00000088,0.00001498,0.00000444,-0.
 00000509,0.00000165,-0.00000073,-0.00000368,0.00004534,-0.00002719,0.0
 0005778,0.00003059,-0.00009057,-0.00003183,0.00003704,0.00000542,-0.00
 003641,0.00000255,-0.00000110,0.00000580,-0.00000060,0.00000316,0.0000
 0504,0.00057620,-0.00102116,-0.00089728,0.00008824,0.00008432,-0.00019
 194,0.00080308,0.00088939,0.00049652,-0.00015393,0.00055117,0.00002328
 ,0.00009719,-0.00003148,-0.00034950,-0.00466612,0.01124409,0.00797138,
 -0.06788914,0.19864060,-0.00005528,-0.00002742,0.00004618,0.00000872,-
 0.00000894,-0.00000774,-0.00023046,0.00033504,0.00001361,0.00006701,0.
 00021133,-0.00012850,0.00000197,-0.00000007,0.00001660,-0.00931028,0.0
 1513775,0.01220200,-0.00142993,-0.00076464,0.00111300,-0.00000537,-0.0
 0000467,0.00000327,0.00172520,-0.00063655,-0.00183276,-0.00140895,0.00
 049921,-0.00102015,0.05904531,-0.12819960,-0.16902175,-0.00000923,0.00
 001985,-0.00002530,-0.00100292,0.00035055,0.00022844,0.00000044,-0.000
 00092,-0.00000361,0.00000334,0.00000026,0.00000171,-0.00000488,-0.0000
 0074,0.00000143,-0.00000121,0.00000072,0.00000173,0.00002986,-0.000019
 15,0.00000099,0.00014263,0.00005833,0.00001283,-0.00001166,-0.00000087
 ,0.00002130,-0.00000988,-0.00000304,-0.00000460,0.00000083,-0.00000212
 ,-0.00000065,0.00031999,-0.00047457,-0.00007226,-0.00012396,0.00023654
 ,0.00029475,-0.00048696,0.00005851,0.00075889,-0.00015848,-0.00012388,
 0.00003230,-0.00010839,0.00003942,0.00046147,0.00775905,-0.01884942,-0
 .01582058,-0.05473538,0.13217106,0.17272177,-0.00044549,0.00794678,0.0
 2951191,-0.00048481,0.00160427,0.00077210,-0.00002243,0.00001917,-0.00
 001115,0.00150180,0.00011746,0.00129661,-0.00020058,-0.00008774,0.0001
 2789,0.00000488,0.00000118,0.00000824,-0.00000578,-0.00001197,0.000002
 25,0.00151792,-0.00840808,-0.00901485,-0.00000001,0.00000017,-0.000001
 42,0.00003545,-0.00006292,-0.00011316,0.00000662,-0.00000718,0.0000061
 8,-0.05309071,0.00122781,-0.00510961,-0.00016417,-0.00009570,-0.000252
 38,-0.00486059,-0.00069441,0.00243059,0.00112347,-0.00015072,-0.000796
 47,-0.00003537,-0.00005338,0.00009564,0.00023169,-0.00003709,0.0003480
 8,0.00000066,-0.00000095,0.00000047,0.00000041,-0.00000069,-0.00000135
 ,-0.00008614,-0.00006787,-0.00028512,0.00006825,0.00006687,-0.00003833
 ,0.00000368,-0.00001632,-0.00010995,-0.00000545,0.00000097,-0.00000151
 ,0.00000001,0.00000034,-0.00000095,0.00000026,0.00000004,-0.00000020,-
 0.00000119,0.00000024,-0.00000001,-0.00002362,0.00000925,-0.00001292,-
 0.00000007,0.00000057,-0.00000079,-0.00000144,0.00000053,-0.00000038,0
 .05393744,0.00023599,0.00363686,0.00600161,-0.00335660,0.00277192,-0.0
 0479165,-0.00000470,0.00000595,-0.00001025,0.00019921,-0.00038615,-0.0
 0013947,0.00038162,-0.00031655,0.00054112,0.00000031,0.00000292,0.0000
 0763,-0.00000205,-0.00000259,0.00000002,-0.00529378,-0.03399685,-0.032
 86640,0.00000034,-0.00000060,-0.00000010,0.00001048,-0.00002533,-0.000
 00679,-0.00000060,0.00000081,-0.00000013,0.00368069,-0.06595221,-0.061
 05328,-0.00004617,0.00004399,-0.00003734,-0.00189348,0.00086022,0.0004
 9180,0.00059643,0.00035187,-0.00029479,-0.00001058,0.00007078,0.000370
 01,0.00026103,0.00063685,0.00110068,0.00000116,0.00000133,0.00000107,0
 .00000001,0.00000062,0.00000074,0.00005703,-0.00000705,-0.00018066,0.0
 0024457,0.00008916,-0.00004278,-0.00006004,-0.00000928,0.00001934,-0.0
 0000090,0.00000046,0.00000007,0.00000060,-0.00000056,0.00000068,-0.000
 00005,0.00000027,0.00000014,-0.00000003,0.00000025,0.00000012,-0.00000
 234,0.00000404,-0.00000858,-0.00000034,-0.00000025,0.00000007,-0.00000
 002,-0.00000011,0.00000020,0.00555709,0.08600284,0.00040907,-0.0032830
 2,-0.01485071,0.00007580,0.00162731,0.00237502,0.00003481,-0.00002983,
 0.00000907,-0.00137688,0.00019489,0.00005792,0.00005024,-0.00003772,-0
 .00007239,0.00006159,-0.00003623,-0.00000716,0.00000382,0.00001936,-0.
 00000278,-0.00268680,-0.00674828,0.00317013,0.00000003,-0.00000133,0.0
 0000427,-0.00005569,0.00004824,-0.00003272,-0.00001852,0.00000602,-0.0
 0001986,-0.00490173,-0.06549164,-0.28221633,0.00030337,0.00012074,0.00
 031535,0.00287701,0.00059156,-0.00012724,0.00013414,0.00020171,0.00026
 917,0.00013829,-0.00008858,0.00039999,0.00091296,-0.00101301,0.0000786
 3,0.00000141,0.00000371,0.00000036,-0.00000065,0.00000464,0.00000205,0
 .00039818,-0.00031488,0.00047220,0.00002120,-0.00012994,-0.00002230,-0
 .00002238,0.00006676,-0.00017834,0.00000876,-0.00000111,0.00000354,0.0
 0000052,-0.00000150,0.00000237,0.,0.00000019,-0.00000066,0.00000296,0.
 00000008,0.00000028,0.00001606,-0.00000886,-0.00000840,0.00000113,-0.0
 0000133,0.00000320,0.00000576,-0.00000326,0.00000126,0.00356195,0.0776
 4818,0.30342791,-0.02189844,0.01309736,-0.01450675,0.00072487,-0.00196
 478,0.00048090,-0.00012881,0.00012222,-0.00007383,-0.00091056,-0.00335
 712,0.00439663,0.00019956,-0.00049026,0.00003432,-0.00043026,0.0002718
 5,-0.00004159,-0.00001685,-0.00008285,0.00001059,0.00921961,-0.0052921
 2,0.00546093,-0.00000410,0.00001082,-0.00002166,0.00047878,-0.00034743
 ,0.00070701,0.00008115,-0.00000625,0.00010813,-0.20609616,0.09673296,-
 0.10083402,-0.00305244,0.00121829,-0.00095851,0.00160436,0.00021962,0.
 00004540,0.00081050,-0.00034046,-0.00019485,0.00030232,-0.00028501,0.0
 0008036,-0.00007786,-0.00001562,-0.00000221,-0.00000113,-0.00000794,0.
 00000730,0.00000245,-0.00000761,-0.00000470,0.00007659,-0.00016128,-0.
 00010157,0.00007173,0.00016668,-0.00009202,0.00002303,0.00009555,0.000
 01740,-0.00003536,0.00000654,-0.00001557,-0.00000167,0.00000346,-0.000
 00504,-0.00000169,-0.00000143,0.00000456,-0.00001277,-0.00000206,-0.00
 000009,-0.00001985,0.00003531,-0.00002985,-0.00000949,0.00000652,-0.00
 001355,-0.00003564,0.00002038,-0.00001075,0.00099533,-0.00055489,0.000
 04359,0.21814280,-0.00420191,0.00482684,-0.00416372,-0.00443232,-0.004
 21957,-0.00248548,-0.00002767,0.00002888,-0.00002475,-0.00114861,0.000
 08704,0.00114244,-0.00001273,-0.00020539,0.00022413,-0.00008748,0.0000
 6072,-0.00001116,-0.00000433,-0.00001809,0.00000237,0.02712934,-0.0301
 0016,0.02026003,-0.00000043,0.00000187,-0.00000330,0.00001767,-0.00011
 191,0.00018938,0.00001165,0.00000433,0.00002023,0.08674528,-0.10118796
 ,0.05355485,-0.00077909,0.00050012,-0.00017634,0.00028579,-0.00001233,
 0.00014535,0.00064477,0.00021347,-0.00025351,0.00135238,-0.00118826,0.
 00089054,0.00007912,0.00011330,0.00034394,0.00000166,0.00000048,0.0000
 0208,0.00000046,-0.00000152,-0.00000075,0.00010657,-0.00015327,0.00015
 483,0.00025968,0.00015432,-0.00010525,0.00003282,0.00004864,-0.0000432
 0,-0.00000697,0.00000205,-0.00000342,-0.00000072,0.00000040,-0.0000011
 5,-0.00000010,-0.00000019,0.00000054,-0.00000214,-0.00000045,-0.000000
 13,-0.00000472,0.00000742,-0.00001408,-0.00000272,0.00000135,-0.000002
 86,-0.00000709,0.00000403,-0.00000218,-0.00685770,0.00621638,-0.003342
 87,-0.09909046,0.12492744,0.01409517,-0.00861385,0.00819432,0.00082461
 ,-0.00010852,0.00087693,0.00004998,-0.00004633,0.00003063,0.00159609,0
 .00153258,-0.00147441,-0.00002471,-0.00000410,-0.00014831,0.00015262,-
 0.00009235,0.00001199,0.00000724,0.00003060,-0.00000251,0.00190746,-0.
 00024996,0.00180220,0.00000101,-0.00000395,0.00000762,-0.00002209,0.00
 010423,-0.00023977,-0.00002300,0.00000034,-0.00004069,-0.10137396,0.06
 130165,-0.11709169,0.00130990,-0.00041573,0.00050319,-0.00079442,-0.00
 037590,0.00089202,-0.00090677,0.00010397,0.00036727,-0.00019098,0.0001
 5209,0.00024956,0.00018633,-0.00007962,0.00040122,0.00000022,0.0000026
 4,-0.00000310,0.00000004,0.00000398,0.00000181,0.00011694,-0.00009379,
 0.00033955,-0.00001232,-0.00002994,-0.00000592,-0.00003113,-0.00004052
 ,-0.00001352,0.00001308,-0.00000262,0.00000547,0.00000040,-0.00000111,
 0.00000185,0.00000056,0.00000039,-0.00000112,0.00000443,0.00000094,0.0
 0000023,-0.00000068,-0.00001707,0.00000660,0.00000282,-0.00000247,0.00
 000468,0.00001310,-0.00000775,0.00000436,-0.02241137,0.01324875,-0.013
 05381,0.10550944,-0.06629656,0.11837335\\-0.00003154,0.00000663,-0.000
 00086,-0.00003459,-0.00001150,0.00001115,0.00000963,0.00001880,-0.0000
 0111,-0.00014483,-0.00157200,-0.00071396,0.00002017,0.00004639,-0.0000
 1639,-0.00092521,-0.00108179,0.00076097,-0.00001191,-0.00000818,0.0000
 0871,0.00002643,-0.00001194,0.00001571,-0.00002903,-0.00000472,-0.0000
 0600,0.00099700,0.00077882,-0.00131476,0.00006734,-0.00002941,0.000045
 28,0.00001678,0.00001229,0.00001394,0.00003082,0.00184976,0.00124905,0
 .00000690,-0.00000483,-0.00000494,0.00001326,-0.00000471,0.00000508,0.
 00000513,-0.00001427,-0.00000522,-0.00000229,0.00000244,-0.00000729,0.
 00000344,0.00000664,-0.00000427,0.00001060,-0.00000105,0.00000884,0.00
 000512,-0.00000224,-0.00001112,0.00000265,-0.00000301,0.00000762,-0.00
 000157,-0.00001063,-0.00000331,0.00000103,0.00001225,-0.00000842,0.000
 00056,0.00000570,-0.00000288,0.00000387,0.00000241,-0.00000514,0.00000
 543,0.00001572,0.00000646,-0.00000643,-0.00000578,0.00001874,-0.000016
 03,0.00001268,-0.00001754,-0.00001292,0.00000647,-0.00001582,-0.000012
 03,-0.00001069,0.00000008,0.00000222,-0.00000024,-0.00001258\\\@


 THE UNDERLYING PHYSICAL LAWS NECESSARY FOR THE 
 MATHEMATICAL THEORY OF A LARGE PART OF PHYSICS AND THE
 WHOLE OF CHEMISTRY ARE THUS COMPLETELY KNOWN, AND THE
 DIFFICULTY IS ONLY THAT THE EXACT APPLICATION OF THESE
 LAWS LEADS TO EQUATIONS MUCH TOO COMPLICATED 
 TO BE SOLUBLE.

                                        -- P. A. M. DIRAC, 1929
 Job cpu time:       0 days 12 hours  9 minutes 54.0 seconds.
 Elapsed time:       0 days  1 hours  1 minutes  6.7 seconds.
 File lengths (MBytes):  RWF=    722 Int=      0 D2E=      0 Chk=     34 Scr=      1
 Normal termination of Gaussian 16 at Sat Mar  9 11:28:37 2019.
