 Entering Gaussian System, Link 0=g16
 Initial command:
 /sw/Projects/G16/g16/l1.exe "/nvme/pbs/tmpdir/pbs.74204[9].flm1/Gau-21268.inp" -scrdir="/nvme/pbs/tmpdir/pbs.74204[9].flm1/"
 Entering Link 1 = /sw/Projects/G16/g16/l1.exe PID=     21269.
  
 Copyright (c) 1988-2017, Gaussian, Inc.  All Rights Reserved.
  
 This is part of the Gaussian(R) 16 program.  It is based on
 the Gaussian(R) 09 system (copyright 2009, Gaussian, Inc.),
 the Gaussian(R) 03 system (copyright 2003, Gaussian, Inc.),
 the Gaussian(R) 98 system (copyright 1998, Gaussian, Inc.),
 the Gaussian(R) 94 system (copyright 1995, Gaussian, Inc.),
 the Gaussian 92(TM) system (copyright 1992, Gaussian, Inc.),
 the Gaussian 90(TM) system (copyright 1990, Gaussian, Inc.),
 the Gaussian 88(TM) system (copyright 1988, Gaussian, Inc.),
 the Gaussian 86(TM) system (copyright 1986, Carnegie Mellon
 University), and the Gaussian 82(TM) system (copyright 1983,
 Carnegie Mellon University). Gaussian is a federally registered
 trademark of Gaussian, Inc.
  
 This software contains proprietary and confidential information,
 including trade secrets, belonging to Gaussian, Inc.
  
 This software is provided under written license and may be
 used, copied, transmitted, or stored only in accord with that
 written license.
  
 The following legend is applicable only to US Government
 contracts under FAR:
  
                    RESTRICTED RIGHTS LEGEND
  
 Use, reproduction and disclosure by the US Government is
 subject to restrictions as set forth in subparagraphs (a)
 and (c) of the Commercial Computer Software - Restricted
 Rights clause in FAR 52.227-19.
  
 Gaussian, Inc.
 340 Quinnipiac St., Bldg. 40, Wallingford CT 06492
  
  
 ---------------------------------------------------------------
 Warning -- This program may not be used in any manner that
 competes with the business of Gaussian, Inc. or will provide
 assistance to any competitor of Gaussian, Inc.  The licensee
 of this program is prohibited from giving any competitor of
 Gaussian, Inc. access to this program.  By using this program,
 the user acknowledges that Gaussian, Inc. is engaged in the
 business of creating and licensing software in the field of
 computational chemistry and represents and warrants to the
 licensee that it is not a competitor of Gaussian, Inc. and that
 it will not use this program in any manner prohibited above.
 ---------------------------------------------------------------
  

 Cite this work as:
 Gaussian 16, Revision B.01,
 M. J. Frisch, G. W. Trucks, H. B. Schlegel, G. E. Scuseria, 
 M. A. Robb, J. R. Cheeseman, G. Scalmani, V. Barone, 
 G. A. Petersson, H. Nakatsuji, X. Li, M. Caricato, A. V. Marenich, 
 J. Bloino, B. G. Janesko, R. Gomperts, B. Mennucci, H. P. Hratchian, 
 J. V. Ortiz, A. F. Izmaylov, J. L. Sonnenberg, D. Williams-Young, 
 F. Ding, F. Lipparini, F. Egidi, J. Goings, B. Peng, A. Petrone, 
 T. Henderson, D. Ranasinghe, V. G. Zakrzewski, J. Gao, N. Rega, 
 G. Zheng, W. Liang, M. Hada, M. Ehara, K. Toyota, R. Fukuda, 
 J. Hasegawa, M. Ishida, T. Nakajima, Y. Honda, O. Kitao, H. Nakai, 
 T. Vreven, K. Throssell, J. A. Montgomery, Jr., J. E. Peralta, 
 F. Ogliaro, M. J. Bearpark, J. J. Heyd, E. N. Brothers, K. N. Kudin, 
 V. N. Staroverov, T. A. Keith, R. Kobayashi, J. Normand, 
 K. Raghavachari, A. P. Rendell, J. C. Burant, S. S. Iyengar, 
 J. Tomasi, M. Cossi, J. M. Millam, M. Klene, C. Adamo, R. Cammi, 
 J. W. Ochterski, R. L. Martin, K. Morokuma, O. Farkas, 
 J. B. Foresman, and D. J. Fox, Gaussian, Inc., Wallingford CT, 2016.
 
 ******************************************
 Gaussian 16:  ES64L-G16RevB.01 20-Dec-2017
                 9-Mar-2019 
 ******************************************
 %mem=20gb
 %nproc=12
 Will use up to   12 processors via shared memory.
 %chk=4c1_b1_e3_4c1_PHI.inp_extract_9.chk
 ----------------------------------------------------------------------
 #M062X/6-311++G(2d,2p) opt=ModRedundant freq=noraman SCRF=(SMD,solvent
 =water)
 ----------------------------------------------------------------------
 1/18=120,19=15,26=3,38=1/1,3;
 2/9=110,12=2,17=6,18=5,40=1/2;
 3/5=4,6=6,7=1212,11=2,25=1,30=1,70=32201,71=1,72=1,74=-55/1,2,3;
 4//1;
 5/5=2,38=5,53=1/2;
 6/7=2,8=2,9=2,10=2,28=1/1;
 7//1,2,3,16;
 1/18=20,19=15,26=3/3(2);
 2/9=110/2;
 99//99;
 2/9=110/2;
 3/5=4,6=6,7=1212,11=2,25=1,30=1,70=32205,71=1,72=1,74=-55/1,2,3;
 4/5=5,16=3,69=1/1;
 5/5=2,38=5,53=1/2;
 7//1,2,3,16;
 1/18=20,19=15,26=3/3(-5);
 2/9=110/2;
 6/7=2,8=2,9=2,10=2,19=2,28=1/1;
 99/9=1/99;
 -------------------------------
 4c1_b1_e3_4c1_PHI.inp_extract_9
 -------------------------------
 Symbolic Z-matrix:
 Charge =  0 Multiplicity = 1
 C                     1.78513  -1.144     0.53314 
 C                     3.1464    1.03714  -0.72594 
 C                    -1.92156   1.31844   0.03713 
 C                     1.0083    0.12422   0.19881 
 C                     1.9572    1.31649   0.1832 
 O                    -1.48441  -1.04437   0.15392 
 C                    -3.38329   1.03552  -0.31995 
 O                     3.81593  -0.1489   -0.34613 
 C                    -3.50677  -0.33748  -0.98073 
 C                    -1.34447   0.16774   0.84892 
 C                    -2.83333  -1.39271  -0.11897 
 C                     2.98275  -1.29043  -0.39617 
 O                    -0.00063   0.35873   1.17427 
 H                     2.13174  -1.08667   1.56172 
 H                     1.15113  -2.01957   0.4434 
 H                     3.8736    1.83502  -0.66719 
 H                     2.82361   0.94674  -1.76086 
 H                    -1.33532   1.44294  -0.86904 
 H                    -1.83411   2.23144   0.61767 
 H                     0.55372   0.02114  -0.77758 
 H                     1.44018   2.2071   -0.16128 
 H                     2.31096   1.50548   1.19329 
 H                    -3.76567   1.81284  -0.97373 
 H                    -3.98746   1.05593   0.58501 
 H                    -3.03427  -0.32236  -1.95991 
 H                    -4.54892  -0.60806  -1.12477 
 H                    -1.85718   0.0894    1.80097 
 H                    -3.36367  -1.51399   0.82258 
 H                    -2.79774  -2.35237  -0.615 
 H                     2.65468  -1.44539  -1.42177 
 H                     3.59542  -2.13287  -0.10674 
 
 The following ModRedundant input section has been read:
 D       6      10      13       4 F                                           
 

 GradGradGradGradGradGradGradGradGradGradGradGradGradGradGradGradGradGrad
 Berny optimization.
 Initialization pass.
                           ----------------------------
                           !    Initial Parameters    !
                           ! (Angstroms and Degrees)  !
 --------------------------                            --------------------------
 ! Name  Definition              Value          Derivative Info.                !
 --------------------------------------------------------------------------------
 ! R1    R(1,4)                  1.5243         estimate D2E/DX2                !
 ! R2    R(1,12)                 1.5229         estimate D2E/DX2                !
 ! R3    R(1,14)                 1.0869         estimate D2E/DX2                !
 ! R4    R(1,15)                 1.0847         estimate D2E/DX2                !
 ! R5    R(2,5)                  1.5228         estimate D2E/DX2                !
 ! R6    R(2,8)                  1.4139         estimate D2E/DX2                !
 ! R7    R(2,16)                 1.0811         estimate D2E/DX2                !
 ! R8    R(2,17)                 1.0879         estimate D2E/DX2                !
 ! R9    R(3,7)                  1.5311         estimate D2E/DX2                !
 ! R10   R(3,10)                 1.5219         estimate D2E/DX2                !
 ! R11   R(3,18)                 1.0864         estimate D2E/DX2                !
 ! R12   R(3,19)                 1.0855         estimate D2E/DX2                !
 ! R13   R(4,5)                  1.5239         estimate D2E/DX2                !
 ! R14   R(4,13)                 1.4228         estimate D2E/DX2                !
 ! R15   R(4,20)                 1.0819         estimate D2E/DX2                !
 ! R16   R(5,21)                 1.0859         estimate D2E/DX2                !
 ! R17   R(5,22)                 1.0868         estimate D2E/DX2                !
 ! R18   R(6,10)                 1.4042         estimate D2E/DX2                !
 ! R19   R(6,11)                 1.4196         estimate D2E/DX2                !
 ! R20   R(7,9)                  1.5287         estimate D2E/DX2                !
 ! R21   R(7,23)                 1.0853         estimate D2E/DX2                !
 ! R22   R(7,24)                 1.0883         estimate D2E/DX2                !
 ! R23   R(8,12)                 1.4141         estimate D2E/DX2                !
 ! R24   R(9,11)                 1.5198         estimate D2E/DX2                !
 ! R25   R(9,25)                 1.0873         estimate D2E/DX2                !
 ! R26   R(9,26)                 1.0863         estimate D2E/DX2                !
 ! R27   R(10,13)                1.3958         estimate D2E/DX2                !
 ! R28   R(10,27)                1.0842         estimate D2E/DX2                !
 ! R29   R(11,28)                1.0874         estimate D2E/DX2                !
 ! R30   R(11,29)                1.0809         estimate D2E/DX2                !
 ! R31   R(12,30)                1.0879         estimate D2E/DX2                !
 ! R32   R(12,31)                1.0811         estimate D2E/DX2                !
 ! A1    A(4,1,12)             110.2985         estimate D2E/DX2                !
 ! A2    A(4,1,14)             109.0379         estimate D2E/DX2                !
 ! A3    A(4,1,15)             110.827          estimate D2E/DX2                !
 ! A4    A(12,1,14)            109.3756         estimate D2E/DX2                !
 ! A5    A(12,1,15)            109.3614         estimate D2E/DX2                !
 ! A6    A(14,1,15)            107.8934         estimate D2E/DX2                !
 ! A7    A(5,2,8)              111.3031         estimate D2E/DX2                !
 ! A8    A(5,2,16)             110.9447         estimate D2E/DX2                !
 ! A9    A(5,2,17)             110.5789         estimate D2E/DX2                !
 ! A10   A(8,2,16)             106.6157         estimate D2E/DX2                !
 ! A11   A(8,2,17)             109.0468         estimate D2E/DX2                !
 ! A12   A(16,2,17)            108.2164         estimate D2E/DX2                !
 ! A13   A(7,3,10)             110.2857         estimate D2E/DX2                !
 ! A14   A(7,3,18)             109.9873         estimate D2E/DX2                !
 ! A15   A(7,3,19)             110.9209         estimate D2E/DX2                !
 ! A16   A(10,3,18)            109.0829         estimate D2E/DX2                !
 ! A17   A(10,3,19)            108.6713         estimate D2E/DX2                !
 ! A18   A(18,3,19)            107.8319         estimate D2E/DX2                !
 ! A19   A(1,4,5)              109.6241         estimate D2E/DX2                !
 ! A20   A(1,4,13)             110.3724         estimate D2E/DX2                !
 ! A21   A(1,4,20)             109.4377         estimate D2E/DX2                !
 ! A22   A(5,4,13)             108.64           estimate D2E/DX2                !
 ! A23   A(5,4,20)             109.0826         estimate D2E/DX2                !
 ! A24   A(13,4,20)            109.6616         estimate D2E/DX2                !
 ! A25   A(2,5,4)              110.419          estimate D2E/DX2                !
 ! A26   A(2,5,21)             109.4441         estimate D2E/DX2                !
 ! A27   A(2,5,22)             109.4255         estimate D2E/DX2                !
 ! A28   A(4,5,21)             110.3936         estimate D2E/DX2                !
 ! A29   A(4,5,22)             109.2223         estimate D2E/DX2                !
 ! A30   A(21,5,22)            107.8906         estimate D2E/DX2                !
 ! A31   A(10,6,11)            113.6806         estimate D2E/DX2                !
 ! A32   A(3,7,9)              110.1141         estimate D2E/DX2                !
 ! A33   A(3,7,23)             110.1519         estimate D2E/DX2                !
 ! A34   A(3,7,24)             109.4274         estimate D2E/DX2                !
 ! A35   A(9,7,23)             110.7582         estimate D2E/DX2                !
 ! A36   A(9,7,24)             109.3556         estimate D2E/DX2                !
 ! A37   A(23,7,24)            106.9705         estimate D2E/DX2                !
 ! A38   A(2,8,12)             112.869          estimate D2E/DX2                !
 ! A39   A(7,9,11)             110.0425         estimate D2E/DX2                !
 ! A40   A(7,9,25)             109.9777         estimate D2E/DX2                !
 ! A41   A(7,9,26)             111.0094         estimate D2E/DX2                !
 ! A42   A(11,9,25)            109.1313         estimate D2E/DX2                !
 ! A43   A(11,9,26)            109.1087         estimate D2E/DX2                !
 ! A44   A(25,9,26)            107.5144         estimate D2E/DX2                !
 ! A45   A(3,10,6)             110.5405         estimate D2E/DX2                !
 ! A46   A(3,10,13)            112.7032         estimate D2E/DX2                !
 ! A47   A(3,10,27)            110.1034         estimate D2E/DX2                !
 ! A48   A(6,10,13)            109.2343         estimate D2E/DX2                !
 ! A49   A(6,10,27)            108.9733         estimate D2E/DX2                !
 ! A50   A(13,10,27)           105.0996         estimate D2E/DX2                !
 ! A51   A(6,11,9)             111.0803         estimate D2E/DX2                !
 ! A52   A(6,11,28)            108.9254         estimate D2E/DX2                !
 ! A53   A(6,11,29)            105.9496         estimate D2E/DX2                !
 ! A54   A(9,11,28)            110.6277         estimate D2E/DX2                !
 ! A55   A(9,11,29)            111.7678         estimate D2E/DX2                !
 ! A56   A(28,11,29)           108.3241         estimate D2E/DX2                !
 ! A57   A(1,12,8)             111.3529         estimate D2E/DX2                !
 ! A58   A(1,12,30)            110.5988         estimate D2E/DX2                !
 ! A59   A(1,12,31)            110.9284         estimate D2E/DX2                !
 ! A60   A(8,12,30)            109.0274         estimate D2E/DX2                !
 ! A61   A(8,12,31)            106.5978         estimate D2E/DX2                !
 ! A62   A(30,12,31)           108.1972         estimate D2E/DX2                !
 ! A63   A(4,13,10)            120.0228         estimate D2E/DX2                !
 ! D1    D(12,1,4,5)           -52.5481         estimate D2E/DX2                !
 ! D2    D(12,1,4,13)         -172.1769         estimate D2E/DX2                !
 ! D3    D(12,1,4,20)           67.049          estimate D2E/DX2                !
 ! D4    D(14,1,4,5)            67.5729         estimate D2E/DX2                !
 ! D5    D(14,1,4,13)          -52.0559         estimate D2E/DX2                !
 ! D6    D(14,1,4,20)         -172.83           estimate D2E/DX2                !
 ! D7    D(15,1,4,5)          -173.8062         estimate D2E/DX2                !
 ! D8    D(15,1,4,13)           66.565          estimate D2E/DX2                !
 ! D9    D(15,1,4,20)          -54.2091         estimate D2E/DX2                !
 ! D10   D(4,1,12,8)            55.8872         estimate D2E/DX2                !
 ! D11   D(4,1,12,30)          -65.5051         estimate D2E/DX2                !
 ! D12   D(4,1,12,31)          174.4342         estimate D2E/DX2                !
 ! D13   D(14,1,12,8)          -64.0302         estimate D2E/DX2                !
 ! D14   D(14,1,12,30)         174.5775         estimate D2E/DX2                !
 ! D15   D(14,1,12,31)          54.5168         estimate D2E/DX2                !
 ! D16   D(15,1,12,8)          178.0138         estimate D2E/DX2                !
 ! D17   D(15,1,12,30)          56.6215         estimate D2E/DX2                !
 ! D18   D(15,1,12,31)         -63.4393         estimate D2E/DX2                !
 ! D19   D(8,2,5,4)            -55.7869         estimate D2E/DX2                !
 ! D20   D(8,2,5,21)          -177.5049         estimate D2E/DX2                !
 ! D21   D(8,2,5,22)            64.4647         estimate D2E/DX2                !
 ! D22   D(16,2,5,4)          -174.3347         estimate D2E/DX2                !
 ! D23   D(16,2,5,21)           63.9472         estimate D2E/DX2                !
 ! D24   D(16,2,5,22)          -54.0831         estimate D2E/DX2                !
 ! D25   D(17,2,5,4)            65.5827         estimate D2E/DX2                !
 ! D26   D(17,2,5,21)          -56.1353         estimate D2E/DX2                !
 ! D27   D(17,2,5,22)         -174.1657         estimate D2E/DX2                !
 ! D28   D(5,2,8,12)            59.7775         estimate D2E/DX2                !
 ! D29   D(16,2,8,12)         -179.1069         estimate D2E/DX2                !
 ! D30   D(17,2,8,12)          -62.4819         estimate D2E/DX2                !
 ! D31   D(10,3,7,9)           -52.423          estimate D2E/DX2                !
 ! D32   D(10,3,7,23)         -174.8656         estimate D2E/DX2                !
 ! D33   D(10,3,7,24)           67.8044         estimate D2E/DX2                !
 ! D34   D(18,3,7,9)            67.9306         estimate D2E/DX2                !
 ! D35   D(18,3,7,23)          -54.512          estimate D2E/DX2                !
 ! D36   D(18,3,7,24)         -171.842          estimate D2E/DX2                !
 ! D37   D(19,3,7,9)          -172.8672         estimate D2E/DX2                !
 ! D38   D(19,3,7,23)           64.6902         estimate D2E/DX2                !
 ! D39   D(19,3,7,24)          -52.6398         estimate D2E/DX2                !
 ! D40   D(7,3,10,6)            55.9553         estimate D2E/DX2                !
 ! D41   D(7,3,10,13)          178.5102         estimate D2E/DX2                !
 ! D42   D(7,3,10,27)          -64.5002         estimate D2E/DX2                !
 ! D43   D(18,3,10,6)          -64.9404         estimate D2E/DX2                !
 ! D44   D(18,3,10,13)          57.6145         estimate D2E/DX2                !
 ! D45   D(18,3,10,27)         174.6041         estimate D2E/DX2                !
 ! D46   D(19,3,10,6)          177.7412         estimate D2E/DX2                !
 ! D47   D(19,3,10,13)         -59.704          estimate D2E/DX2                !
 ! D48   D(19,3,10,27)          57.2857         estimate D2E/DX2                !
 ! D49   D(1,4,5,2)             52.5441         estimate D2E/DX2                !
 ! D50   D(1,4,5,21)           173.6993         estimate D2E/DX2                !
 ! D51   D(1,4,5,22)           -67.8294         estimate D2E/DX2                !
 ! D52   D(13,4,5,2)           173.2291         estimate D2E/DX2                !
 ! D53   D(13,4,5,21)          -65.6156         estimate D2E/DX2                !
 ! D54   D(13,4,5,22)           52.8557         estimate D2E/DX2                !
 ! D55   D(20,4,5,2)           -67.2706         estimate D2E/DX2                !
 ! D56   D(20,4,5,21)           53.8847         estimate D2E/DX2                !
 ! D57   D(20,4,5,22)          172.356          estimate D2E/DX2                !
 ! D58   D(1,4,13,10)         -108.2178         estimate D2E/DX2                !
 ! D59   D(5,4,13,10)          131.5603         estimate D2E/DX2                !
 ! D60   D(20,4,13,10)          12.4224         estimate D2E/DX2                !
 ! D61   D(11,6,10,3)          -60.811          estimate D2E/DX2                !
 ! D62   D(11,6,10,13)         174.6295         estimate D2E/DX2                !
 ! D63   D(11,6,10,27)          60.3175         estimate D2E/DX2                !
 ! D64   D(10,6,11,9)           60.6371         estimate D2E/DX2                !
 ! D65   D(10,6,11,28)         -61.4567         estimate D2E/DX2                !
 ! D66   D(10,6,11,29)        -177.794          estimate D2E/DX2                !
 ! D67   D(3,7,9,11)            51.8555         estimate D2E/DX2                !
 ! D68   D(3,7,9,25)           -68.3974         estimate D2E/DX2                !
 ! D69   D(3,7,9,26)           172.7452         estimate D2E/DX2                !
 ! D70   D(23,7,9,11)          173.9399         estimate D2E/DX2                !
 ! D71   D(23,7,9,25)           53.687          estimate D2E/DX2                !
 ! D72   D(23,7,9,26)          -65.1704         estimate D2E/DX2                !
 ! D73   D(24,7,9,11)          -68.4152         estimate D2E/DX2                !
 ! D74   D(24,7,9,25)          171.3319         estimate D2E/DX2                !
 ! D75   D(24,7,9,26)           52.4745         estimate D2E/DX2                !
 ! D76   D(2,8,12,1)           -59.8814         estimate D2E/DX2                !
 ! D77   D(2,8,12,30)           62.4223         estimate D2E/DX2                !
 ! D78   D(2,8,12,31)          179.0052         estimate D2E/DX2                !
 ! D79   D(7,9,11,6)           -54.9436         estimate D2E/DX2                !
 ! D80   D(7,9,11,28)           66.155          estimate D2E/DX2                !
 ! D81   D(7,9,11,29)         -173.0454         estimate D2E/DX2                !
 ! D82   D(25,9,11,6)           65.8195         estimate D2E/DX2                !
 ! D83   D(25,9,11,28)        -173.0819         estimate D2E/DX2                !
 ! D84   D(25,9,11,29)         -52.2823         estimate D2E/DX2                !
 ! D85   D(26,9,11,6)         -176.9678         estimate D2E/DX2                !
 ! D86   D(26,9,11,28)         -55.8692         estimate D2E/DX2                !
 ! D87   D(26,9,11,29)          64.9304         estimate D2E/DX2                !
 ! D88   D(3,10,13,4)          -78.0562         estimate D2E/DX2                !
 ! D89   D(6,10,13,4)           45.2285         Frozen                          !
 ! D90   D(27,10,13,4)         162.0237         estimate D2E/DX2                !
 --------------------------------------------------------------------------------
 Trust Radius=3.00D-01 FncErr=1.00D-07 GrdErr=1.00D-06 EigMax=2.50D+02 EigMin=1.00D-04
 Number of steps in this run=    186 maximum allowed number of steps=    186.
 GradGradGradGradGradGradGradGradGradGradGradGradGradGradGradGradGradGrad

                          Input orientation:                          
 ---------------------------------------------------------------------
 Center     Atomic      Atomic             Coordinates (Angstroms)
 Number     Number       Type             X           Y           Z
 ---------------------------------------------------------------------
      1          6           0        1.785132   -1.143995    0.533143
      2          6           0        3.146403    1.037144   -0.725936
      3          6           0       -1.921560    1.318441    0.037133
      4          6           0        1.008301    0.124223    0.198806
      5          6           0        1.957196    1.316487    0.183203
      6          8           0       -1.484409   -1.044367    0.153920
      7          6           0       -3.383287    1.035516   -0.319946
      8          8           0        3.815930   -0.148902   -0.346126
      9          6           0       -3.506774   -0.337482   -0.980727
     10          6           0       -1.344466    0.167737    0.848917
     11          6           0       -2.833329   -1.392710   -0.118971
     12          6           0        2.982748   -1.290429   -0.396171
     13          8           0       -0.000631    0.358726    1.174273
     14          1           0        2.131736   -1.086674    1.561716
     15          1           0        1.151130   -2.019568    0.443397
     16          1           0        3.873604    1.835022   -0.667193
     17          1           0        2.823606    0.946735   -1.760856
     18          1           0       -1.335320    1.442941   -0.869039
     19          1           0       -1.834106    2.231445    0.617668
     20          1           0        0.553717    0.021138   -0.777584
     21          1           0        1.440180    2.207096   -0.161278
     22          1           0        2.310963    1.505478    1.193287
     23          1           0       -3.765671    1.812843   -0.973733
     24          1           0       -3.987461    1.055934    0.585008
     25          1           0       -3.034269   -0.322356   -1.959911
     26          1           0       -4.548917   -0.608058   -1.124773
     27          1           0       -1.857177    0.089400    1.800973
     28          1           0       -3.363673   -1.513990    0.822582
     29          1           0       -2.797744   -2.352370   -0.615000
     30          1           0        2.654679   -1.445385   -1.421768
     31          1           0        3.595418   -2.132875   -0.106739
 ---------------------------------------------------------------------
                    Distance matrix (angstroms):
                    1          2          3          4          5
     1  C    0.000000
     2  C    2.862814   0.000000
     3  C    4.477631   5.132802   0.000000
     4  C    1.524344   2.502010   3.168025   0.000000
     5  C    2.491192   1.522754   3.881506   1.523856   0.000000
     6  O    3.292967   5.152791   2.405744   2.753402   4.173624
     7  C    5.673675   6.542299   1.531077   4.515042   5.371486
     8  O    2.426410   1.413940   5.934541   2.873035   2.425375
     9  C    5.562961   6.798476   2.508191   4.689389   5.826261
    10  C    3.408040   4.837761   1.521890   2.441321   3.558620
    11  C    4.670899   6.483039   2.864617   4.142486   5.511823
    12  C    1.522942   2.356507   5.571911   2.500736   2.860672
    13  O    2.420365   3.738298   2.429837   1.422839   2.394287
    14  H    1.086914   3.282302   4.953599   2.141472   2.775958
    15  H    1.084731   3.833007   4.555083   2.162421   3.441904
    16  H    3.831066   1.081148   5.860619   3.447716   2.159785
    17  H    3.272921   1.087856   5.087979   2.795019   2.160266
    18  H    4.289006   4.502332   1.086428   2.893418   3.458882
    19  H    4.949709   5.295007   1.085470   3.563019   3.924268
    20  H    2.142877   2.785131   2.910972   1.081948   2.137942
    21  H    3.439625   2.144487   3.482868   2.157438   1.085890
    22  H    2.780647   2.144927   4.391574   2.143312   1.086802
    23  H    6.467224   6.959876   2.160331   5.197797   5.859699
    24  H    6.177800   7.253340   2.153375   5.096555   5.963915
    25  H    5.487899   6.447607   2.813987   4.604548   5.673929
    26  H    6.569330   7.879322   3.458964   5.759407   6.909716
    27  H    4.049083   5.685007   2.150772   3.283156   4.321153
    28  H    5.170190   7.161514   3.274032   4.710307   6.060697
    29  H    4.876593   6.843537   3.829860   4.613217   6.058638
    30  H    2.160700   2.624676   5.541578   2.792936   3.269610
    31  H    2.159738   3.260988   6.509173   3.446886   3.829613
                    6          7          8          9         10
     6  O    0.000000
     7  C    2.855906   0.000000
     8  O    5.398657   7.296044   0.000000
     9  C    2.424267   1.528726   7.352569   0.000000
    10  C    1.404208   2.505209   5.306418   2.877224   0.000000
    11  C    1.419647   2.497824   6.768405   1.519756   2.364004
    12  C    4.507620   6.778070   1.414136   6.585113   4.732998
    13  O    2.282846   3.759401   4.139497   4.173939   1.395789
    14  H    3.880745   6.201598   2.712155   6.230417   3.763723
    15  H    2.825045   5.520613   3.350208   5.153020   3.343165
    16  H    6.137867   7.309053   2.010563   7.699874   5.683897
    17  H    5.117602   6.372568   2.046115   6.506268   4.979014
    18  H    2.693580   2.159089   5.416898   2.810266   2.139533
    19  H    3.326905   2.170099   6.206276   3.457177   2.133568
    20  H    2.481322   4.091258   3.295012   4.081355   2.504016
    21  H    4.384585   4.966247   3.350982   5.623053   3.596350
    22  H    4.689013   5.910602   2.715086   6.478341   3.907723
    23  H    3.826148   1.085307   7.856399   2.165866   3.448284
    24  H    3.295811   1.088294   7.950569   2.150394   2.800708
    25  H    2.718758   2.157572   7.039859   1.087332   3.314384
    26  H    3.349124   2.169741   8.413547   1.086288   3.842631
    27  H    2.034003   2.778929   6.070500   3.262093   1.084168
    28  H    2.049216   2.793875   7.401084   2.157909   2.627945
    29  H    2.006728   3.450752   6.976263   2.167084   3.256687
    30  H    4.446983   6.620114   2.046064   6.275784   4.873534
    31  H    5.201676   7.667234   2.010493   7.377562   5.532499
                   11         12         13         14         15
    11  C    0.000000
    12  C    5.823577   0.000000
    13  O    3.572700   3.753206   0.000000
    14  H    5.250737   2.144542   2.605049   0.000000
    15  H    4.072484   2.142742   2.741718   1.755710   0.000000
    16  H    7.463361   3.261215   4.536534   4.066749   4.848004
    17  H    6.337957   2.625375   4.115465   3.956377   4.056459
    18  H    3.293562   5.132312   2.670588   4.932342   4.460257
    19  H    3.830872   6.052565   2.679275   5.256334   5.197414
    20  H    3.728916   2.786732   2.056943   3.031454   2.451974
    21  H    5.587779   3.829801   2.697426   3.780989   4.279471
    22  H    6.048575   3.285539   2.580478   2.624331   3.785960
    23  H    3.446077   7.450170   4.572080   7.043799   6.393009
    24  H    2.797046   7.419700   4.090006   6.556623   5.990316
    25  H    2.138947   6.291815   4.414741   6.298702   5.116051
    26  H    2.137886   7.597530   5.187214   7.216469   6.077997
    27  H    2.614519   5.491470   1.977891   4.165552   3.916717
    28  H    1.087426   6.466251   3.865334   5.561334   4.558820
    29  H    1.080860   5.881300   4.286651   5.535328   4.101776
    30  H    5.640770   1.087883   4.128549   3.050134   2.463572
    31  H    6.471227   1.081134   4.558578   2.453700   2.507994
                   16         17         18         19         20
    16  H    0.000000
    17  H    1.757171   0.000000
    18  H    5.227558   4.282315   0.000000
    19  H    5.863955   5.385363   1.755228   0.000000
    20  H    3.784708   2.641202   2.366083   3.540323   0.000000
    21  H    2.513154   2.461915   2.964500   3.365754   2.438045
    22  H    2.451904   3.049911   4.189568   4.247348   3.029111
    23  H    7.645455   6.692404   2.460568   2.537465   4.680363
    24  H    7.998208   7.204557   3.049242   2.453534   4.852809
    25  H    7.351470   5.997075   2.681921   3.821806   3.793353
    26  H    8.781622   7.561487   3.820890   4.297566   5.152990
    27  H    6.479266   5.944020   3.038646   2.447264   3.530726
    28  H    8.112551   7.142250   3.964749   4.050907   4.501455
    29  H    7.876792   6.617904   4.075243   4.843493   4.110020
    30  H    3.579976   2.421932   4.956615   6.150412   2.641913
    31  H    4.016927   3.579915   6.138382   7.003698   3.787050
                   21         22         23         24         25
    21  H    0.000000
    22  H    1.756524   0.000000
    23  H    5.283598   6.458787   0.000000
    24  H    5.598339   6.343677   1.746933   0.000000
    25  H    5.445540   6.469555   2.463041   3.047109   0.000000
    26  H    6.687503   7.543102   2.548931   2.451011   1.753066
    27  H    4.382651   4.443867   3.783067   2.636450   3.962239
    28  H    6.155604   6.438641   3.802127   2.655195   3.044793
    29  H    6.241362   6.652201   4.291220   3.804206   2.446566
    30  H    4.050242   3.957808   7.213715   7.375756   5.823652
    31  H    4.845965   4.071548   8.396785   8.255124   7.117933
                   26         27         28         29         30
    26  H    0.000000
    27  H    4.036323   0.000000
    28  H    2.453102   2.407829   0.000000
    29  H    2.523708   3.561437   1.757782   0.000000
    30  H    7.258176   5.753127   6.423580   5.585912   0.000000
    31  H    8.348153   6.189399   7.048092   6.417089   1.756967
                   31
    31  H    0.000000
 Stoichiometry    C10H18O3
 Framework group  C1[X(C10H18O3)]
 Deg. of freedom    87
 Full point group                 C1      NOp   1
 Largest Abelian subgroup         C1      NOp   1
 Largest concise Abelian subgroup C1      NOp   1
                         Standard orientation:                         
 ---------------------------------------------------------------------
 Center     Atomic      Atomic             Coordinates (Angstroms)
 Number     Number       Type             X           Y           Z
 ---------------------------------------------------------------------
      1          6           0       -1.785132    1.143995    0.533143
      2          6           0       -3.146403   -1.037144   -0.725936
      3          6           0        1.921560   -1.318441    0.037133
      4          6           0       -1.008301   -0.124223    0.198806
      5          6           0       -1.957196   -1.316487    0.183203
      6          8           0        1.484409    1.044367    0.153920
      7          6           0        3.383287   -1.035516   -0.319946
      8          8           0       -3.815930    0.148902   -0.346126
      9          6           0        3.506774    0.337482   -0.980727
     10          6           0        1.344466   -0.167737    0.848917
     11          6           0        2.833329    1.392710   -0.118971
     12          6           0       -2.982748    1.290429   -0.396171
     13          8           0        0.000631   -0.358726    1.174273
     14          1           0       -2.131736    1.086674    1.561716
     15          1           0       -1.151130    2.019568    0.443397
     16          1           0       -3.873604   -1.835022   -0.667193
     17          1           0       -2.823606   -0.946735   -1.760856
     18          1           0        1.335320   -1.442941   -0.869039
     19          1           0        1.834106   -2.231445    0.617668
     20          1           0       -0.553717   -0.021138   -0.777584
     21          1           0       -1.440180   -2.207096   -0.161278
     22          1           0       -2.310963   -1.505478    1.193287
     23          1           0        3.765671   -1.812843   -0.973733
     24          1           0        3.987461   -1.055934    0.585008
     25          1           0        3.034269    0.322356   -1.959911
     26          1           0        4.548917    0.608058   -1.124773
     27          1           0        1.857177   -0.089400    1.800973
     28          1           0        3.363673    1.513990    0.822582
     29          1           0        2.797744    2.352370   -0.615000
     30          1           0       -2.654679    1.445385   -1.421768
     31          1           0       -3.595418    2.132875   -0.106739
 ---------------------------------------------------------------------
 Rotational constants (GHZ):           1.8567051           0.4000677           0.3677802
 Standard basis: 6-311++G(2d,2p) (5D, 7F)
 There are   557 symmetry adapted cartesian basis functions of A   symmetry.
 There are   531 symmetry adapted basis functions of A   symmetry.
   531 basis functions,   762 primitive gaussians,   557 cartesian basis functions
    51 alpha electrons       51 beta electrons
       nuclear repulsion energy       887.6089526692 Hartrees.
 NAtoms=   31 NActive=   31 NUniq=   31 SFac= 1.00D+00 NAtFMM=   60 NAOKFM=F Big=F
 Integral buffers will be    131072 words long.
 Raffenetti 2 integral format.
 Two-electron integral symmetry is turned on.
 ------------------------------------------------------------------------------
 Polarizable Continuum Model (PCM)
 =================================
 Model                : PCM.
 Atomic radii         : SMD-Coulomb.
 Polarization charges : Total charges.
 Charge compensation  : None.
 Solution method      : On-the-fly selection.
 Cavity type          : VdW (van der Waals Surface) (Alpha=1.000).
 Cavity algorithm     : GePol (No added spheres)
                        Default sphere list used, NSphG=   31.
                        Lebedev-Laikov grids with approx.  5.0 points / Ang**2.
                        Smoothing algorithm: York/Karplus (Gamma=1.0000).
                        Polarization charges: spherical gaussians, with
                                              point-specific exponents (IZeta= 3).
                        Self-potential: point-specific (ISelfS= 7).
                        Self-field    : sphere-specific E.n sum rule (ISelfD= 2).
 1st derivatives      : Analytical E(r).r(x)/FMM algorithm (CHGder, D1EAlg=3).
                        Cavity 1st derivative terms included.
 Solvent              : Water, Eps=  78.355300 Eps(inf)=   1.777849
 ------------------------------------------------------------------------------
 ------------------------------------------------------------------------------
 Atomic radii for non-electrostatic terms: SMD-CDS.
 ------------------------------------------------------------------------------
 Nuclear repulsion after PCM non-electrostatic terms =      887.6154439007 Hartrees.
 One-electron integrals computed using PRISM.
 NBasis=   531 RedAO= T EigKep=  5.36D-06  NBF=   531
 NBsUse=   531 1.00D-06 EigRej= -1.00D+00 NBFU=   531
 ExpMin= 3.60D-02 ExpMax= 8.59D+03 ExpMxC= 1.30D+03 IAcc=3 IRadAn=         5 AccDes= 0.00D+00
 Harris functional with IExCor= 1009 and IRadAn=       5 diagonalized for initial guess.
 HarFok:  IExCor= 1009 AccDes= 0.00D+00 IRadAn=         5 IDoV= 1 UseB2=F ITyADJ=14
 ICtDFT=  3500011 ScaDFX=  1.000000  1.000000  1.000000  1.000000
 FoFCou: FMM=F IPFlag=           0 FMFlag=      100000 FMFlg1=           0
         NFxFlg=           0 DoJE=T BraDBF=F KetDBF=T FulRan=T
         wScrn=  0.000000 ICntrl=       500 IOpCl=  0 I1Cent=   200000004 NGrid=           0
         NMat0=    1 NMatS0=      1 NMatT0=    0 NMatD0=    1 NMtDS0=    0 NMtDT0=    0
 Petite list used in FoFCou.
 Requested convergence on RMS density matrix=1.00D-08 within 128 cycles.
 Requested convergence on MAX density matrix=1.00D-06.
 Requested convergence on             energy=1.00D-06.
 No special actions if energy rises.
 Inv3:  Mode=1 IEnd=    12132363.
 Iteration    1 A*A^-1 deviation from unit magnitude is 8.55D-15 for    380.
 Iteration    1 A*A^-1 deviation from orthogonality  is 4.43D-15 for   1514    178.
 Iteration    1 A^-1*A deviation from unit magnitude is 8.77D-15 for    380.
 Iteration    1 A^-1*A deviation from orthogonality  is 4.98D-13 for   1527   1521.
 Error on total polarization charges =  0.06220
 SCF Done:  E(RM062X) =  -617.503689555     A.U. after   12 cycles
            NFock= 12  Conv=0.49D-08     -V/T= 2.0035
 SMD-CDS (non-electrostatic) energy       (kcal/mol) =       4.07
 (included in total energy above)

 **********************************************************************

            Population analysis using the SCF Density.

 **********************************************************************

 Orbital symmetries:
       Occupied  (A) (A) (A) (A) (A) (A) (A) (A) (A) (A) (A) (A)
                 (A) (A) (A) (A) (A) (A) (A) (A) (A) (A) (A) (A)
                 (A) (A) (A) (A) (A) (A) (A) (A) (A) (A) (A) (A)
                 (A) (A) (A) (A) (A) (A) (A) (A) (A) (A) (A) (A)
                 (A) (A) (A)
       Virtual   (A) (A) (A) (A) (A) (A) (A) (A) (A) (A) (A) (A)
                 (A) (A) (A) (A) (A) (A) (A) (A) (A) (A) (A) (A)
                 (A) (A) (A) (A) (A) (A) (A) (A) (A) (A) (A) (A)
                 (A) (A) (A) (A) (A) (A) (A) (A) (A) (A) (A) (A)
                 (A) (A) (A) (A) (A) (A) (A) (A) (A) (A) (A) (A)
                 (A) (A) (A) (A) (A) (A) (A) (A) (A) (A) (A) (A)
                 (A) (A) (A) (A) (A) (A) (A) (A) (A) (A) (A) (A)
                 (A) (A) (A) (A) (A) (A) (A) (A) (A) (A) (A) (A)
                 (A) (A) (A) (A) (A) (A) (A) (A) (A) (A) (A) (A)
                 (A) (A) (A) (A) (A) (A) (A) (A) (A) (A) (A) (A)
                 (A) (A) (A) (A) (A) (A) (A) (A) (A) (A) (A) (A)
                 (A) (A) (A) (A) (A) (A) (A) (A) (A) (A) (A) (A)
                 (A) (A) (A) (A) (A) (A) (A) (A) (A) (A) (A) (A)
                 (A) (A) (A) (A) (A) (A) (A) (A) (A) (A) (A) (A)
                 (A) (A) (A) (A) (A) (A) (A) (A) (A) (A) (A) (A)
                 (A) (A) (A) (A) (A) (A) (A) (A) (A) (A) (A) (A)
                 (A) (A) (A) (A) (A) (A) (A) (A) (A) (A) (A) (A)
                 (A) (A) (A) (A) (A) (A) (A) (A) (A) (A) (A) (A)
                 (A) (A) (A) (A) (A) (A) (A) (A) (A) (A) (A) (A)
                 (A) (A) (A) (A) (A) (A) (A) (A) (A) (A) (A) (A)
                 (A) (A) (A) (A) (A) (A) (A) (A) (A) (A) (A) (A)
                 (A) (A) (A) (A) (A) (A) (A) (A) (A) (A) (A) (A)
                 (A) (A) (A) (A) (A) (A) (A) (A) (A) (A) (A) (A)
                 (A) (A) (A) (A) (A) (A) (A) (A) (A) (A) (A) (A)
                 (A) (A) (A) (A) (A) (A) (A) (A) (A) (A) (A) (A)
                 (A) (A) (A) (A) (A) (A) (A) (A) (A) (A) (A) (A)
                 (A) (A) (A) (A) (A) (A) (A) (A) (A) (A) (A) (A)
                 (A) (A) (A) (A) (A) (A) (A) (A) (A) (A) (A) (A)
                 (A) (A) (A) (A) (A) (A) (A) (A) (A) (A) (A) (A)
                 (A) (A) (A) (A) (A) (A) (A) (A) (A) (A) (A) (A)
                 (A) (A) (A) (A) (A) (A) (A) (A) (A) (A) (A) (A)
                 (A) (A) (A) (A) (A) (A) (A) (A) (A) (A) (A) (A)
                 (A) (A) (A) (A) (A) (A) (A) (A) (A) (A) (A) (A)
                 (A) (A) (A) (A) (A) (A) (A) (A) (A) (A) (A) (A)
                 (A) (A) (A) (A) (A) (A) (A) (A) (A) (A) (A) (A)
                 (A) (A) (A) (A) (A) (A) (A) (A) (A) (A) (A) (A)
                 (A) (A) (A) (A) (A) (A) (A) (A) (A) (A) (A) (A)
                 (A) (A) (A) (A) (A) (A) (A) (A) (A) (A) (A) (A)
                 (A) (A) (A) (A) (A) (A) (A) (A) (A) (A) (A) (A)
                 (A) (A) (A) (A) (A) (A) (A) (A) (A) (A) (A) (A)
 The electronic state is 1-A.
 Alpha  occ. eigenvalues --  -19.62960 -19.62952 -19.62699 -10.63187 -10.58292
 Alpha  occ. eigenvalues --  -10.57424 -10.57368 -10.57343 -10.52394 -10.52226
 Alpha  occ. eigenvalues --  -10.52134 -10.52113 -10.52076  -1.20207  -1.16506
 Alpha  occ. eigenvalues --   -1.13831  -0.90475  -0.89405  -0.86225  -0.84630
 Alpha  occ. eigenvalues --   -0.75371  -0.73470  -0.72440  -0.69656  -0.66277
 Alpha  occ. eigenvalues --   -0.63852  -0.60242  -0.57946  -0.55621  -0.55094
 Alpha  occ. eigenvalues --   -0.54514  -0.52628  -0.52087  -0.51276  -0.50048
 Alpha  occ. eigenvalues --   -0.48068  -0.47797  -0.45528  -0.44966  -0.44219
 Alpha  occ. eigenvalues --   -0.42618  -0.41644  -0.40766  -0.39815  -0.39303
 Alpha  occ. eigenvalues --   -0.38713  -0.36978  -0.36756  -0.34227  -0.32992
 Alpha  occ. eigenvalues --   -0.31267
 Alpha virt. eigenvalues --    0.00399   0.01242   0.01381   0.01499   0.02799
 Alpha virt. eigenvalues --    0.02910   0.03044   0.03791   0.03981   0.04890
 Alpha virt. eigenvalues --    0.05387   0.05549   0.05747   0.05830   0.07473
 Alpha virt. eigenvalues --    0.07688   0.08097   0.08293   0.08951   0.10048
 Alpha virt. eigenvalues --    0.10317   0.11024   0.11501   0.12055   0.12448
 Alpha virt. eigenvalues --    0.12773   0.13209   0.13790   0.14037   0.14239
 Alpha virt. eigenvalues --    0.14403   0.14796   0.14900   0.15155   0.15275
 Alpha virt. eigenvalues --    0.15527   0.15673   0.16202   0.16300   0.16632
 Alpha virt. eigenvalues --    0.16978   0.17014   0.17589   0.17876   0.18129
 Alpha virt. eigenvalues --    0.18533   0.18608   0.19003   0.19334   0.19720
 Alpha virt. eigenvalues --    0.19981   0.20251   0.20853   0.20999   0.21712
 Alpha virt. eigenvalues --    0.21822   0.22993   0.23638   0.24261   0.24954
 Alpha virt. eigenvalues --    0.25972   0.26066   0.26437   0.27548   0.27635
 Alpha virt. eigenvalues --    0.28533   0.28682   0.29198   0.29398   0.29907
 Alpha virt. eigenvalues --    0.30383   0.30686   0.31384   0.31769   0.32346
 Alpha virt. eigenvalues --    0.32664   0.33836   0.34055   0.34264   0.34602
 Alpha virt. eigenvalues --    0.35035   0.35337   0.35472   0.35909   0.36855
 Alpha virt. eigenvalues --    0.37116   0.37397   0.37833   0.37930   0.38227
 Alpha virt. eigenvalues --    0.39159   0.39522   0.39646   0.40050   0.40637
 Alpha virt. eigenvalues --    0.41004   0.42249   0.42956   0.43985   0.46364
 Alpha virt. eigenvalues --    0.46924   0.47580   0.50189   0.50793   0.52216
 Alpha virt. eigenvalues --    0.52613   0.53469   0.54427   0.55351   0.56233
 Alpha virt. eigenvalues --    0.56955   0.57706   0.58634   0.59183   0.59784
 Alpha virt. eigenvalues --    0.59967   0.60407   0.61073   0.61154   0.62520
 Alpha virt. eigenvalues --    0.62808   0.63119   0.64137   0.64308   0.65364
 Alpha virt. eigenvalues --    0.65975   0.66268   0.66657   0.67372   0.67753
 Alpha virt. eigenvalues --    0.68083   0.68938   0.69808   0.69855   0.71345
 Alpha virt. eigenvalues --    0.71586   0.72463   0.72977   0.73928   0.74094
 Alpha virt. eigenvalues --    0.74483   0.74858   0.75389   0.75830   0.76673
 Alpha virt. eigenvalues --    0.76822   0.78118   0.78474   0.79217   0.79636
 Alpha virt. eigenvalues --    0.80430   0.83057   0.83607   0.84380   0.85721
 Alpha virt. eigenvalues --    0.86275   0.87926   0.88428   0.90053   0.90781
 Alpha virt. eigenvalues --    0.90970   0.92261   0.92959   0.94583   0.96637
 Alpha virt. eigenvalues --    0.98106   0.98903   0.99819   1.01095   1.01296
 Alpha virt. eigenvalues --    1.03122   1.04318   1.04647   1.06005   1.06638
 Alpha virt. eigenvalues --    1.07286   1.08745   1.10762   1.11175   1.12091
 Alpha virt. eigenvalues --    1.13283   1.14046   1.15066   1.15879   1.16905
 Alpha virt. eigenvalues --    1.17698   1.18930   1.19474   1.19888   1.21121
 Alpha virt. eigenvalues --    1.22126   1.22710   1.22787   1.23732   1.24507
 Alpha virt. eigenvalues --    1.25230   1.25908   1.26972   1.27302   1.28068
 Alpha virt. eigenvalues --    1.28876   1.29448   1.29829   1.30100   1.30754
 Alpha virt. eigenvalues --    1.31410   1.32362   1.32787   1.33518   1.34271
 Alpha virt. eigenvalues --    1.34347   1.36230   1.36709   1.37148   1.38978
 Alpha virt. eigenvalues --    1.39311   1.39958   1.40542   1.41217   1.41782
 Alpha virt. eigenvalues --    1.43572   1.43829   1.44374   1.45321   1.46159
 Alpha virt. eigenvalues --    1.46434   1.46779   1.47148   1.48981   1.49487
 Alpha virt. eigenvalues --    1.49838   1.50586   1.51237   1.52204   1.52234
 Alpha virt. eigenvalues --    1.53073   1.53867   1.54185   1.55305   1.57290
 Alpha virt. eigenvalues --    1.57539   1.58058   1.58628   1.59312   1.59678
 Alpha virt. eigenvalues --    1.60678   1.61714   1.61829   1.63213   1.63687
 Alpha virt. eigenvalues --    1.65006   1.65930   1.66163   1.66599   1.67273
 Alpha virt. eigenvalues --    1.68453   1.68766   1.68928   1.70706   1.72172
 Alpha virt. eigenvalues --    1.72844   1.74997   1.75883   1.76760   1.78576
 Alpha virt. eigenvalues --    1.80440   1.81142   1.81608   1.83502   1.84792
 Alpha virt. eigenvalues --    1.84888   1.86058   1.89548   1.90752   1.97254
 Alpha virt. eigenvalues --    2.04432   2.07595   2.12731   2.18266   2.20176
 Alpha virt. eigenvalues --    2.25966   2.26826   2.28552   2.31413   2.36181
 Alpha virt. eigenvalues --    2.40335   2.43321   2.45526   2.50750   2.53538
 Alpha virt. eigenvalues --    2.55707   2.76746   2.78812   2.80250   2.81972
 Alpha virt. eigenvalues --    2.86773   2.88034   2.92350   2.92670   2.95261
 Alpha virt. eigenvalues --    2.97406   2.98914   3.01144   3.04592   3.06844
 Alpha virt. eigenvalues --    3.08192   3.08973   3.10064   3.10696   3.11991
 Alpha virt. eigenvalues --    3.13360   3.14544   3.16095   3.16745   3.21905
 Alpha virt. eigenvalues --    3.24213   3.31168   3.31923   3.34014   3.34794
 Alpha virt. eigenvalues --    3.36776   3.37335   3.39520   3.40105   3.41067
 Alpha virt. eigenvalues --    3.42673   3.43859   3.44866   3.46194   3.46803
 Alpha virt. eigenvalues --    3.48139   3.50049   3.50817   3.52097   3.52831
 Alpha virt. eigenvalues --    3.53098   3.53789   3.55410   3.55880   3.57369
 Alpha virt. eigenvalues --    3.57500   3.58195   3.58470   3.58882   3.60571
 Alpha virt. eigenvalues --    3.61259   3.61821   3.64308   3.64756   3.65163
 Alpha virt. eigenvalues --    3.66161   3.67691   3.68710   3.70403   3.71457
 Alpha virt. eigenvalues --    3.71677   3.73004   3.73379   3.73692   3.73991
 Alpha virt. eigenvalues --    3.75361   3.76166   3.77090   3.77825   3.78062
 Alpha virt. eigenvalues --    3.78329   3.79717   3.81607   3.82993   3.84360
 Alpha virt. eigenvalues --    3.86434   3.88835   3.90790   3.91282   3.92356
 Alpha virt. eigenvalues --    3.93334   3.93858   3.94308   3.95428   3.97201
 Alpha virt. eigenvalues --    3.99128   4.03210   4.03804   4.04197   4.04587
 Alpha virt. eigenvalues --    4.05870   4.06303   4.07244   4.07655   4.08033
 Alpha virt. eigenvalues --    4.08635   4.09794   4.10655   4.11694   4.13209
 Alpha virt. eigenvalues --    4.13780   4.14142   4.14275   4.14463   4.15290
 Alpha virt. eigenvalues --    4.17038   4.18500   4.18713   4.19967   4.20934
 Alpha virt. eigenvalues --    4.22470   4.23014   4.24430   4.25567   4.26885
 Alpha virt. eigenvalues --    4.28492   4.30171   4.30850   4.31887   4.33859
 Alpha virt. eigenvalues --    4.34341   4.35146   4.35998   4.37804   4.37868
 Alpha virt. eigenvalues --    4.41045   4.44146   4.44599   4.47467   4.50381
 Alpha virt. eigenvalues --    4.60708   4.61305   4.74655   4.77206   4.88660
 Alpha virt. eigenvalues --    4.91218   4.91574   4.93030   4.99368   5.00654
 Alpha virt. eigenvalues --    5.06911   5.08173   5.08491   5.10070   5.11905
 Alpha virt. eigenvalues --    5.12581   5.13381   5.14657   5.30090   5.33615
 Alpha virt. eigenvalues --    5.42596   5.57045   5.57609   5.64593   5.86578
 Alpha virt. eigenvalues --    5.87980   6.01737   7.02634   7.05562   7.05876
 Alpha virt. eigenvalues --    7.06702   7.09602   7.12720   7.13695   7.17687
 Alpha virt. eigenvalues --    7.23823   7.35980   7.37843   7.46663   7.53258
 Alpha virt. eigenvalues --    7.55999   7.63635  23.94818  23.99185  24.07135
 Alpha virt. eigenvalues --   24.07996  24.12393  24.13466  24.14235  24.15459
 Alpha virt. eigenvalues --   24.18410  24.19157  50.16262  50.19553  50.25418
          Condensed to atoms (all electrons):
               1          2          3          4          5          6
     1  C    6.462707   0.146172  -0.002085  -0.944372  -0.120855  -0.054328
     2  C    0.146172   5.601897   0.013548   0.088859  -0.119440   0.002502
     3  C   -0.002085   0.013548   6.069163   0.025915   0.079504  -0.017986
     4  C   -0.944372   0.088859   0.025915   7.777169  -0.837852  -0.017932
     5  C   -0.120855  -0.119440   0.079504  -0.837852   6.520235   0.052340
     6  O   -0.054328   0.002502  -0.017986  -0.017932   0.052340   8.369620
     7  C   -0.018421  -0.008716  -0.279339   0.017932   0.015298  -0.007009
     8  O   -0.029905   0.121793   0.000036  -0.044970  -0.023657  -0.000025
     9  C   -0.004881   0.001262  -0.070661   0.036015  -0.009777  -0.042630
    10  C    0.164112  -0.037229  -0.496695  -0.497522  -0.137981   0.224312
    11  C   -0.011317   0.002146   0.094944  -0.027024   0.011785   0.033134
    12  C   -0.056879  -0.276844  -0.003958   0.019890   0.161481  -0.005944
    13  O   -0.103526   0.019153  -0.107804   0.218296  -0.186915   0.013890
    14  H    0.459524   0.018527  -0.001946   0.031638  -0.055868  -0.001022
    15  H    0.474078   0.000373  -0.006418  -0.074420  -0.016672   0.008206
    16  H   -0.002659   0.422624   0.002268   0.009913  -0.028363   0.000601
    17  H   -0.024365   0.455699  -0.000582   0.041751  -0.077168  -0.000249
    18  H    0.003749   0.006776   0.438251   0.041175  -0.032947  -0.013373
    19  H   -0.000953  -0.003224   0.447221  -0.009834   0.005170   0.005063
    20  H    0.020873  -0.028118  -0.027643   0.336087   0.055055  -0.001876
    21  H    0.002192  -0.015940   0.019229  -0.074696   0.464149  -0.000997
    22  H   -0.041735  -0.096369  -0.003849   0.026526   0.460097  -0.000020
    23  H    0.000673  -0.000305  -0.037785  -0.007096   0.001760  -0.000668
    24  H    0.000560  -0.000003  -0.043389   0.000405  -0.001050   0.000638
    25  H   -0.000008  -0.000450  -0.002417   0.000168   0.000082  -0.005287
    26  H   -0.000222  -0.000045   0.005252   0.000345  -0.000024   0.006032
    27  H    0.014107   0.001084  -0.040699  -0.023630   0.000722  -0.032405
    28  H    0.001492  -0.000623   0.007810  -0.014581   0.001813  -0.049857
    29  H    0.004845   0.000577   0.005764  -0.006015  -0.001818  -0.070925
    30  H   -0.074658   0.000395  -0.000010   0.051809  -0.037962   0.000266
    31  H   -0.026153   0.006793  -0.000434   0.002032   0.002162  -0.001063
               7          8          9         10         11         12
     1  C   -0.018421  -0.029905  -0.004881   0.164112  -0.011317  -0.056879
     2  C   -0.008716   0.121793   0.001262  -0.037229   0.002146  -0.276844
     3  C   -0.279339   0.000036  -0.070661  -0.496695   0.094944  -0.003958
     4  C    0.017932  -0.044970   0.036015  -0.497522  -0.027024   0.019890
     5  C    0.015298  -0.023657  -0.009777  -0.137981   0.011785   0.161481
     6  O   -0.007009  -0.000025  -0.042630   0.224312   0.033134  -0.005944
     7  C    5.806276   0.000065   0.034476   0.109314  -0.041189  -0.002457
     8  O    0.000065   8.446396   0.000096   0.004541  -0.000119   0.111781
     9  C    0.034476   0.000096   5.515364  -0.021697   0.077740  -0.001609
    10  C    0.109314   0.004541  -0.021697   6.605390  -0.137226  -0.015131
    11  C   -0.041189  -0.000119   0.077740  -0.137226   5.378146   0.002034
    12  C   -0.002457   0.111781  -0.001609  -0.015131   0.002034   5.577226
    13  O    0.020971  -0.001486   0.000820   0.093603   0.004010   0.020219
    14  H    0.000454  -0.004135   0.000828   0.018374   0.000454  -0.094406
    15  H   -0.000502   0.009135  -0.000975   0.007805  -0.000088  -0.006018
    16  H    0.000688  -0.070050   0.000006  -0.006490   0.000340   0.009401
    17  H   -0.000924  -0.041726   0.000428   0.012902  -0.000642  -0.006636
    18  H   -0.025263  -0.000215  -0.017842  -0.014672   0.010622  -0.006468
    19  H   -0.005465   0.000063   0.008263  -0.059358  -0.003432   0.001280
    20  H    0.022911  -0.006286  -0.008462  -0.012524  -0.000206   0.002993
    21  H   -0.004763   0.009452  -0.001900  -0.007968   0.000565   0.003103
    22  H    0.001037  -0.004853   0.000557   0.009957  -0.001231   0.017775
    23  H    0.403283   0.000005  -0.020793   0.019930   0.008725  -0.000089
    24  H    0.510914  -0.000010  -0.062181  -0.019405  -0.011651   0.000040
    25  H   -0.042006  -0.000013   0.490778   0.007119  -0.065852   0.000576
    26  H   -0.051903   0.000003   0.459332  -0.004776  -0.034535   0.000037
    27  H   -0.008384   0.000246   0.005257   0.476916  -0.008069  -0.002004
    28  H   -0.020249   0.000006  -0.045996  -0.004780   0.486028   0.000773
    29  H    0.010066  -0.000006  -0.046072   0.009441   0.446657  -0.001006
    30  H   -0.001323  -0.043332   0.001154   0.012261   0.000008   0.450828
    31  H    0.000229  -0.071191  -0.000340   0.000699  -0.000566   0.421362
              13         14         15         16         17         18
     1  C   -0.103526   0.459524   0.474078  -0.002659  -0.024365   0.003749
     2  C    0.019153   0.018527   0.000373   0.422624   0.455699   0.006776
     3  C   -0.107804  -0.001946  -0.006418   0.002268  -0.000582   0.438251
     4  C    0.218296   0.031638  -0.074420   0.009913   0.041751   0.041175
     5  C   -0.186915  -0.055868  -0.016672  -0.028363  -0.077168  -0.032947
     6  O    0.013890  -0.001022   0.008206   0.000601  -0.000249  -0.013373
     7  C    0.020971   0.000454  -0.000502   0.000688  -0.000924  -0.025263
     8  O   -0.001486  -0.004135   0.009135  -0.070050  -0.041726  -0.000215
     9  C    0.000820   0.000828  -0.000975   0.000006   0.000428  -0.017842
    10  C    0.093603   0.018374   0.007805  -0.006490   0.012902  -0.014672
    11  C    0.004010   0.000454  -0.000088   0.000340  -0.000642   0.010622
    12  C    0.020219  -0.094406  -0.006018   0.009401  -0.006636  -0.006468
    13  O    8.421876  -0.004223   0.001745  -0.002090  -0.001546  -0.009685
    14  H   -0.004223   0.460248  -0.020502  -0.001287   0.002355   0.001416
    15  H    0.001745  -0.020502   0.467526   0.001012  -0.002072  -0.000191
    16  H   -0.002090  -0.001287   0.001012   0.476368  -0.019973   0.000455
    17  H   -0.001546   0.002355  -0.002072  -0.019973   0.499432  -0.001205
    18  H   -0.009685   0.001416  -0.000191   0.000455  -0.001205   0.480464
    19  H   -0.003140  -0.000103  -0.000517  -0.000039   0.000199  -0.022485
    20  H   -0.000817  -0.006663  -0.002961   0.003591  -0.020689  -0.013495
    21  H    0.007841  -0.004647   0.000799  -0.011936  -0.000833  -0.004901
    22  H   -0.006409   0.005772  -0.003708  -0.006075   0.004948   0.000594
    23  H   -0.002763   0.000002  -0.000079   0.000020   0.000011  -0.005585
    24  H    0.002329   0.000032  -0.000101  -0.000019  -0.000044   0.003135
    25  H    0.000365   0.000030  -0.000584  -0.000039   0.000231   0.002272
    26  H    0.000588   0.000014   0.000066   0.000007  -0.000017  -0.003391
    27  H   -0.077610   0.000598   0.000624  -0.000062   0.000335  -0.002254
    28  H    0.002772  -0.000114  -0.000628   0.000002   0.000047  -0.000835
    29  H   -0.002141   0.000269  -0.001833  -0.000020  -0.000038  -0.000538
    30  H   -0.001981   0.006357  -0.002136  -0.004327   0.015266   0.001573
    31  H   -0.001204  -0.007562  -0.008481   0.001102  -0.004380  -0.000255
              19         20         21         22         23         24
     1  C   -0.000953   0.020873   0.002192  -0.041735   0.000673   0.000560
     2  C   -0.003224  -0.028118  -0.015940  -0.096369  -0.000305  -0.000003
     3  C    0.447221  -0.027643   0.019229  -0.003849  -0.037785  -0.043389
     4  C   -0.009834   0.336087  -0.074696   0.026526  -0.007096   0.000405
     5  C    0.005170   0.055055   0.464149   0.460097   0.001760  -0.001050
     6  O    0.005063  -0.001876  -0.000997  -0.000020  -0.000668   0.000638
     7  C   -0.005465   0.022911  -0.004763   0.001037   0.403283   0.510914
     8  O    0.000063  -0.006286   0.009452  -0.004853   0.000005  -0.000010
     9  C    0.008263  -0.008462  -0.001900   0.000557  -0.020793  -0.062181
    10  C   -0.059358  -0.012524  -0.007968   0.009957   0.019930  -0.019405
    11  C   -0.003432  -0.000206   0.000565  -0.001231   0.008725  -0.011651
    12  C    0.001280   0.002993   0.003103   0.017775  -0.000089   0.000040
    13  O   -0.003140  -0.000817   0.007841  -0.006409  -0.002763   0.002329
    14  H   -0.000103  -0.006663  -0.004647   0.005772   0.000002   0.000032
    15  H   -0.000517  -0.002961   0.000799  -0.003708  -0.000079  -0.000101
    16  H   -0.000039   0.003591  -0.011936  -0.006075   0.000020  -0.000019
    17  H    0.000199  -0.020689  -0.000833   0.004948   0.000011  -0.000044
    18  H   -0.022485  -0.013495  -0.004901   0.000594  -0.005585   0.003135
    19  H    0.465050   0.003351  -0.002145   0.000860  -0.009634  -0.007401
    20  H    0.003351   0.421405  -0.003190  -0.003653   0.000769   0.000530
    21  H   -0.002145  -0.003190   0.483677  -0.019365   0.000353   0.000226
    22  H    0.000860  -0.003653  -0.019365   0.459437   0.000028  -0.000058
    23  H   -0.009634   0.000769   0.000353   0.000028   0.490924  -0.006171
    24  H   -0.007401   0.000530   0.000226  -0.000058  -0.006171   0.451818
    25  H   -0.001618  -0.003772   0.000153   0.000103  -0.005219   0.003594
    26  H    0.002104   0.000399  -0.000106  -0.000006  -0.005522  -0.005697
    27  H    0.001338  -0.000054   0.000020  -0.000067   0.002366  -0.007650
    28  H    0.000419  -0.000153   0.000091   0.000155  -0.000538   0.000807
    29  H    0.000760  -0.000305  -0.000003  -0.000044   0.000394  -0.002033
    30  H    0.000053  -0.022377  -0.003277   0.002542   0.000006  -0.000036
    31  H    0.000002   0.002988   0.001758  -0.001230   0.000000   0.000013
              25         26         27         28         29         30
     1  C   -0.000008  -0.000222   0.014107   0.001492   0.004845  -0.074658
     2  C   -0.000450  -0.000045   0.001084  -0.000623   0.000577   0.000395
     3  C   -0.002417   0.005252  -0.040699   0.007810   0.005764  -0.000010
     4  C    0.000168   0.000345  -0.023630  -0.014581  -0.006015   0.051809
     5  C    0.000082  -0.000024   0.000722   0.001813  -0.001818  -0.037962
     6  O   -0.005287   0.006032  -0.032405  -0.049857  -0.070925   0.000266
     7  C   -0.042006  -0.051903  -0.008384  -0.020249   0.010066  -0.001323
     8  O   -0.000013   0.000003   0.000246   0.000006  -0.000006  -0.043332
     9  C    0.490778   0.459332   0.005257  -0.045996  -0.046072   0.001154
    10  C    0.007119  -0.004776   0.476916  -0.004780   0.009441   0.012261
    11  C   -0.065852  -0.034535  -0.008069   0.486028   0.446657   0.000008
    12  C    0.000576   0.000037  -0.002004   0.000773  -0.001006   0.450828
    13  O    0.000365   0.000588  -0.077610   0.002772  -0.002141  -0.001981
    14  H    0.000030   0.000014   0.000598  -0.000114   0.000269   0.006357
    15  H   -0.000584   0.000066   0.000624  -0.000628  -0.001833  -0.002136
    16  H   -0.000039   0.000007  -0.000062   0.000002  -0.000020  -0.004327
    17  H    0.000231  -0.000017   0.000335   0.000047  -0.000038   0.015266
    18  H    0.002272  -0.003391  -0.002254  -0.000835  -0.000538   0.001573
    19  H   -0.001618   0.002104   0.001338   0.000419   0.000760   0.000053
    20  H   -0.003772   0.000399  -0.000054  -0.000153  -0.000305  -0.022377
    21  H    0.000153  -0.000106   0.000020   0.000091  -0.000003  -0.003277
    22  H    0.000103  -0.000006  -0.000067   0.000155  -0.000044   0.002542
    23  H   -0.005219  -0.005522   0.002366  -0.000538   0.000394   0.000006
    24  H    0.003594  -0.005697  -0.007650   0.000807  -0.002033  -0.000036
    25  H    0.469029  -0.011324  -0.000299   0.002871  -0.002590   0.000092
    26  H   -0.011324   0.473040  -0.001321   0.000761  -0.010032   0.000019
    27  H   -0.000299  -0.001321   0.428577  -0.002094   0.000736   0.000290
    28  H    0.002871   0.000761  -0.002094   0.473926  -0.010291   0.000032
    29  H   -0.002590  -0.010032   0.000736  -0.010291   0.478089   0.000016
    30  H    0.000092   0.000019   0.000290   0.000032   0.000016   0.500500
    31  H    0.000041  -0.000016   0.000040  -0.000006   0.000055  -0.018387
              31
     1  C   -0.026153
     2  C    0.006793
     3  C   -0.000434
     4  C    0.002032
     5  C    0.002162
     6  O   -0.001063
     7  C    0.000229
     8  O   -0.071191
     9  C   -0.000340
    10  C    0.000699
    11  C   -0.000566
    12  C    0.421362
    13  O   -0.001204
    14  H   -0.007562
    15  H   -0.008481
    16  H    0.001102
    17  H   -0.004380
    18  H   -0.000255
    19  H    0.000002
    20  H    0.002988
    21  H    0.001758
    22  H   -0.001230
    23  H    0.000000
    24  H    0.000013
    25  H    0.000041
    26  H   -0.000016
    27  H    0.000040
    28  H   -0.000006
    29  H    0.000055
    30  H   -0.018387
    31  H    0.478713
 Mulliken charges:
               1
     1  C   -0.237763
     2  C   -0.322874
     3  C   -0.065204
     4  C   -0.145981
     5  C   -0.143304
     6  O   -0.393008
     7  C   -0.436002
     8  O   -0.361638
     9  C   -0.276559
    10  C   -0.303224
    11  C   -0.214192
    12  C   -0.321350
    13  O   -0.315137
    14  H    0.195585
    15  H    0.177517
    16  H    0.225029
    17  H    0.169486
    18  H    0.185117
    19  H    0.188152
    20  H    0.292292
    21  H    0.163059
    22  H    0.198285
    23  H    0.172998
    24  H    0.191859
    25  H    0.163973
    26  H    0.180939
    27  H    0.273344
    28  H    0.170941
    29  H    0.198040
    30  H    0.166342
    31  H    0.223278
 Sum of Mulliken charges =  -0.00000
 Mulliken charges with hydrogens summed into heavy atoms:
               1
     1  C    0.135340
     2  C    0.071641
     3  C    0.308066
     4  C    0.146311
     5  C    0.218040
     6  O   -0.393008
     7  C   -0.071146
     8  O   -0.361638
     9  C    0.068353
    10  C   -0.029880
    11  C    0.154789
    12  C    0.068270
    13  O   -0.315137
 Electronic spatial extent (au):  <R**2>=           3146.0112
 Charge=             -0.0000 electrons
 Dipole moment (field-independent basis, Debye):
    X=              4.3356    Y=             -0.7270    Z=             -2.1689  Tot=              4.9021
 Quadrupole moment (field-independent basis, Debye-Ang):
   XX=            -81.4661   YY=            -75.5910   ZZ=            -80.7268
   XY=              1.3014   XZ=              1.5191   YZ=              0.8896
 Traceless Quadrupole moment (field-independent basis, Debye-Ang):
   XX=             -2.2048   YY=              3.6703   ZZ=             -1.4655
   XY=              1.3014   XZ=              1.5191   YZ=              0.8896
 Octapole moment (field-independent basis, Debye-Ang**2):
  XXX=            100.3052  YYY=              4.8795  ZZZ=             -2.3708  XYY=            -10.8992
  XXY=              2.2120  XXZ=              2.5248  XZZ=              0.8401  YZZ=              1.5628
  YYZ=             -3.3410  XYZ=             -3.4428
 Hexadecapole moment (field-independent basis, Debye-Ang**3):
 XXXX=          -3458.4560 YYYY=           -615.2444 ZZZZ=           -319.7980 XXXY=             59.2316
 XXXZ=            -11.6861 YYYX=              6.3444 YYYZ=             -3.4280 ZZZX=             13.1695
 ZZZY=              1.5710 XXYY=           -575.1508 XXZZ=           -577.7556 YYZZ=           -159.4893
 XXYZ=              6.0902 YYXZ=              0.9024 ZZXY=              1.9219
 N-N= 8.876154439007D+02 E-N=-3.217317787063D+03  KE= 6.153597603636D+02
 D1PCM: PCM CHGder 1st derivatives, ID1Alg=3 FixD1E=F DoIter=F DoCFld=F I1PDM=0.
 Calling FoFJK, ICntrl=      2127 FMM=F ISym2X=0 I1Cent= 0 IOpClX= 0 NMat=1 NMatS=1 NMatT=0.
 ***** Axes restored to original set *****
 -------------------------------------------------------------------
 Center     Atomic                   Forces (Hartrees/Bohr)
 Number     Number              X              Y              Z
 -------------------------------------------------------------------
      1        6           0.000168594    0.001367533   -0.003424365
      2        6          -0.005798660   -0.000409913    0.002863318
      3        6          -0.003211848   -0.001947868    0.001349867
      4        6           0.004310534    0.002198428   -0.000871393
      5        6          -0.000281030   -0.002286701   -0.002879614
      6        8           0.009561440   -0.009876711   -0.002583758
      7        6           0.002936251   -0.002705876   -0.000893374
      8        8           0.011017669   -0.000265815    0.003777886
      9        6           0.000544433    0.000890516    0.003287699
     10        6          -0.003764471    0.009545464   -0.009883534
     11        6          -0.002695843    0.005754017   -0.002568932
     12        6          -0.005629150    0.001956888    0.002459066
     13        8           0.004699776   -0.001535175    0.013032587
     14        1           0.001335558    0.001225530    0.003331302
     15        1          -0.002864569   -0.002560243   -0.000522309
     16        1           0.002887951    0.003453725    0.000421336
     17        1          -0.002686949   -0.000431900   -0.004962569
     18        1           0.003137248   -0.000871391   -0.003557606
     19        1           0.000434145    0.002388690    0.002039521
     20        1          -0.002489840   -0.000801483   -0.006742859
     21        1          -0.002255128    0.002485587   -0.001168109
     22        1           0.001270059   -0.000370447    0.003643328
     23        1          -0.000889317    0.001903258   -0.001699920
     24        1          -0.001303575   -0.000547087    0.003085653
     25        1           0.002171043    0.000038396   -0.002601746
     26        1          -0.002689435   -0.000667469   -0.000176026
     27        1          -0.004268766    0.000072297    0.006388422
     28        1          -0.003286774    0.000200350    0.004668016
     29        1          -0.000041728   -0.004025762   -0.002293773
     30        1          -0.002711229   -0.000596309   -0.004925373
     31        1           0.002393610   -0.003580531    0.001407260
 -------------------------------------------------------------------
 Cartesian Forces:  Max     0.013032587 RMS     0.003815597

 GradGradGradGradGradGradGradGradGradGradGradGradGradGradGradGradGradGrad
 Berny optimization.
 FormGI is forming the generalized inverse of G from B-inverse, IUseBI=4.
 Internal  Forces:  Max     0.015322919 RMS     0.002293191
 Search for a local minimum.
 Step number   1 out of a maximum of  186
 All quantities printed in internal units (Hartrees-Bohrs-Radians)
 Mixed Optimization -- RFO/linear search
 Second derivative matrix not updated -- first step.
 ITU=  0
     Eigenvalues ---    0.00615   0.00691   0.00727   0.00739   0.01390
     Eigenvalues ---    0.01432   0.01472   0.02702   0.02708   0.03111
     Eigenvalues ---    0.03399   0.04178   0.04247   0.04574   0.04749
     Eigenvalues ---    0.04768   0.04913   0.04993   0.05144   0.05185
     Eigenvalues ---    0.05288   0.05670   0.05746   0.06092   0.06138
     Eigenvalues ---    0.06242   0.06351   0.06692   0.07590   0.07926
     Eigenvalues ---    0.07937   0.07948   0.07954   0.07977   0.08449
     Eigenvalues ---    0.08707   0.08996   0.09249   0.10899   0.11501
     Eigenvalues ---    0.11712   0.11732   0.11759   0.12342   0.13155
     Eigenvalues ---    0.14192   0.14483   0.16346   0.16605   0.17705
     Eigenvalues ---    0.19373   0.21550   0.21732   0.25000   0.28507
     Eigenvalues ---    0.28648   0.28684   0.28904   0.29180   0.29224
     Eigenvalues ---    0.30094   0.30293   0.35010   0.35058   0.35062
     Eigenvalues ---    0.35112   0.35123   0.35172   0.35185   0.35229
     Eigenvalues ---    0.35245   0.35292   0.35341   0.35361   0.35429
     Eigenvalues ---    0.35495   0.35760   0.35856   0.35858   0.35891
     Eigenvalues ---    0.41066   0.41655   0.42001   0.42036   0.43248
     Eigenvalues ---    0.463261000.000001000.000001000.000001000.00000
     Eigenvalues --- 1000.000001000.000001000.000001000.000001000.00000
     Eigenvalues --- 1000.000001000.000001000.000001000.000001000.00000
     Eigenvalues --- 1000.000001000.000001000.000001000.000001000.00000
     Eigenvalues --- 1000.000001000.000001000.000001000.000001000.00000
     Eigenvalues --- 1000.000001000.000001000.000001000.000001000.00000
     Eigenvalues --- 1000.000001000.000001000.000001000.000001000.00000
     Eigenvalues --- 1000.000001000.000001000.000001000.000001000.00000
     Eigenvalues --- 1000.000001000.000001000.000001000.000001000.00000
     Eigenvalues --- 1000.000001000.000001000.000001000.000001000.00000
     Eigenvalues --- 1000.000001000.000001000.000001000.000001000.00000
     Eigenvalues --- 1000.000001000.000001000.000001000.000001000.00000
     Eigenvalues --- 1000.000001000.000001000.000001000.000001000.00000
     Eigenvalues --- 1000.000001000.000001000.000001000.000001000.00000
     Eigenvalues --- 1000.000001000.000001000.000001000.000001000.00000
     Eigenvalues --- 1000.000001000.000001000.000001000.000001000.00000
     Eigenvalues --- 1000.000001000.000001000.000001000.000001000.00000
     Eigenvalues --- 1000.000001000.000001000.000001000.000001000.00000
     Eigenvalues --- 1000.000001000.000001000.000001000.000001000.00000
     Eigenvalues --- 1000.000001000.000001000.000001000.000001000.00000
 RFO step:  Lambda=-3.38249958D-03 EMin= 6.14674601D-03
 Linear search not attempted -- first point.
 Iteration  1 RMS(Cart)=  0.06168479 RMS(Int)=  0.00078857
 Iteration  2 RMS(Cart)=  0.00277749 RMS(Int)=  0.00003220
 Iteration  3 RMS(Cart)=  0.00000151 RMS(Int)=  0.00003219
 Iteration  4 RMS(Cart)=  0.00000000 RMS(Int)=  0.00003219
 Iteration  1 RMS(Cart)=  0.00003833 RMS(Int)=  0.00000849
 Iteration  2 RMS(Cart)=  0.00002059 RMS(Int)=  0.00000949
 Iteration  3 RMS(Cart)=  0.00001106 RMS(Int)=  0.00001070
 Iteration  4 RMS(Cart)=  0.00000594 RMS(Int)=  0.00001148
 Iteration  5 RMS(Cart)=  0.00000319 RMS(Int)=  0.00001193
 Iteration  6 RMS(Cart)=  0.00000172 RMS(Int)=  0.00001218
 Iteration  7 RMS(Cart)=  0.00000092 RMS(Int)=  0.00001232
 Variable       Old X    -DE/DX   Delta X   Delta X   Delta X     New X
                                 (Linear)    (Quad)   (Total)
    R1        2.88059  -0.00178   0.00000  -0.00655  -0.00657   2.87403
    R2        2.87794  -0.00049   0.00000  -0.00164  -0.00164   2.87630
    R3        2.05397   0.00364   0.00000   0.01026   0.01026   2.06423
    R4        2.04984   0.00378   0.00000   0.01058   0.01058   2.06042
    R5        2.87759  -0.00048   0.00000  -0.00147  -0.00147   2.87612
    R6        2.67196   0.00611   0.00000   0.01447   0.01448   2.68644
    R7        2.04307   0.00451   0.00000   0.01247   0.01247   2.05555
    R8        2.05575   0.00555   0.00000   0.01569   0.01569   2.07144
    R9        2.89332  -0.00103   0.00000  -0.00396  -0.00398   2.88933
   R10        2.87596  -0.00152   0.00000  -0.00364  -0.00361   2.87235
   R11        2.05305   0.00456   0.00000   0.01282   0.01282   2.06587
   R12        2.05124   0.00313   0.00000   0.00879   0.00879   2.06003
   R13        2.87967  -0.00184   0.00000  -0.00673  -0.00675   2.87293
   R14        2.68878   0.00404   0.00000   0.00953   0.00953   2.69830
   R15        2.04458   0.00721   0.00000   0.01997   0.01997   2.06455
   R16        2.05203   0.00348   0.00000   0.00978   0.00978   2.06181
   R17        2.05376   0.00373   0.00000   0.01051   0.01051   2.06427
   R18        2.65357   0.00802   0.00000   0.01913   0.01917   2.67274
   R19        2.68274   0.00560   0.00000   0.01348   0.01351   2.69625
   R20        2.88887  -0.00063   0.00000  -0.00430  -0.00434   2.88453
   R21        2.05093   0.00270   0.00000   0.00756   0.00756   2.05850
   R22        2.05658   0.00328   0.00000   0.00928   0.00928   2.06586
   R23        2.67233   0.00607   0.00000   0.01437   0.01438   2.68671
   R24        2.87192  -0.00049   0.00000  -0.00275  -0.00278   2.86914
   R25        2.05476   0.00329   0.00000   0.00927   0.00927   2.06403
   R26        2.05279   0.00277   0.00000   0.00778   0.00778   2.06057
   R27        2.63766   0.00449   0.00000   0.00962   0.00962   2.64728
   R28        2.04878   0.00762   0.00000   0.02128   0.02128   2.07006
   R29        2.05494   0.00562   0.00000   0.01586   0.01586   2.07080
   R30        2.04253   0.00463   0.00000   0.01277   0.01277   2.05530
   R31        2.05580   0.00555   0.00000   0.01567   0.01567   2.07147
   R32        2.04305   0.00452   0.00000   0.01249   0.01249   2.05554
    A1        1.92507  -0.00029   0.00000  -0.00593  -0.00599   1.91909
    A2        1.90307   0.00015   0.00000  -0.00319  -0.00317   1.89990
    A3        1.93430  -0.00082   0.00000  -0.00517  -0.00515   1.92914
    A4        1.90896   0.00007   0.00000   0.00191   0.00188   1.91085
    A5        1.90872   0.00059   0.00000   0.00550   0.00550   1.91421
    A6        1.88309   0.00033   0.00000   0.00722   0.00719   1.89028
    A7        1.94261   0.00112   0.00000   0.00486   0.00485   1.94746
    A8        1.93635  -0.00033   0.00000  -0.00286  -0.00286   1.93349
    A9        1.92997  -0.00127   0.00000  -0.00828  -0.00829   1.92168
   A10        1.86080  -0.00066   0.00000  -0.00048  -0.00047   1.86032
   A11        1.90323   0.00061   0.00000   0.00412   0.00414   1.90737
   A12        1.88873   0.00058   0.00000   0.00303   0.00301   1.89174
   A13        1.92485  -0.00057   0.00000  -0.00316  -0.00319   1.92166
   A14        1.91964   0.00104   0.00000   0.00502   0.00498   1.92463
   A15        1.93593  -0.00001   0.00000   0.00408   0.00407   1.94001
   A16        1.90386  -0.00088   0.00000  -0.01047  -0.01044   1.89341
   A17        1.89667   0.00017   0.00000  -0.00217  -0.00217   1.89451
   A18        1.88202   0.00024   0.00000   0.00657   0.00652   1.88854
   A19        1.91330   0.00226   0.00000   0.00378   0.00376   1.91706
   A20        1.92636  -0.00070   0.00000  -0.00086  -0.00085   1.92551
   A21        1.91005  -0.00087   0.00000  -0.00420  -0.00419   1.90585
   A22        1.89612  -0.00061   0.00000   0.00062   0.00063   1.89676
   A23        1.90385  -0.00066   0.00000  -0.00130  -0.00129   1.90256
   A24        1.91396   0.00059   0.00000   0.00200   0.00199   1.91595
   A25        1.92717  -0.00033   0.00000  -0.00603  -0.00608   1.92110
   A26        1.91016   0.00056   0.00000   0.00512   0.00512   1.91528
   A27        1.90983   0.00005   0.00000   0.00149   0.00146   1.91130
   A28        1.92673  -0.00071   0.00000  -0.00385  -0.00383   1.92290
   A29        1.90629   0.00016   0.00000  -0.00329  -0.00327   1.90302
   A30        1.88305   0.00030   0.00000   0.00688   0.00686   1.88990
   A31        1.98410  -0.00517   0.00000  -0.02452  -0.02442   1.95968
   A32        1.92185   0.00185   0.00000  -0.00278  -0.00285   1.91900
   A33        1.92251  -0.00044   0.00000   0.00106   0.00111   1.92362
   A34        1.90987  -0.00084   0.00000  -0.00250  -0.00251   1.90735
   A35        1.93309  -0.00047   0.00000   0.00045   0.00045   1.93355
   A36        1.90862  -0.00073   0.00000  -0.00106  -0.00103   1.90759
   A37        1.86699   0.00056   0.00000   0.00498   0.00497   1.87195
   A38        1.96994  -0.00457   0.00000  -0.02450  -0.02446   1.94547
   A39        1.92060   0.00026   0.00000  -0.00419  -0.00425   1.91636
   A40        1.91947   0.00053   0.00000   0.00142   0.00142   1.92090
   A41        1.93748  -0.00070   0.00000  -0.00040  -0.00040   1.93708
   A42        1.90470  -0.00045   0.00000  -0.00214  -0.00215   1.90255
   A43        1.90431   0.00005   0.00000   0.00025   0.00028   1.90459
   A44        1.87648   0.00030   0.00000   0.00524   0.00523   1.88171
   A45        1.92930   0.00181   0.00000  -0.00062  -0.00081   1.92849
   A46        1.96704  -0.00036   0.00000  -0.01132  -0.01147   1.95557
   A47        1.92167  -0.00004   0.00000   0.00366   0.00363   1.92530
   A48        1.90650  -0.00208   0.00000  -0.01701  -0.01714   1.88936
   A49        1.90194  -0.00032   0.00000   0.01198   0.01205   1.91400
   A50        1.83433   0.00089   0.00000   0.01463   0.01474   1.84908
   A51        1.93872   0.00094   0.00000   0.00382   0.00377   1.94249
   A52        1.90111   0.00076   0.00000   0.00389   0.00392   1.90502
   A53        1.84917  -0.00075   0.00000  -0.00001   0.00001   1.84918
   A54        1.93082  -0.00132   0.00000  -0.00737  -0.00734   1.92348
   A55        1.95072  -0.00011   0.00000  -0.00267  -0.00269   1.94803
   A56        1.89061   0.00053   0.00000   0.00284   0.00282   1.89343
   A57        1.94347   0.00105   0.00000   0.00418   0.00417   1.94764
   A58        1.93031  -0.00127   0.00000  -0.00817  -0.00817   1.92214
   A59        1.93607  -0.00032   0.00000  -0.00280  -0.00280   1.93327
   A60        1.90289   0.00064   0.00000   0.00443   0.00446   1.90734
   A61        1.86048  -0.00064   0.00000  -0.00034  -0.00033   1.86015
   A62        1.88840   0.00057   0.00000   0.00310   0.00308   1.89148
   A63        2.09479  -0.01532   0.00000  -0.06047  -0.06047   2.03432
    D1       -0.91714   0.00004   0.00000  -0.00671  -0.00669  -0.92382
    D2       -3.00505  -0.00019   0.00000  -0.00932  -0.00931  -3.01436
[...]
 ,0.00186345,-0.01911352,-0.00000141,0.00000441,-0.00001545,-0.00026407
 ,-0.00000035,-0.00007583,-0.00000083,0.00000056,0.00000057,0.00000035,
 -0.00000102,-0.00000238,-0.00000292,0.00000022,0.00000316,-0.00000030,
 0.00000044,0.00000473,-0.00044519,0.00000598,-0.00011933,-0.00014147,-
 0.00009099,0.00019717,-0.00002169,-0.00000456,-0.00002736,-0.00000004,
 -0.00000170,-0.00000104,-0.00000029,-0.00000099,0.00000040,-0.00016007
 ,-0.00003813,0.00080082,-0.00032619,-0.00259166,-0.00017854,-0.1205422
 0,-0.00363437,0.27111170,-0.00002872,0.00000024,0.00003696,0.00000331,
 -0.00001946,-0.00001117,0.00137751,-0.00020068,-0.00014249,0.00015779,
 0.00000125,-0.00011014,-0.00002163,0.00002124,0.00001605,-0.00185492,0
 .00178883,-0.00342849,0.00096744,0.00035677,0.00059215,-0.00001448,-0.
 00000211,0.00000530,-0.29217421,-0.06409638,-0.04287846,0.00053781,0.0
 0113018,0.00103127,-0.01231879,-0.00536038,0.00046652,0.00000669,0.000
 01320,-0.00002171,-0.00037135,-0.00018642,-0.00005958,-0.00000575,0.00
 000178,-0.00000567,-0.00000980,-0.00001263,-0.00000032,-0.00000828,0.0
 0000051,0.00000487,-0.00000005,0.00000064,0.00000225,0.00013659,0.0000
 3692,0.00003949,-0.00017541,0.00017196,-0.00004035,0.00001244,0.000005
 64,-0.00000934,0.00000098,-0.00000255,0.00000048,-0.00000532,-0.000005
 16,-0.00000299,0.00018498,-0.00046380,-0.00005487,0.00051104,-0.000248
 98,-0.00030158,-0.01317372,-0.00296610,-0.00227887,0.31538016,-0.00000
 618,-0.00001369,-0.00000831,-0.00000004,-0.00000060,-0.00000076,0.0013
 6646,-0.00548295,-0.00319237,-0.00003213,-0.00003527,-0.00000281,0.000
 00472,-0.00000146,0.00001344,0.00531397,-0.00190882,0.00514678,-0.0298
 2080,-0.00672182,-0.00474259,0.00000619,0.00000590,-0.00000423,-0.0645
 0509,-0.06353669,-0.00973050,0.00040531,-0.00247412,-0.00019862,0.0199
 7338,0.00760174,0.00052410,-0.00000169,0.00000743,0.00000836,-0.000067
 52,0.00067599,0.00005264,0.00000153,0.00000277,0.00000317,0.00001497,0
 .00001709,0.00000150,0.00000025,0.00000011,-0.00000063,0.00000031,-0.0
 0000013,-0.00000062,0.00022501,0.00005408,0.00017916,-0.00188828,-0.00
 024863,-0.00084984,0.00000621,-0.00001686,0.00000624,0.00000138,0.0000
 0380,-0.00000235,0.00000333,0.00000302,-0.00000220,0.00029061,0.001082
 64,0.00094648,0.00054011,0.00141590,0.00032519,-0.00034236,-0.00093313
 ,0.00016495,0.06985919,0.06907975,-0.00003922,0.00000258,0.00004650,0.
 00000225,-0.00001939,-0.00001616,0.00045854,-0.00254174,-0.00050581,0.
 00017715,-0.00000680,-0.00012502,-0.00002522,0.00002409,0.00002348,-0.
 00415861,0.00227991,-0.00268576,-0.01336882,-0.00322738,-0.00370455,-0
 .00001711,-0.00000169,0.00000853,-0.04008182,-0.00932551,-0.05529053,0
 .00074784,0.00104023,0.00109890,-0.01693464,-0.00748421,-0.00284650,0.
 00000511,0.00001292,-0.00002861,-0.00043897,-0.00019983,-0.00009203,-0
 .00000562,0.00000200,-0.00000564,-0.00001377,-0.00001550,-0.00000169,-
 0.00000868,0.00000081,0.00000632,0.00000062,0.00000084,0.00000350,-0.0
 0034385,-0.00000293,0.00009708,-0.00075124,-0.00019251,0.00000744,-0.0
 0000946,0.00000307,-0.00002396,0.00000008,-0.00000246,-0.00000164,-0.0
 0000453,-0.00000715,-0.00000231,0.00042835,0.00027080,0.00034345,-0.00
 015912,0.00072181,0.00045042,0.02632945,0.00674324,0.00601348,0.047185
 32,0.01256392,0.05637596,-0.00037757,-0.00018902,0.00066733,-0.0001314
 1,-0.00085236,-0.00030436,0.00694520,0.00232484,-0.00939333,-0.0002145
 1,-0.00418920,-0.00433927,-0.00125808,0.00080016,0.00155625,0.00301468
 ,0.00079533,-0.00047836,0.00132352,-0.00025317,0.00004373,-0.00009263,
 0.00007642,0.00003163,-0.00015553,0.00022095,0.00000800,-0.10556728,-0
 .01103376,0.09944942,0.00217650,-0.00053193,-0.00162234,0.00008423,0.0
 0034471,-0.00035118,-0.03775204,-0.00185060,0.02808293,-0.00003210,0.0
 0005042,-0.00007554,0.00003755,0.00008207,-0.00006168,-0.00025537,0.00
 006339,0.00016727,0.00000885,0.00001592,0.00003782,-0.00045856,0.00201
 812,-0.00168201,0.00021869,-0.00019504,0.00054457,0.00003132,0.0000855
 8,0.00031097,0.00005834,-0.00005073,-0.00000862,-0.00001450,-0.0000227
 6,-0.00007622,0.00015566,-0.00000391,0.00014779,0.00009529,0.00011040,
 0.00026337,-0.00010054,-0.00007306,0.00011035,0.00000485,-0.00001206,0
 .00001325,0.13164745,-0.00014501,-0.00014920,0.00019037,-0.00000130,-0
 .00007400,-0.00003545,-0.01059996,-0.00155217,0.02382155,0.00045121,0.
 00030692,-0.00085322,-0.00006092,0.00003598,0.00005898,0.01142059,-0.0
 1277623,-0.03896382,-0.00101468,0.00021747,-0.00048169,0.00000083,-0.0
 0000215,0.00000180,-0.00052024,-0.00024878,0.00005838,-0.01380739,-0.0
 5424590,0.02755258,0.00526331,0.00165404,-0.00022939,0.00000811,0.0001
 1406,-0.00007419,-0.00463927,0.00337277,0.00299834,-0.00000974,0.00002
 235,-0.00002174,0.00004519,0.00005108,0.00000403,-0.00002647,0.0000075
 0,0.00001635,0.00000172,0.00000029,0.00000318,0.00213723,-0.00298747,0
 .00324015,-0.00037184,0.00100348,-0.00089017,0.00009505,-0.00007524,0.
 00005926,-0.00000214,-0.00000446,-0.00000594,-0.00001109,-0.00001007,-
 0.00000897,0.00022603,-0.00004886,-0.00027017,0.00042360,0.00016227,-0
 .00034297,-0.00000461,-0.00003950,0.00002987,-0.00011060,0.00024174,-0
 .00004858,0.01191301,0.06493784,-0.00005631,-0.00002733,0.00013053,-0.
 00004729,-0.00015373,-0.00004659,0.00960934,0.00388956,-0.01529714,-0.
 00218602,-0.00031016,0.00089925,-0.00021015,0.00010216,0.00031235,0.00
 532019,-0.01479373,-0.01877614,0.00064579,-0.00035924,0.00035187,0.000
 00844,0.00001065,-0.00000142,-0.00034806,-0.00014079,0.00003527,0.1084
 2522,0.02559098,-0.24334314,0.00259288,0.00079758,0.00092491,0.0000176
 7,0.00006581,-0.00006518,-0.00632883,-0.00016121,0.01179893,0.00001042
 ,0.00000982,-0.00002316,0.00000773,0.00004138,-0.00000835,-0.00005274,
 0.00001074,0.00002524,0.00000727,-0.00000121,0.00000103,-0.00132742,0.
 00255146,-0.00097170,-0.00015417,0.00033472,0.00060556,-0.00026124,0.0
 0001217,0.00017909,0.00000712,-0.00001672,-0.00000212,0.00000504,0.000
 00483,-0.00001424,-0.00022288,0.00003070,0.00018662,-0.00050042,-0.000
 15053,0.00004053,0.00012599,0.00004057,-0.00004200,-0.00008737,0.00001
 155,-0.00010417,-0.11356330,-0.01712959,0.26297641,-0.00003047,-0.0000
 4983,0.00008777,0.00002627,-0.00002853,-0.00003309,-0.00000048,-0.0004
 0198,-0.00043426,0.00022988,-0.00003780,0.00003567,-0.00004094,0.00005
 043,-0.00013762,-0.03846931,-0.01070595,0.02239421,0.00013108,-0.00077
 288,-0.00029862,-0.00004239,-0.00000935,0.00001895,0.00844720,0.002066
 38,-0.01268705,0.00063556,0.00515631,0.00446413,-0.10234175,-0.0087461
 5,0.10247749,0.00001920,0.00002768,-0.00006287,-0.00044428,-0.00029994
 ,-0.00052464,-0.00002510,0.00001602,-0.00002088,-0.00000597,-0.0000413
 9,0.00000583,-0.00001829,0.00000118,0.00001159,0.00000122,0.00000366,0
 .00000670,-0.00004076,0.00005477,0.00001097,0.00012496,-0.00021828,0.0
 0009475,-0.00007295,-0.00000405,-0.00023673,0.00000215,-0.00001451,0.0
 0000369,-0.00005203,-0.00005655,-0.00000089,-0.00004337,-0.00011531,0.
 00000989,-0.00015496,-0.00018801,0.00025920,-0.00031375,0.00292054,-0.
 00190920,0.00061068,-0.00071479,0.00073908,0.00053071,-0.00050512,-0.0
 0101315,0.13024217,0.00001405,-0.00001178,-0.00000251,0.00000153,-0.00
 000380,-0.00000474,0.00002199,-0.00030043,-0.00015540,-0.00004770,-0.0
 0008775,0.00000347,-0.00002160,0.00001428,-0.00003281,-0.00955338,-0.0
 0001739,0.00506177,-0.00091946,0.00143312,0.00057526,-0.00000508,0.000
 00046,0.00000272,-0.00986596,-0.00198347,0.02114742,-0.00159678,0.0009
 0915,0.00263648,-0.00600870,-0.05613266,0.01134607,0.00000308,-0.00000
 432,-0.00000515,0.00003905,-0.00003137,-0.00010890,-0.00000346,0.00000
 278,-0.00000256,-0.00000312,-0.00000462,0.00000119,-0.00000207,0.00000
 070,0.00000205,0.00000059,0.00000036,0.00000103,0.00001493,0.00003636,
 -0.00008623,0.00001197,-0.00005290,-0.00001310,0.00000865,-0.00001357,
 -0.00006576,0.00000184,0.00000056,0.00000099,-0.00001277,-0.00001109,0
 .00000209,0.00013706,0.00018070,-0.00018147,0.00016106,0.00003967,-0.0
 0021786,0.00173138,-0.00240141,0.00282515,0.00004738,0.00076537,-0.000
 64346,0.00025065,0.00016343,-0.00011021,0.01172894,0.05361816,0.000010
 17,-0.00000749,-0.00003466,-0.00000672,0.00000108,-0.00000096,0.000067
 71,-0.00001251,-0.00007158,-0.00021580,-0.00015802,-0.00003694,-0.0000
 3923,0.00000307,-0.00001104,-0.00310100,-0.00125595,0.01079188,0.00021
 429,-0.00118487,0.00093974,0.00000662,0.00000207,0.00000114,0.00929967
 ,0.00113056,-0.01903451,-0.00171226,0.00026233,0.00231640,0.10640202,0
 .01322834,-0.24394229,-0.00000045,-0.00001458,0.00000819,0.00012472,0.
 00023610,0.00029768,0.00000209,0.00000076,0.00000537,0.00000355,0.0000
 0151,0.00000031,0.00000143,0.00000088,0.00000093,0.00000027,-0.0000000
 3,0.00000084,-0.00002056,-0.00004300,-0.00017658,0.00013239,0.00002927
 ,0.00003012,0.00003714,-0.00001504,-0.00003148,0.00000213,0.00000388,-
 0.00000003,-0.00000405,-0.00000224,0.00000330,-0.00027132,-0.00003487,
 0.00020741,0.00001894,0.00053130,0.00053885,-0.00201672,0.00325629,-0.
 00138848,-0.00019937,-0.00019236,0.00041852,0.00051958,0.00104659,-0.0
 0002981,-0.11496336,-0.01787513,0.25991847,-0.00006417,-0.00002237,0.0
 0010350,0.00000287,-0.00006953,-0.00002238,-0.00031148,-0.00042418,-0.
 00038910,0.00060988,-0.00001642,-0.00049811,-0.00007861,0.00007184,0.0
 0010724,-0.00943086,-0.03973832,-0.02200823,-0.00088305,0.00183289,-0.
 00310782,-0.00001579,0.00001039,0.00000560,0.00090264,0.01193764,0.008
 10739,-0.00413092,0.00272641,0.00181386,-0.04888880,0.02259202,0.01345
 253,-0.00000088,0.00005194,-0.00004291,-0.00212043,-0.00210286,-0.0011
 7498,-0.00000199,0.00000416,-0.00000956,0.00000387,0.00001185,-0.00000
 221,-0.00002385,0.00000342,0.00001558,-0.00000236,0.00000206,0.0000071
 6,0.00004687,0.00001475,0.00003436,0.00023051,-0.00019573,0.00017494,0
 .00000880,0.00002920,0.00004318,0.00000671,-0.00000767,-0.00000109,0.0
 0000054,0.00000026,-0.00000093,0.00032534,0.00116970,0.00033302,-0.000
 00602,-0.00032776,-0.00018806,0.00041591,-0.00067752,-0.00026496,0.000
 27904,-0.00062250,0.00028416,0.00022483,-0.00012287,-0.00039929,0.0011
 1955,0.01386690,0.00570423,0.06180667,-0.00004984,-0.00000195,0.000061
 26,0.00000335,-0.00003488,-0.00001959,0.00031580,0.00044181,-0.0000614
 6,0.00027546,-0.00003070,-0.00022550,-0.00003995,0.00004254,0.00003686
 ,-0.00553870,-0.00785553,-0.00569868,0.00237424,-0.00152665,0.00411624
 ,-0.00001648,0.00000186,0.00001032,0.00170978,-0.01819370,-0.00992112,
 -0.00049892,0.00306150,0.00205173,0.01195567,-0.26923560,-0.10708676,0
 .00000113,0.00001675,-0.00003779,-0.00073850,-0.00053034,-0.00034099,-
 0.00000709,0.00000435,-0.00000625,-0.00001770,-0.00001907,-0.00000293,
 -0.00001331,0.00000211,0.00000906,-0.00000047,0.00000119,0.00000464,-0
 .00008000,-0.00001055,0.00000838,-0.00004784,-0.00008179,-0.00005004,-
 0.00000266,0.00000576,-0.00001055,0.00000282,-0.00000372,-0.00000108,-
 0.00000529,-0.00000737,-0.00000206,-0.00013649,-0.00132397,-0.00069531
 ,0.00005369,0.00012506,-0.00011832,-0.00069027,0.00101108,-0.00016635,
 0.00023739,0.00041691,0.00005056,0.00008740,-0.00007499,-0.00015284,0.
 00088017,0.00389117,0.00106302,-0.01000020,0.28990518,-0.00001866,-0.0
 0000892,0.00003281,-0.00000233,-0.00003673,-0.00001226,-0.00016045,-0.
 00018230,-0.00024183,0.00014613,-0.00011849,-0.00017529,-0.00005582,0.
 00004217,0.00005384,-0.00330937,-0.00747049,-0.00358525,-0.00202084,0.
 00226152,-0.00245554,-0.00000932,0.00000387,0.00000296,-0.00027615,0.0
 2020991,0.01031910,-0.00098091,0.00138184,0.00100890,0.00706243,-0.108
 22524,-0.10510135,0.00000378,0.00001111,-0.00001877,-0.00065173,-0.000
 64878,-0.00000505,-0.00000410,0.00000074,-0.00000473,-0.00000500,-0.00
 000874,-0.00000001,-0.00001233,0.00000202,0.00000808,-0.00000035,0.000
 00148,0.00000288,0.00006181,-0.00001023,0.00001373,0.00011505,-0.00006
 738,0.00004980,-0.00000128,0.00001082,0.00000220,0.00000291,-0.0000019
 1,-0.00000033,-0.00000165,-0.00000257,-0.00000343,-0.00003613,0.001181
 35,0.00051520,-0.00012256,0.00010513,0.00021501,0.00058288,-0.00072776
 ,0.00108260,0.00024489,-0.00101930,0.00052968,-0.00012842,0.00024796,0
 .00023891,0.00168381,-0.02410269,-0.01071993,-0.00209838,0.11716903,0.
 10824022,0.00870149,0.00265954,0.02514356,-0.00058112,0.00351452,-0.00
 017148,-0.00002797,-0.00000915,-0.00000094,0.00114179,-0.00062278,0.00
 074584,-0.00003642,-0.00025692,0.00030830,0.00000748,0.00000255,-0.000
 00363,-0.00000135,0.00000815,-0.00000635,-0.01545563,-0.01665873,-0.02
 194669,0.00000027,-0.00000021,0.00000159,-0.00000419,0.00006072,-0.000
 05567,-0.00000058,-0.00000226,-0.00000113,-0.07605288,-0.00229888,-0.0
 7532791,-0.00020744,-0.00004388,-0.00029092,-0.00357070,0.00126025,0.0
 0344613,0.00101196,-0.00033475,-0.00109613,0.00003866,-0.00008777,0.00
 030932,0.00062625,-0.00033955,0.00065073,0.00000174,-0.00000013,-0.000
 00186,-0.00000029,-0.00000053,0.00000017,-0.00008581,-0.00009177,-0.00
 028420,0.00016837,0.00000673,-0.00009372,-0.00005587,0.00002205,-0.000
 11903,-0.00000324,-0.00000031,-0.00000105,0.00000032,0.00000034,-0.000
 00011,-0.00000036,0.00000008,-0.00000072,0.00000025,0.00000003,-0.0000
 0063,0.00000472,0.00000175,0.00000279,0.00000164,0.00000023,-0.0000015
 8,-0.00000132,0.00000059,0.00000049,0.08903484,-0.00014233,0.00116801,
 -0.00345532,-0.00288505,0.00344743,-0.00398388,0.00000137,0.00000370,-
 0.00000807,-0.00045004,-0.00019271,-0.00057594,0.00032596,-0.00046494,
 0.00032363,-0.00000934,-0.00001141,-0.00000444,-0.00000049,0.00000164,
 0.00000279,-0.02078276,-0.01699221,-0.02638395,-0.00000034,-0.00000005
 ,0.00000012,0.00003750,0.00000839,0.00001219,0.00000339,0.00000248,0.0
 0000230,0.00109476,-0.05311920,-0.01300726,-0.00000043,0.00004058,0.00
 008932,0.00002887,0.00105136,-0.00032664,0.00020247,0.00028326,-0.0000
 0112,0.00007089,0.00006419,0.00022660,0.00051653,0.00056980,0.00082622
 ,-0.00000250,-0.00000143,0.00000394,-0.00000150,-0.00000032,0.00000146
 ,-0.00002543,0.00010613,-0.00012205,0.00019907,-0.00000579,-0.00005915
 ,-0.00002934,-0.00000674,0.00010041,0.00000008,-0.00000049,-0.00000055
 ,-0.00000131,-0.00000055,-0.00000015,-0.00000013,-0.00000007,-0.000000
 05,-0.00000020,0.00000007,-0.00000025,-0.00000428,-0.00000147,0.000000
 17,-0.00000079,-0.00000046,0.00000021,-0.00000169,-0.00000055,0.000000
 39,0.01415781,0.05980137,-0.00607216,-0.00090535,-0.02109978,0.0008346
 4,0.00092828,0.00169455,0.00005586,0.00001778,0.00001974,-0.00151494,0
 .00087758,0.00038068,0.00006487,-0.00007823,-0.00009772,0.00009216,0.0
 0003470,0.00002329,-0.00000259,-0.00001931,0.00000885,-0.00540582,-0.0
 0544777,0.00301489,0.00000988,0.00000151,-0.00000855,-0.00015012,-0.00
 013072,-0.00008681,-0.00002727,-0.00001665,-0.00000879,-0.07676976,-0.
 01639014,-0.27245269,0.00063605,0.00003171,0.00016782,0.00362641,-0.00
 064917,-0.00167842,0.00005788,0.00019858,0.00049129,0.00017654,-0.0001
 7978,0.00034476,0.00036819,-0.00114416,-0.00015455,0.00000226,-0.00000
 140,-0.00000673,0.00000135,0.00000051,-0.00000134,0.00033316,-0.000544
 32,0.00032039,-0.00004038,-0.00013194,-0.00002995,-0.00003228,0.000086
 28,-0.00012444,0.00001045,0.00000005,0.00000385,0.00000218,0.00000141,
 0.00000029,-0.00000135,-0.00000077,0.00000541,0.00000234,-0.00000010,0
 .00000434,0.00003290,0.00000333,0.00000439,0.00000480,0.00000156,0.000
 00141,0.00000659,0.00000774,0.00000303,0.08548700,0.02321150,0.2948377
 3,-0.01381372,0.02027441,-0.00683204,-0.00251187,-0.00267088,-0.000457
 40,-0.00015465,-0.00007448,-0.00004806,-0.00079826,-0.00278347,0.00372
 297,-0.00003901,-0.00057653,-0.00000108,-0.00025333,-0.00024415,-0.000
 15229,0.00000966,0.00006099,-0.00004263,0.01292904,-0.02606606,0.00676
 115,-0.00002263,-0.00000167,0.00001022,0.00089949,0.00052798,0.0004518
 8,0.00012904,0.00003299,0.00002574,-0.14073594,0.13037692,-0.03958506,
 -0.00253774,0.00181548,0.00074469,0.00128510,-0.00048465,-0.00002408,0
 .00058118,-0.00046136,-0.00038218,0.00051386,-0.00104820,0.00022449,0.
 00005601,-0.00001012,0.00022397,0.00000549,-0.00000559,0.00000997,-0.0
 0000713,-0.00000288,0.00000600,0.00006524,-0.00023717,-0.00003723,0.00
 021315,0.00014407,-0.00015417,0.00007024,0.00008075,-0.00000511,-0.000
 03486,-0.00000117,-0.00001371,-0.00000560,-0.00000197,0.00000291,0.000
 00271,-0.00000054,-0.00000328,-0.00000914,0.00000045,-0.00000990,-0.00
 015227,-0.00003438,-0.00002725,-0.00002549,-0.00000123,0.00000546,-0.0
 0002355,-0.00001377,-0.00000838,-0.00465459,0.00769927,-0.00178883,0.1
 4901957,0.00252134,-0.00028078,-0.00008986,-0.00572349,-0.00058857,-0.
 00162580,0.00002477,0.00000974,0.00001362,-0.00044479,0.00149593,-0.00
 010013,-0.00005747,-0.00000127,0.00023388,0.00008112,0.00002958,0.0000
 1940,-0.00000374,-0.00000902,0.00000471,0.01076434,-0.03343371,0.00806
 897,0.00000560,0.00000202,-0.00000235,-0.00013735,-0.00002223,-0.00005
 051,-0.00002354,-0.00001209,-0.00000606,0.11858499,-0.21509443,0.04792
 301,0.00022276,-0.00006650,0.00005221,-0.00022476,0.00007151,0.0000081
 4,0.00044604,0.00013781,-0.00031269,0.00073987,-0.00146888,0.00034498,
 0.00016048,0.00004954,0.00022208,-0.00000314,0.00000090,-0.00000320,-0
 .00000058,0.00000022,-0.00000093,0.00003525,-0.00011377,0.00009267,0.0
 0021432,-0.00000758,-0.00010696,0.00001840,0.00000795,-0.00004701,0.00
 000534,-0.00000014,0.00000200,0.00000164,0.00000066,-0.00000098,-0.000
 00079,-0.00000034,0.00000109,0.00000232,-0.00000016,0.00000260,0.00002
 250,-0.00000072,0.00000242,0.00000514,0.00000075,-0.00000118,0.0000041
 9,0.00000409,0.00000220,-0.00094774,0.00424999,0.00023730,-0.12629303,
 0.24503948,0.01430736,-0.01978537,0.00525902,0.00036636,-0.00009434,0.
 00042878,0.00009901,0.00004723,0.00003007,0.00168914,0.00200054,-0.002
 25549,-0.00005855,0.00014398,-0.00011018,0.00014560,0.00014910,0.00009
 342,-0.00000451,-0.00003856,0.00003211,0.00121558,-0.00192286,0.001239
 47,0.00001404,0.00000085,-0.00000816,-0.00053187,-0.00038565,-0.000320
 08,-0.00007535,-0.00001811,-0.00001583,-0.03857236,0.05274631,-0.06772
 659,0.00204547,-0.00121148,-0.00049562,-0.00100243,-0.00007157,0.00106
 205,-0.00073164,0.00053437,0.00063085,-0.00003119,0.00013045,0.0003385
 7,0.00024956,-0.00019285,0.00034853,-0.00000356,0.00000139,-0.00000353
 ,0.00000745,0.00000494,-0.00000342,0.00013202,-0.00021557,0.00030695,-
 0.00003886,-0.00006167,0.00000424,-0.00006708,-0.00003951,-0.00001177,
 0.00002293,0.00000059,0.00000922,0.00000248,0.00000098,-0.00000085,-0.
 00000152,0.00000003,0.00000310,0.00000492,0.00000012,0.00000675,0.0000
 9750,0.00002317,0.00001427,0.00001381,0.00000076,-0.00000228,0.0000146
 6,0.00000880,0.00000484,-0.01669218,0.02312756,-0.00557692,0.03738322,
 -0.05488362,0.06671846\\-0.00000132,0.00000026,0.00000971,0.00001343,0
 .00000630,-0.00000686,0.00000737,-0.00000095,0.00000284,0.00023469,-0.
 00332647,0.00105610,-0.00000899,0.00000354,0.00000236,0.00052783,0.001
 59124,-0.00290950,-0.00000348,0.00000982,-0.00001011,-0.00000224,0.000
 00400,-0.00000213,-0.00000793,0.00000504,-0.00001114,-0.00062117,-0.00
 364306,0.00435957,0.00002119,-0.00000377,0.00001561,0.00000529,-0.0000
 1622,-0.00000163,-0.00018694,0.00538828,-0.00250995,-0.00000380,-0.000
 00049,-0.00000897,0.00000342,0.00000253,0.00000214,-0.00000641,-0.0000
 0602,-0.00000667,0.00000159,0.00000211,0.00000705,-0.00000368,-0.00000
 333,0.00000659,0.00000462,-0.00000542,-0.00000631,0.00000798,-0.000003
 64,0.00001476,0.00000741,-0.00000221,0.00000183,-0.00000263,0.00000045
 ,-0.00000981,-0.00000226,-0.00000610,0.00000906,0.00000116,0.00000141,
 -0.00000029,-0.00000297,0.00000105,0.00000599,0.00000798,-0.00000470,0
 .00000199,0.00001336,-0.00000452,-0.00001509,0.00000075,-0.00000139,-0
 .00000577,-0.00000241,0.00000746,0.00000752,0.00000167,-0.00000154,0.0
 0000862,-0.00000350,0.00000633,-0.00000750\\\@


 ASKING DUMB QUESTIONS IS EASIER THAN CORECTING DUMB MISTAKES.
 Job cpu time:       0 days 12 hours 52 minutes  0.8 seconds.
 Elapsed time:       0 days  1 hours  4 minutes 35.1 seconds.
 File lengths (MBytes):  RWF=    721 Int=      0 D2E=      0 Chk=     34 Scr=      1
 Normal termination of Gaussian 16 at Sat Mar  9 08:26:32 2019.
