 Entering Gaussian System, Link 0=g16
 Initial command:
 /apps/gaussian/g16a03/g16/l1.exe "/jobfs/local/2012006.r-man2/Gau-3390.inp" -scrdir="/jobfs/local/2012006.r-man2/"
 Entering Link 1 = /apps/gaussian/g16a03/g16/l1.exe PID=      3391.
  
 Copyright (c) 1988,1990,1992,1993,1995,1998,2003,2009,2016,
            Gaussian, Inc.  All Rights Reserved.
  
 This is part of the Gaussian(R) 16 program.  It is based on
 the Gaussian(R) 09 system (copyright 2009, Gaussian, Inc.),
 the Gaussian(R) 03 system (copyright 2003, Gaussian, Inc.),
 the Gaussian(R) 98 system (copyright 1998, Gaussian, Inc.),
 the Gaussian(R) 94 system (copyright 1995, Gaussian, Inc.),
 the Gaussian 92(TM) system (copyright 1992, Gaussian, Inc.),
 the Gaussian 90(TM) system (copyright 1990, Gaussian, Inc.),
 the Gaussian 88(TM) system (copyright 1988, Gaussian, Inc.),
 the Gaussian 86(TM) system (copyright 1986, Carnegie Mellon
 University), and the Gaussian 82(TM) system (copyright 1983,
 Carnegie Mellon University). Gaussian is a federally registered
 trademark of Gaussian, Inc.
  
 This software contains proprietary and confidential information,
 including trade secrets, belonging to Gaussian, Inc.
  
 This software is provided under written license and may be
 used, copied, transmitted, or stored only in accord with that
 written license.
  
 The following legend is applicable only to US Government
 contracts under FAR:
  
                    RESTRICTED RIGHTS LEGEND
  
 Use, reproduction and disclosure by the US Government is
 subject to restrictions as set forth in subparagraphs (a)
 and (c) of the Commercial Computer Software - Restricted
 Rights clause in FAR 52.227-19.
  
 Gaussian, Inc.
 340 Quinnipiac St., Bldg. 40, Wallingford CT 06492
  
  
 ---------------------------------------------------------------
 Warning -- This program may not be used in any manner that
 competes with the business of Gaussian, Inc. or will provide
 assistance to any competitor of Gaussian, Inc.  The licensee
 of this program is prohibited from giving any competitor of
 Gaussian, Inc. access to this program.  By using this program,
 the user acknowledges that Gaussian, Inc. is engaged in the
 business of creating and licensing software in the field of
 computational chemistry and represents and warrants to the
 licensee that it is not a competitor of Gaussian, Inc. and that
 it will not use this program in any manner prohibited above.
 ---------------------------------------------------------------
  

 Cite this work as:
 Gaussian 16, Revision A.03,
 M. J. Frisch, G. W. Trucks, H. B. Schlegel, G. E. Scuseria, 
 M. A. Robb, J. R. Cheeseman, G. Scalmani, V. Barone, 
 G. A. Petersson, H. Nakatsuji, X. Li, M. Caricato, A. V. Marenich, 
 J. Bloino, B. G. Janesko, R. Gomperts, B. Mennucci, H. P. Hratchian, 
 J. V. Ortiz, A. F. Izmaylov, J. L. Sonnenberg, D. Williams-Young, 
 F. Ding, F. Lipparini, F. Egidi, J. Goings, B. Peng, A. Petrone, 
 T. Henderson, D. Ranasinghe, V. G. Zakrzewski, J. Gao, N. Rega, 
 G. Zheng, W. Liang, M. Hada, M. Ehara, K. Toyota, R. Fukuda, 
 J. Hasegawa, M. Ishida, T. Nakajima, Y. Honda, O. Kitao, H. Nakai, 
 T. Vreven, K. Throssell, J. A. Montgomery, Jr., J. E. Peralta, 
 F. Ogliaro, M. J. Bearpark, J. J. Heyd, E. N. Brothers, K. N. Kudin, 
 V. N. Staroverov, T. A. Keith, R. Kobayashi, J. Normand, 
 K. Raghavachari, A. P. Rendell, J. C. Burant, S. S. Iyengar, 
 J. Tomasi, M. Cossi, J. M. Millam, M. Klene, C. Adamo, R. Cammi, 
 J. W. Ochterski, R. L. Martin, K. Morokuma, O. Farkas, 
 J. B. Foresman, and D. J. Fox, Gaussian, Inc., Wallingford CT, 2016.
 
 ******************************************
 Gaussian 16:  ES64L-G16RevA.03 25-Dec-2016
                 4-Nov-2018 
 ******************************************
 %mem=6000mb
 %nproc=24
 Will use up to   24 processors via shared memory.
 %chk=D_a1-4_2SO_PHI.inp_extract_6.chk
 ----------------------------------------------------------------------
 #M062X/6-311++G(2d,2p) opt=ModRedundant freq=noraman SCRF=(Solvent=Wat
 er)
 ----------------------------------------------------------------------
 1/18=120,19=15,26=3,38=1/1,3;
 2/9=110,12=2,17=6,18=5,40=1/2;
 3/5=4,6=6,7=1212,11=2,25=1,30=1,70=2201,71=1,72=1,74=-55/1,2,3;
 4//1;
 5/5=2,38=5,53=1/2;
 6/7=2,8=2,9=2,10=2,28=1/1;
 7//1,2,3,16;
 1/18=20,19=15,26=3/3(2);
 2/9=110/2;
 99//99;
 2/9=110/2;
 3/5=4,6=6,7=1212,11=2,25=1,30=1,70=2205,71=1,72=1,74=-55/1,2,3;
 4/5=5,16=3,69=1/1;
 5/5=2,38=5,53=1/2;
 7//1,2,3,16;
 1/18=20,19=15,26=3/3(-5);
 2/9=110/2;
 6/7=2,8=2,9=2,10=2,19=2,28=1/1;
 99/9=1/99;
 ----------------------------
 D_a1-4_2SO_PHI.inp_extract_6
 ----------------------------
 Symbolic Z-matrix:
 Charge =  0 Multiplicity = 1
 C                     1.01622   0.23134  -0.45536 
 C                     3.80794  -0.14637   0.46286 
 O                    -2.10244  -1.41278   0.08119 
 C                     1.97529  -0.90436  -0.82652 
 C                     1.69184   1.18258   0.53314 
 O                    -0.16179  -0.26648   0.16058 
 C                    -1.96389   0.57995  -1.26148 
 C                    -2.72341   1.36201  -0.18948 
 C                    -1.23167  -0.62602  -0.67908 
 C                    -3.62012   0.4129    0.60362 
 C                    -2.80378  -0.75393   1.13024 
 C                     3.1917    1.24151   0.25288 
 O                     2.86439  -1.1826    0.23297 
 H                     0.75398   0.76318  -1.36063 
 H                     4.66491  -0.2956   -0.18726 
 H                     4.13202  -0.27019   1.48753 
 H                     1.43232  -1.81611  -1.03082 
 H                     2.5413   -0.64114  -1.71544 
 H                     1.52648   0.80997   1.53946 
 H                     1.2396    2.16639   0.4736 
 H                    -1.26787   1.2193   -1.79127 
 H                    -2.66511   0.19721  -1.99861 
 H                    -2.02243   1.85032   0.48242 
 H                    -3.31313   2.14529  -0.65574 
 H                    -0.87044  -1.27091  -1.46846 
 H                    -4.08969   0.92261   1.44012 
 H                    -4.41393   0.03517  -0.0366 
 H                    -3.43405  -1.51287   1.57229 
 H                    -2.09729  -0.42093   1.88213 
 H                     3.36043   1.58249  -0.76456 
 H                     3.68106   1.95307   0.90898 
 
 The following ModRedundant input section has been read:
 D       1       6       9       3 F                                           
 

 GradGradGradGradGradGradGradGradGradGradGradGradGradGradGradGradGradGrad
 Berny optimization.
 Initialization pass.
                           ----------------------------
                           !    Initial Parameters    !
                           ! (Angstroms and Degrees)  !
 --------------------------                            --------------------------
 ! Name  Definition              Value          Derivative Info.                !
 --------------------------------------------------------------------------------
 ! R1    R(1,4)                  1.5321         estimate D2E/DX2                !
 ! R2    R(1,5)                  1.5292         estimate D2E/DX2                !
 ! R3    R(1,6)                  1.4195         estimate D2E/DX2                !
 ! R4    R(1,14)                 1.0822         estimate D2E/DX2                !
 ! R5    R(2,12)                 1.533          estimate D2E/DX2                !
 ! R6    R(2,13)                 1.4202         estimate D2E/DX2                !
 ! R7    R(2,15)                 1.086          estimate D2E/DX2                !
 ! R8    R(2,16)                 1.0818         estimate D2E/DX2                !
 ! R9    R(3,9)                  1.3983         estimate D2E/DX2                !
 ! R10   R(3,11)                 1.4235         estimate D2E/DX2                !
 ! R11   R(4,13)                 1.4108         estimate D2E/DX2                !
 ! R12   R(4,17)                 1.0807         estimate D2E/DX2                !
 ! R13   R(4,18)                 1.0862         estimate D2E/DX2                !
 ! R14   R(5,12)                 1.527          estimate D2E/DX2                !
 ! R15   R(5,19)                 1.0857         estimate D2E/DX2                !
 ! R16   R(5,20)                 1.0844         estimate D2E/DX2                !
 ! R17   R(6,9)                  1.4068         estimate D2E/DX2                !
 ! R18   R(7,8)                  1.5289         estimate D2E/DX2                !
 ! R19   R(7,9)                  1.5263         estimate D2E/DX2                !
 ! R20   R(7,21)                 1.0835         estimate D2E/DX2                !
 ! R21   R(7,22)                 1.087          estimate D2E/DX2                !
 ! R22   R(8,10)                 1.5277         estimate D2E/DX2                !
 ! R23   R(8,23)                 1.0869         estimate D2E/DX2                !
 ! R24   R(8,24)                 1.0857         estimate D2E/DX2                !
 ! R25   R(9,25)                 1.0814         estimate D2E/DX2                !
 ! R26   R(10,11)                1.5183         estimate D2E/DX2                !
 ! R27   R(10,26)                1.0863         estimate D2E/DX2                !
 ! R28   R(10,27)                1.0875         estimate D2E/DX2                !
 ! R29   R(11,28)                1.081          estimate D2E/DX2                !
 ! R30   R(11,29)                1.0841         estimate D2E/DX2                !
 ! R31   R(12,30)                1.0862         estimate D2E/DX2                !
 ! R32   R(12,31)                1.0846         estimate D2E/DX2                !
 ! A1    A(4,1,5)              109.9463         estimate D2E/DX2                !
 ! A2    A(4,1,6)              111.3858         estimate D2E/DX2                !
 ! A3    A(4,1,14)             108.2596         estimate D2E/DX2                !
 ! A4    A(5,1,6)              107.7173         estimate D2E/DX2                !
 ! A5    A(5,1,14)             110.0047         estimate D2E/DX2                !
 ! A6    A(6,1,14)             109.5258         estimate D2E/DX2                !
 ! A7    A(12,2,13)            111.7982         estimate D2E/DX2                !
 ! A8    A(12,2,15)            111.0773         estimate D2E/DX2                !
 ! A9    A(12,2,16)            110.7189         estimate D2E/DX2                !
 ! A10   A(13,2,15)            109.094          estimate D2E/DX2                !
 ! A11   A(13,2,16)            105.5954         estimate D2E/DX2                !
 ! A12   A(15,2,16)            108.3551         estimate D2E/DX2                !
 ! A13   A(9,3,11)             116.556          estimate D2E/DX2                !
 ! A14   A(1,4,13)             111.0232         estimate D2E/DX2                !
 ! A15   A(1,4,17)             110.8966         estimate D2E/DX2                !
 ! A16   A(1,4,18)             110.1709         estimate D2E/DX2                !
 ! A17   A(13,4,17)            106.9906         estimate D2E/DX2                !
 ! A18   A(13,4,18)            109.51           estimate D2E/DX2                !
 ! A19   A(17,4,18)            108.1532         estimate D2E/DX2                !
 ! A20   A(1,5,12)             109.8363         estimate D2E/DX2                !
 ! A21   A(1,5,19)             108.564          estimate D2E/DX2                !
 ! A22   A(1,5,20)             110.1575         estimate D2E/DX2                !
 ! A23   A(12,5,19)            109.4483         estimate D2E/DX2                !
 ! A24   A(12,5,20)            111.3793         estimate D2E/DX2                !
 ! A25   A(19,5,20)            107.3805         estimate D2E/DX2                !
 ! A26   A(1,6,9)              117.5033         estimate D2E/DX2                !
 ! A27   A(8,7,9)              112.0196         estimate D2E/DX2                !
 ! A28   A(8,7,21)             111.1078         estimate D2E/DX2                !
 ! A29   A(8,7,22)             109.5793         estimate D2E/DX2                !
 ! A30   A(9,7,21)             110.1597         estimate D2E/DX2                !
 ! A31   A(9,7,22)             106.8592         estimate D2E/DX2                !
 ! A32   A(21,7,22)            106.894          estimate D2E/DX2                !
 ! A33   A(7,8,10)             109.7424         estimate D2E/DX2                !
 ! A34   A(7,8,23)             110.0516         estimate D2E/DX2                !
 ! A35   A(7,8,24)             109.7401         estimate D2E/DX2                !
 ! A36   A(10,8,23)            109.6795         estimate D2E/DX2                !
 ! A37   A(10,8,24)            110.6304         estimate D2E/DX2                !
 ! A38   A(23,8,24)            106.9586         estimate D2E/DX2                !
 ! A39   A(3,9,6)              107.031          estimate D2E/DX2                !
 ! A40   A(3,9,7)              110.688          estimate D2E/DX2                !
 ! A41   A(3,9,25)             105.6263         estimate D2E/DX2                !
 ! A42   A(6,9,7)              112.9954         estimate D2E/DX2                !
 ! A43   A(6,9,25)             109.515          estimate D2E/DX2                !
 ! A44   A(7,9,25)             110.664          estimate D2E/DX2                !
 ! A45   A(8,10,11)            109.9938         estimate D2E/DX2                !
 ! A46   A(8,10,26)            111.2219         estimate D2E/DX2                !
 ! A47   A(8,10,27)            109.7923         estimate D2E/DX2                !
 ! A48   A(11,10,26)           109.0212         estimate D2E/DX2                !
 ! A49   A(11,10,27)           109.2516         estimate D2E/DX2                !
 ! A50   A(26,10,27)           107.5047         estimate D2E/DX2                !
 ! A51   A(3,11,10)            111.4057         estimate D2E/DX2                !
 ! A52   A(3,11,28)            105.2874         estimate D2E/DX2                !
 ! A53   A(3,11,29)            109.4023         estimate D2E/DX2                !
 ! A54   A(10,11,28)           111.5856         estimate D2E/DX2                !
 ! A55   A(10,11,29)           110.7855         estimate D2E/DX2                !
 ! A56   A(28,11,29)           108.1786         estimate D2E/DX2                !
 ! A57   A(2,12,5)             109.5585         estimate D2E/DX2                !
 ! A58   A(2,12,30)            110.4905         estimate D2E/DX2                !
 ! A59   A(2,12,31)            109.2533         estimate D2E/DX2                !
 ! A60   A(5,12,30)            109.67           estimate D2E/DX2                !
 ! A61   A(5,12,31)            110.9461         estimate D2E/DX2                !
 ! A62   A(30,12,31)           106.8936         estimate D2E/DX2                !
 ! A63   A(2,13,4)             113.3506         estimate D2E/DX2                !
 ! D1    D(5,1,4,13)            29.5149         estimate D2E/DX2                !
 ! D2    D(5,1,4,17)           148.3198         estimate D2E/DX2                !
 ! D3    D(5,1,4,18)           -91.975          estimate D2E/DX2                !
 ! D4    D(6,1,4,13)           -89.8124         estimate D2E/DX2                !
 ! D5    D(6,1,4,17)            28.9924         estimate D2E/DX2                !
 ! D6    D(6,1,4,18)           148.6977         estimate D2E/DX2                !
 ! D7    D(14,1,4,13)          149.711          estimate D2E/DX2                !
 ! D8    D(14,1,4,17)          -91.4841         estimate D2E/DX2                !
 ! D9    D(14,1,4,18)           28.2211         estimate D2E/DX2                !
 ! D10   D(4,1,5,12)            32.4127         estimate D2E/DX2                !
 ! D11   D(4,1,5,19)           -87.2264         estimate D2E/DX2                !
 ! D12   D(4,1,5,20)           155.454          estimate D2E/DX2                !
 ! D13   D(6,1,5,12)           153.9579         estimate D2E/DX2                !
 ! D14   D(6,1,5,19)            34.3189         estimate D2E/DX2                !
 ! D15   D(6,1,5,20)           -83.0008         estimate D2E/DX2                !
 ! D16   D(14,1,5,12)          -86.7205         estimate D2E/DX2                !
 ! D17   D(14,1,5,19)          153.6404         estimate D2E/DX2                !
 ! D18   D(14,1,5,20)           36.3208         estimate D2E/DX2                !
 ! D19   D(4,1,6,9)            -88.1703         estimate D2E/DX2                !
 ! D20   D(5,1,6,9)            151.1848         estimate D2E/DX2                !
 ! D21   D(14,1,6,9)            31.5588         estimate D2E/DX2                !
 ! D22   D(13,2,12,5)           27.6            estimate D2E/DX2                !
 ! D23   D(13,2,12,30)         -93.3375         estimate D2E/DX2                !
 ! D24   D(13,2,12,31)         149.3318         estimate D2E/DX2                !
 ! D25   D(15,2,12,5)          149.7211         estimate D2E/DX2                !
 ! D26   D(15,2,12,30)          28.7836         estimate D2E/DX2                !
 ! D27   D(15,2,12,31)         -88.5471         estimate D2E/DX2                !
 ! D28   D(16,2,12,5)          -89.8413         estimate D2E/DX2                !
 ! D29   D(16,2,12,30)         149.2212         estimate D2E/DX2                !
 ! D30   D(16,2,12,31)          31.8905         estimate D2E/DX2                !
 ! D31   D(12,2,13,4)           36.8743         estimate D2E/DX2                !
 ! D32   D(15,2,13,4)          -86.3772         estimate D2E/DX2                !
 ! D33   D(16,2,13,4)          157.3532         estimate D2E/DX2                !
 ! D34   D(11,3,9,6)            68.4324         estimate D2E/DX2                !
 ! D35   D(11,3,9,7)           -55.1003         estimate D2E/DX2                !
 ! D36   D(11,3,9,25)         -174.9225         estimate D2E/DX2                !
 ! D37   D(9,3,11,10)           57.3467         estimate D2E/DX2                !
 ! D38   D(9,3,11,28)          178.464          estimate D2E/DX2                !
 ! D39   D(9,3,11,29)          -65.4853         estimate D2E/DX2                !
 ! D40   D(1,4,13,2)           -69.0529         estimate D2E/DX2                !
 ! D41   D(17,4,13,2)          169.8165         estimate D2E/DX2                !
 ! D42   D(18,4,13,2)           52.8233         estimate D2E/DX2                !
 ! D43   D(1,5,12,2)           -62.4025         estimate D2E/DX2                !
 ! D44   D(1,5,12,30)           59.0305         estimate D2E/DX2                !
 ! D45   D(1,5,12,31)          176.8878         estimate D2E/DX2                !
 ! D46   D(19,5,12,2)           56.6953         estimate D2E/DX2                !
 ! D47   D(19,5,12,30)         178.1284         estimate D2E/DX2                !
 ! D48   D(19,5,12,31)         -64.0144         estimate D2E/DX2                !
 ! D49   D(20,5,12,2)          175.2785         estimate D2E/DX2                !
 ! D50   D(20,5,12,30)         -63.2884         estimate D2E/DX2                !
 ! D51   D(20,5,12,31)          54.5689         estimate D2E/DX2                !
 ! D52   D(1,6,9,3)            163.8938         Frozen                          !
 ! D53   D(1,6,9,7)            -74.0079         estimate D2E/DX2                !
 ! D54   D(1,6,9,25)            49.849          estimate D2E/DX2                !
 ! D55   D(9,7,8,10)           -52.2655         estimate D2E/DX2                !
 ! D56   D(9,7,8,23)            68.5227         estimate D2E/DX2                !
 ! D57   D(9,7,8,24)          -174.0345         estimate D2E/DX2                !
 ! D58   D(21,7,8,10)         -175.9493         estimate D2E/DX2                !
 ! D59   D(21,7,8,23)          -55.1611         estimate D2E/DX2                !
 ! D60   D(21,7,8,24)           62.2816         estimate D2E/DX2                !
 ! D61   D(22,7,8,10)           66.1514         estimate D2E/DX2                !
 ! D62   D(22,7,8,23)         -173.0604         estimate D2E/DX2                !
 ! D63   D(22,7,8,24)          -55.6177         estimate D2E/DX2                !
 ! D64   D(8,7,9,3)             51.8938         estimate D2E/DX2                !
 ! D65   D(8,7,9,6)            -68.1301         estimate D2E/DX2                !
 ! D66   D(8,7,9,25)           168.647          estimate D2E/DX2                !
 ! D67   D(21,7,9,3)           176.1079         estimate D2E/DX2                !
 ! D68   D(21,7,9,6)            56.084          estimate D2E/DX2                !
 ! D69   D(21,7,9,25)          -67.1389         estimate D2E/DX2                !
 ! D70   D(22,7,9,3)           -68.1242         estimate D2E/DX2                !
 ! D71   D(22,7,9,6)           171.8519         estimate D2E/DX2                !
 ! D72   D(22,7,9,25)           48.629          estimate D2E/DX2                !
 ! D73   D(7,8,10,11)           52.9843         estimate D2E/DX2                !
 ! D74   D(7,8,10,26)          173.8709         estimate D2E/DX2                !
 ! D75   D(7,8,10,27)          -67.2694         estimate D2E/DX2                !
 ! D76   D(23,8,10,11)         -68.0285         estimate D2E/DX2                !
 ! D77   D(23,8,10,26)          52.8581         estimate D2E/DX2                !
 ! D78   D(23,8,10,27)         171.7178         estimate D2E/DX2                !
 ! D79   D(24,8,10,11)         174.2194         estimate D2E/DX2                !
 ! D80   D(24,8,10,26)         -64.8941         estimate D2E/DX2                !
 ! D81   D(24,8,10,27)          53.9656         estimate D2E/DX2                !
 ! D82   D(8,10,11,3)          -54.4236         estimate D2E/DX2                !
 ! D83   D(8,10,11,28)        -171.788          estimate D2E/DX2                !
 ! D84   D(8,10,11,29)          67.6121         estimate D2E/DX2                !
 ! D85   D(26,10,11,3)        -176.6238         estimate D2E/DX2                !
 ! D86   D(26,10,11,28)         66.0118         estimate D2E/DX2                !
 ! D87   D(26,10,11,29)        -54.588          estimate D2E/DX2                !
 ! D88   D(27,10,11,3)          66.1566         estimate D2E/DX2                !
 ! D89   D(27,10,11,28)        -51.2077         estimate D2E/DX2                !
 ! D90   D(27,10,11,29)       -171.8076         estimate D2E/DX2                !
 --------------------------------------------------------------------------------
 Trust Radius=3.00D-01 FncErr=1.00D-07 GrdErr=1.00D-06 EigMax=2.50D+02 EigMin=1.00D-04
 Number of steps in this run=    186 maximum allowed number of steps=    186.
 GradGradGradGradGradGradGradGradGradGradGradGradGradGradGradGradGradGrad

                          Input orientation:                          
 ---------------------------------------------------------------------
 Center     Atomic      Atomic             Coordinates (Angstroms)
 Number     Number       Type             X           Y           Z
 ---------------------------------------------------------------------
      1          6           0        1.016219    0.231338   -0.455356
      2          6           0        3.807938   -0.146367    0.462857
      3          8           0       -2.102442   -1.412781    0.081187
      4          6           0        1.975286   -0.904361   -0.826524
      5          6           0        1.691835    1.182576    0.533143
      6          8           0       -0.161789   -0.266479    0.160579
      7          6           0       -1.963894    0.579948   -1.261476
      8          6           0       -2.723411    1.362009   -0.189479
      9          6           0       -1.231674   -0.626021   -0.679080
     10          6           0       -3.620124    0.412904    0.603615
     11          6           0       -2.803781   -0.753934    1.130244
     12          6           0        3.191704    1.241509    0.252881
     13          8           0        2.864389   -1.182599    0.232972
     14          1           0        0.753979    0.763176   -1.360629
     15          1           0        4.664906   -0.295596   -0.187262
     16          1           0        4.132020   -0.270186    1.487525
     17          1           0        1.432322   -1.816108   -1.030821
     18          1           0        2.541303   -0.641141   -1.715441
     19          1           0        1.526476    0.809971    1.539458
     20          1           0        1.239597    2.166392    0.473603
     21          1           0       -1.267867    1.219299   -1.791265
     22          1           0       -2.665111    0.197210   -1.998605
     23          1           0       -2.022428    1.850322    0.482423
     24          1           0       -3.313134    2.145288   -0.655735
     25          1           0       -0.870443   -1.270906   -1.468458
     26          1           0       -4.089686    0.922612    1.440116
     27          1           0       -4.413932    0.035172   -0.036603
     28          1           0       -3.434048   -1.512866    1.572292
     29          1           0       -2.097294   -0.420926    1.882132
     30          1           0        3.360426    1.582487   -0.764555
     31          1           0        3.681062    1.953069    0.908978
 ---------------------------------------------------------------------
                    Distance matrix (angstroms):
                    1          2          3          4          5
     1  C    0.000000
     2  C    2.963017   0.000000
     3  O    3.566098   6.056572   0.000000
     4  C    1.532119   2.365517   4.208360   0.000000
     5  C    1.529196   2.499784   4.619164   2.506860   0.000000
     6  O    1.419472   3.983030   2.255315   2.438925   2.382118
     7  C    3.106836   6.067529   2.406846   4.231961   4.116816
     8  C    3.915858   6.734928   2.856278   5.255475   4.477586
     9  C    2.416224   5.189584   1.398297   3.222391   3.645190
    10  C    4.759208   7.450416   2.430929   5.923605   5.367892
    11  C    4.251739   6.673033   1.423544   5.166338   4.931244
    12  C    2.500956   1.532982   5.924755   2.692498   1.526967
    13  O    2.426674   1.420179   4.974478   1.410834   2.656885
    14  H    1.082193   3.671381   3.869465   2.134839   2.154494
    15  H    3.696275   1.085964   6.864195   2.830778   3.397518
    16  H    3.706013   1.081806   6.492444   3.226221   2.995975
    17  H    2.167103   3.265373   3.727438   1.080662   3.391966
    18  H    2.162155   2.567907   5.038618   1.086201   3.017229
    19  H    2.138799   2.697910   4.498469   2.956051   1.085748
    20  H    2.158077   3.456204   4.912606   3.414834   1.084416
    21  H    2.824494   5.719257   3.336231   3.994834   3.763517
    22  H    3.991863   6.933773   2.689647   4.911264   5.134557
    23  H    3.568461   6.162817   3.288652   5.028254   3.774150
    24  H    4.737790   7.563901   3.829972   6.107120   5.233542
    25  H    2.615838   5.184768   1.984780   2.940171   4.073236
    26  H    5.490076   8.029335   3.354085   6.727509   5.858000
    27  H    5.449805   8.239027   2.730097   6.506059   6.238713
    28  H    5.192156   7.452820   2.001646   5.948570   5.883869
    29  H    3.947564   6.079596   2.056017   4.914920   4.329952
    30  H    2.723328   2.166966   6.287276   2.847256   2.151312
    31  H    3.453571   2.150059   6.742633   3.753205   2.166088
                    6          7          8          9         10
     6  O    0.000000
     7  C    2.446684   0.000000
     8  C    3.055556   1.528942   0.000000
     9  C    1.406752   1.526333   2.533229   0.000000
    10  C    3.552172   2.499913   1.527708   2.903337   0.000000
    11  C    2.856219   2.864433   2.495064   2.400320   1.518310
    12  C    3.678106   5.413976   5.932857   4.891063   6.870997
    13  O    3.162637   5.352781   6.154430   4.233125   6.688192
    14  H    2.052534   2.725846   3.717853   2.517379   4.807673
    15  H    4.839300   6.772112   7.571980   5.926274   8.352795
    16  H    4.494173   6.740913   7.243848   5.795689   7.832218
    17  H    2.522295   4.162760   5.298906   2.938861   5.759087
    18  H    3.311575   4.689770   5.835956   3.912752   6.667249
    19  H    2.431109   4.481163   4.621202   3.819866   5.246042
    20  H    2.825018   3.973620   4.097822   3.903003   5.168028
    21  H    2.690844   1.083467   2.169030   2.154872   3.452367
    22  H    3.338219   1.086993   2.152462   2.115088   2.780310
    23  H    2.836619   2.158347   1.086867   2.847219   2.152554
    24  H    4.051415   2.153523   1.085677   3.466003   2.163645
    25  H    2.040790   2.159661   3.464321   1.081426   3.832682
    26  H    4.298782   3.454708   2.171487   3.880398   1.086289
    27  H    4.267387   2.792809   2.154467   3.313113   1.087516
    28  H    3.775459   3.817259   3.445831   3.271945   2.163689
    29  H    2.594952   3.301790   2.804006   2.711304   2.156128
    30  H    4.084183   5.440625   6.114932   5.096292   7.208876
    31  H    4.500444   6.201763   6.524817   5.771361   7.468110
                   11         12         13         14         15
    11  C    0.000000
    12  C    6.379451   0.000000
    13  O    5.754737   2.446187   0.000000
    14  H    4.600405   2.962215   3.283205   0.000000
    15  H    7.597841   2.174107   2.050666   4.218191   0.000000
    16  H    6.961824   2.166509   2.003320   4.537728   1.757704
    17  H    4.872677   3.753976   2.012293   2.687309   3.670579
    18  H    6.056448   2.800301   2.047895   2.300549   2.639019
    19  H    4.622162   2.148136   2.732627   3.001574   3.748811
    20  H    5.030744   2.171370   3.730093   2.359925   4.269762
    21  H    3.845503   4.905792   5.190587   2.116922   6.329734
    22  H    3.273164   6.360977   6.120390   3.523848   7.566569
    23  H    2.795055   5.254571   5.756893   3.505305   7.055060
    24  H    3.443058   6.629881   7.072936   4.352989   8.356225
    25  H    3.279986   5.077034   4.105074   2.605353   5.764788
    26  H    2.135504   7.384434   7.365342   5.597382   8.987506
    27  H    2.139347   7.706150   7.384416   5.384268   9.086111
    28  H    1.081028   7.295753   6.447725   5.596603   8.376803
    29  H    1.084137   5.778551   5.283765   4.477427   7.072867
    30  H    6.859051   1.086236   2.981076   2.796451   2.358417
    31  H    7.030648   1.084552   3.310038   3.890344   2.688157
                   16         17         18         19         20
    16  H    0.000000
    17  H    4.002538   0.000000
    18  H    3.595411   1.754734   0.000000
    19  H    2.821045   3.675798   3.705397   0.000000
    20  H    3.915490   4.261542   3.790593   1.748778   0.000000
    21  H    6.490594   4.133158   4.239901   4.366877   3.509129
    22  H    7.653271   4.666799   5.281076   5.519309   5.023568
    23  H    6.586654   5.260030   5.644965   3.846345   3.277314
    24  H    8.115319   6.192956   6.569749   5.479395   4.690758
    25  H    5.896093   2.406553   3.478163   4.372966   4.476482
    26  H    8.307916   6.640684   7.508187   5.618170   5.557193
    27  H    8.686167   6.212439   7.186876   6.194573   6.063398
    28  H    7.667909   5.527179   6.875603   5.477540   6.048720
    29  H    6.243620   4.784351   5.874318   3.842427   4.451181
    30  H    3.016557   3.916495   2.553364   3.044442   2.524261
    31  H    2.341141   4.798578   3.862195   2.519210   2.489138
                   21         22         23         24         25
    21  H    0.000000
    22  H    1.743544   0.000000
    23  H    2.477339   3.049807   0.000000
    24  H    2.515949   2.453210   1.745947   0.000000
    25  H    2.542296   2.378498   3.856821   4.277574   0.000000
    26  H    4.300292   3.792153   2.459955   2.547658   4.861569
    27  H    3.791928   2.633265   3.046875   2.459201   4.038857
    28  H    4.844645   4.033228   3.806773   4.284952   3.984567
    29  H    4.107570   3.970469   2.668962   3.808476   3.667981
    30  H    4.754696   6.304678   5.531890   6.698133   5.151464
    31  H    5.685211   7.197985   5.720341   7.169662   6.063202
                   26         27         28         29         30
    26  H    0.000000
    27  H    1.753107   0.000000
    28  H    2.525645   2.438265   0.000000
    29  H    2.443378   3.042430   1.753638   0.000000
    30  H    7.797447   7.960197   7.823487   6.387904   0.000000
    31  H    7.856747   8.372657   7.942133   6.322363   1.743804
                   31
    31  H    0.000000
 Stoichiometry    C10H18O3
 Framework group  C1[X(C10H18O3)]
 Deg. of freedom    87
 Full point group                 C1      NOp   1
 Largest Abelian subgroup         C1      NOp   1
 Largest concise Abelian subgroup C1      NOp   1
                         Standard orientation:                         
 ---------------------------------------------------------------------
 Center     Atomic      Atomic             Coordinates (Angstroms)
 Number     Number       Type             X           Y           Z
 ---------------------------------------------------------------------
      1          6           0       -1.016219    0.231338    0.455356
      2          6           0       -3.807938   -0.146367   -0.462857
      3          8           0        2.102442   -1.412781   -0.081187
      4          6           0       -1.975286   -0.904361    0.826524
      5          6           0       -1.691835    1.182576   -0.533143
      6          8           0        0.161789   -0.266479   -0.160579
      7          6           0        1.963894    0.579948    1.261476
      8          6           0        2.723411    1.362009    0.189479
      9          6           0        1.231674   -0.626021    0.679080
     10          6           0        3.620124    0.412904   -0.603615
     11          6           0        2.803781   -0.753934   -1.130244
     12          6           0       -3.191704    1.241509   -0.252881
     13          8           0       -2.864389   -1.182599   -0.232972
     14          1           0       -0.753979    0.763176    1.360629
     15          1           0       -4.664906   -0.295596    0.187262
     16          1           0       -4.132020   -0.270186   -1.487525
     17          1           0       -1.432322   -1.816108    1.030821
     18          1           0       -2.541303   -0.641141    1.715441
     19          1           0       -1.526476    0.809971   -1.539458
     20          1           0       -1.239597    2.166392   -0.473603
     21          1           0        1.267867    1.219299    1.791265
     22          1           0        2.665111    0.197210    1.998605
     23          1           0        2.022428    1.850322   -0.482423
     24          1           0        3.313134    2.145288    0.655735
     25          1           0        0.870443   -1.270906    1.468458
     26          1           0        4.089686    0.922612   -1.440116
     27          1           0        4.413932    0.035172    0.036603
     28          1           0        3.434048   -1.512866   -1.572292
     29          1           0        2.097294   -0.420926   -1.882132
     30          1           0       -3.360426    1.582487    0.764555
     31          1           0       -3.681062    1.953069   -0.908978
 ---------------------------------------------------------------------
 Rotational constants (GHZ):           1.9008588           0.4055949           0.3817408
 Standard basis: 6-311++G(2d,2p) (5D, 7F)
 There are   557 symmetry adapted cartesian basis functions of A   symmetry.
 There are   531 symmetry adapted basis functions of A   symmetry.
   531 basis functions,   762 primitive gaussians,   557 cartesian basis functions
    51 alpha electrons       51 beta electrons
       nuclear repulsion energy       892.0700080290 Hartrees.
 NAtoms=   31 NActive=   31 NUniq=   31 SFac= 1.00D+00 NAtFMM=   60 NAOKFM=F Big=F
 Integral buffers will be    131072 words long.
 Raffenetti 2 integral format.
 Two-electron integral symmetry is turned on.
 ------------------------------------------------------------------------------
 Polarizable Continuum Model (PCM)
 =================================
 Model                : PCM.
 Atomic radii         : UFF (Universal Force Field).
 Polarization charges : Total charges.
 Charge compensation  : None.
 Solution method      : On-the-fly selection.
 Cavity type          : Scaled VdW (van der Waals Surface) (Alpha=1.100).
 Cavity algorithm     : GePol (No added spheres)
                        Default sphere list used, NSphG=   31.
                        Lebedev-Laikov grids with approx.  5.0 points / Ang**2.
                        Smoothing algorithm: York/Karplus (Gamma=1.0000).
                        Polarization charges: spherical gaussians, with
                                              point-specific exponents (IZeta= 3).
                        Self-potential: point-specific (ISelfS= 7).
                        Self-field    : sphere-specific E.n sum rule (ISelfD= 2).
 1st derivatives      : Analytical E(r).r(x)/FMM algorithm (CHGder, D1EAlg=3).
                        Cavity 1st derivative terms included.
 Solvent              : Water, Eps=  78.355300 Eps(inf)=   1.777849
 ------------------------------------------------------------------------------
 One-electron integrals computed using PRISM.
 NBasis=   531 RedAO= T EigKep=  4.51D-06  NBF=   531
 NBsUse=   531 1.00D-06 EigRej= -1.00D+00 NBFU=   531
 ExpMin= 3.60D-02 ExpMax= 8.59D+03 ExpMxC= 1.30D+03 IAcc=3 IRadAn=         5 AccDes= 0.00D+00
 Harris functional with IExCor= 1009 and IRadAn=       5 diagonalized for initial guess.
 HarFok:  IExCor= 1009 AccDes= 0.00D+00 IRadAn=         5 IDoV= 1 UseB2=F ITyADJ=14
 ICtDFT=  3500011 ScaDFX=  1.000000  1.000000  1.000000  1.000000
 FoFCou: FMM=F IPFlag=           0 FMFlag=      100000 FMFlg1=           0
         NFxFlg=           0 DoJE=T BraDBF=F KetDBF=T FulRan=T
         wScrn=  0.000000 ICntrl=       500 IOpCl=  0 I1Cent=   200000004 NGrid=           0
         NMat0=    1 NMatS0=      1 NMatT0=    0 NMatD0=    1 NMtDS0=    0 NMtDT0=    0
 Petite list used in FoFCou.
 Requested convergence on RMS density matrix=1.00D-08 within 128 cycles.
 Requested convergence on MAX density matrix=1.00D-06.
 Requested convergence on             energy=1.00D-06.
 No special actions if energy rises.
 Inv3:  Mode=1 IEnd=    12854700.
 Iteration    1 A*A^-1 deviation from unit magnitude is 5.11D-15 for   2041.
 Iteration    1 A*A^-1 deviation from orthogonality  is 2.12D-15 for   2041    983.
 Iteration    1 A^-1*A deviation from unit magnitude is 5.11D-15 for   2041.
 Iteration    1 A^-1*A deviation from orthogonality  is 1.21D-15 for   1838   1378.
 Error on total polarization charges =  0.01484
 SCF Done:  E(RM062X) =  -617.490572809     A.U. after   12 cycles
            NFock= 12  Conv=0.45D-08     -V/T= 2.0035

 **********************************************************************

            Population analysis using the SCF density.

 **********************************************************************

 Orbital symmetries:
       Occupied  (A) (A) (A) (A) (A) (A) (A) (A) (A) (A) (A) (A)
                 (A) (A) (A) (A) (A) (A) (A) (A) (A) (A) (A) (A)
                 (A) (A) (A) (A) (A) (A) (A) (A) (A) (A) (A) (A)
                 (A) (A) (A) (A) (A) (A) (A) (A) (A) (A) (A) (A)
                 (A) (A) (A)
       Virtual   (A) (A) (A) (A) (A) (A) (A) (A) (A) (A) (A) (A)
                 (A) (A) (A) (A) (A) (A) (A) (A) (A) (A) (A) (A)
                 (A) (A) (A) (A) (A) (A) (A) (A) (A) (A) (A) (A)
                 (A) (A) (A) (A) (A) (A) (A) (A) (A) (A) (A) (A)
                 (A) (A) (A) (A) (A) (A) (A) (A) (A) (A) (A) (A)
                 (A) (A) (A) (A) (A) (A) (A) (A) (A) (A) (A) (A)
                 (A) (A) (A) (A) (A) (A) (A) (A) (A) (A) (A) (A)
                 (A) (A) (A) (A) (A) (A) (A) (A) (A) (A) (A) (A)
                 (A) (A) (A) (A) (A) (A) (A) (A) (A) (A) (A) (A)
                 (A) (A) (A) (A) (A) (A) (A) (A) (A) (A) (A) (A)
                 (A) (A) (A) (A) (A) (A) (A) (A) (A) (A) (A) (A)
                 (A) (A) (A) (A) (A) (A) (A) (A) (A) (A) (A) (A)
                 (A) (A) (A) (A) (A) (A) (A) (A) (A) (A) (A) (A)
                 (A) (A) (A) (A) (A) (A) (A) (A) (A) (A) (A) (A)
                 (A) (A) (A) (A) (A) (A) (A) (A) (A) (A) (A) (A)
                 (A) (A) (A) (A) (A) (A) (A) (A) (A) (A) (A) (A)
                 (A) (A) (A) (A) (A) (A) (A) (A) (A) (A) (A) (A)
                 (A) (A) (A) (A) (A) (A) (A) (A) (A) (A) (A) (A)
                 (A) (A) (A) (A) (A) (A) (A) (A) (A) (A) (A) (A)
                 (A) (A) (A) (A) (A) (A) (A) (A) (A) (A) (A) (A)
                 (A) (A) (A) (A) (A) (A) (A) (A) (A) (A) (A) (A)
                 (A) (A) (A) (A) (A) (A) (A) (A) (A) (A) (A) (A)
                 (A) (A) (A) (A) (A) (A) (A) (A) (A) (A) (A) (A)
                 (A) (A) (A) (A) (A) (A) (A) (A) (A) (A) (A) (A)
                 (A) (A) (A) (A) (A) (A) (A) (A) (A) (A) (A) (A)
                 (A) (A) (A) (A) (A) (A) (A) (A) (A) (A) (A) (A)
                 (A) (A) (A) (A) (A) (A) (A) (A) (A) (A) (A) (A)
                 (A) (A) (A) (A) (A) (A) (A) (A) (A) (A) (A) (A)
                 (A) (A) (A) (A) (A) (A) (A) (A) (A) (A) (A) (A)
                 (A) (A) (A) (A) (A) (A) (A) (A) (A) (A) (A) (A)
                 (A) (A) (A) (A) (A) (A) (A) (A) (A) (A) (A) (A)
                 (A) (A) (A) (A) (A) (A) (A) (A) (A) (A) (A) (A)
                 (A) (A) (A) (A) (A) (A) (A) (A) (A) (A) (A) (A)
                 (A) (A) (A) (A) (A) (A) (A) (A) (A) (A) (A) (A)
                 (A) (A) (A) (A) (A) (A) (A) (A) (A) (A) (A) (A)
                 (A) (A) (A) (A) (A) (A) (A) (A) (A) (A) (A) (A)
                 (A) (A) (A) (A) (A) (A) (A) (A) (A) (A) (A) (A)
                 (A) (A) (A) (A) (A) (A) (A) (A) (A) (A) (A) (A)
                 (A) (A) (A) (A) (A) (A) (A) (A) (A) (A) (A) (A)
                 (A) (A) (A) (A) (A) (A) (A) (A) (A) (A) (A) (A)
 The electronic state is 1-A.
 Alpha  occ. eigenvalues --  -19.62942 -19.62747 -19.62588 -10.63591 -10.58913
 Alpha  occ. eigenvalues --  -10.57832 -10.57826 -10.57664 -10.53278 -10.53230
 Alpha  occ. eigenvalues --  -10.52989 -10.52930 -10.52750  -1.20160  -1.16516
 Alpha  occ. eigenvalues --   -1.13505  -0.90464  -0.89993  -0.87110  -0.84872
 Alpha  occ. eigenvalues --   -0.75453  -0.74158  -0.73496  -0.71398  -0.64860
 Alpha  occ. eigenvalues --   -0.62596  -0.60530  -0.59109  -0.57788  -0.56881
 Alpha  occ. eigenvalues --   -0.54993  -0.53691  -0.52420  -0.50561  -0.49658
 Alpha  occ. eigenvalues --   -0.48128  -0.46383  -0.45997  -0.45231  -0.44943
 Alpha  occ. eigenvalues --   -0.44188  -0.42647  -0.41522  -0.40107  -0.39755
 Alpha  occ. eigenvalues --   -0.38477  -0.38180  -0.36596  -0.34657  -0.33278
 Alpha  occ. eigenvalues --   -0.31082
 Alpha virt. eigenvalues --   -0.00189   0.00756   0.00845   0.01140   0.02236
 Alpha virt. eigenvalues --    0.02430   0.02623   0.03480   0.03563   0.04409
 Alpha virt. eigenvalues --    0.04511   0.04764   0.05526   0.05682   0.07106
 Alpha virt. eigenvalues --    0.07459   0.07807   0.08274   0.09286   0.09477
 Alpha virt. eigenvalues --    0.09563   0.10511   0.10581   0.11174   0.11739
 Alpha virt. eigenvalues --    0.12337   0.12485   0.12684   0.13015   0.13275
 Alpha virt. eigenvalues --    0.13650   0.13831   0.14254   0.14557   0.14872
 Alpha virt. eigenvalues --    0.15058   0.15502   0.15737   0.16223   0.16395
 Alpha virt. eigenvalues --    0.16416   0.16835   0.17092   0.17190   0.17579
 Alpha virt. eigenvalues --    0.18044   0.18451   0.18759   0.19088   0.19405
 Alpha virt. eigenvalues --    0.19969   0.20216   0.20584   0.20913   0.21425
 Alpha virt. eigenvalues --    0.21630   0.22214   0.22834   0.23454   0.24100
 Alpha virt. eigenvalues --    0.24815   0.24922   0.25448   0.26356   0.26819
 Alpha virt. eigenvalues --    0.27492   0.28117   0.28428   0.29213   0.29403
 Alpha virt. eigenvalues --    0.30051   0.30247   0.30779   0.31737   0.32336
 Alpha virt. eigenvalues --    0.32623   0.32963   0.33565   0.33958   0.34136
 Alpha virt. eigenvalues --    0.34439   0.34767   0.35748   0.35863   0.36179
 Alpha virt. eigenvalues --    0.36775   0.37200   0.37585   0.38256   0.38594
 Alpha virt. eigenvalues --    0.38937   0.39370   0.39711   0.39882   0.41129
 Alpha virt. eigenvalues --    0.41830   0.42268   0.42511   0.44036   0.46189
 Alpha virt. eigenvalues --    0.46833   0.48763   0.48959   0.49983   0.51523
 Alpha virt. eigenvalues --    0.52269   0.52444   0.53425   0.54579   0.55542
 Alpha virt. eigenvalues --    0.56028   0.56994   0.57183   0.58289   0.58626
 Alpha virt. eigenvalues --    0.59443   0.59782   0.60511   0.60895   0.61025
 Alpha virt. eigenvalues --    0.61697   0.62214   0.62519   0.62816   0.63869
 Alpha virt. eigenvalues --    0.64359   0.65321   0.65605   0.65827   0.67124
 Alpha virt. eigenvalues --    0.67690   0.68196   0.68565   0.68979   0.69883
 Alpha virt. eigenvalues --    0.70746   0.71290   0.72077   0.72373   0.72675
 Alpha virt. eigenvalues --    0.73127   0.74323   0.74877   0.75702   0.76235
 Alpha virt. eigenvalues --    0.76539   0.76871   0.77688   0.78256   0.79250
 Alpha virt. eigenvalues --    0.80534   0.81865   0.82282   0.84573   0.85674
 Alpha virt. eigenvalues --    0.86199   0.86947   0.88039   0.88066   0.89909
 Alpha virt. eigenvalues --    0.91561   0.92114   0.93221   0.94773   0.95293
 Alpha virt. eigenvalues --    0.97349   0.98665   1.00214   1.00868   1.02617
 Alpha virt. eigenvalues --    1.03213   1.04202   1.04569   1.05607   1.07103
 Alpha virt. eigenvalues --    1.08394   1.08657   1.09345   1.10555   1.11963
 Alpha virt. eigenvalues --    1.12401   1.13347   1.14756   1.15961   1.16326
 Alpha virt. eigenvalues --    1.17109   1.18863   1.19221   1.19447   1.20582
 Alpha virt. eigenvalues --    1.21091   1.22626   1.23026   1.24256   1.24714
 Alpha virt. eigenvalues --    1.24887   1.25640   1.26188   1.26830   1.27434
 Alpha virt. eigenvalues --    1.27553   1.28935   1.29516   1.29898   1.30500
 Alpha virt. eigenvalues --    1.31250   1.32750   1.33358   1.33731   1.34598
 Alpha virt. eigenvalues --    1.35677   1.36072   1.37016   1.37406   1.38341
 Alpha virt. eigenvalues --    1.38434   1.39124   1.39557   1.40455   1.41127
 Alpha virt. eigenvalues --    1.42280   1.43023   1.43585   1.44612   1.45319
 Alpha virt. eigenvalues --    1.45668   1.45799   1.46688   1.47416   1.47924
 Alpha virt. eigenvalues --    1.48460   1.50094   1.50390   1.51268   1.52300
 Alpha virt. eigenvalues --    1.52651   1.53300   1.53815   1.55340   1.55951
 Alpha virt. eigenvalues --    1.56191   1.56777   1.57773   1.57972   1.58578
 Alpha virt. eigenvalues --    1.59469   1.59848   1.60109   1.60533   1.62069
 Alpha virt. eigenvalues --    1.62431   1.63518   1.64218   1.65438   1.66008
 Alpha virt. eigenvalues --    1.67822   1.68160   1.69375   1.70292   1.70776
 Alpha virt. eigenvalues --    1.72280   1.73428   1.75206   1.75431   1.76477
 Alpha virt. eigenvalues --    1.78072   1.78815   1.80027   1.81744   1.83217
 Alpha virt. eigenvalues --    1.84634   1.87445   1.89402   1.94685   1.99340
 Alpha virt. eigenvalues --    2.04983   2.06867   2.08199   2.14925   2.17244
 Alpha virt. eigenvalues --    2.22894   2.25275   2.27763   2.34667   2.36317
 Alpha virt. eigenvalues --    2.40186   2.43016   2.43980   2.47247   2.50175
 Alpha virt. eigenvalues --    2.57557   2.75964   2.77219   2.79614   2.82216
 Alpha virt. eigenvalues --    2.85062   2.86668   2.90670   2.91395   2.93370
 Alpha virt. eigenvalues --    2.94916   2.95733   2.97304   3.01517   3.02609
 Alpha virt. eigenvalues --    3.04738   3.06275   3.08481   3.09940   3.11294
 Alpha virt. eigenvalues --    3.12149   3.13732   3.16183   3.18001   3.21253
 Alpha virt. eigenvalues --    3.26363   3.29144   3.31005   3.33101   3.33833
 Alpha virt. eigenvalues --    3.34191   3.35653   3.36346   3.38414   3.38821
 Alpha virt. eigenvalues --    3.41545   3.43003   3.44152   3.45798   3.46367
 Alpha virt. eigenvalues --    3.46929   3.48467   3.49225   3.50739   3.51315
 Alpha virt. eigenvalues --    3.52333   3.53206   3.54622   3.54977   3.55095
 Alpha virt. eigenvalues --    3.56394   3.57170   3.57854   3.58863   3.60048
 Alpha virt. eigenvalues --    3.61003   3.61551   3.62936   3.63740   3.65504
 Alpha virt. eigenvalues --    3.65724   3.67183   3.67884   3.68875   3.69937
 Alpha virt. eigenvalues --    3.70288   3.71360   3.72566   3.73837   3.74775
 Alpha virt. eigenvalues --    3.74795   3.75507   3.76510   3.77390   3.79046
 Alpha virt. eigenvalues --    3.79976   3.81109   3.81830   3.83761   3.84917
 Alpha virt. eigenvalues --    3.86522   3.87282   3.88729   3.89425   3.91560
 Alpha virt. eigenvalues --    3.93515   3.94140   3.96593   3.96602   3.98051
 Alpha virt. eigenvalues --    3.98976   3.99348   4.01927   4.02554   4.02870
 Alpha virt. eigenvalues --    4.04766   4.05110   4.06706   4.06774   4.07734
 Alpha virt. eigenvalues --    4.08824   4.09469   4.10285   4.10911   4.11329
 Alpha virt. eigenvalues --    4.11891   4.12605   4.13951   4.14117   4.15269
 Alpha virt. eigenvalues --    4.16171   4.16700   4.17923   4.19256   4.19743
 Alpha virt. eigenvalues --    4.22206   4.23251   4.24096   4.25532   4.26284
 Alpha virt. eigenvalues --    4.27322   4.28336   4.30588   4.31272   4.32672
 Alpha virt. eigenvalues --    4.33674   4.34145   4.35286   4.36495   4.38638
 Alpha virt. eigenvalues --    4.40384   4.41387   4.43490   4.47511   4.54080
 Alpha virt. eigenvalues --    4.58561   4.60061   4.73232   4.75508   4.82315
 Alpha virt. eigenvalues --    4.85888   4.93212   4.95599   4.99742   5.01450
 Alpha virt. eigenvalues --    5.04707   5.07052   5.08278   5.11146   5.12330
 Alpha virt. eigenvalues --    5.14105   5.15201   5.16546   5.32765   5.34694
 Alpha virt. eigenvalues --    5.42061   5.56939   5.60702   5.63406   5.85908
 Alpha virt. eigenvalues --    5.87777   6.02922   7.02819   7.04164   7.07401
 Alpha virt. eigenvalues --    7.08174   7.09906   7.11708   7.13287   7.16731
 Alpha virt. eigenvalues --    7.24304   7.35011   7.39044   7.46912   7.53030
 Alpha virt. eigenvalues --    7.56908   7.62648  23.95110  23.98508  24.05868
 Alpha virt. eigenvalues --   24.07579  24.11136  24.11744  24.13364  24.15113
 Alpha virt. eigenvalues --   24.16946  24.19126  50.16849  50.18387  50.24646
          Condensed to atoms (all electrons):
               1          2          3          4          5          6
     1  C    7.974952   0.056010  -0.029426  -0.672077  -1.343986   0.171217
     2  C    0.056010   5.569321   0.000248  -0.103335   0.010788   0.015661
     3  O   -0.029426   0.000248   8.230054   0.016737  -0.000144   0.007251
     4  C   -0.672077  -0.103335   0.016737   6.178111   0.154830  -0.106647
     5  C   -1.343986   0.010788  -0.000144   0.154830   6.818494  -0.200445
     6  O    0.171217   0.015661   0.007251  -0.106647  -0.200445   8.229458
     7  C    0.279928  -0.005751   0.000675  -0.076224  -0.032871  -0.044684
     8  C    0.065212   0.004229   0.016413  -0.022618  -0.017846  -0.040597
     9  C   -0.863938   0.025338   0.165802   0.174556   0.231372   0.306095
    10  C    0.006878  -0.001397  -0.082402   0.006627  -0.014358  -0.019655
    11  C    0.044008   0.000764   0.142907  -0.016413   0.004385   0.000481
    12  C    0.124853  -0.219279   0.001364  -0.008268  -0.176821   0.012098
    13  O   -0.017765   0.071483   0.000463   0.102930  -0.026728   0.024211
    14  H    0.559150  -0.003240   0.003319  -0.109793  -0.095800  -0.010247
    15  H    0.057295   0.511836   0.000080  -0.033962  -0.036124   0.001000
    16  H   -0.023484   0.420774  -0.000149   0.022425  -0.007207   0.000342
    17  H    0.042922   0.024391  -0.001334   0.343670  -0.016227  -0.006754
    18  H   -0.095461   0.020950   0.000656   0.458376   0.027041   0.013856
    19  H   -0.092782  -0.039312   0.000019  -0.031400   0.519421  -0.012132
    20  H   -0.070390  -0.000589  -0.000773   0.025599   0.435659   0.006401
    21  H   -0.024708  -0.000907   0.005270   0.004434   0.027993  -0.012794
    22  H   -0.001105   0.000594  -0.010101  -0.003048  -0.002946   0.007713
    23  H    0.009828   0.000811   0.001021  -0.000833  -0.005068   0.004528
    24  H    0.008855  -0.000076   0.001046  -0.000122  -0.001989  -0.000154
    25  H   -0.040413  -0.005905  -0.071583   0.043827   0.007798  -0.034606
    26  H    0.001387   0.000008   0.010796  -0.000514  -0.000979   0.000182
    27  H   -0.004633  -0.000038  -0.008345   0.000655   0.000473  -0.001098
    28  H   -0.001176   0.000045  -0.076325  -0.000224  -0.000100   0.000822
    29  H   -0.007809   0.000477  -0.035330   0.002632   0.001385  -0.012433
    30  H   -0.072389  -0.085033  -0.000096  -0.002099   0.010165  -0.001705
    31  H    0.017484  -0.015727   0.000108  -0.005161  -0.031375  -0.000979
               7          8          9         10         11         12
     1  C    0.279928   0.065212  -0.863938   0.006878   0.044008   0.124853
     2  C   -0.005751   0.004229   0.025338  -0.001397   0.000764  -0.219279
     3  O    0.000675   0.016413   0.165802  -0.082402   0.142907   0.001364
     4  C   -0.076224  -0.022618   0.174556   0.006627  -0.016413  -0.008268
     5  C   -0.032871  -0.017846   0.231372  -0.014358   0.004385  -0.176821
     6  O   -0.044684  -0.040597   0.306095  -0.019655   0.000481   0.012098
     7  C    6.590535  -0.142338  -1.334778  -0.185606   0.203136   0.026089
     8  C   -0.142338   5.801165  -0.040930  -0.082859   0.012824  -0.025811
     9  C   -1.334778  -0.040930   7.365938   0.312959  -0.383555  -0.074553
    10  C   -0.185606  -0.082859   0.312959   5.846406  -0.074331   0.006799
    11  C    0.203136   0.012824  -0.383555  -0.074331   5.479212   0.000352
    12  C    0.026089  -0.025811  -0.074553   0.006799   0.000352   5.823884
    13  O    0.000583   0.002900  -0.011931   0.000235  -0.000402   0.043830
    14  H   -0.021141  -0.008229   0.005338   0.006659   0.000633   0.014604
    15  H    0.001498  -0.000042  -0.005108   0.000016   0.000030  -0.093361
    16  H   -0.001779   0.000205   0.004989   0.000052  -0.000144   0.004606
    17  H    0.008562   0.000611  -0.008974   0.001541  -0.000794  -0.007374
    18  H    0.002866   0.002808  -0.007785  -0.000603   0.000583  -0.026250
    19  H    0.003969   0.002028  -0.011345   0.002942  -0.000896  -0.004030
    20  H   -0.002968   0.006585   0.019854  -0.001348  -0.005617  -0.010307
    21  H    0.469637  -0.020868  -0.074526  -0.016377   0.010565  -0.001882
    22  H    0.518186  -0.005302  -0.119005  -0.032804   0.012993  -0.001145
    23  H   -0.038973   0.529515  -0.039514  -0.091147   0.005646  -0.005485
    24  H   -0.052024   0.423859   0.000724  -0.008753   0.006798  -0.000293
    25  H   -0.052132  -0.046933   0.493712   0.016484  -0.012046   0.006487
    26  H    0.006635  -0.047620   0.007569   0.429464  -0.033050  -0.000132
    27  H   -0.024908  -0.015314   0.013287   0.477177  -0.074156  -0.000052
    28  H    0.008677  -0.002661   0.007329  -0.026742   0.432038   0.000392
    29  H    0.009154   0.009400  -0.006328  -0.103504   0.493401  -0.001549
    30  H   -0.001601   0.000324   0.002183   0.000323  -0.000106   0.519865
    31  H    0.001879  -0.000360  -0.003857  -0.000534   0.000632   0.394824
              13         14         15         16         17         18
     1  C   -0.017765   0.559150   0.057295  -0.023484   0.042922  -0.095461
     2  C    0.071483  -0.003240   0.511836   0.420774   0.024391   0.020950
     3  O    0.000463   0.003319   0.000080  -0.000149  -0.001334   0.000656
     4  C    0.102930  -0.109793  -0.033962   0.022425   0.343670   0.458376
     5  C   -0.026728  -0.095800  -0.036124  -0.007207  -0.016227   0.027041
     6  O    0.024211  -0.010247   0.001000   0.000342  -0.006754   0.013856
     7  C    0.000583  -0.021141   0.001498  -0.001779   0.008562   0.002866
     8  C    0.002900  -0.008229  -0.000042   0.000205   0.000611   0.002808
     9  C   -0.011931   0.005338  -0.005108   0.004989  -0.008974  -0.007785
    10  C    0.000235   0.006659   0.000016   0.000052   0.001541  -0.000603
    11  C   -0.000402   0.000633   0.000030  -0.000144  -0.000794   0.000583
    12  C    0.043830   0.014604  -0.093361   0.004606  -0.007374  -0.026250
    13  O    8.373173   0.010940  -0.070823  -0.075493  -0.073729  -0.037250
    14  H    0.010940   0.487054   0.003415   0.000220   0.006376  -0.010435
    15  H   -0.070823   0.003415   0.527459  -0.026506  -0.000741   0.007297
    16  H   -0.075493   0.000220  -0.026506   0.506713   0.000821  -0.004113
    17  H   -0.073729   0.006376  -0.000741   0.000821   0.489186  -0.007582
    18  H   -0.037250  -0.010435   0.007297  -0.004113  -0.007582   0.482143
    19  H   -0.000932   0.003450  -0.004424   0.006520   0.002647  -0.000184
    20  H   -0.000420  -0.014396   0.000966  -0.001771  -0.001701   0.000502
    21  H   -0.000650  -0.003790  -0.000376   0.000062  -0.001491   0.002501
    22  H    0.000242  -0.001824   0.000030  -0.000010   0.001363  -0.000183
    23  H   -0.000105  -0.000924   0.000004   0.000007   0.000821  -0.000261
    24  H    0.000019   0.001091   0.000022  -0.000027   0.000174  -0.000036
    25  H   -0.000306  -0.012629  -0.000668   0.000364  -0.015531  -0.000614
    26  H    0.000024   0.000238  -0.000001   0.000013   0.000032   0.000025
    27  H   -0.000010  -0.000732  -0.000004   0.000003  -0.000284   0.000005
    28  H   -0.000050   0.000271   0.000012  -0.000014   0.000113   0.000014
    29  H    0.000324   0.000503   0.000031  -0.000095  -0.001390   0.000223
    30  H    0.002046  -0.012330  -0.016105   0.007351  -0.001053  -0.005132
    31  H    0.009968   0.001044   0.001467  -0.008694   0.001590  -0.000310
              19         20         21         22         23         24
     1  C   -0.092782  -0.070390  -0.024708  -0.001105   0.009828   0.008855
     2  C   -0.039312  -0.000589  -0.000907   0.000594   0.000811  -0.000076
     3  O    0.000019  -0.000773   0.005270  -0.010101   0.001021   0.001046
     4  C   -0.031400   0.025599   0.004434  -0.003048  -0.000833  -0.000122
     5  C    0.519421   0.435659   0.027993  -0.002946  -0.005068  -0.001989
     6  O   -0.012132   0.006401  -0.012794   0.007713   0.004528  -0.000154
     7  C    0.003969  -0.002968   0.469637   0.518186  -0.038973  -0.052024
     8  C    0.002028   0.006585  -0.020868  -0.005302   0.529515   0.423859
     9  C   -0.011345   0.019854  -0.074526  -0.119005  -0.039514   0.000724
    10  C    0.002942  -0.001348  -0.016377  -0.032804  -0.091147  -0.008753
    11  C   -0.000896  -0.005617   0.010565   0.012993   0.005646   0.006798
    12  C   -0.004030  -0.010307  -0.001882  -0.001145  -0.005485  -0.000293
    13  O   -0.000932  -0.000420  -0.000650   0.000242  -0.000105   0.000019
    14  H    0.003450  -0.014396  -0.003790  -0.001824  -0.000924   0.001091
    15  H   -0.004424   0.000966  -0.000376   0.000030   0.000004   0.000022
    16  H    0.006520  -0.001771   0.000062  -0.000010   0.000007  -0.000027
    17  H    0.002647  -0.001701  -0.001491   0.001363   0.000821   0.000174
    18  H   -0.000184   0.000502   0.002501  -0.000183  -0.000261  -0.000036
    19  H    0.472581  -0.020145   0.001041   0.000010  -0.000308   0.000158
    20  H   -0.020145   0.495290  -0.002715   0.000284  -0.002364   0.000299
    21  H    0.001041  -0.002715   0.489323  -0.005466  -0.002743  -0.009750
    22  H    0.000010   0.000284  -0.005466   0.450074   0.004813  -0.004590
    23  H   -0.000308  -0.002364  -0.002743   0.004813   0.479277  -0.007925
    24  H    0.000158   0.000299  -0.009750  -0.004590  -0.007925   0.473648
    25  H   -0.002360   0.002613  -0.004605  -0.009362  -0.003265   0.000028
    26  H    0.000133   0.000047   0.001557  -0.002485  -0.005393  -0.007470
    27  H   -0.000005   0.000244  -0.001505  -0.000419   0.001647  -0.003676
    28  H   -0.000001  -0.000138   0.000809   0.000615  -0.002252   0.000932
    29  H   -0.002158   0.001087  -0.000120  -0.001569  -0.002330  -0.000303
    30  H    0.004359  -0.002120   0.001542  -0.000046  -0.000071  -0.000052
    31  H    0.002022  -0.011851   0.000315  -0.000001   0.000207   0.000001
              25         26         27         28         29         30
     1  C   -0.040413   0.001387  -0.004633  -0.001176  -0.007809  -0.072389
     2  C   -0.005905   0.000008  -0.000038   0.000045   0.000477  -0.085033
     3  O   -0.071583   0.010796  -0.008345  -0.076325  -0.035330  -0.000096
     4  C    0.043827  -0.000514   0.000655  -0.000224   0.002632  -0.002099
     5  C    0.007798  -0.000979   0.000473  -0.000100   0.001385   0.010165
     6  O   -0.034606   0.000182  -0.001098   0.000822  -0.012433  -0.001705
     7  C   -0.052132   0.006635  -0.024908   0.008677   0.009154  -0.001601
     8  C   -0.046933  -0.047620  -0.015314  -0.002661   0.009400   0.000324
     9  C    0.493712   0.007569   0.013287   0.007329  -0.006328   0.002183
    10  C    0.016484   0.429464   0.477177  -0.026742  -0.103504   0.000323
    11  C   -0.012046  -0.033050  -0.074156   0.432038   0.493401  -0.000106
    12  C    0.006487  -0.000132  -0.000052   0.000392  -0.001549   0.519865
    13  O   -0.000306   0.000024  -0.000010  -0.000050   0.000324   0.002046
    14  H   -0.012629   0.000238  -0.000732   0.000271   0.000503  -0.012330
    15  H   -0.000668  -0.000001  -0.000004   0.000012   0.000031  -0.016105
    16  H    0.000364   0.000013   0.000003  -0.000014  -0.000095   0.007351
    17  H   -0.015531   0.000032  -0.000284   0.000113  -0.001390  -0.001053
    18  H   -0.000614   0.000025   0.000005   0.000014   0.000223  -0.005132
    19  H   -0.002360   0.000133  -0.000005  -0.000001  -0.002158   0.004359
    20  H    0.002613   0.000047   0.000244  -0.000138   0.001087  -0.002120
    21  H   -0.004605   0.001557  -0.001505   0.000809  -0.000120   0.001542
    22  H   -0.009362  -0.002485  -0.000419   0.000615  -0.001569  -0.000046
    23  H   -0.003265  -0.005393   0.001647  -0.002252  -0.002330  -0.000071
    24  H    0.000028  -0.007470  -0.003676   0.000932  -0.000303  -0.000052
    25  H    0.467267   0.001212   0.001009   0.002307  -0.000532   0.000514
    26  H    0.001212   0.484998  -0.006855  -0.009923   0.002514   0.000004
    27  H    0.001009  -0.006855   0.478690  -0.005208   0.003427   0.000017
    28  H    0.002307  -0.009923  -0.005208   0.473871  -0.015899  -0.000017
    29  H   -0.000532   0.002514   0.003427  -0.015899   0.498770  -0.000124
    30  H    0.000514   0.000004   0.000017  -0.000017  -0.000124   0.470016
    31  H   -0.000432  -0.000016  -0.000009   0.000024   0.000106  -0.006767
              31
     1  C    0.017484
     2  C   -0.015727
     3  O    0.000108
     4  C   -0.005161
     5  C   -0.031375
     6  O   -0.000979
     7  C    0.001879
     8  C   -0.000360
     9  C   -0.003857
    10  C   -0.000534
    11  C    0.000632
    12  C    0.394824
    13  O    0.009968
    14  H    0.001044
    15  H    0.001467
    16  H   -0.008694
    17  H    0.001590
    18  H   -0.000310
    19  H    0.002022
    20  H   -0.011851
    21  H    0.000315
    22  H   -0.000001
    23  H    0.000207
    24  H    0.000001
    25  H   -0.000432
    26  H   -0.000016
    27  H   -0.000009
    28  H    0.000024
    29  H    0.000106
    30  H   -0.006767
    31  H    0.486682
 Mulliken charges:
               1
     1  C   -0.058436
     2  C   -0.253140
     3  O   -0.288223
     4  C   -0.342672
     5  C   -0.238792
     6  O   -0.296389
     7  C   -0.114229
     8  C   -0.357747
     9  C   -0.150917
    10  C   -0.372145
    11  C   -0.249879
    12  C   -0.323458
    13  O   -0.326776
    14  H    0.201205
    15  H    0.175787
    16  H    0.174017
    17  H    0.220138
    18  H    0.176352
    19  H    0.201113
    20  H    0.154184
    21  H    0.170226
    22  H    0.204494
    23  H    0.170839
    24  H    0.179585
    25  H    0.270297
    26  H    0.167597
    27  H    0.170618
    28  H    0.212462
    29  H    0.168038
    30  H    0.188134
    31  H    0.167718
 Sum of Mulliken charges =  -0.00000
 Mulliken charges with hydrogens summed into heavy atoms:
               1
     1  C    0.142769
     2  C    0.096665
     3  O   -0.288223
     4  C    0.053818
     5  C    0.116506
     6  O   -0.296389
     7  C    0.260491
     8  C   -0.007323
     9  C    0.119380
    10  C   -0.033930
    11  C    0.130620
    12  C    0.032394
    13  O   -0.326776
 Electronic spatial extent (au):  <R**2>=           3085.9175
 Charge=             -0.0000 electrons
 Dipole moment (field-independent basis, Debye):
    X=             -0.1745    Y=              4.2072    Z=              2.0608  Tot=              4.6881
 Quadrupole moment (field-independent basis, Debye-Ang):
   XX=            -72.5967   YY=            -85.2336   ZZ=            -75.8829
   XY=             -2.7427   XZ=             -2.6553   YZ=             -1.9370
 Traceless Quadrupole moment (field-independent basis, Debye-Ang):
   XX=              5.3077   YY=             -7.3292   ZZ=              2.0215
   XY=             -2.7427   XZ=             -2.6553   YZ=             -1.9370
 Octapole moment (field-independent basis, Debye-Ang**2):
  XXX=             -5.5216  YYY=              4.2483  ZZZ=             -1.2258  XYY=              0.6989
  XXY=             23.3819  XXZ=             -7.7392  XZZ=              0.1748  YZZ=             -3.8135
  YYZ=              2.6756  XYZ=              7.0975
 Hexadecapole moment (field-independent basis, Debye-Ang**3):
 XXXX=          -3036.7886 YYYY=           -570.6240 ZZZZ=           -370.8238 XXXY=            -43.4059
 XXXZ=            -10.2480 YYYX=             -3.4855 YYYZ=             -3.9566 ZZZX=             -0.0687
 ZZZY=              0.6054 XXYY=           -660.0826 XXZZ=           -558.0171 YYZZ=           -150.6667
 XXYZ=             -1.0008 YYXZ=             -6.5147 ZZXY=             -5.0397
 N-N= 8.920700080290D+02 E-N=-3.226081590047D+03  KE= 6.153296507769D+02
 D1PCM: PCM CHGder 1st derivatives, ID1Alg=3 FixD1E=F DoIter=F DoCFld=F I1PDM=0.
 Calling FoFJK, ICntrl=      2127 FMM=F ISym2X=0 I1Cent= 0 IOpClX= 0 NMat=1 NMatS=1 NMatT=0.
 ***** Axes restored to original set *****
 -------------------------------------------------------------------
 Center     Atomic                   Forces (Hartrees/Bohr)
 Number     Number              X              Y              Z
 -------------------------------------------------------------------
      1        6          -0.000237920   -0.004232918    0.002284924
      2        6          -0.004810945    0.002946652   -0.003240772
      3        8           0.001040013   -0.010199521   -0.004345787
      4        6           0.003366628    0.005568762    0.003228430
      5        6           0.002500229   -0.001091090   -0.003297196
      6        8           0.000845851    0.004637046    0.010612156
      7        6          -0.000113156    0.000233525    0.002668965
      8        6           0.000047531   -0.003865614   -0.000400211
      9        6          -0.006515901    0.006466680    0.004787307
     10        6           0.002580576    0.000412770    0.000637165
     11        6           0.000573381    0.004843526   -0.005198400
     12        6          -0.000947271   -0.001477236    0.001143373
     13        8          -0.002442810   -0.007569814    0.005410186
     14        1          -0.001129793    0.004265003   -0.005873589
     15        1           0.004389127    0.000284609   -0.003327686
     16        1           0.001026464   -0.000302170    0.004634895
     17        1          -0.003635769   -0.003995214   -0.000585295
     18        1           0.002513987    0.001797560   -0.005579026
     19        1          -0.000937734   -0.002767189    0.002792413
     20        1          -0.001517543    0.002470106   -0.000356450
     21        1           0.002840837    0.002441972   -0.001825536
     22        1          -0.002288454   -0.001270566   -0.002227010
     23        1           0.003039512    0.000693319    0.002287551
     24        1          -0.001382818    0.001794347   -0.001148503
     25        1           0.001975885   -0.004937899   -0.006221778
     26        1          -0.001292047    0.001648981    0.001939188
     27        1          -0.001934230   -0.001483953   -0.002275040
     28        1          -0.002769713   -0.003124118    0.001636729
     29        1           0.003990247    0.002861347    0.003768464
     30        1           0.000165757    0.000868389   -0.003358335
     31        1           0.001060079    0.002082707    0.001428865
 -------------------------------------------------------------------
 Cartesian Forces:  Max     0.010612156 RMS     0.003434191

 GradGradGradGradGradGradGradGradGradGradGradGradGradGradGradGradGradGrad
 Berny optimization.
 FormGI is forming the generalized inverse of G from B-inverse, IUseBI=4.
 Internal  Forces:  Max     0.009744051 RMS     0.002007891
 Search for a local minimum.
 Step number   1 out of a maximum of  186
 All quantities printed in internal units (Hartrees-Bohrs-Radians)
 Mixed Optimization -- RFO/linear search
 Second derivative matrix not updated -- first step.
 ITU=  0
     Eigenvalues ---    0.00429   0.00615   0.00621   0.00719   0.01407
     Eigenvalues ---    0.01434   0.01439   0.02702   0.02816   0.03068
     Eigenvalues ---    0.03372   0.04061   0.04301   0.04662   0.04748
     Eigenvalues ---    0.04823   0.04834   0.04951   0.05050   0.05127
     Eigenvalues ---    0.05193   0.05658   0.05660   0.05984   0.06150
     Eigenvalues ---    0.06402   0.06699   0.06741   0.07404   0.07834
     Eigenvalues ---    0.07856   0.07872   0.07937   0.08111   0.08231
     Eigenvalues ---    0.08304   0.09026   0.10192   0.11241   0.11598
     Eigenvalues ---    0.11667   0.11768   0.11783   0.12404   0.12666
     Eigenvalues ---    0.14573   0.14724   0.16019   0.18569   0.19088
     Eigenvalues ---    0.19979   0.21525   0.22516   0.25000   0.27231
     Eigenvalues ---    0.27938   0.28374   0.28618   0.28837   0.28984
     Eigenvalues ---    0.29356   0.30215   0.35101   0.35163   0.35177
     Eigenvalues ---    0.35245   0.35251   0.35255   0.35283   0.35309
     Eigenvalues ---    0.35317   0.35450   0.35466   0.35499   0.35579
     Eigenvalues ---    0.35731   0.35777   0.35823   0.35870   0.35914
     Eigenvalues ---    0.40288   0.40574   0.41585   0.42540   0.44249
     Eigenvalues ---    0.445201000.000001000.000001000.000001000.00000
     Eigenvalues --- 1000.000001000.000001000.000001000.000001000.00000
     Eigenvalues --- 1000.000001000.000001000.000001000.000001000.00000
     Eigenvalues --- 1000.000001000.000001000.000001000.000001000.00000
     Eigenvalues --- 1000.000001000.000001000.000001000.000001000.00000
     Eigenvalues --- 1000.000001000.000001000.000001000.000001000.00000
     Eigenvalues --- 1000.000001000.000001000.000001000.000001000.00000
     Eigenvalues --- 1000.000001000.000001000.000001000.000001000.00000
     Eigenvalues --- 1000.000001000.000001000.000001000.000001000.00000
     Eigenvalues --- 1000.000001000.000001000.000001000.000001000.00000
     Eigenvalues --- 1000.000001000.000001000.000001000.000001000.00000
     Eigenvalues --- 1000.000001000.000001000.000001000.000001000.00000
     Eigenvalues --- 1000.000001000.000001000.000001000.000001000.00000
     Eigenvalues --- 1000.000001000.000001000.000001000.000001000.00000
     Eigenvalues --- 1000.000001000.000001000.000001000.000001000.00000
     Eigenvalues --- 1000.000001000.000001000.000001000.000001000.00000
     Eigenvalues --- 1000.000001000.000001000.000001000.000001000.00000
     Eigenvalues --- 1000.000001000.000001000.000001000.000001000.00000
     Eigenvalues --- 1000.000001000.000001000.000001000.000001000.00000
     Eigenvalues --- 1000.000001000.000001000.000001000.000001000.00000
 RFO step:  Lambda=-3.08383390D-03 EMin= 4.28630772D-03
 Linear search not attempted -- first point.
 Iteration  1 RMS(Cart)=  0.03232882 RMS(Int)=  0.00029045
 Iteration  2 RMS(Cart)=  0.00080173 RMS(Int)=  0.00005837
 Iteration  3 RMS(Cart)=  0.00000029 RMS(Int)=  0.00005837
 Iteration  1 RMS(Cart)=  0.00001584 RMS(Int)=  0.00000362
 Iteration  2 RMS(Cart)=  0.00000844 RMS(Int)=  0.00000405
 Iteration  3 RMS(Cart)=  0.00000450 RMS(Int)=  0.00000456
 Iteration  4 RMS(Cart)=  0.00000240 RMS(Int)=  0.00000489
 Iteration  5 RMS(Cart)=  0.00000128 RMS(Int)=  0.00000508
 Iteration  6 RMS(Cart)=  0.00000068 RMS(Int)=  0.00000518
 Variable       Old X    -DE/DX   Delta X   Delta X   Delta X     New X
                                 (Linear)    (Quad)   (Total)
    R1        2.89528   0.00084   0.00000   0.00259   0.00260   2.89788
    R2        2.88976  -0.00173   0.00000  -0.00701  -0.00700   2.88276
    R3        2.68241   0.00108   0.00000   0.00252   0.00252   2.68493
    R4        2.04505   0.00728   0.00000   0.02020   0.02020   2.06525
    R5        2.89692   0.00060   0.00000   0.00297   0.00297   2.89988
    R6        2.68375   0.00342   0.00000   0.00926   0.00926   2.69301
    R7        2.05217   0.00541   0.00000   0.01521   0.01521   2.06738
    R8        2.04432   0.00474   0.00000   0.01313   0.01313   2.05745
    R9        2.64240   0.00030   0.00000   0.00025   0.00027   2.64267
   R10        2.69011   0.00287   0.00000   0.00681   0.00682   2.69692
   R11        2.66609   0.00257   0.00000   0.00593   0.00593   2.67202
   R12        2.04215   0.00531   0.00000   0.01466   0.01466   2.05681
   R13        2.05262   0.00631   0.00000   0.01773   0.01773   2.07035
   R14        2.88555  -0.00033   0.00000  -0.00238  -0.00238   2.88317
   R15        2.05177   0.00368   0.00000   0.01033   0.01033   2.06210
   R16        2.04925   0.00289   0.00000   0.00809   0.00809   2.05734
   R17        2.65838   0.00460   0.00000   0.01026   0.01026   2.66864
   R18        2.88928  -0.00166   0.00000  -0.00563  -0.00564   2.88365
   R19        2.88435  -0.00029   0.00000  -0.00122  -0.00126   2.88309
   R20        2.04745   0.00416   0.00000   0.01159   0.01159   2.05905
   R21        2.05412   0.00344   0.00000   0.00969   0.00969   2.06380
   R22        2.88695  -0.00092   0.00000  -0.00244  -0.00246   2.88449
   R23        2.05388   0.00368   0.00000   0.01038   0.01038   2.06426
   R24        2.05163   0.00254   0.00000   0.00714   0.00714   2.05877
   R25        2.04360   0.00815   0.00000   0.02255   0.02255   2.06614
   R26        2.86919   0.00030   0.00000   0.00118   0.00122   2.87041
   R27        2.05279   0.00282   0.00000   0.00794   0.00794   2.06073
   R28        2.05511   0.00327   0.00000   0.00923   0.00923   2.06434
   R29        2.04285   0.00447   0.00000   0.01237   0.01237   2.05521
   R30        2.04872   0.00609   0.00000   0.01702   0.01702   2.06574
   R31        2.05269   0.00344   0.00000   0.00968   0.00968   2.06237
   R32        2.04951   0.00271   0.00000   0.00758   0.00758   2.05708
    A1        1.91892   0.00050   0.00000  -0.00658  -0.00672   1.91221
    A2        1.94405  -0.00083   0.00000  -0.00267  -0.00268   1.94137
    A3        1.88949   0.00043   0.00000   0.00473   0.00476   1.89425
    A4        1.88002   0.00029   0.00000  -0.00308  -0.00305   1.87697
    A5        1.91994  -0.00104   0.00000  -0.00241  -0.00237   1.91757
    A6        1.91159   0.00063   0.00000   0.00998   0.00995   1.92154
    A7        1.95125   0.00180   0.00000   0.00491   0.00480   1.95605
    A8        1.93866  -0.00108   0.00000  -0.00619  -0.00621   1.93245
    A9        1.93241  -0.00087   0.00000  -0.00530  -0.00526   1.92715
   A10        1.90405   0.00043   0.00000   0.00699   0.00706   1.91111
   A11        1.84299  -0.00086   0.00000  -0.00200  -0.00198   1.84101
   A12        1.89115   0.00058   0.00000   0.00193   0.00189   1.89304
   A13        2.03429  -0.00601   0.00000  -0.03839  -0.03829   1.99600
   A14        1.93772   0.00050   0.00000  -0.00091  -0.00111   1.93661
   A15        1.93551  -0.00136   0.00000  -0.01508  -0.01507   1.92044
   A16        1.92284  -0.00040   0.00000   0.00250   0.00248   1.92533
   A17        1.86734  -0.00056   0.00000  -0.00285  -0.00289   1.86445
   A18        1.91131   0.00135   0.00000   0.01427   0.01430   1.92561
   A19        1.88763   0.00050   0.00000   0.00232   0.00230   1.88993
   A20        1.91701  -0.00062   0.00000  -0.00609  -0.00625   1.91076
   A21        1.89480  -0.00037   0.00000  -0.01071  -0.01068   1.88412
   A22        1.92261  -0.00027   0.00000  -0.00030  -0.00022   1.92239
   A23        1.91023   0.00092   0.00000   0.00364   0.00361   1.91385
   A24        1.94394   0.00011   0.00000   0.00623   0.00625   1.95019
   A25        1.87414   0.00025   0.00000   0.00711   0.00705   1.88119
   A26        2.05082  -0.00974   0.00000  -0.03850  -0.03850   2.01232
   A27        1.95511  -0.00205   0.00000  -0.01645  -0.01660   1.93851
   A28        1.93920  -0.00021   0.00000  -0.00183  -0.00196   1.93723
   A29        1.91252   0.00140   0.00000   0.00907   0.00920   1.92172
   A30        1.92265   0.00089   0.00000  -0.00159  -0.00157   1.92108
   A31        1.86504   0.00030   0.00000   0.00765   0.00764   1.87268
   A32        1.86565  -0.00022   0.00000   0.00466   0.00464   1.87029
   A33        1.91537   0.00155   0.00000  -0.00406  -0.00407   1.91130
   A34        1.92076  -0.00082   0.00000  -0.00590  -0.00589   1.91487
   A35        1.91533  -0.00050   0.00000   0.00205   0.00203   1.91736
   A36        1.91427  -0.00082   0.00000  -0.00101  -0.00113   1.91314
   A37        1.93086  -0.00001   0.00000   0.00303   0.00312   1.93398
   A38        1.86678   0.00056   0.00000   0.00607   0.00607   1.87285
   A39        1.86804   0.00046   0.00000   0.00137   0.00158   1.86962
   A40        1.93187   0.00421   0.00000   0.01490   0.01474   1.94660
   A41        1.84353  -0.00254   0.00000  -0.00500  -0.00503   1.83850
   A42        1.97214  -0.00361   0.00000  -0.01914  -0.01907   1.95307
   A43        1.91140   0.00201   0.00000   0.01253   0.01245   1.92384
   A44        1.93145  -0.00041   0.00000  -0.00342  -0.00337   1.92808
   A45        1.91975  -0.00129   0.00000  -0.00571  -0.00595   1.91381
   A46        1.94119  -0.00047   0.00000  -0.00214  -0.00209   1.93910
   A47        1.91624   0.00096   0.00000   0.00130   0.00138   1.91762
   A48        1.90278   0.00066   0.00000   0.00388   0.00392   1.90670
   A49        1.90680   0.00024   0.00000  -0.00063  -0.00054   1.90626
   A50        1.87631  -0.00005   0.00000   0.00355   0.00351   1.87982
   A51        1.94440   0.00261   0.00000   0.00782   0.00780   1.95219
   A52        1.83761  -0.00144   0.00000  -0.00273  -0.00275   1.83487
   A53        1.90943   0.00008   0.00000   0.00138   0.00143   1.91086
   A54        1.94754  -0.00033   0.00000  -0.00266  -0.00259   1.94494
   A55        1.93357  -0.00172   0.00000  -0.00772  -0.00778   1.92579
   A56        1.88807   0.00080   0.00000   0.00424   0.00422   1.89229
   A57        1.91216  -0.00033   0.00000  -0.00816  -0.00822   1.90393
   A58        1.92842   0.00058   0.00000   0.00292   0.00290   1.93133
   A59        1.90683  -0.00012   0.00000   0.00372   0.00375   1.91057
   A60        1.91410  -0.00040   0.00000  -0.00098  -0.00098   1.91312
   A61        1.93637   0.00031   0.00000   0.00092   0.00097   1.93735
   A62        1.86565  -0.00001   0.00000   0.00193   0.00191   1.86756
   A63        1.97834  -0.00462   0.00000  -0.02912  -0.02917   1.94917
    D1        0.51513   0.00187   0.00000   0.02260   0.02260   0.53773
    D2        2.58867   0.00062   0.00000   0.00866   0.00869   2.59736
    D3       -1.60527   0.00010   0.00000   0.00351   0.00355  -1.60172
    D4       -1.56752   0.00171   0.00000   0.03243   0.03242  -1.53510
    D5        0.50601   0.00046   0.00000   0.01849   0.01851   0.52452
    D6        2.59526  -0.00005   0.00000   0.01334   0.01336   2.60863
    D7        2.61295   0.00117   0.00000   0.01865   0.01863   2.63158
    D8       -1.59670  -0.00009   0.00000   0.00472   0.00471  -1.59198
[...]
 1462,-0.16694941,0.00019710,0.00002932,-0.00048502,0.00044758,0.003754
 73,0.00153123,-0.00003667,-0.00017802,-0.00011316,0.00017707,0.0004334
 8,0.00008663,-0.00031919,-0.00017779,0.00054109,-0.00000960,0.00002728
 ,0.00000272,0.00002865,0.00003057,0.00000032,-0.00024968,0.00052114,0.
 00024267,-0.00009224,0.00023107,0.00010795,0.00010163,0.00005259,0.000
 13941,0.00004907,0.00001418,0.00005077,0.00068444,-0.00066605,0.000158
 52,0.00045458,-0.00083308,0.00059667,0.00005412,0.00011719,0.00007933,
 -0.00053876,0.00054936,0.00059495,-0.07149483,0.11487222,0.19693838,0.
 00021180,0.00004797,-0.00008190,0.00002920,0.00001341,0.00000400,-0.00
 222244,0.00409757,-0.00041427,0.00002959,-0.00003038,0.00002076,-0.000
 03433,0.00002773,0.00003047,-0.00048315,-0.00012466,-0.00010199,-0.001
 41412,-0.00372015,0.00138644,-0.00932408,0.00985946,0.01429078,0.00137
 273,0.00013452,-0.00049028,-0.09570904,0.05594062,0.08367851,-0.007517
 10,0.00616026,0.01443655,0.00000040,-0.00001836,-0.00002271,-0.0000665
 6,0.00001009,-0.00003187,0.00001705,0.00001115,-0.00000492,-0.00000667
 ,0.00000036,0.00000285,-0.00000519,-0.00000196,-0.00000380,0.00001189,
 -0.00001374,-0.00000465,-0.00002614,0.00000875,0.00000727,-0.00000317,
 -0.00000199,-0.00000719,-0.00000078,-0.00000826,0.00000043,-0.00039311
 ,0.00070559,0.00084339,0.00004889,0.00016496,0.00024957,0.00048013,0.0
 0054325,-0.00052112,0.00072092,-0.00006081,-0.00049088,-0.00007520,-0.
 00000629,0.00001699,0.10253656,-0.00013418,-0.00005356,0.00016370,-0.0
 0000933,-0.00000206,-0.00000041,0.00613310,-0.00524489,0.00044395,-0.0
 0000641,0.00000720,-0.00003278,0.00003940,0.00001427,-0.00003938,0.000
 46602,0.00035896,-0.00014782,-0.00289070,-0.00273574,0.00228416,-0.009
 72827,0.01222772,0.01719125,-0.00149291,-0.00172638,0.00136219,0.05724
 844,-0.11211372,-0.09954928,0.00732730,-0.00964839,-0.02169871,0.00000
 550,0.00001451,0.00001499,0.00001367,0.00000771,0.00000756,0.00003141,
 0.00003238,-0.00004807,0.00000214,-0.00000082,-0.00000127,0.00000180,0
 .00000059,0.00000148,-0.00001007,0.00000989,0.00000390,0.00001431,-0.0
 0000535,-0.00000416,-0.00000487,-0.00000337,-0.00000576,0.00000124,0.0
 0000394,0.00000231,-0.00082696,0.00067767,0.00093962,0.00009982,-0.000
 07086,0.00001797,0.00064962,0.00082537,-0.00072078,0.00090597,0.000787
 85,-0.00055535,0.00010454,0.00023158,-0.00023754,-0.06137468,0.1208026
 9,-0.00011141,-0.00000749,-0.00002808,-0.00002029,-0.00000945,-0.00000
 287,-0.00237493,0.00319149,0.00128678,-0.00002141,0.00002347,0.0000060
 7,0.00000606,-0.00002952,-0.00000215,0.00022213,-0.00012131,0.00011533
 ,0.00240300,0.00351272,-0.00058643,0.00589291,-0.00877654,-0.01235345,
 -0.00028086,0.00103688,-0.00074179,0.08557657,-0.10019208,-0.20262956,
 -0.00502154,0.00487593,0.00958745,-0.00000434,0.00000674,0.00001050,0.
 00005044,-0.00001592,0.00002157,-0.00002042,-0.00002860,0.00004044,0.0
 0000478,-0.00000055,-0.00000209,0.00000327,0.00000107,0.00000273,-0.00
 000224,0.00000328,0.00000142,0.00001434,-0.00000483,-0.00000382,0.0000
 0613,0.00000659,0.00000812,-0.00000090,0.00000403,-0.00000117,0.000887
 78,-0.00081853,-0.00061782,-0.00025649,0.00020797,0.00034241,-0.000105
 39,0.00014342,0.00086335,-0.00060198,-0.00014283,0.00013255,-0.0000534
 1,-0.00023154,0.00011570,-0.09525747,0.10749932,0.21773344,0.00016377,
 0.00006349,-0.00004428,0.00000920,0.00000144,0.00000182,0.00138376,-0.
 00090641,0.00087052,-0.00000339,-0.00001537,0.00002537,-0.00000450,-0.
 00000562,0.00001129,-0.00006154,0.00004381,0.00014463,0.00048513,0.000
 08718,-0.00112187,-0.01505440,-0.00786211,-0.01115209,-0.00028998,-0.0
 0004877,-0.00002822,-0.18351281,-0.06460290,-0.10985493,-0.01396572,-0
 .00550301,-0.01221690,0.00000159,-0.00000186,-0.00000809,-0.00001970,0
 .00000139,-0.00000820,0.00000135,-0.00001840,0.00002313,-0.00000304,0.
 00000170,0.00000140,-0.00000166,-0.00000041,-0.00000146,0.00000382,-0.
 00000479,-0.00000344,-0.00001409,0.00000629,0.00000406,0.00000363,0.00
 000100,0.00000056,-0.00000483,0.00000716,-0.00000133,0.00030084,0.0000
 4643,0.00022199,-0.00016077,0.00029996,0.00055292,-0.00141618,-0.00235
 522,0.00242902,0.00092783,0.00023575,0.00020186,-0.00008899,0.00005195
 ,-0.00000159,0.01115839,0.00442207,0.00806831,0.19993665,0.00006139,-0
 .00000705,-0.00011654,0.00000215,-0.00000034,0.00000147,-0.00248235,0.
 00168922,-0.00019930,0.00000833,0.00000217,0.00000322,-0.00000978,-0.0
 0001790,0.00001527,-0.00007973,0.00017258,-0.00009740,0.00114586,0.000
 49615,-0.00068193,-0.01653989,-0.00966350,-0.01256689,0.00013994,-0.00
 014181,0.00017374,-0.06587387,-0.07975031,-0.05680843,0.02144692,0.008
 40205,0.01865493,-0.00000104,0.00000142,-0.00000723,-0.00000819,0.0000
 0162,-0.00000406,0.00004757,-0.00000695,0.00000296,-0.00000146,0.00000
 075,0.00000035,-0.00000099,-0.00000049,-0.00000080,0.00000185,-0.00000
 389,0.00000006,-0.00000316,-0.00000073,0.00000123,-0.00000027,0.000002
 39,-0.00000184,-0.00000414,0.00000943,0.00000012,0.00027708,-0.0000255
 8,0.00016741,0.00004106,0.00045807,0.00040371,-0.00269607,-0.00180216,
 0.00307159,0.00066326,0.00048232,-0.00041865,-0.00003880,0.00008477,-0
 .00005756,-0.01159820,-0.00582978,-0.00881151,0.07296375,0.08783548,0.
 00012656,0.00007805,-0.00003192,0.00001407,0.00000642,0.00000063,0.000
 72278,0.00018366,0.00215958,0.00000583,-0.00001633,0.00001367,-0.00001
 082,0.00001333,0.00001229,-0.00038525,-0.00020227,0.00003895,0.0000054
 8,0.00031394,0.00141240,0.01394384,0.00648140,0.01028896,0.00039004,0.
 00034249,-0.00026292,-0.11113918,-0.05521314,-0.14098419,-0.00939415,-
 0.00499066,-0.01095858,-0.00000038,-0.00001312,-0.00000707,-0.00002898
 ,0.00000355,-0.00001256,-0.00001520,-0.00000143,0.00001688,-0.00000298
 ,0.00000001,0.00000166,-0.00000185,-0.00000094,-0.00000178,0.00000505,
 -0.00000613,-0.00000250,-0.00001262,0.00000602,0.00000468,0.00000086,0
 .00000026,0.00000029,-0.00000444,-0.00000938,-0.00000217,-0.00027898,0
 .00005523,0.00007730,-0.00037701,-0.00000730,-0.00020930,0.00277027,0.
 00218414,-0.00109193,-0.00066611,-0.00059651,0.00076740,-0.00008151,-0
 .00005526,0.00004383,-0.01726707,-0.00728094,-0.01398428,0.12252701,0.
 05613737,0.15217417,0.00045119,0.00025644,-0.00018072,0.00004438,0.000
 01912,0.00000462,-0.01406013,-0.00853762,0.01459376,0.00000919,-0.0000
 7679,0.00009257,-0.00005818,0.00003645,0.00005488,-0.00057123,-0.00027
 151,0.00060039,-0.00035638,-0.00005501,0.00012209,-0.00217973,0.002891
 69,-0.00113456,0.00053783,0.00343776,0.00018052,0.01309764,0.01354804,
 -0.00972759,-0.14264408,-0.10972297,0.06407316,-0.00000310,-0.00003210
 ,-0.00003613,-0.00009969,0.00000656,-0.00004932,-0.00005099,-0.0000308
 8,0.00005835,-0.00001125,0.00000171,0.00000553,-0.00000878,-0.00000377
 ,-0.00000660,0.00002125,-0.00003489,-0.00001391,-0.00005869,0.00002459
 ,0.00001668,0.00000400,-0.00000550,-0.00000190,-0.00000203,-0.00001438
 ,-0.00000445,0.00008435,-0.00018141,-0.00000143,0.00004211,-0.00005356
 ,-0.00002175,0.00009513,0.00016147,0.00004952,0.00065857,0.00081367,-0
 .00064293,-0.00053222,-0.00047646,0.00054103,0.00038334,-0.00094751,0.
 00068400,0.00093545,-0.00077270,0.00035886,0.15587375,0.00005969,0.000
 14449,0.00011224,0.00000357,-0.00000015,0.00000203,0.01530492,0.013711
 36,-0.01299663,-0.00004022,-0.00002973,0.00002785,0.00003032,0.0000038
 1,-0.00000965,-0.00010137,0.00012538,0.00022564,0.00040992,-0.00003168
 ,-0.00060121,0.00487077,-0.00298481,0.00138713,0.00172814,-0.00165711,
 -0.00288223,-0.01582970,-0.01604091,0.00981807,-0.11660976,-0.18286848
 ,0.08345837,0.00000460,0.00000597,0.00000459,-0.00000289,0.00001091,-0
 .00000355,-0.00000877,-0.00001300,0.00000296,-0.00000033,0.00000129,0.
 00000035,0.00000005,0.00000084,-0.00000031,-0.00000483,0.00001209,-0.0
 0000109,-0.00000974,0.00001178,0.00000262,0.00000265,-0.00000032,0.000
 00059,-0.00000110,0.00000498,0.00000071,-0.00018074,0.00017202,0.00005
 260,-0.00001768,0.00006683,0.00006908,0.00014424,0.00024621,-0.0002528
 1,-0.00104104,-0.00097252,0.00121939,0.00042265,0.00039696,-0.00048634
 ,0.00005277,0.00035688,-0.00052852,0.00017894,0.00133454,-0.00016656,0
 .11559703,0.19376196,-0.00012405,0.00016087,0.00030148,-0.00002508,-0.
 00001081,0.00000074,0.02468591,0.01550573,-0.02116934,-0.00009552,-0.0
 0001273,0.00001347,0.00008382,-0.00001147,-0.00006376,0.00021289,0.000
 32265,0.00066854,0.00023330,-0.00013871,0.00012459,-0.00174744,0.00136
 726,0.00038162,-0.00075106,-0.00512386,-0.00231523,0.00581613,0.009377
 24,-0.00450203,0.05949558,0.07420856,-0.09426112,0.00000628,0.00002661
 ,0.00003198,0.00006572,0.00000783,0.00002624,-0.00003439,-0.00002773,-
 0.00000057,0.00000652,-0.00000080,-0.00000268,0.00000579,0.00000279,0.
 00000404,-0.00002126,0.00003527,0.00000493,0.00001444,0.00000794,-0.00
 000419,0.00000622,-0.00000072,0.00000288,-0.00000050,0.00001062,0.0000
 0103,-0.00007046,0.00016459,0.00000391,-0.00000807,-0.00002269,-0.0000
 1420,0.00021321,0.00022295,-0.00001262,0.00046416,0.00035752,-0.000139
 74,0.00085480,0.00064103,-0.00071630,-0.00017726,0.00009855,0.00021604
 ,0.00058890,-0.00051459,0.00019531,-0.07809372,-0.08261379,0.11002873,
 0.00019043,0.00041505,0.00006182,-0.00000044,0.00000176,-0.00000177,0.
 01303386,0.00950516,0.01722920,-0.00004065,-0.00000883,0.00004847,0.00
 006513,-0.00000444,-0.00000877,-0.00239477,-0.00008161,0.00135148,-0.0
 0007821,0.00001755,0.00016812,0.00066607,-0.00048552,0.00089041,0.0014
 6209,0.00009089,-0.00002924,-0.01316904,-0.00536949,-0.01165402,-0.175
 69062,-0.05988409,-0.11939736,-0.00000396,0.00001162,-0.00000215,0.000
 00734,-0.00000511,0.00000143,0.00001959,0.00003078,0.00000840,0.000000
 86,-0.00000127,-0.00000059,-0.00000060,-0.00000033,0.00000113,0.000010
 53,-0.00000538,0.00000310,-0.00000768,0.00001252,-0.00000145,0.0000143
 1,0.00000867,-0.00003400,0.00000290,-0.00000012,-0.00000499,0.00007643
 ,-0.00009466,-0.00004586,-0.00006454,0.00001918,0.00002307,0.00049122,
 0.00036426,-0.00031082,0.00005555,0.00008538,0.00019712,-0.00017509,-0
 .00006767,-0.00009282,0.00029567,-0.00004897,0.00030518,-0.00070358,0.
 00331447,-0.00119690,-0.01157351,-0.00496360,-0.01162371,0.18750415,-0
 .00009865,0.00001952,0.00038160,-0.00002203,-0.00000436,-0.00000300,-0
 .00433182,-0.00827872,-0.02151874,-0.00004921,0.00001002,-0.00001465,0
 .00012792,0.00000773,-0.00006639,0.00036680,0.00068148,0.00091547,0.00
 030189,0.00010819,0.00006231,0.00068822,0.00173776,-0.00040885,-0.0025
 8442,-0.00175931,0.00190031,0.01920067,0.00801820,0.01839104,-0.056965
 95,-0.07685590,-0.04897554,0.00000349,0.00003238,0.00003025,0.00004638
 ,-0.00000289,0.00002235,-0.00003053,-0.00000841,-0.00001123,0.00000542
 ,-0.00000200,-0.00000203,0.00000442,0.00000133,0.00000369,-0.00000864,
 0.00001440,0.00000203,0.00001801,-0.00000216,-0.00000502,0.00000486,0.
 00000095,-0.00001810,0.,0.00000236,-0.00000105,-0.00007491,0.00017503,
 -0.00002078,-0.00001203,-0.00004975,-0.00005722,-0.00039611,-0.0001593
 2,-0.00044068,-0.00012113,0.00002672,-0.00034079,0.00024243,0.00007713
 ,-0.00011627,-0.00081832,0.00107584,-0.00079438,0.00291310,-0.00372167
 ,0.00275420,-0.01557619,-0.00576992,-0.01404152,0.05714442,0.08462376,
 0.00032207,0.00039714,0.00034921,0.00001451,0.00000549,0.00000687,-0.0
 0487259,-0.01733710,-0.02999572,-0.00010616,-0.00011745,0.00009666,0.0
 0010012,0.00005146,-0.00002241,0.00105854,0.00073241,0.00161437,0.0005
 4992,0.00033407,-0.00030963,-0.00000516,-0.00104411,0.00014080,-0.0053
 8572,-0.00374437,0.00021296,-0.01023686,-0.00285638,-0.00653123,-0.113
 37210,-0.04588216,-0.15635996,0.00000874,0.00000969,0.00000035,-0.0000
 2551,0.00001854,-0.00001833,-0.00012859,-0.00007508,0.00006819,-0.0000
 0419,0.00000201,0.00000313,-0.00000070,-0.00000005,-0.00000259,-0.0000
 0195,0.00001380,-0.00000807,-0.00004412,0.00003625,0.00001285,0.000022
 55,-0.00000068,-0.00001849,-0.00000257,0.00000099,-0.00000508,-0.00004
 148,0.00020846,-0.00007210,0.00003837,-0.00003942,0.00011551,0.0002275
 1,0.00043605,-0.00015928,0.00016050,0.00009976,0.00022574,0.00046813,0
 .00026794,-0.00003562,-0.00009413,0.00029229,0.00047221,-0.00123206,0.
 00165255,0.00033956,0.00847302,0.00415874,0.01120039,0.12411437,0.0623
 7793,0.17867836,0.00118251,-0.00019096,0.00137617,-0.00180530,0.005375
 12,-0.01494135,0.00005476,0.00002941,0.00001101,-0.00004286,-0.0002494
 7,-0.00003492,-0.00536323,-0.01145148,0.03364281,0.00021547,0.00019118
 ,-0.00036214,-0.00001454,-0.00001780,0.00000408,0.00000340,0.00000604,
 0.00000329,0.00001097,-0.00002835,-0.00018841,0.00000066,-0.00000304,-
 0.00000382,-0.00000308,0.00000607,0.00001524,-0.05088547,-0.01108605,0
 .02708295,0.00042401,0.00025513,0.00018439,-0.00020483,0.00007481,-0.0
 0040294,0.00085185,-0.00037931,-0.00035858,-0.00048634,0.00341082,-0.0
 0031473,0.00002786,0.00008664,-0.00006410,0.00020214,-0.00042507,-0.00
 011875,-0.00655163,-0.00031671,0.00098432,0.00128612,0.00056974,-0.000
 49914,-0.00000016,0.00000813,-0.00001075,0.00000170,0.00000712,-0.0000
 0448,0.00000150,-0.00000202,0.00000197,-0.00000052,-0.00000081,-0.0000
 0122,-0.00003622,-0.00001065,-0.00002622,0.00000135,-0.00000006,-0.000
 00121,-0.00000072,-0.00000003,-0.00000015,-0.00000008,-0.00000024,-0.0
 0000101,0.00000238,0.00000145,-0.00000097,0.05925160,-0.00046124,0.000
 05736,0.00071569,-0.00151851,-0.00866832,0.02944468,0.00004811,0.00001
 936,-0.00001129,0.00005897,-0.00047852,0.00095247,-0.00097992,-0.00054
 176,0.00044562,0.00018400,0.00012141,-0.00014322,0.00000862,-0.0000000
 6,0.00001049,0.00000124,0.00000334,0.00000572,-0.00011083,-0.00006306,
 -0.00007492,-0.00000079,-0.00000252,-0.00000348,-0.00001022,0.00000825
 ,0.00001036,-0.00976707,-0.07539988,0.07515204,-0.00009313,-0.00136348
 ,-0.00084741,-0.00016003,-0.00003276,-0.00012228,-0.00072148,0.0015858
 9,-0.00048107,0.00183914,-0.00432418,0.00041042,0.00001019,0.00012761,
 -0.00018313,-0.00014345,-0.00057724,-0.00058382,0.00000463,0.00083481,
 0.00021995,-0.00033589,0.00010350,-0.00023099,-0.00000327,0.00000805,-
 0.00000774,0.00000813,-0.00000195,0.00000130,-0.00000164,0.00000196,-0
 .00000056,0.00000256,-0.00000233,-0.00000068,-0.00000655,0.00000372,0.
 00000555,0.00000182,-0.00000073,-0.00000132,0.00000047,-0.00000030,0.0
 0000099,0.00000294,0.00000055,-0.00000098,-0.00000066,-0.00000089,0.00
 000282,0.00867745,0.08149945,-0.00017449,-0.00086438,0.00064902,-0.000
 48803,-0.00092473,-0.00231079,0.00009660,0.00003944,-0.00003373,-0.000
 22298,-0.00041999,-0.00145046,0.00200691,0.00212135,-0.00648455,0.0002
 6811,0.00010977,0.00017258,0.00001925,0.00000703,0.00001116,-0.0000005
 4,0.00000140,0.00000662,-0.00018965,-0.00005806,-0.00008491,-0.0000016
 8,-0.00000412,-0.00000412,-0.00002273,0.00001664,0.00001883,0.02621707
 ,0.07781822,-0.28201311,0.00048567,0.00088567,0.00081673,0.00051791,0.
 00055425,0.00007386,-0.00020812,0.00009876,0.00131638,-0.00016082,0.00
 069112,0.00129749,-0.00003223,0.00001454,0.00031312,-0.00059001,-0.000
 59971,0.00027410,0.00135858,-0.00039125,0.00110067,0.00028853,-0.00019
 642,0.00015231,-0.00000382,0.00001085,-0.00001330,0.00001862,-0.000006
 23,0.00000348,0.00000019,0.00000719,0.00000211,0.00000715,-0.00000434,
 -0.00000061,0.00001224,0.00001103,0.00002273,0.00000350,-0.00000107,-0
 .00000286,0.00000189,0.00000068,0.00000179,0.00000651,0.00000055,-0.00
 000288,0.00000014,-0.00000348,0.00000303,-0.03145408,-0.08470888,0.304
 65875,-0.00377535,0.00168518,0.00416778,0.00638277,0.00791850,0.007996
 46,-0.00064088,-0.00026659,0.00009778,-0.00095334,0.00070094,0.0000988
 1,-0.01505663,-0.02137376,-0.02195827,-0.00275904,-0.00173515,-0.00169
 582,-0.00005880,-0.00004570,-0.00004857,0.,-0.00001010,-0.00003492,0.0
 0077467,0.00008676,0.00086625,0.00000930,0.00001944,0.00002411,0.00012
 081,-0.00010040,-0.00013479,-0.10472767,-0.08191329,-0.07570530,0.0005
 9169,0.00285203,0.00014363,-0.00001933,0.00006244,-0.00030888,-0.00110
 573,-0.00049065,0.00012582,0.00132413,-0.00010166,0.00010675,0.0001026
 5,-0.00012256,0.00005635,0.00018970,-0.00001520,0.00000138,0.00145223,
 0.00002912,0.00030913,0.00144997,0.00062273,-0.00034237,0.00001788,-0.
 00001836,0.00003290,-0.00006207,0.00003193,-0.00002139,0.00000145,-0.0
 0001855,-0.00000617,-0.00002399,0.00001893,0.00000559,-0.00002779,-0.0
 0003949,-0.00010324,-0.00001682,0.00000858,0.00000939,-0.00000551,-0.0
 0000300,-0.00000707,-0.00002810,0.00000169,0.00001987,0.00000416,0.000
 02049,-0.00000348,0.00187672,0.00346641,0.00224034,0.11496291,0.000949
 80,0.00085524,-0.00005725,-0.01502611,-0.01637125,-0.01647573,-0.00003
 061,-0.00000309,0.00002733,0.00136469,0.00016921,0.00154951,0.00079543
 ,0.00030201,0.00148361,-0.00004813,0.00007888,-0.00002885,-0.00001234,
 -0.00000430,-0.00000436,0.00000230,0.00000046,-0.00000718,0.00015724,0
 .00005292,0.00001688,0.00000167,0.00000313,0.00000148,0.00001305,-0.00
 001232,-0.00001256,-0.08244648,-0.16153688,-0.10634189,0.00052578,-0.0
 0713930,-0.00052626,-0.00019485,-0.00005163,-0.00000558,0.00120056,-0.
 00060949,-0.00001086,-0.00085249,0.00128239,0.00039508,-0.00011560,0.0
 0001176,-0.00013796,-0.00003792,0.00005881,-0.00017237,-0.00012520,-0.
 00006163,-0.00010295,-0.00029277,0.00043494,0.00032421,0.00000261,-0.0
 0000632,0.00000852,-0.00001169,0.00000376,-0.00000137,-0.00000051,-0.0
 0000263,-0.00000229,-0.00000513,0.00000308,0.00000157,0.00000216,0.000
 00452,-0.00000126,-0.00000246,0.00000061,0.00000200,-0.00000101,-0.000
 00047,-0.00000108,-0.00000424,-0.00000021,0.00000240,0.00000006,0.0000
 0251,-0.00000157,0.00546293,0.00708270,0.00579417,0.08872928,0.1754526
 1,0.00163484,-0.00015937,0.00012799,0.00274611,0.00457958,0.00150645,0
 .00002615,0.00002123,-0.00000324,-0.00001044,0.00007729,-0.00083145,0.
 00460627,0.00689222,0.00586699,0.00029315,0.00017661,0.00020465,-0.000
 00293,0.00000508,-0.00000726,0.00000068,0.00000029,-0.00000004,0.00009
 405,0.00005794,0.00000643,-0.00000031,-0.00000042,-0.00000044,0.000001
 98,0.00000152,0.00000406,-0.07808400,-0.10868678,-0.14746779,0.0001632
 3,0.00262156,0.00051806,0.00018551,0.00015820,0.00018068,-0.00002218,-
 0.00024393,0.00034021,0.00045620,0.00034501,0.00115723,-0.00002583,-0.
 00007735,0.00020079,-0.00024868,-0.00010158,0.00036357,-0.00070135,0.0
 0008852,0.00045030,-0.00065731,-0.00005481,0.00019091,0.00000118,-0.00
 000262,0.00000342,-0.00000254,-0.00000161,0.00000134,-0.00000054,-0.00
 000153,-0.00000070,-0.00000107,-0.00000004,-0.00000059,-0.00000321,-0.
 00000114,0.00000280,0.,0.00000007,0.00000026,-0.00000023,0.00000007,-0
 .00000017,-0.00000044,-0.00000081,-0.00000127,0.00000100,-0.00000146,-
 0.00000168,-0.01451725,-0.01997635,-0.01849344,0.08406792,0.11428460,0
 .15568191\\-0.00069770,0.00171360,0.00004207,0.00000993,0.00001111,0.0
 0000313,-0.00092358,0.00144467,0.00040702,-0.00000565,0.00000922,0.000
 00630,0.00000180,-0.00000716,0.00000486,0.00073930,-0.00203283,0.00005
 750,0.00000290,-0.00000382,-0.00000071,0.00000857,-0.00000524,-0.00000
 110,0.00089567,-0.00114129,-0.00053652,0.00000297,-0.00000607,0.000002
 06,-0.00001847,0.00002988,0.00002874,-0.00000314,-0.00000912,-0.000000
 03,-0.00000288,-0.00001059,-0.00000357,0.00000082,0.00000208,0.0000044
 9,-0.00000236,-0.00000190,0.00000441,-0.00000514,-0.00000120,0.0000025
 9,0.00000243,-0.00000153,0.00000526,-0.00000054,-0.00000044,-0.0000009
 4,-0.00000047,0.00000201,0.00000093,-0.00000035,0.00000126,-0.00000190
 ,-0.00000112,0.00000377,0.00000199,-0.00000108,0.00000037,-0.00000414,
 -0.00000137,0.00000235,0.00000058,-0.00000113,0.00000043,-0.00000430,-
 0.00000455,-0.00000058,0.00000038,-0.00000125,0.00000683,-0.00000678,-
 0.00000041,-0.00000072,-0.00000189,0.00000233,-0.00000127,-0.00000849,
 0.00000075,-0.00000290,-0.00000666,0.00000261,-0.00000098,0.00000132,0
 .00000112,0.00000007,0.00000339\\\@


 The lyf so short, the craft so long to lerne.
                             -- Chaucer
 Job cpu time:       0 days 14 hours  1 minutes 49.8 seconds.
 Elapsed time:       0 days  0 hours 52 minutes 38.4 seconds.
 File lengths (MBytes):  RWF=    689 Int=      0 D2E=      0 Chk=     33 Scr=      1
 Normal termination of Gaussian 16 at Sun Nov  4 22:50:34 2018.
