 Entering Gaussian System, Link 0=g16
 Initial command:
 /apps/gaussian/g16a03/g16/l1.exe "/jobfs/local/2011993.r-man2/Gau-10257.inp" -scrdir="/jobfs/local/2011993.r-man2/"
 Entering Link 1 = /apps/gaussian/g16a03/g16/l1.exe PID=     10258.
  
 Copyright (c) 1988,1990,1992,1993,1995,1998,2003,2009,2016,
            Gaussian, Inc.  All Rights Reserved.
  
 This is part of the Gaussian(R) 16 program.  It is based on
 the Gaussian(R) 09 system (copyright 2009, Gaussian, Inc.),
 the Gaussian(R) 03 system (copyright 2003, Gaussian, Inc.),
 the Gaussian(R) 98 system (copyright 1998, Gaussian, Inc.),
 the Gaussian(R) 94 system (copyright 1995, Gaussian, Inc.),
 the Gaussian 92(TM) system (copyright 1992, Gaussian, Inc.),
 the Gaussian 90(TM) system (copyright 1990, Gaussian, Inc.),
 the Gaussian 88(TM) system (copyright 1988, Gaussian, Inc.),
 the Gaussian 86(TM) system (copyright 1986, Carnegie Mellon
 University), and the Gaussian 82(TM) system (copyright 1983,
 Carnegie Mellon University). Gaussian is a federally registered
 trademark of Gaussian, Inc.
  
 This software contains proprietary and confidential information,
 including trade secrets, belonging to Gaussian, Inc.
  
 This software is provided under written license and may be
 used, copied, transmitted, or stored only in accord with that
 written license.
  
 The following legend is applicable only to US Government
 contracts under FAR:
  
                    RESTRICTED RIGHTS LEGEND
  
 Use, reproduction and disclosure by the US Government is
 subject to restrictions as set forth in subparagraphs (a)
 and (c) of the Commercial Computer Software - Restricted
 Rights clause in FAR 52.227-19.
  
 Gaussian, Inc.
 340 Quinnipiac St., Bldg. 40, Wallingford CT 06492
  
  
 ---------------------------------------------------------------
 Warning -- This program may not be used in any manner that
 competes with the business of Gaussian, Inc. or will provide
 assistance to any competitor of Gaussian, Inc.  The licensee
 of this program is prohibited from giving any competitor of
 Gaussian, Inc. access to this program.  By using this program,
 the user acknowledges that Gaussian, Inc. is engaged in the
 business of creating and licensing software in the field of
 computational chemistry and represents and warrants to the
 licensee that it is not a competitor of Gaussian, Inc. and that
 it will not use this program in any manner prohibited above.
 ---------------------------------------------------------------
  

 Cite this work as:
 Gaussian 16, Revision A.03,
 M. J. Frisch, G. W. Trucks, H. B. Schlegel, G. E. Scuseria, 
 M. A. Robb, J. R. Cheeseman, G. Scalmani, V. Barone, 
 G. A. Petersson, H. Nakatsuji, X. Li, M. Caricato, A. V. Marenich, 
 J. Bloino, B. G. Janesko, R. Gomperts, B. Mennucci, H. P. Hratchian, 
 J. V. Ortiz, A. F. Izmaylov, J. L. Sonnenberg, D. Williams-Young, 
 F. Ding, F. Lipparini, F. Egidi, J. Goings, B. Peng, A. Petrone, 
 T. Henderson, D. Ranasinghe, V. G. Zakrzewski, J. Gao, N. Rega, 
 G. Zheng, W. Liang, M. Hada, M. Ehara, K. Toyota, R. Fukuda, 
 J. Hasegawa, M. Ishida, T. Nakajima, Y. Honda, O. Kitao, H. Nakai, 
 T. Vreven, K. Throssell, J. A. Montgomery, Jr., J. E. Peralta, 
 F. Ogliaro, M. J. Bearpark, J. J. Heyd, E. N. Brothers, K. N. Kudin, 
 V. N. Staroverov, T. A. Keith, R. Kobayashi, J. Normand, 
 K. Raghavachari, A. P. Rendell, J. C. Burant, S. S. Iyengar, 
 J. Tomasi, M. Cossi, J. M. Millam, M. Klene, C. Adamo, R. Cammi, 
 J. W. Ochterski, R. L. Martin, K. Morokuma, O. Farkas, 
 J. B. Foresman, and D. J. Fox, Gaussian, Inc., Wallingford CT, 2016.
 
 ******************************************
 Gaussian 16:  ES64L-G16RevA.03 25-Dec-2016
                 4-Nov-2018 
 ******************************************
 %mem=6000mb
 %nproc=24
 Will use up to   24 processors via shared memory.
 %chk=D_a1-4_2SO_PHI.inp_extract_18.chk
 ----------------------------------------------------------------------
 #M062X/6-311++G(2d,2p) opt=ModRedundant freq=noraman SCRF=(Solvent=Wat
 er)
 ----------------------------------------------------------------------
 1/18=120,19=15,26=3,38=1/1,3;
 2/9=110,12=2,17=6,18=5,40=1/2;
 3/5=4,6=6,7=1212,11=2,25=1,30=1,70=2201,71=1,72=1,74=-55/1,2,3;
 4//1;
 5/5=2,38=5,53=1/2;
 6/7=2,8=2,9=2,10=2,28=1/1;
 7//1,2,3,16;
 1/18=20,19=15,26=3/3(2);
 2/9=110/2;
 99//99;
 2/9=110/2;
 3/5=4,6=6,7=1212,11=2,25=1,30=1,70=2205,71=1,72=1,74=-55/1,2,3;
 4/5=5,16=3,69=1/1;
 5/5=2,38=5,53=1/2;
 7//1,2,3,16;
 1/18=20,19=15,26=3/3(-5);
 2/9=110/2;
 6/7=2,8=2,9=2,10=2,19=2,28=1/1;
 99/9=1/99;
 -----------------------------
 D_a1-4_2SO_PHI.inp_extract_18
 -----------------------------
 Symbolic Z-matrix:
 Charge =  0 Multiplicity = 1
 C                     0.87355   0.46996  -0.10965 
 C                     3.55483  -0.80388  -0.10111 
 O                    -1.79078   1.31622  -0.45183 
 C                     1.20842  -1.00778  -0.34671 
 C                     2.1545    1.23554   0.23325 
 O                    -0.03091   0.65057   0.96789 
 C                    -2.27648  -0.23688   1.37712 
 C                    -2.63832  -1.31221   0.35513 
 C                    -1.42011   0.90427   0.82992 
 C                    -3.1867   -0.64086  -0.89992 
 C                    -2.16485   0.34638  -1.42869 
 C                     3.33187   0.64742  -0.54076 
 O                     2.35684  -1.39669   0.37665 
 H                     0.44593   0.88134  -1.00997 
 H                     3.94858  -1.4044   -0.91593 
 H                     4.25221  -0.85138   0.72462 
 H                     0.40377  -1.6442   -0.01524 
 H                     1.37254  -1.18803  -1.4055 
 H                     2.34114   1.14626   1.29913 
 H                     2.02408   2.29001   0.01456 
 H                    -1.7726   -0.655     2.24134 
 H                    -3.19791   0.2159    1.73478 
 H                    -1.77107  -1.91213   0.0981 
 H                    -3.37271  -1.98568   0.78605 
 H                    -1.58442   1.77413   1.44789 
 H                    -3.40006  -1.36885  -1.67723 
 H                    -4.11487  -0.12245  -0.67144 
 H                    -2.55633   0.92279  -2.25514 
 H                    -1.2863   -0.18444  -1.77591 
 H                     3.12922   0.69518  -1.60707 
 H                     4.2374    1.21843  -0.36622 
 
 The following ModRedundant input section has been read:
 D       1       6       9       3 F                                           
 

 GradGradGradGradGradGradGradGradGradGradGradGradGradGradGradGradGradGrad
 Berny optimization.
 Initialization pass.
                           ----------------------------
                           !    Initial Parameters    !
                           ! (Angstroms and Degrees)  !
 --------------------------                            --------------------------
 ! Name  Definition              Value          Derivative Info.                !
 --------------------------------------------------------------------------------
 ! R1    R(1,4)                  1.5336         estimate D2E/DX2                !
 ! R2    R(1,5)                  1.5312         estimate D2E/DX2                !
 ! R3    R(1,6)                  1.4184         estimate D2E/DX2                !
 ! R4    R(1,14)                 1.0783         estimate D2E/DX2                !
 ! R5    R(2,12)                 1.5327         estimate D2E/DX2                !
 ! R6    R(2,13)                 1.4195         estimate D2E/DX2                !
 ! R7    R(2,15)                 1.0861         estimate D2E/DX2                !
 ! R8    R(2,16)                 1.0819         estimate D2E/DX2                !
 ! R9    R(3,9)                  1.3964         estimate D2E/DX2                !
 ! R10   R(3,11)                 1.4265         estimate D2E/DX2                !
 ! R11   R(4,13)                 1.4119         estimate D2E/DX2                !
 ! R12   R(4,17)                 1.0781         estimate D2E/DX2                !
 ! R13   R(4,18)                 1.0865         estimate D2E/DX2                !
 ! R14   R(5,12)                 1.5268         estimate D2E/DX2                !
 ! R15   R(5,19)                 1.0858         estimate D2E/DX2                !
 ! R16   R(5,20)                 1.0848         estimate D2E/DX2                !
 ! R17   R(6,9)                  1.4189         estimate D2E/DX2                !
 ! R18   R(7,8)                  1.527          estimate D2E/DX2                !
 ! R19   R(7,9)                  1.5281         estimate D2E/DX2                !
 ! R20   R(7,21)                 1.0843         estimate D2E/DX2                !
 ! R21   R(7,22)                 1.0872         estimate D2E/DX2                !
 ! R22   R(8,10)                 1.5253         estimate D2E/DX2                !
 ! R23   R(8,23)                 1.0854         estimate D2E/DX2                !
 ! R24   R(8,24)                 1.0856         estimate D2E/DX2                !
 ! R25   R(9,25)                 1.0796         estimate D2E/DX2                !
 ! R26   R(10,11)                1.5161         estimate D2E/DX2                !
 ! R27   R(10,26)                1.0861         estimate D2E/DX2                !
 ! R28   R(10,27)                1.0874         estimate D2E/DX2                !
 ! R29   R(11,28)                1.081          estimate D2E/DX2                !
 ! R30   R(11,29)                1.0836         estimate D2E/DX2                !
 ! R31   R(12,30)                1.0864         estimate D2E/DX2                !
 ! R32   R(12,31)                1.0847         estimate D2E/DX2                !
 ! A1    A(4,1,5)              109.4943         estimate D2E/DX2                !
 ! A2    A(4,1,6)              112.294          estimate D2E/DX2                !
 ! A3    A(4,1,14)             108.9742         estimate D2E/DX2                !
 ! A4    A(5,1,6)              107.4379         estimate D2E/DX2                !
 ! A5    A(5,1,14)             109.1472         estimate D2E/DX2                !
 ! A6    A(6,1,14)             109.4425         estimate D2E/DX2                !
 ! A7    A(12,2,13)            111.6676         estimate D2E/DX2                !
 ! A8    A(12,2,15)            111.1671         estimate D2E/DX2                !
 ! A9    A(12,2,16)            110.749          estimate D2E/DX2                !
 ! A10   A(13,2,15)            109.1211         estimate D2E/DX2                !
 ! A11   A(13,2,16)            105.5933         estimate D2E/DX2                !
 ! A12   A(15,2,16)            108.3385         estimate D2E/DX2                !
 ! A13   A(9,3,11)             119.8428         estimate D2E/DX2                !
 ! A14   A(1,4,13)             111.3358         estimate D2E/DX2                !
 ! A15   A(1,4,17)             110.9952         estimate D2E/DX2                !
 ! A16   A(1,4,18)             110.0881         estimate D2E/DX2                !
 ! A17   A(13,4,17)            106.676          estimate D2E/DX2                !
 ! A18   A(13,4,18)            109.3123         estimate D2E/DX2                !
 ! A19   A(17,4,18)            108.3256         estimate D2E/DX2                !
 ! A20   A(1,5,12)             109.8154         estimate D2E/DX2                !
 ! A21   A(1,5,19)             108.8158         estimate D2E/DX2                !
 ! A22   A(1,5,20)             109.8952         estimate D2E/DX2                !
 ! A23   A(12,5,19)            109.4766         estimate D2E/DX2                !
 ! A24   A(12,5,20)            111.404          estimate D2E/DX2                !
 ! A25   A(19,5,20)            107.3676         estimate D2E/DX2                !
 ! A26   A(1,6,9)              124.9755         estimate D2E/DX2                !
 ! A27   A(8,7,9)              114.7732         estimate D2E/DX2                !
 ! A28   A(8,7,21)             111.8403         estimate D2E/DX2                !
 ! A29   A(8,7,22)             108.2178         estimate D2E/DX2                !
 ! A30   A(9,7,21)             108.2382         estimate D2E/DX2                !
 ! A31   A(9,7,22)             106.3659         estimate D2E/DX2                !
 ! A32   A(21,7,22)            106.9932         estimate D2E/DX2                !
 ! A33   A(7,8,10)             109.0226         estimate D2E/DX2                !
 ! A34   A(7,8,23)             111.0011         estimate D2E/DX2                !
 ! A35   A(7,8,24)             109.3601         estimate D2E/DX2                !
 ! A36   A(10,8,23)            109.614          estimate D2E/DX2                !
 ! A37   A(10,8,24)            110.8813         estimate D2E/DX2                !
 ! A38   A(23,8,24)            106.9548         estimate D2E/DX2                !
 ! A39   A(3,9,6)              113.6963         estimate D2E/DX2                !
 ! A40   A(3,9,7)              113.5929         estimate D2E/DX2                !
 ! A41   A(3,9,25)             104.3184         estimate D2E/DX2                !
 ! A42   A(6,9,7)              112.3552         estimate D2E/DX2                !
 ! A43   A(6,9,25)             103.7337         estimate D2E/DX2                !
 ! A44   A(7,9,25)             108.146          estimate D2E/DX2                !
 ! A45   A(8,10,11)            109.3457         estimate D2E/DX2                !
 ! A46   A(8,10,26)            111.3755         estimate D2E/DX2                !
 ! A47   A(8,10,27)            110.1099         estimate D2E/DX2                !
 ! A48   A(11,10,26)           108.6181         estimate D2E/DX2                !
 ! A49   A(11,10,27)           109.7643         estimate D2E/DX2                !
 ! A50   A(26,10,27)           107.592          estimate D2E/DX2                !
 ! A51   A(3,11,10)            112.3733         estimate D2E/DX2                !
 ! A52   A(3,11,28)            104.833          estimate D2E/DX2                !
 ! A53   A(3,11,29)            109.8704         estimate D2E/DX2                !
 ! A54   A(10,11,28)           111.7022         estimate D2E/DX2                !
 ! A55   A(10,11,29)           109.8305         estimate D2E/DX2                !
 ! A56   A(28,11,29)           108.0501         estimate D2E/DX2                !
 ! A57   A(2,12,5)             109.3591         estimate D2E/DX2                !
 ! A58   A(2,12,30)            110.5041         estimate D2E/DX2                !
 ! A59   A(2,12,31)            109.3219         estimate D2E/DX2                !
 ! A60   A(5,12,30)            109.6807         estimate D2E/DX2                !
 ! A61   A(5,12,31)            111.0646         estimate D2E/DX2                !
 ! A62   A(30,12,31)           106.8886         estimate D2E/DX2                !
 ! A63   A(2,13,4)             113.5164         estimate D2E/DX2                !
 ! D1    D(5,1,4,13)            27.4939         estimate D2E/DX2                !
 ! D2    D(5,1,4,17)           146.1716         estimate D2E/DX2                !
 ! D3    D(5,1,4,18)           -93.8987         estimate D2E/DX2                !
 ! D4    D(6,1,4,13)           -91.7628         estimate D2E/DX2                !
 ! D5    D(6,1,4,17)            26.9149         estimate D2E/DX2                !
 ! D6    D(6,1,4,18)           146.8446         estimate D2E/DX2                !
 ! D7    D(14,1,4,13)          146.8114         estimate D2E/DX2                !
 ! D8    D(14,1,4,17)          -94.5109         estimate D2E/DX2                !
 ! D9    D(14,1,4,18)           25.4189         estimate D2E/DX2                !
 ! D10   D(4,1,5,12)            34.485          estimate D2E/DX2                !
 ! D11   D(4,1,5,19)           -85.3294         estimate D2E/DX2                !
 ! D12   D(4,1,5,20)           157.3686         estimate D2E/DX2                !
 ! D13   D(6,1,5,12)           156.6941         estimate D2E/DX2                !
 ! D14   D(6,1,5,19)            36.8797         estimate D2E/DX2                !
 ! D15   D(6,1,5,20)           -80.4223         estimate D2E/DX2                !
 ! D16   D(14,1,5,12)          -84.7259         estimate D2E/DX2                !
 ! D17   D(14,1,5,19)          155.4597         estimate D2E/DX2                !
 ! D18   D(14,1,5,20)           38.1576         estimate D2E/DX2                !
 ! D19   D(4,1,6,9)           -101.6872         estimate D2E/DX2                !
 ! D20   D(5,1,6,9)            137.8596         estimate D2E/DX2                !
 ! D21   D(14,1,6,9)            19.4702         estimate D2E/DX2                !
 ! D22   D(13,2,12,5)           26.7495         estimate D2E/DX2                !
 ! D23   D(13,2,12,30)         -94.0809         estimate D2E/DX2                !
 ! D24   D(13,2,12,31)         148.5452         estimate D2E/DX2                !
 ! D25   D(15,2,12,5)          148.8774         estimate D2E/DX2                !
 ! D26   D(15,2,12,30)          28.0469         estimate D2E/DX2                !
 ! D27   D(15,2,12,31)         -89.327          estimate D2E/DX2                !
 ! D28   D(16,2,12,5)          -90.6259         estimate D2E/DX2                !
 ! D29   D(16,2,12,30)         148.5436         estimate D2E/DX2                !
 ! D30   D(16,2,12,31)          31.1698         estimate D2E/DX2                !
 ! D31   D(12,2,13,4)           37.79           estimate D2E/DX2                !
 ! D32   D(15,2,13,4)          -85.5065         estimate D2E/DX2                !
 ! D33   D(16,2,13,4)          158.2311         estimate D2E/DX2                !
 ! D34   D(11,3,9,6)            90.1284         estimate D2E/DX2                !
 ! D35   D(11,3,9,7)           -40.0324         estimate D2E/DX2                !
 ! D36   D(11,3,9,25)         -157.5625         estimate D2E/DX2                !
 ! D37   D(9,3,11,10)           49.3288         estimate D2E/DX2                !
 ! D38   D(9,3,11,28)          170.841          estimate D2E/DX2                !
 ! D39   D(9,3,11,29)          -73.2761         estimate D2E/DX2                !
 ! D40   D(1,4,13,2)           -68.6265         estimate D2E/DX2                !
 ! D41   D(17,4,13,2)          170.1386         estimate D2E/DX2                !
 ! D42   D(18,4,13,2)           53.2172         estimate D2E/DX2                !
 ! D43   D(1,5,12,2)           -63.2234         estimate D2E/DX2                !
 ! D44   D(1,5,12,30)           58.1068         estimate D2E/DX2                !
 ! D45   D(1,5,12,31)          176.0365         estimate D2E/DX2                !
 ! D46   D(19,5,12,2)           56.1873         estimate D2E/DX2                !
 ! D47   D(19,5,12,30)         177.5175         estimate D2E/DX2                !
 ! D48   D(19,5,12,31)         -64.5528         estimate D2E/DX2                !
 ! D49   D(20,5,12,2)          174.7878         estimate D2E/DX2                !
 ! D50   D(20,5,12,30)         -63.882          estimate D2E/DX2                !
 ! D51   D(20,5,12,31)          54.0477         estimate D2E/DX2                !
 ! D52   D(1,6,9,3)            -16.1061         Frozen                          !
 ! D53   D(1,6,9,7)            114.6697         estimate D2E/DX2                !
 ! D54   D(1,6,9,25)          -128.7681         estimate D2E/DX2                !
 ! D55   D(9,7,8,10)           -49.4166         estimate D2E/DX2                !
 ! D56   D(9,7,8,23)            71.4265         estimate D2E/DX2                !
 ! D57   D(9,7,8,24)          -170.8            estimate D2E/DX2                !
 ! D58   D(21,7,8,10)         -173.2173         estimate D2E/DX2                !
 ! D59   D(21,7,8,23)          -52.3742         estimate D2E/DX2                !
 ! D60   D(21,7,8,24)           65.3993         estimate D2E/DX2                !
 ! D61   D(22,7,8,10)           69.1771         estimate D2E/DX2                !
 ! D62   D(22,7,8,23)         -169.9797         estimate D2E/DX2                !
 ! D63   D(22,7,8,24)          -52.2063         estimate D2E/DX2                !
 ! D64   D(8,7,9,3)             40.0237         estimate D2E/DX2                !
 ! D65   D(8,7,9,6)            -90.8046         estimate D2E/DX2                !
 ! D66   D(8,7,9,25)           155.3092         estimate D2E/DX2                !
 ! D67   D(21,7,9,3)           165.7189         estimate D2E/DX2                !
 ! D68   D(21,7,9,6)            34.8906         estimate D2E/DX2                !
 ! D69   D(21,7,9,25)          -78.9956         estimate D2E/DX2                !
 ! D70   D(22,7,9,3)           -79.6054         estimate D2E/DX2                !
 ! D71   D(22,7,9,6)           149.5663         estimate D2E/DX2                !
 ! D72   D(22,7,9,25)           35.6801         estimate D2E/DX2                !
 ! D73   D(7,8,10,11)           56.4614         estimate D2E/DX2                !
 ! D74   D(7,8,10,26)          176.5128         estimate D2E/DX2                !
 ! D75   D(7,8,10,27)          -64.216          estimate D2E/DX2                !
 ! D76   D(23,8,10,11)         -65.2271         estimate D2E/DX2                !
 ! D77   D(23,8,10,26)          54.8242         estimate D2E/DX2                !
 ! D78   D(23,8,10,27)         174.0955         estimate D2E/DX2                !
 ! D79   D(24,8,10,11)         176.9143         estimate D2E/DX2                !
 ! D80   D(24,8,10,26)         -63.0344         estimate D2E/DX2                !
 ! D81   D(24,8,10,27)          56.2369         estimate D2E/DX2                !
 ! D82   D(8,10,11,3)          -56.2605         estimate D2E/DX2                !
 ! D83   D(8,10,11,28)        -173.763          estimate D2E/DX2                !
 ! D84   D(8,10,11,29)          66.367          estimate D2E/DX2                !
 ! D85   D(26,10,11,3)        -177.9894         estimate D2E/DX2                !
 ! D86   D(26,10,11,28)         64.5082         estimate D2E/DX2                !
 ! D87   D(26,10,11,29)        -55.3619         estimate D2E/DX2                !
 ! D88   D(27,10,11,3)          64.6273         estimate D2E/DX2                !
 ! D89   D(27,10,11,28)        -52.8751         estimate D2E/DX2                !
 ! D90   D(27,10,11,29)       -172.7452         estimate D2E/DX2                !
 --------------------------------------------------------------------------------
 Trust Radius=3.00D-01 FncErr=1.00D-07 GrdErr=1.00D-06 EigMax=2.50D+02 EigMin=1.00D-04
 Number of steps in this run=    186 maximum allowed number of steps=    186.
 GradGradGradGradGradGradGradGradGradGradGradGradGradGradGradGradGradGrad

                          Input orientation:                          
 ---------------------------------------------------------------------
 Center     Atomic      Atomic             Coordinates (Angstroms)
 Number     Number       Type             X           Y           Z
 ---------------------------------------------------------------------
      1          6           0        0.873549    0.469962   -0.109649
      2          6           0        3.554826   -0.803876   -0.101113
      3          8           0       -1.790783    1.316215   -0.451825
      4          6           0        1.208424   -1.007780   -0.346708
      5          6           0        2.154498    1.235539    0.233245
      6          8           0       -0.030911    0.650566    0.967892
      7          6           0       -2.276481   -0.236883    1.377119
      8          6           0       -2.638319   -1.312205    0.355132
      9          6           0       -1.420112    0.904266    0.829922
     10          6           0       -3.186701   -0.640861   -0.899920
     11          6           0       -2.164845    0.346381   -1.428688
     12          6           0        3.331871    0.647421   -0.540758
     13          8           0        2.356837   -1.396689    0.376646
     14          1           0        0.445928    0.881343   -1.009972
     15          1           0        3.948578   -1.404403   -0.915931
     16          1           0        4.252209   -0.851383    0.724615
     17          1           0        0.403768   -1.644195   -0.015239
     18          1           0        1.372539   -1.188026   -1.405501
     19          1           0        2.341138    1.146256    1.299126
     20          1           0        2.024082    2.290012    0.014558
     21          1           0       -1.772603   -0.655003    2.241342
     22          1           0       -3.197907    0.215897    1.734778
     23          1           0       -1.771067   -1.912127    0.098098
     24          1           0       -3.372710   -1.985684    0.786045
     25          1           0       -1.584417    1.774128    1.447891
     26          1           0       -3.400058   -1.368846   -1.677225
     27          1           0       -4.114872   -0.122446   -0.671442
     28          1           0       -2.556330    0.922788   -2.255137
     29          1           0       -1.286303   -0.184440   -1.775914
     30          1           0        3.129222    0.695177   -1.607072
     31          1           0        4.237402    1.218433   -0.366219
 ---------------------------------------------------------------------
                    Distance matrix (angstroms):
                    1          2          3          4          5
     1  C    0.000000
     2  C    2.968498   0.000000
     3  O    2.816362   5.761364   0.000000
     4  C    1.533643   2.368015   3.795688   0.000000
     5  C    1.531181   2.496383   4.005131   2.502775   0.000000
     6  O    1.418365   4.014434   2.357082   2.452394   2.378637
     7  C    3.554265   6.042416   2.448071   3.963638   4.807291
     8  C    3.965521   6.230698   2.877167   3.922077   5.429268
     9  C    2.516405   5.341777   1.396415   3.456816   3.639176
    10  C    4.283000   6.790645   2.445306   4.444974   5.773504
    11  C    3.314661   5.983325   1.426451   3.792542   4.712679
    12  C    2.502138   1.532729   5.166893   2.699328   1.526817
    13  O    2.433313   1.419457   5.024835   1.411858   2.643885
    14  H    1.078274   3.651196   2.345958   2.142453   2.142488
    15  H    3.690412   1.086095   6.368471   2.826618   3.392436
    16  H    3.722538   1.081863   6.526886   3.230607   2.999513
    17  H    2.167779   3.262312   3.710888   1.078131   3.379300
    18  H    2.162671   2.571260   4.145760   1.086492   3.028302
    19  H    2.143791   2.690116   4.490822   2.937972   1.085775
    20  H    2.156788   3.453795   3.964718   3.416320   1.084779
    21  H    3.714139   5.821577   3.337541   3.963455   4.798825
    22  H    4.476965   7.071763   2.823461   5.024512   5.651771
    23  H    3.565319   5.443624   3.274904   3.145324   5.033500
    24  H    4.986299   7.083394   3.864887   4.819358   6.421207
    25  H    3.188789   5.954606   1.964992   4.331231   3.967988
    26  H    4.909402   7.153582   3.361685   4.810276   6.425403
    27  H    5.054790   7.721003   2.742146   5.406177   6.478239
    28  H    4.070902   6.705775   1.998194   4.641397   5.336830
    29  H    2.805288   5.159960   2.063899   2.990682   4.229914
    30  H    2.716810   2.167074   5.091830   2.859728   2.151475
    31  H    3.455654   2.150796   6.029586   3.759137   2.167519
                    6          7          8          9         10
     6  O    0.000000
     7  C    2.449003   0.000000
     8  C    3.320621   1.526991   0.000000
     9  C    1.418901   1.528075   2.573363   0.000000
    10  C    3.887868   2.485278   1.525313   2.915580   0.000000
    11  C    3.223321   2.867963   2.481350   2.442782   1.516058
    12  C    3.685694   5.992817   6.347119   4.952381   6.654356
    13  O    3.200338   4.879932   4.995917   4.445807   5.738616
    14  H    2.047579   3.789478   4.023399   2.620657   3.940204
    15  H    4.858808   6.735914   6.709047   6.099245   7.176034
    16  H    4.545344   6.589929   6.915797   5.938739   7.617140
    17  H    2.534052   3.332105   3.082480   3.245842   3.831554
    18  H    3.314074   4.686469   4.382035   4.144116   4.619705
    19  H    2.445821   4.820950   5.632952   3.798120   6.211811
    20  H    2.796359   5.170746   5.901690   3.800998   6.048020
    21  H    2.521840   1.084250   2.176963   2.132528   3.444909
    22  H    3.287387   1.087178   2.133461   2.110254   2.770522
    23  H    3.217465   2.167436   1.085403   2.931008   2.148529
    24  H    4.260341   2.146949   1.085629   3.488033   2.164631
    25  H    1.976404   2.127939   3.439518   1.079603   3.729839
    26  H    4.735591   3.445690   2.171159   3.920843   1.086134
    27  H    4.468076   2.754883   2.156291   3.251148   1.087409
    28  H    4.103628   3.823145   3.437357   3.287693   2.163095
    29  H    3.130769   3.305272   2.764264   2.827290   2.141775
    30  H    4.076625   6.244658   6.414387   5.165181   6.494301
    31  H    4.507862   6.898394   7.362066   5.791107   7.671970
                   11         12         13         14         15
    11  C    0.000000
    12  C    5.576104   0.000000
    13  O    5.171376   2.443503   0.000000
    14  H    2.697711   2.933181   3.280810   0.000000
    15  H    6.379820   2.175101   2.050477   4.183543   0.000000
    16  H    6.873859   2.166704   2.002717   4.527572   1.757673
    17  H    3.543727   3.755191   2.007315   2.714703   3.665300
    18  H    3.855908   2.820572   2.046566   2.301595   2.631060
    19  H    5.327725   2.148386   2.705140   2.998989   3.741150
    20  H    4.838158   2.171818   3.719354   2.350443   4.268278
    21  H    3.824362   5.957520   4.591238   4.225314   6.577377
    22  H    3.330429   6.928368   5.941392   4.610207   7.792553
    23  H    2.754450   5.744510   4.169275   3.734483   5.830984
    24  H    3.435478   7.324278   5.774273   5.101717   7.538957
    25  H    3.263444   5.421631   5.170602   3.310658   6.804759
    26  H    2.128268   7.118691   6.112365   4.505573   7.388050
    27  H    2.143788   7.487573   6.678713   4.682210   8.168379
    28  H    1.080983   6.138879   6.037008   3.250493   7.037266
    29  H    1.083593   4.852333   4.401765   2.173289   5.443515
    30  H    5.308543   1.086450   2.984563   2.755223   2.357383
    31  H    6.548136   1.084668   3.305637   3.860482   2.695343
                   16         17         18         19         20
    16  H    0.000000
    17  H    3.998304   0.000000
    18  H    3.597669   1.754832   0.000000
    19  H    2.823618   3.642468   3.701630   0.000000
    20  H    3.916260   4.254914   3.812850   1.748947   0.000000
    21  H    6.215898   3.287438   4.845152   4.588591   5.295894
    22  H    7.593665   4.415265   5.720256   5.633505   5.876247
    23  H    6.147972   2.194206   3.559128   5.263687   5.662871
    24  H    7.709073   3.875623   5.287393   6.536081   6.928357
    25  H    6.440702   4.216463   5.065549   3.978233   3.916867
    26  H    8.037026   4.160181   4.783745   6.938713   6.758008
    27  H    8.514010   4.812944   5.637906   6.868246   6.631539
    28  H    7.640864   4.513172   4.540201   6.055404   5.291596
    29  H    6.113311   2.843800   2.865978   4.938112   4.504148
    30  H    3.014915   3.928701   2.583219   3.044755   2.528738
    31  H    2.339717   4.797351   3.883116   2.524758   2.488385
                   21         22         23         24         25
    21  H    0.000000
    22  H    1.745441   0.000000
    23  H    2.484725   3.040243   0.000000
    24  H    2.539477   2.403666   1.744690   0.000000
    25  H    2.562354   2.261358   3.930045   4.215711   0.000000
    26  H    4.302714   3.767498   2.469927   2.539476   4.789696
    27  H    3.775467   2.597151   3.047716   2.479260   3.806805
    28  H    4.829283   4.102528   3.767107   4.286546   3.921965
    29  H    4.073851   4.017394   2.594575   3.763138   3.783884
    30  H    6.376611   7.171487   5.806761   7.428940   5.719731
    31  H    6.813905   7.791219   6.791001   8.337139   6.123183
                   26         27         28         29         30
    26  H    0.000000
    27  H    1.753873   0.000000
    28  H    2.509471   2.455536   0.000000
    29  H    2.424978   3.037187   1.751735   0.000000
    30  H    6.848110   7.349885   5.726892   4.505452   0.000000
    31  H    8.169672   8.464727   7.057635   5.870827   1.744011
                   31
    31  H    0.000000
 Stoichiometry    C10H18O3
 Framework group  C1[X(C10H18O3)]
 Deg. of freedom    87
 Full point group                 C1      NOp   1
 Largest Abelian subgroup         C1      NOp   1
 Largest concise Abelian subgroup C1      NOp   1
                         Standard orientation:                         
 ---------------------------------------------------------------------
 Center     Atomic      Atomic             Coordinates (Angstroms)
 Number     Number       Type             X           Y           Z
 ---------------------------------------------------------------------
      1          6           0        0.873549   -0.469962    0.109649
      2          6           0        3.554826    0.803876    0.101113
      3          8           0       -1.790783   -1.316215    0.451825
      4          6           0        1.208424    1.007780    0.346708
      5          6           0        2.154498   -1.235539   -0.233245
      6          8           0       -0.030911   -0.650566   -0.967892
      7          6           0       -2.276481    0.236883   -1.377119
      8          6           0       -2.638319    1.312205   -0.355132
      9          6           0       -1.420112   -0.904266   -0.829922
     10          6           0       -3.186701    0.640861    0.899920
     11          6           0       -2.164845   -0.346381    1.428688
     12          6           0        3.331871   -0.647421    0.540758
     13          8           0        2.356837    1.396689   -0.376646
     14          1           0        0.445928   -0.881343    1.009972
     15          1           0        3.948578    1.404403    0.915931
     16          1           0        4.252209    0.851383   -0.724615
     17          1           0        0.403768    1.644195    0.015239
     18          1           0        1.372539    1.188026    1.405501
     19          1           0        2.341138   -1.146256   -1.299126
     20          1           0        2.024082   -2.290012   -0.014558
     21          1           0       -1.772603    0.655003   -2.241342
     22          1           0       -3.197907   -0.215897   -1.734778
     23          1           0       -1.771067    1.912127   -0.098098
     24          1           0       -3.372710    1.985684   -0.786045
     25          1           0       -1.584417   -1.774128   -1.447891
     26          1           0       -3.400058    1.368846    1.677225
     27          1           0       -4.114872    0.122446    0.671442
     28          1           0       -2.556330   -0.922788    2.255137
     29          1           0       -1.286303    0.184440    1.775914
     30          1           0        3.129222   -0.695177    1.607072
     31          1           0        4.237402   -1.218433    0.366219
 ---------------------------------------------------------------------
 Rotational constants (GHZ):           1.6649724           0.4506823           0.4296114
 Standard basis: 6-311++G(2d,2p) (5D, 7F)
 There are   557 symmetry adapted cartesian basis functions of A   symmetry.
 There are   531 symmetry adapted basis functions of A   symmetry.
   531 basis functions,   762 primitive gaussians,   557 cartesian basis functions
    51 alpha electrons       51 beta electrons
       nuclear repulsion energy       901.7238080686 Hartrees.
 NAtoms=   31 NActive=   31 NUniq=   31 SFac= 1.00D+00 NAtFMM=   60 NAOKFM=F Big=F
 Integral buffers will be    131072 words long.
 Raffenetti 2 integral format.
 Two-electron integral symmetry is turned on.
 ------------------------------------------------------------------------------
 Polarizable Continuum Model (PCM)
 =================================
 Model                : PCM.
 Atomic radii         : UFF (Universal Force Field).
 Polarization charges : Total charges.
 Charge compensation  : None.
 Solution method      : On-the-fly selection.
 Cavity type          : Scaled VdW (van der Waals Surface) (Alpha=1.100).
 Cavity algorithm     : GePol (No added spheres)
                        Default sphere list used, NSphG=   31.
                        Lebedev-Laikov grids with approx.  5.0 points / Ang**2.
                        Smoothing algorithm: York/Karplus (Gamma=1.0000).
                        Polarization charges: spherical gaussians, with
                                              point-specific exponents (IZeta= 3).
                        Self-potential: point-specific (ISelfS= 7).
                        Self-field    : sphere-specific E.n sum rule (ISelfD= 2).
 1st derivatives      : Analytical E(r).r(x)/FMM algorithm (CHGder, D1EAlg=3).
                        Cavity 1st derivative terms included.
 Solvent              : Water, Eps=  78.355300 Eps(inf)=   1.777849
 ------------------------------------------------------------------------------
 One-electron integrals computed using PRISM.
 NBasis=   531 RedAO= T EigKep=  4.42D-06  NBF=   531
 NBsUse=   531 1.00D-06 EigRej= -1.00D+00 NBFU=   531
 ExpMin= 3.60D-02 ExpMax= 8.59D+03 ExpMxC= 1.30D+03 IAcc=3 IRadAn=         5 AccDes= 0.00D+00
 Harris functional with IExCor= 1009 and IRadAn=       5 diagonalized for initial guess.
 HarFok:  IExCor= 1009 AccDes= 0.00D+00 IRadAn=         5 IDoV= 1 UseB2=F ITyADJ=14
 ICtDFT=  3500011 ScaDFX=  1.000000  1.000000  1.000000  1.000000
 FoFCou: FMM=F IPFlag=           0 FMFlag=      100000 FMFlg1=           0
         NFxFlg=           0 DoJE=T BraDBF=F KetDBF=T FulRan=T
         wScrn=  0.000000 ICntrl=       500 IOpCl=  0 I1Cent=   200000004 NGrid=           0
         NMat0=    1 NMatS0=      1 NMatT0=    0 NMatD0=    1 NMtDS0=    0 NMtDT0=    0
 Petite list used in FoFCou.
 Requested convergence on RMS density matrix=1.00D-08 within 128 cycles.
 Requested convergence on MAX density matrix=1.00D-06.
 Requested convergence on             energy=1.00D-06.
 No special actions if energy rises.
 Inv3:  Mode=1 IEnd=    12411468.
 Iteration    1 A*A^-1 deviation from unit magnitude is 4.77D-15 for   2033.
 Iteration    1 A*A^-1 deviation from orthogonality  is 3.76D-15 for   2023    862.
 Iteration    1 A^-1*A deviation from unit magnitude is 4.77D-15 for   2033.
 Iteration    1 A^-1*A deviation from orthogonality  is 1.74D-15 for   1996    892.
 Error on total polarization charges =  0.01480
 SCF Done:  E(RM062X) =  -617.480070978     A.U. after   12 cycles
            NFock= 12  Conv=0.61D-08     -V/T= 2.0035

 **********************************************************************

            Population analysis using the SCF density.

 **********************************************************************

 Orbital symmetries:
       Occupied  (A) (A) (A) (A) (A) (A) (A) (A) (A) (A) (A) (A)
                 (A) (A) (A) (A) (A) (A) (A) (A) (A) (A) (A) (A)
                 (A) (A) (A) (A) (A) (A) (A) (A) (A) (A) (A) (A)
                 (A) (A) (A) (A) (A) (A) (A) (A) (A) (A) (A) (A)
                 (A) (A) (A)
       Virtual   (A) (A) (A) (A) (A) (A) (A) (A) (A) (A) (A) (A)
                 (A) (A) (A) (A) (A) (A) (A) (A) (A) (A) (A) (A)
                 (A) (A) (A) (A) (A) (A) (A) (A) (A) (A) (A) (A)
                 (A) (A) (A) (A) (A) (A) (A) (A) (A) (A) (A) (A)
                 (A) (A) (A) (A) (A) (A) (A) (A) (A) (A) (A) (A)
                 (A) (A) (A) (A) (A) (A) (A) (A) (A) (A) (A) (A)
                 (A) (A) (A) (A) (A) (A) (A) (A) (A) (A) (A) (A)
                 (A) (A) (A) (A) (A) (A) (A) (A) (A) (A) (A) (A)
                 (A) (A) (A) (A) (A) (A) (A) (A) (A) (A) (A) (A)
                 (A) (A) (A) (A) (A) (A) (A) (A) (A) (A) (A) (A)
                 (A) (A) (A) (A) (A) (A) (A) (A) (A) (A) (A) (A)
                 (A) (A) (A) (A) (A) (A) (A) (A) (A) (A) (A) (A)
                 (A) (A) (A) (A) (A) (A) (A) (A) (A) (A) (A) (A)
                 (A) (A) (A) (A) (A) (A) (A) (A) (A) (A) (A) (A)
                 (A) (A) (A) (A) (A) (A) (A) (A) (A) (A) (A) (A)
                 (A) (A) (A) (A) (A) (A) (A) (A) (A) (A) (A) (A)
                 (A) (A) (A) (A) (A) (A) (A) (A) (A) (A) (A) (A)
                 (A) (A) (A) (A) (A) (A) (A) (A) (A) (A) (A) (A)
                 (A) (A) (A) (A) (A) (A) (A) (A) (A) (A) (A) (A)
                 (A) (A) (A) (A) (A) (A) (A) (A) (A) (A) (A) (A)
                 (A) (A) (A) (A) (A) (A) (A) (A) (A) (A) (A) (A)
                 (A) (A) (A) (A) (A) (A) (A) (A) (A) (A) (A) (A)
                 (A) (A) (A) (A) (A) (A) (A) (A) (A) (A) (A) (A)
                 (A) (A) (A) (A) (A) (A) (A) (A) (A) (A) (A) (A)
                 (A) (A) (A) (A) (A) (A) (A) (A) (A) (A) (A) (A)
                 (A) (A) (A) (A) (A) (A) (A) (A) (A) (A) (A) (A)
                 (A) (A) (A) (A) (A) (A) (A) (A) (A) (A) (A) (A)
                 (A) (A) (A) (A) (A) (A) (A) (A) (A) (A) (A) (A)
                 (A) (A) (A) (A) (A) (A) (A) (A) (A) (A) (A) (A)
                 (A) (A) (A) (A) (A) (A) (A) (A) (A) (A) (A) (A)
                 (A) (A) (A) (A) (A) (A) (A) (A) (A) (A) (A) (A)
                 (A) (A) (A) (A) (A) (A) (A) (A) (A) (A) (A) (A)
                 (A) (A) (A) (A) (A) (A) (A) (A) (A) (A) (A) (A)
                 (A) (A) (A) (A) (A) (A) (A) (A) (A) (A) (A) (A)
                 (A) (A) (A) (A) (A) (A) (A) (A) (A) (A) (A) (A)
                 (A) (A) (A) (A) (A) (A) (A) (A) (A) (A) (A) (A)
                 (A) (A) (A) (A) (A) (A) (A) (A) (A) (A) (A) (A)
                 (A) (A) (A) (A) (A) (A) (A) (A) (A) (A) (A) (A)
                 (A) (A) (A) (A) (A) (A) (A) (A) (A) (A) (A) (A)
                 (A) (A) (A) (A) (A) (A) (A) (A) (A) (A) (A) (A)
 The electronic state is 1-A.
 Alpha  occ. eigenvalues --  -19.63568 -19.62514 -19.62073 -10.63745 -10.58639
 Alpha  occ. eigenvalues --  -10.58273 -10.57764 -10.57696 -10.53243 -10.53113
 Alpha  occ. eigenvalues --  -10.53058 -10.53003 -10.52968  -1.19630  -1.16425
 Alpha  occ. eigenvalues --   -1.13193  -0.90883  -0.90228  -0.87478  -0.84593
 Alpha  occ. eigenvalues --   -0.75440  -0.74535  -0.74026  -0.70808  -0.64946
 Alpha  occ. eigenvalues --   -0.62762  -0.60057  -0.58721  -0.58290  -0.56789
 Alpha  occ. eigenvalues --   -0.54652  -0.53269  -0.52942  -0.51134  -0.49550
 Alpha  occ. eigenvalues --   -0.48551  -0.46293  -0.45865  -0.45433  -0.44972
 Alpha  occ. eigenvalues --   -0.43809  -0.42361  -0.41441  -0.40606  -0.39611
 Alpha  occ. eigenvalues --   -0.38980  -0.36986  -0.36375  -0.34886  -0.33758
 Alpha  occ. eigenvalues --   -0.30575
 Alpha virt. eigenvalues --   -0.00216   0.00676   0.00898   0.01114   0.02265
 Alpha virt. eigenvalues --    0.02521   0.02588   0.03309   0.03555   0.04480
 Alpha virt. eigenvalues --    0.04678   0.04842   0.05584   0.05682   0.07104
 Alpha virt. eigenvalues --    0.07749   0.08119   0.08218   0.08925   0.09435
 Alpha virt. eigenvalues --    0.09858   0.10799   0.10961   0.11523   0.11567
 Alpha virt. eigenvalues --    0.12082   0.12458   0.12939   0.13112   0.13550
 Alpha virt. eigenvalues --    0.13798   0.14091   0.14223   0.14516   0.14846
 Alpha virt. eigenvalues --    0.15192   0.15594   0.15725   0.15808   0.16227
 Alpha virt. eigenvalues --    0.16265   0.16489   0.17125   0.17180   0.17730
 Alpha virt. eigenvalues --    0.18103   0.18514   0.18960   0.19158   0.19261
 Alpha virt. eigenvalues --    0.19424   0.19937   0.20632   0.20921   0.21607
 Alpha virt. eigenvalues --    0.21690   0.22290   0.22908   0.23457   0.23758
 Alpha virt. eigenvalues --    0.24621   0.24923   0.25950   0.26226   0.26732
 Alpha virt. eigenvalues --    0.27160   0.28134   0.28378   0.28969   0.29871
 Alpha virt. eigenvalues --    0.30564   0.30758   0.31594   0.31861   0.32302
 Alpha virt. eigenvalues --    0.32779   0.33695   0.34064   0.34236   0.34480
 Alpha virt. eigenvalues --    0.35366   0.35548   0.35988   0.36584   0.36919
 Alpha virt. eigenvalues --    0.37338   0.37733   0.37948   0.38357   0.38725
 Alpha virt. eigenvalues --    0.38990   0.39296   0.39925   0.40072   0.40796
 Alpha virt. eigenvalues --    0.41832   0.42721   0.42988   0.44347   0.45889
 Alpha virt. eigenvalues --    0.47615   0.48087   0.48865   0.49935   0.50839
 Alpha virt. eigenvalues --    0.51795   0.52565   0.54077   0.54629   0.54837
 Alpha virt. eigenvalues --    0.55841   0.56137   0.57384   0.58098   0.59442
 Alpha virt. eigenvalues --    0.59583   0.59951   0.60412   0.60991   0.61366
 Alpha virt. eigenvalues --    0.61624   0.62182   0.63326   0.63596   0.63885
 Alpha virt. eigenvalues --    0.64613   0.64941   0.65222   0.66489   0.67203
 Alpha virt. eigenvalues --    0.67369   0.68484   0.69902   0.69957   0.70680
 Alpha virt. eigenvalues --    0.70930   0.71447   0.71892   0.72845   0.73124
 Alpha virt. eigenvalues --    0.73928   0.74202   0.74614   0.75367   0.75585
 Alpha virt. eigenvalues --    0.76315   0.76811   0.77488   0.78410   0.79204
 Alpha virt. eigenvalues --    0.79531   0.81140   0.83561   0.85303   0.86147
 Alpha virt. eigenvalues --    0.87496   0.87957   0.88095   0.88825   0.89762
 Alpha virt. eigenvalues --    0.91092   0.92597   0.92873   0.94977   0.96584
 Alpha virt. eigenvalues --    0.96641   0.97152   0.99857   1.01183   1.02179
 Alpha virt. eigenvalues --    1.02770   1.03173   1.04115   1.05836   1.06760
 Alpha virt. eigenvalues --    1.07284   1.08207   1.08477   1.10221   1.11555
 Alpha virt. eigenvalues --    1.12930   1.13972   1.15111   1.15162   1.16677
 Alpha virt. eigenvalues --    1.17582   1.18916   1.19624   1.20046   1.21331
 Alpha virt. eigenvalues --    1.21694   1.22675   1.23050   1.23467   1.24024
 Alpha virt. eigenvalues --    1.25173   1.25771   1.26940   1.27434   1.28000
 Alpha virt. eigenvalues --    1.28321   1.28944   1.29675   1.30783   1.31018
 Alpha virt. eigenvalues --    1.32557   1.32852   1.33411   1.33893   1.34799
 Alpha virt. eigenvalues --    1.35322   1.36511   1.37197   1.37808   1.38008
 Alpha virt. eigenvalues --    1.38929   1.40260   1.40859   1.41235   1.41693
 Alpha virt. eigenvalues --    1.42729   1.43352   1.43860   1.45102   1.45422
 Alpha virt. eigenvalues --    1.45750   1.46656   1.47122   1.47928   1.48589
 Alpha virt. eigenvalues --    1.49039   1.49957   1.50239   1.51770   1.52388
 Alpha virt. eigenvalues --    1.53064   1.53686   1.54043   1.54777   1.56084
 Alpha virt. eigenvalues --    1.56514   1.57278   1.58145   1.59023   1.59202
 Alpha virt. eigenvalues --    1.59793   1.60724   1.61308   1.61709   1.61894
 Alpha virt. eigenvalues --    1.62135   1.64001   1.64810   1.65101   1.66334
 Alpha virt. eigenvalues --    1.66959   1.67972   1.69084   1.70219   1.71718
 Alpha virt. eigenvalues --    1.73285   1.73915   1.75523   1.75751   1.76553
 Alpha virt. eigenvalues --    1.77303   1.78500   1.82055   1.83488   1.83744
 Alpha virt. eigenvalues --    1.85444   1.88059   1.89082   1.96229   1.97341
 Alpha virt. eigenvalues --    1.99831   2.06633   2.07210   2.14126   2.19093
 Alpha virt. eigenvalues --    2.22280   2.23962   2.26581   2.33141   2.36538
 Alpha virt. eigenvalues --    2.39974   2.44124   2.45286   2.50429   2.52088
 Alpha virt. eigenvalues --    2.55496   2.76690   2.77698   2.83629   2.83980
 Alpha virt. eigenvalues --    2.84653   2.87671   2.90397   2.92206   2.93427
 Alpha virt. eigenvalues --    2.94311   2.94907   2.99568   3.02250   3.03241
 Alpha virt. eigenvalues --    3.04936   3.07060   3.08246   3.08777   3.10888
 Alpha virt. eigenvalues --    3.12789   3.14502   3.14900   3.17649   3.19431
 Alpha virt. eigenvalues --    3.23297   3.29236   3.30157   3.32193   3.33957
 Alpha virt. eigenvalues --    3.35131   3.35843   3.35894   3.38047   3.39393
 Alpha virt. eigenvalues --    3.41213   3.41609   3.43599   3.44557   3.45455
 Alpha virt. eigenvalues --    3.47605   3.49373   3.49848   3.50242   3.51661
 Alpha virt. eigenvalues --    3.52542   3.52876   3.54029   3.54739   3.56360
 Alpha virt. eigenvalues --    3.56510   3.56941   3.57250   3.58770   3.59750
 Alpha virt. eigenvalues --    3.61614   3.62303   3.63102   3.63565   3.63999
 Alpha virt. eigenvalues --    3.65544   3.67018   3.68010   3.68616   3.69770
 Alpha virt. eigenvalues --    3.70860   3.71113   3.71949   3.73095   3.73580
 Alpha virt. eigenvalues --    3.74576   3.76121   3.77147   3.78622   3.79115
 Alpha virt. eigenvalues --    3.79656   3.80952   3.81596   3.83789   3.83993
 Alpha virt. eigenvalues --    3.86705   3.88124   3.88655   3.89490   3.90646
 Alpha virt. eigenvalues --    3.93758   3.94692   3.95498   3.97046   3.98621
 Alpha virt. eigenvalues --    3.99880   4.01029   4.01656   4.02461   4.03579
 Alpha virt. eigenvalues --    4.05256   4.05626   4.07009   4.07628   4.08598
 Alpha virt. eigenvalues --    4.08950   4.09716   4.10348   4.10848   4.12320
 Alpha virt. eigenvalues --    4.12688   4.13495   4.13933   4.14386   4.15562
 Alpha virt. eigenvalues --    4.17063   4.17939   4.18978   4.19452   4.19819
 Alpha virt. eigenvalues --    4.21423   4.22923   4.25461   4.26302   4.27262
 Alpha virt. eigenvalues --    4.27451   4.28496   4.31117   4.31501   4.32471
 Alpha virt. eigenvalues --    4.35486   4.36161   4.37309   4.37776   4.40104
 Alpha virt. eigenvalues --    4.42296   4.43614   4.46740   4.47410   4.51060
 Alpha virt. eigenvalues --    4.59599   4.61355   4.73612   4.76055   4.82226
 Alpha virt. eigenvalues --    4.86310   4.93103   4.94167   4.99564   5.01574
 Alpha virt. eigenvalues --    5.04669   5.07573   5.08191   5.12294   5.13304
 Alpha virt. eigenvalues --    5.14726   5.14966   5.16657   5.33462   5.38053
 Alpha virt. eigenvalues --    5.44102   5.56272   5.59629   5.62607   5.85314
 Alpha virt. eigenvalues --    5.87644   6.04441   6.97620   7.04620   7.07022
 Alpha virt. eigenvalues --    7.08878   7.10189   7.11065   7.12948   7.19640
 Alpha virt. eigenvalues --    7.26927   7.36326   7.44222   7.45133   7.50871
 Alpha virt. eigenvalues --    7.54568   7.58927  23.96280  23.98270  24.05461
 Alpha virt. eigenvalues --   24.07174  24.09982  24.11795  24.13502  24.14722
 Alpha virt. eigenvalues --   24.15830  24.18250  50.17086  50.18776  50.21113
          Condensed to atoms (all electrons):
               1          2          3          4          5          6
     1  C    7.910074  -0.000597   0.094849  -0.481084  -1.285724   0.117427
     2  C   -0.000597   5.618014  -0.001309  -0.182972   0.004163   0.021815
     3  O    0.094849  -0.001309   8.124137  -0.011613  -0.029894  -0.029760
     4  C   -0.481084  -0.182972  -0.011613   6.625088  -0.386911  -0.097079
     5  C   -1.285724   0.004163  -0.029894  -0.386911   7.519048  -0.231648
     6  O    0.117427   0.021815  -0.029760  -0.097079  -0.231648   8.298677
     7  C    0.110897  -0.003711  -0.062614  -0.019598  -0.005337  -0.018775
     8  C    0.077510  -0.021167  -0.036304  -0.089320   0.043774  -0.036342
     9  C   -0.967782   0.036425   0.310357   0.212276   0.185192   0.251066
    10  C    0.122020   0.010762  -0.062768   0.059262  -0.042541  -0.045623
    11  C   -0.033834  -0.005872   0.161195   0.008417  -0.034542   0.049362
    12  C    0.343014  -0.229356   0.007207   0.015550  -0.249562   0.000946
    13  O   -0.007756   0.043774   0.000189   0.172700  -0.085490   0.023628
    14  H    0.546745   0.024493  -0.001203  -0.155832  -0.030216  -0.018282
    15  H    0.038067   0.534957   0.000063  -0.044346  -0.020584  -0.000318
    16  H   -0.000899   0.405022  -0.000111   0.034699  -0.035775   0.002223
    17  H    0.014885   0.055301   0.001549   0.239607  -0.004628  -0.003708
    18  H   -0.098231   0.033904   0.000770   0.434564   0.023238   0.009461
    19  H   -0.074876  -0.028145   0.000675  -0.006696   0.475664  -0.006122
    20  H   -0.034706  -0.005689  -0.000347   0.025341   0.417773   0.003112
    21  H   -0.021503   0.001710   0.010657   0.010216   0.003650  -0.002503
    22  H    0.008835  -0.000438  -0.010423  -0.002401  -0.002769   0.003053
    23  H   -0.006096  -0.008646  -0.001366   0.016777   0.014128  -0.003091
    24  H    0.006263  -0.000694  -0.004168  -0.007109   0.001866  -0.000948
    25  H   -0.020747  -0.000834  -0.067263  -0.015507   0.047173  -0.082467
    26  H    0.000199   0.000541   0.009846   0.001173  -0.002913  -0.000191
    27  H    0.006408   0.000087  -0.006935  -0.003820   0.001820  -0.000667
    28  H    0.010946   0.000004  -0.054855  -0.000618  -0.002239   0.000513
    29  H   -0.033011  -0.012190  -0.043049   0.024216   0.012112   0.007992
    30  H   -0.056385  -0.093746  -0.000358   0.017413  -0.017195   0.002193
    31  H    0.033089  -0.010286   0.000238  -0.022901  -0.024956  -0.003442
               7          8          9         10         11         12
     1  C    0.110897   0.077510  -0.967782   0.122020  -0.033834   0.343014
     2  C   -0.003711  -0.021167   0.036425   0.010762  -0.005872  -0.229356
     3  O   -0.062614  -0.036304   0.310357  -0.062768   0.161195   0.007207
     4  C   -0.019598  -0.089320   0.212276   0.059262   0.008417   0.015550
     5  C   -0.005337   0.043774   0.185192  -0.042541  -0.034542  -0.249562
     6  O   -0.018775  -0.036342   0.251066  -0.045623   0.049362   0.000946
     7  C    6.804949  -0.424504  -1.080422   0.042439   0.123396   0.005788
     8  C   -0.424504   5.915232   0.105359  -0.324450   0.128699   0.007621
     9  C   -1.080422   0.105359   7.134942  -0.003321  -0.242409  -0.101869
    10  C    0.042439  -0.324450  -0.003321   6.552962  -0.418171  -0.001950
    11  C    0.123396   0.128699  -0.242409  -0.418171   5.575091   0.002645
    12  C    0.005788   0.007621  -0.101869  -0.001950   0.002645   5.826105
    13  O    0.009944  -0.004438  -0.023858   0.003189  -0.000840   0.053642
    14  H    0.007225  -0.018981  -0.021225  -0.008546  -0.009085  -0.007732
    15  H   -0.001352   0.000292  -0.000640   0.000237   0.000297  -0.105993
    16  H    0.001326  -0.000665  -0.000247  -0.000079   0.000161   0.020642
    17  H    0.042344  -0.024923  -0.008015   0.034718  -0.017641  -0.043994
    18  H   -0.005604  -0.005627   0.007333   0.014605  -0.007285  -0.041516
    19  H    0.012355  -0.000724  -0.008663   0.000367  -0.001270  -0.015567
    20  H    0.000615  -0.000021  -0.004352   0.001660   0.000619  -0.012853
    21  H    0.431354  -0.046314  -0.021517   0.009272  -0.002387  -0.000907
    22  H    0.506653  -0.002998  -0.104124  -0.054404   0.033845   0.000837
    23  H   -0.138911   0.594107   0.045892  -0.179997   0.047812   0.005848
    24  H   -0.029113   0.420258  -0.004963  -0.029271   0.009591   0.000010
    25  H   -0.019318   0.010064   0.426493  -0.025452   0.000848  -0.007590
    26  H    0.019263  -0.058269  -0.011592   0.448444  -0.031070  -0.000248
    27  H   -0.050854   0.005846   0.031241   0.451178  -0.070489  -0.000273
    28  H    0.007377   0.013736  -0.022072  -0.024723   0.426977   0.000347
    29  H   -0.011304   0.022967  -0.001176  -0.137800   0.486911   0.012705
    30  H    0.002827   0.000124   0.000417  -0.000307   0.000494   0.521767
    31  H   -0.000565   0.000360  -0.000699  -0.000152  -0.000148   0.381641
              13         14         15         16         17         18
     1  C   -0.007756   0.546745   0.038067  -0.000899   0.014885  -0.098231
     2  C    0.043774   0.024493   0.534957   0.405022   0.055301   0.033904
     3  O    0.000189  -0.001203   0.000063  -0.000111   0.001549   0.000770
     4  C    0.172700  -0.155832  -0.044346   0.034699   0.239607   0.434564
     5  C   -0.085490  -0.030216  -0.020584  -0.035775  -0.004628   0.023238
     6  O    0.023628  -0.018282  -0.000318   0.002223  -0.003708   0.009461
     7  C    0.009944   0.007225  -0.001352   0.001326   0.042344  -0.005604
     8  C   -0.004438  -0.018981   0.000292  -0.000665  -0.024923  -0.005627
     9  C   -0.023858  -0.021225  -0.000640  -0.000247  -0.008015   0.007333
    10  C    0.003189  -0.008546   0.000237  -0.000079   0.034718   0.014605
    11  C   -0.000840  -0.009085   0.000297   0.000161  -0.017641  -0.007285
    12  C    0.053642  -0.007732  -0.105993   0.020642  -0.043994  -0.041516
    13  O    8.347580   0.005703  -0.057813  -0.081472  -0.087282  -0.018406
    14  H    0.005703   0.472956   0.003798  -0.000824   0.007363  -0.001423
    15  H   -0.057813   0.003798   0.519054  -0.025508   0.002807   0.008298
    16  H   -0.081472  -0.000824  -0.025508   0.512375  -0.001975  -0.005569
    17  H   -0.087282   0.007363   0.002807  -0.001975   0.572792  -0.003582
    18  H   -0.018406  -0.001423   0.008298  -0.005569  -0.003582   0.478063
    19  H    0.003467  -0.001278  -0.003564   0.005853   0.006221  -0.000144
    20  H   -0.000659  -0.020136   0.000952  -0.001768   0.000324  -0.001520
    21  H    0.000737  -0.000775   0.000050   0.000014  -0.005716  -0.000080
    22  H   -0.000149  -0.000691  -0.000047   0.000050   0.000149  -0.000373
    23  H    0.002184  -0.002029  -0.000774   0.000238  -0.045465  -0.002891
    24  H   -0.000172   0.000044  -0.000013  -0.000011   0.004636  -0.000238
    25  H   -0.001075  -0.001144  -0.000108  -0.000071   0.003815  -0.000579
    26  H   -0.000130  -0.000083   0.000083  -0.000018   0.002948   0.000904
    27  H    0.000030   0.001296  -0.000002  -0.000006  -0.000215   0.000036
    28  H    0.000017  -0.002794   0.000020  -0.000012   0.000512  -0.000111
    29  H    0.000544  -0.021925  -0.001344   0.000677  -0.022710  -0.015827
    30  H   -0.000621  -0.017027  -0.015580   0.009298  -0.000538  -0.007816
    31  H    0.009942   0.003690   0.003306  -0.012537   0.003047  -0.000791
              19         20         21         22         23         24
     1  C   -0.074876  -0.034706  -0.021503   0.008835  -0.006096   0.006263
     2  C   -0.028145  -0.005689   0.001710  -0.000438  -0.008646  -0.000694
     3  O    0.000675  -0.000347   0.010657  -0.010423  -0.001366  -0.004168
     4  C   -0.006696   0.025341   0.010216  -0.002401   0.016777  -0.007109
     5  C    0.475664   0.417773   0.003650  -0.002769   0.014128   0.001866
     6  O   -0.006122   0.003112  -0.002503   0.003053  -0.003091  -0.000948
     7  C    0.012355   0.000615   0.431354   0.506653  -0.138911  -0.029113
     8  C   -0.000724  -0.000021  -0.046314  -0.002998   0.594107   0.420258
     9  C   -0.008663  -0.004352  -0.021517  -0.104124   0.045892  -0.004963
    10  C    0.000367   0.001660   0.009272  -0.054404  -0.179997  -0.029271
    11  C   -0.001270   0.000619  -0.002387   0.033845   0.047812   0.009591
    12  C   -0.015567  -0.012853  -0.000907   0.000837   0.005848   0.000010
    13  O    0.003467  -0.000659   0.000737  -0.000149   0.002184  -0.000172
    14  H   -0.001278  -0.020136  -0.000775  -0.000691  -0.002029   0.000044
    15  H   -0.003564   0.000952   0.000050  -0.000047  -0.000774  -0.000013
    16  H    0.005853  -0.001768   0.000014   0.000050   0.000238  -0.000011
    17  H    0.006221   0.000324  -0.005716   0.000149  -0.045465   0.004636
    18  H   -0.000144  -0.001520  -0.000080  -0.000373  -0.002891  -0.000238
    19  H    0.461496  -0.013893  -0.000809   0.000208  -0.000916   0.000103
    20  H   -0.013893   0.480403  -0.000026   0.000139  -0.000078   0.000029
    21  H   -0.000809  -0.000026   0.478002  -0.006314   0.001194  -0.010296
    22  H    0.000208   0.000139  -0.006314   0.445983   0.002816  -0.002470
    23  H   -0.000916  -0.000078   0.001194   0.002816   0.525735  -0.007785
    24  H    0.000103   0.000029  -0.010296  -0.002470  -0.007785   0.455207
    25  H    0.000629  -0.001353  -0.016995  -0.005134   0.000004   0.003475
    26  H   -0.000084   0.000029   0.000875  -0.001887  -0.009194  -0.005886
    27  H    0.000040  -0.000141  -0.000806  -0.007015   0.000775   0.000006
    28  H   -0.000132   0.000215   0.000409   0.000722  -0.001408   0.002146
    29  H   -0.000183   0.001084   0.002502   0.000937   0.013117  -0.002515
    30  H    0.005983  -0.000757  -0.000024   0.000105   0.000167   0.000009
    31  H   -0.001083  -0.012459  -0.000024  -0.000025  -0.000053   0.000009
              25         26         27         28         29         30
     1  C   -0.020747   0.000199   0.006408   0.010946  -0.033011  -0.056385
     2  C   -0.000834   0.000541   0.000087   0.000004  -0.012190  -0.093746
     3  O   -0.067263   0.009846  -0.006935  -0.054855  -0.043049  -0.000358
     4  C   -0.015507   0.001173  -0.003820  -0.000618   0.024216   0.017413
     5  C    0.047173  -0.002913   0.001820  -0.002239   0.012112  -0.017195
     6  O   -0.082467  -0.000191  -0.000667   0.000513   0.007992   0.002193
     7  C   -0.019318   0.019263  -0.050854   0.007377  -0.011304   0.002827
     8  C    0.010064  -0.058269   0.005846   0.013736   0.022967   0.000124
     9  C    0.426493  -0.011592   0.031241  -0.022072  -0.001176   0.000417
    10  C   -0.025452   0.448444   0.451178  -0.024723  -0.137800  -0.000307
    11  C    0.000848  -0.031070  -0.070489   0.426977   0.486911   0.000494
    12  C   -0.007590  -0.000248  -0.000273   0.000347   0.012705   0.521767
    13  O   -0.001075  -0.000130   0.000030   0.000017   0.000544  -0.000621
    14  H   -0.001144  -0.000083   0.001296  -0.002794  -0.021925  -0.017027
    15  H   -0.000108   0.000083  -0.000002   0.000020  -0.001344  -0.015580
    16  H   -0.000071  -0.000018  -0.000006  -0.000012   0.000677   0.009298
    17  H    0.003815   0.002948  -0.000215   0.000512  -0.022710  -0.000538
    18  H   -0.000579   0.000904   0.000036  -0.000111  -0.015827  -0.007816
    19  H    0.000629  -0.000084   0.000040  -0.000132  -0.000183   0.005983
    20  H   -0.001353   0.000029  -0.000141   0.000215   0.001084  -0.000757
    21  H   -0.016995   0.000875  -0.000806   0.000409   0.002502  -0.000024
    22  H   -0.005134  -0.001887  -0.007015   0.000722   0.000937   0.000105
    23  H    0.000004  -0.009194   0.000775  -0.001408   0.013117   0.000167
    24  H    0.003475  -0.005886   0.000006   0.002146  -0.002515   0.000009
    25  H    0.522113   0.000086   0.002588   0.001298  -0.004326   0.000122
    26  H    0.000086   0.479108  -0.008837  -0.010520  -0.004657  -0.000098
    27  H    0.002588  -0.008837   0.476075  -0.002516   0.003838  -0.000027
    28  H    0.001298  -0.010520  -0.002516   0.455077  -0.018088  -0.000101
    29  H   -0.004326  -0.004657   0.003838  -0.018088   0.578536   0.003082
    30  H    0.000122  -0.000098  -0.000027  -0.000101   0.003082   0.478678
    31  H    0.000276  -0.000001   0.000004   0.000019  -0.000526  -0.010786
              31
     1  C    0.033089
     2  C   -0.010286
     3  O    0.000238
     4  C   -0.022901
     5  C   -0.024956
     6  O   -0.003442
     7  C   -0.000565
     8  C    0.000360
     9  C   -0.000699
    10  C   -0.000152
    11  C   -0.000148
    12  C    0.381641
    13  O    0.009942
    14  H    0.003690
    15  H    0.003306
    16  H   -0.012537
    17  H    0.003047
    18  H   -0.000791
    19  H   -0.001083
    20  H   -0.012459
    21  H   -0.000024
    22  H   -0.000025
    23  H   -0.000053
    24  H    0.000009
    25  H    0.000276
    26  H   -0.000001
    27  H    0.000004
    28  H    0.000019
    29  H   -0.000526
    30  H   -0.010786
    31  H    0.483826
 Mulliken charges:
               1
     1  C   -0.317997
     2  C   -0.185323
     3  O   -0.297390
     4  C   -0.369490
     5  C   -0.256676
     6  O   -0.210500
     7  C   -0.256770
     8  C   -0.250903
     9  C   -0.118044
    10  C   -0.391560
    11  C   -0.181319
    12  C   -0.386906
    13  O   -0.307108
    14  H    0.267918
    15  H    0.165705
    16  H    0.174969
    17  H    0.277372
    18  H    0.206435
    19  H    0.191087
    20  H    0.178464
    21  H    0.186356
    22  H    0.197333
    23  H    0.137910
    24  H    0.202000
    25  H    0.250979
    26  H    0.182181
    27  H    0.171334
    28  H    0.219855
    29  H    0.159413
    30  H    0.178687
    31  H    0.181988
 Sum of Mulliken charges =  -0.00000
 Mulliken charges with hydrogens summed into heavy atoms:
               1
     1  C   -0.050079
     2  C    0.155351
     3  O   -0.297390
     4  C    0.114317
     5  C    0.112875
     6  O   -0.210500
     7  C    0.126919
     8  C    0.089007
     9  C    0.132935
    10  C   -0.038045
    11  C    0.197949
    12  C   -0.026231
    13  O   -0.307108
 Electronic spatial extent (au):  <R**2>=           2853.2743
 Charge=             -0.0000 electrons
 Dipole moment (field-independent basis, Debye):
    X=             -0.9619    Y=              0.4426    Z=              2.6993  Tot=              2.8996
 Quadrupole moment (field-independent basis, Debye-Ang):
   XX=            -69.7588   YY=            -85.1680   ZZ=            -78.8161
   XY=             -7.1781   XZ=              3.5150   YZ=              2.4565
 Traceless Quadrupole moment (field-independent basis, Debye-Ang):
   XX=              8.1555   YY=             -7.2537   ZZ=             -0.9018
   XY=             -7.1781   XZ=              3.5150   YZ=              2.4565
 Octapole moment (field-independent basis, Debye-Ang**2):
  XXX=             14.3115  YYY=             -3.8105  ZZZ=              5.3015  XYY=             -3.1359
  XXY=             -2.5425  XXZ=              3.8429  XZZ=             -8.4425  YZZ=             -1.3970
  YYZ=              0.2790  XYZ=              1.9376
 Hexadecapole moment (field-independent basis, Debye-Ang**3):
 XXXX=          -2615.8909 YYYY=           -586.1766 ZZZZ=           -439.4891 XXXY=            -10.1068
 XXXZ=             -5.6187 YYYX=            -13.1548 YYYZ=              8.8747 ZZZX=            -11.3728
 ZZZY=             -3.3221 XXYY=           -579.0529 XXZZ=           -519.2434 YYZZ=           -166.9888
 XXYZ=             12.7273 YYXZ=             11.4958 ZZXY=             10.6567
 N-N= 9.017238080686D+02 E-N=-3.245312270013D+03  KE= 6.153211263524D+02
 D1PCM: PCM CHGder 1st derivatives, ID1Alg=3 FixD1E=F DoIter=F DoCFld=F I1PDM=0.
 Calling FoFJK, ICntrl=      2127 FMM=F ISym2X=0 I1Cent= 0 IOpClX= 0 NMat=1 NMatS=1 NMatT=0.
 ***** Axes restored to original set *****
 -------------------------------------------------------------------
 Center     Atomic                   Forces (Hartrees/Bohr)
 Number     Number              X              Y              Z
 -------------------------------------------------------------------
      1        6          -0.002017249    0.000572024    0.003161481
      2        6          -0.004691117    0.003875287   -0.002396457
      3        8          -0.000558693    0.007215755   -0.001925163
      4        6           0.006907019    0.005018016   -0.000287293
      5        6           0.000879528   -0.002295746   -0.003313169
      6        8           0.006523998   -0.006450663    0.008094921
      7        6           0.000615743   -0.000867862   -0.002355857
      8        6          -0.000444925    0.005030580   -0.000263446
      9        6          -0.002349786   -0.004176992   -0.007052910
     10        6           0.002907284   -0.000984334    0.000018970
     11        6          -0.002614595   -0.002179874    0.007530051
     12        6          -0.000677032   -0.000699569    0.001780144
     13        8          -0.001996006   -0.005011322    0.008306253
     14        1          -0.003235544    0.003438812   -0.006750469
     15        1           0.002290781   -0.002139950   -0.004538618
     16        1           0.002792361    0.000160252    0.003805708
     17        1          -0.005466690   -0.002586657    0.002454766
     18        1           0.000151277   -0.000632607   -0.006562638
     19        1          -0.000372308   -0.001651648    0.003577909
     20        1          -0.000694612    0.002490552   -0.000654339
     21        1           0.002093026   -0.001008191    0.002322464
     22        1          -0.003245367    0.001407138    0.000786740
     23        1           0.003723705   -0.002014009   -0.001293612
     24        1          -0.001403616   -0.001791954    0.000898337
     25        1          -0.001593386    0.005840881    0.003958485
     26        1          -0.000700450   -0.002025428   -0.001762314
     27        1          -0.002280565    0.002048155    0.001066617
     28        1          -0.001556332    0.002184795   -0.003571728
     29        1           0.006060216   -0.004558906   -0.001952427
     30        1          -0.001142134    0.000065773   -0.003299297
     31        1           0.002095468    0.001727691    0.000216890
 -------------------------------------------------------------------
 Cartesian Forces:  Max     0.008306253 RMS     0.003420761

 GradGradGradGradGradGradGradGradGradGradGradGradGradGradGradGradGradGrad
 Berny optimization.
 FormGI is forming the generalized inverse of G from B-inverse, IUseBI=4.
 Internal  Forces:  Max     0.019341118 RMS     0.002398139
 Search for a local minimum.
 Step number   1 out of a maximum of  186
 All quantities printed in internal units (Hartrees-Bohrs-Radians)
 Mixed Optimization -- RFO/linear search
 Second derivative matrix not updated -- first step.
 ITU=  0
     Eigenvalues ---    0.00412   0.00589   0.00619   0.00756   0.01296
     Eigenvalues ---    0.01428   0.01449   0.02596   0.02820   0.03051
     Eigenvalues ---    0.03376   0.03992   0.04312   0.04540   0.04664
     Eigenvalues ---    0.04766   0.04813   0.04941   0.05029   0.05160
     Eigenvalues ---    0.05165   0.05649   0.05709   0.05872   0.05970
     Eigenvalues ---    0.06239   0.06378   0.06702   0.07430   0.07774
     Eigenvalues ---    0.07804   0.07849   0.07851   0.08083   0.08433
     Eigenvalues ---    0.08675   0.09216   0.10167   0.11257   0.11700
     Eigenvalues ---    0.11746   0.11780   0.11852   0.12541   0.12645
     Eigenvalues ---    0.14692   0.15486   0.16808   0.18583   0.19739
     Eigenvalues ---    0.19932   0.21871   0.22560   0.25000   0.27173
     Eigenvalues ---    0.27815   0.28453   0.28615   0.29061   0.29197
     Eigenvalues ---    0.29268   0.30282   0.35114   0.35141   0.35221
     Eigenvalues ---    0.35226   0.35263   0.35268   0.35305   0.35323
     Eigenvalues ---    0.35349   0.35423   0.35436   0.35486   0.35564
     Eigenvalues ---    0.35770   0.35876   0.36042   0.36204   0.36221
     Eigenvalues ---    0.40282   0.40314   0.41509   0.42626   0.42707
     Eigenvalues ---    0.447981000.000001000.000001000.000001000.00000
     Eigenvalues --- 1000.000001000.000001000.000001000.000001000.00000
     Eigenvalues --- 1000.000001000.000001000.000001000.000001000.00000
     Eigenvalues --- 1000.000001000.000001000.000001000.000001000.00000
     Eigenvalues --- 1000.000001000.000001000.000001000.000001000.00000
     Eigenvalues --- 1000.000001000.000001000.000001000.000001000.00000
     Eigenvalues --- 1000.000001000.000001000.000001000.000001000.00000
     Eigenvalues --- 1000.000001000.000001000.000001000.000001000.00000
     Eigenvalues --- 1000.000001000.000001000.000001000.000001000.00000
     Eigenvalues --- 1000.000001000.000001000.000001000.000001000.00000
     Eigenvalues --- 1000.000001000.000001000.000001000.000001000.00000
     Eigenvalues --- 1000.000001000.000001000.000001000.000001000.00000
     Eigenvalues --- 1000.000001000.000001000.000001000.000001000.00000
     Eigenvalues --- 1000.000001000.000001000.000001000.000001000.00000
     Eigenvalues --- 1000.000001000.000001000.000001000.000001000.00000
     Eigenvalues --- 1000.000001000.000001000.000001000.000001000.00000
     Eigenvalues --- 1000.000001000.000001000.000001000.000001000.00000
     Eigenvalues --- 1000.000001000.000001000.000001000.000001000.00000
     Eigenvalues --- 1000.000001000.000001000.000001000.000001000.00000
     Eigenvalues --- 1000.000001000.000001000.000001000.000001000.00000
 RFO step:  Lambda=-5.09836600D-03 EMin= 4.11841234D-03
 Linear search not attempted -- first point.
 Iteration  1 RMS(Cart)=  0.13420115 RMS(Int)=  0.00336235
 Iteration  2 RMS(Cart)=  0.00963367 RMS(Int)=  0.00009267
 Iteration  3 RMS(Cart)=  0.00002694 RMS(Int)=  0.00009179
 Iteration  4 RMS(Cart)=  0.00000000 RMS(Int)=  0.00009179
 Iteration  1 RMS(Cart)=  0.00011857 RMS(Int)=  0.00002585
 Iteration  2 RMS(Cart)=  0.00006234 RMS(Int)=  0.00002889
 Iteration  3 RMS(Cart)=  0.00003278 RMS(Int)=  0.00003250
 Iteration  4 RMS(Cart)=  0.00001723 RMS(Int)=  0.00003478
 Iteration  5 RMS(Cart)=  0.00000906 RMS(Int)=  0.00003606
 Iteration  6 RMS(Cart)=  0.00000476 RMS(Int)=  0.00003675
 Iteration  7 RMS(Cart)=  0.00000250 RMS(Int)=  0.00003712
 Iteration  8 RMS(Cart)=  0.00000132 RMS(Int)=  0.00003732
 Iteration  9 RMS(Cart)=  0.00000069 RMS(Int)=  0.00003742
 Variable       Old X    -DE/DX   Delta X   Delta X   Delta X     New X
                                 (Linear)    (Quad)   (Total)
    R1        2.89816   0.00071   0.00000   0.00182   0.00183   2.89999
    R2        2.89351  -0.00139   0.00000  -0.00596  -0.00596   2.88755
    R3        2.68032  -0.00018   0.00000  -0.00041  -0.00041   2.67991
    R4        2.03764   0.00823   0.00000   0.02242   0.02242   2.06006
    R5        2.89644   0.00081   0.00000   0.00385   0.00384   2.90028
    R6        2.68239   0.00344   0.00000   0.00924   0.00924   2.69162
    R7        2.05242   0.00542   0.00000   0.01515   0.01515   2.06757
    R8        2.04442   0.00470   0.00000   0.01295   0.01295   2.05737
    R9        2.63884   0.00201   0.00000   0.00397   0.00404   2.64288
   R10        2.69560   0.00272   0.00000   0.00627   0.00624   2.70184
   R11        2.66803   0.00229   0.00000   0.00528   0.00529   2.67332
   R12        2.03737   0.00636   0.00000   0.01732   0.01732   2.05469
   R13        2.05317   0.00652   0.00000   0.01826   0.01826   2.07143
   R14        2.88527  -0.00027   0.00000  -0.00193  -0.00193   2.88333
   R15        2.05182   0.00358   0.00000   0.01001   0.01001   2.06183
   R16        2.04994   0.00264   0.00000   0.00733   0.00733   2.05727
   R17        2.68133   0.00241   0.00000   0.00558   0.00558   2.68691
   R18        2.88559  -0.00118   0.00000  -0.00366  -0.00363   2.88197
   R19        2.88764  -0.00063   0.00000  -0.00164  -0.00157   2.88607
   R20        2.04894   0.00321   0.00000   0.00893   0.00893   2.05786
   R21        2.05447   0.00360   0.00000   0.01008   0.01008   2.06455
   R22        2.88242  -0.00134   0.00000  -0.00377  -0.00385   2.87857
   R23        2.05111   0.00439   0.00000   0.01226   0.01226   2.06337
   R24        2.05154   0.00242   0.00000   0.00675   0.00675   2.05829
   R25        2.04015   0.00721   0.00000   0.01974   0.01974   2.05989
   R26        2.86493  -0.00008   0.00000  -0.00085  -0.00091   2.86402
   R27        2.05250   0.00276   0.00000   0.00770   0.00770   2.06020
   R28        2.05490   0.00315   0.00000   0.00884   0.00884   2.06374
   R29        2.04276   0.00446   0.00000   0.01226   0.01226   2.05502
   R30        2.04769   0.00777   0.00000   0.02154   0.02154   2.06924
   R31        2.05309   0.00345   0.00000   0.00966   0.00966   2.06276
   R32        2.04973   0.00269   0.00000   0.00749   0.00749   2.05722
    A1        1.91104   0.00030   0.00000  -0.00543  -0.00554   1.90550
    A2        1.95990  -0.00140   0.00000  -0.00594  -0.00591   1.95399
    A3        1.90196   0.00044   0.00000   0.00189   0.00194   1.90390
    A4        1.87514   0.00131   0.00000   0.00553   0.00555   1.88070
    A5        1.90498  -0.00077   0.00000   0.00284   0.00285   1.90783
    A6        1.91013   0.00011   0.00000   0.00134   0.00130   1.91143
    A7        1.94897   0.00190   0.00000   0.00601   0.00591   1.95488
    A8        1.94023  -0.00111   0.00000  -0.00619  -0.00621   1.93402
    A9        1.93293  -0.00084   0.00000  -0.00529  -0.00525   1.92768
   A10        1.90452   0.00042   0.00000   0.00659   0.00666   1.91118
   A11        1.84295  -0.00096   0.00000  -0.00284  -0.00282   1.84013
   A12        1.89086   0.00060   0.00000   0.00199   0.00196   1.89282
   A13        2.09165  -0.00540   0.00000  -0.03432  -0.03408   2.05757
   A14        1.94318   0.00106   0.00000   0.00133   0.00114   1.94431
   A15        1.93723  -0.00185   0.00000  -0.01798  -0.01797   1.91926
   A16        1.92140  -0.00046   0.00000   0.00220   0.00216   1.92356
   A17        1.86185  -0.00048   0.00000  -0.00143  -0.00146   1.86039
   A18        1.90786   0.00117   0.00000   0.01427   0.01428   1.92214
   A19        1.89064   0.00060   0.00000   0.00194   0.00189   1.89253
   A20        1.91664  -0.00096   0.00000  -0.00738  -0.00753   1.90911
   A21        1.89919  -0.00025   0.00000  -0.00952  -0.00950   1.88970
   A22        1.91803  -0.00017   0.00000  -0.00038  -0.00029   1.91774
   A23        1.91073   0.00098   0.00000   0.00401   0.00398   1.91471
   A24        1.94437   0.00019   0.00000   0.00557   0.00558   1.94994
   A25        1.87392   0.00023   0.00000   0.00769   0.00763   1.88155
   A26        2.18123  -0.01934   0.00000  -0.07582  -0.07582   2.10542
   A27        2.00317  -0.00152   0.00000  -0.01211  -0.01217   1.99100
   A28        1.95198  -0.00042   0.00000  -0.00535  -0.00562   1.94636
   A29        1.88876   0.00133   0.00000   0.01095   0.01107   1.89982
   A30        1.88911   0.00049   0.00000  -0.00755  -0.00767   1.88144
   A31        1.85643   0.00026   0.00000   0.01004   0.01004   1.86648
   A32        1.86738  -0.00000   0.00000   0.00626   0.00630   1.87368
   A33        1.90280   0.00190   0.00000  -0.00008  -0.00001   1.90279
   A34        1.93734  -0.00055   0.00000  -0.00232  -0.00237   1.93496
   A35        1.90869  -0.00056   0.00000   0.00274   0.00273   1.91142
   A36        1.91313  -0.00124   0.00000  -0.00374  -0.00381   1.90931
   A37        1.93524   0.00004   0.00000   0.00277   0.00278   1.93803
   A38        1.86671   0.00035   0.00000   0.00067   0.00069   1.86741
   A39        1.98437  -0.00185   0.00000  -0.02621  -0.02631   1.95806
   A40        1.98257   0.00347   0.00000   0.00896   0.00821   1.99078
   A41        1.82070  -0.00056   0.00000   0.00744   0.00757   1.82827
   A42        1.96097  -0.00357   0.00000  -0.02289  -0.02325   1.93772
   A43        1.81049   0.00320   0.00000   0.02991   0.03021   1.84071
   A44        1.88750  -0.00036   0.00000   0.01014   0.01016   1.89767
   A45        1.90844  -0.00140   0.00000  -0.00640  -0.00665   1.90179
   A46        1.94387  -0.00036   0.00000  -0.00070  -0.00065   1.94322
   A47        1.92178   0.00099   0.00000   0.00119   0.00128   1.92306
   A48        1.89574   0.00068   0.00000   0.00436   0.00445   1.90020
   A49        1.91575   0.00016   0.00000  -0.00218  -0.00214   1.91361
   A50        1.87784  -0.00005   0.00000   0.00390   0.00386   1.88170
   A51        1.96128   0.00259   0.00000   0.00821   0.00801   1.96930
   A52        1.82968  -0.00128   0.00000  -0.00145  -0.00141   1.82827
   A53        1.91760   0.00005   0.00000   0.00184   0.00196   1.91956
   A54        1.94957  -0.00048   0.00000  -0.00326  -0.00321   1.94636
   A55        1.91690  -0.00146   0.00000  -0.00645  -0.00642   1.91048
   A56        1.88583   0.00057   0.00000   0.00125   0.00121   1.88704
   A57        1.90868  -0.00017   0.00000  -0.00637  -0.00642   1.90226
   A58        1.92866   0.00054   0.00000   0.00252   0.00251   1.93117
   A59        1.90803  -0.00017   0.00000   0.00342   0.00345   1.91148
   A60        1.91429  -0.00051   0.00000  -0.00187  -0.00187   1.91242
   A61        1.93844   0.00029   0.00000   0.00068   0.00072   1.93916
   A62        1.86556   0.00003   0.00000   0.00188   0.00187   1.86742
   A63        1.98123  -0.00516   0.00000  -0.03069  -0.03072   1.95052
    D1        0.47986   0.00204   0.00000   0.02177   0.02179   0.50165
    D2        2.55117   0.00091   0.00000   0.00906   0.00909   2.56026
    D3       -1.63884   0.00018   0.00000   0.00136   0.00140  -1.63744
    D4       -1.60156   0.00109   0.00000   0.02225   0.02224  -1.57932
    D5        0.46975  -0.00004   0.00000   0.00954   0.00954   0.47929
[...]
 06494,-0.00001664,0.00000895,-0.00011855,-0.00002120,-0.00008037,0.000
 00633,-0.00000464,-0.00000421,0.00000873,-0.00000006,0.00000010,0.0000
 2411,0.00002394,-0.00002008,-0.00000162,0.00005884,0.00002915,0.000005
 65,-0.00001295,-0.00000982,-0.00000502,0.00001093,-0.00001073,-0.00059
 535,-0.00096359,0.00007883,-0.00039373,-0.00021088,0.00069404,-0.00006
 267,0.00008827,0.00001714,0.00031431,0.00063348,0.00054391,-0.02425254
 ,0.12158691,0.14807606,0.00018598,-0.00002104,-0.00015239,0.00001594,-
 0.00000228,-0.00000595,-0.00341961,-0.00491885,0.00021826,0.00000503,-
 0.00002273,0.00002377,-0.00000815,0.00002722,0.00002277,-0.00041792,0.
 00010710,-0.00010199,0.00016514,0.00161884,-0.00128336,-0.00297136,-0.
 00726198,-0.00748499,0.00068024,-0.00020787,0.00152168,-0.05477024,-0.
 02689555,-0.02492118,-0.00256831,-0.01399272,-0.01745627,-0.00001063,-
 0.00001335,-0.00000874,-0.00003022,0.00002485,-0.00000265,0.00004587,-
 0.00000902,0.00001409,-0.00000239,0.00000257,0.00000251,-0.00000322,0.
 00000037,-0.00000059,0.00000935,-0.00001240,-0.00001237,-0.00001717,0.
 00001271,0.00000715,-0.00000126,-0.00000225,-0.00000038,0.00000021,-0.
 00000402,0.00000172,0.00022855,-0.00039131,-0.00033054,0.00008393,-0.0
 0033469,-0.00033438,0.00023902,-0.00041428,0.00033247,0.00024913,0.000
 28107,0.00045172,0.00000299,0.00003764,-0.00010871,0.05582567,0.000154
 41,-0.00002040,-0.00009835,0.00003051,0.00000217,-0.00001522,-0.005321
 03,-0.00393063,-0.00020343,0.00003996,-0.00003791,0.00000820,-0.000000
 77,0.00003278,0.00000112,-0.00047165,0.00018259,-0.00028404,0.00113703
 ,-0.00095980,0.00283874,0.00270813,0.01246259,0.01133205,0.00082679,-0
 .00060503,0.00227032,-0.02896588,-0.18164762,-0.13152199,0.00066703,-0
 .01387606,-0.01632742,-0.00000836,-0.00001401,-0.00001080,-0.00007284,
 0.00003107,-0.00001266,0.00006730,0.00001393,-0.00003050,-0.00000390,0
 .00000324,0.00000527,-0.00000724,-0.00000062,-0.00000019,-0.00001388,-
 0.00001549,0.00000493,-0.00001195,0.00001420,0.00000210,-0.00001402,-0
 .00000547,-0.00000287,-0.00000195,-0.00000809,0.00000170,0.00020379,0.
 00062013,0.00069442,-0.00005818,0.00002410,0.00007307,-0.00030418,0.00
 058756,-0.00079653,-0.00041619,0.00053548,-0.00088128,0.00003300,0.000
 06418,-0.00020023,0.03166527,0.19583968,0.00006913,-0.00005642,-0.0001
 0927,0.00001898,0.00000203,-0.00001526,0.00261169,0.00329036,0.0012773
 7,0.00005788,0.00000813,0.00000239,-0.00001352,0.00001878,0.00003255,-
 0.00023044,-0.00013022,0.00030096,-0.00258080,0.00437365,-0.00423554,-
 0.00373893,-0.02078897,-0.01876238,0.00069742,0.00110769,-0.00103984,-
 0.02639757,-0.13167842,-0.17542992,0.00033817,0.00756306,0.00817339,-0
 .00001301,-0.00001235,-0.00000847,-0.00006126,0.00000086,0.00000067,-0
 .00002222,0.00000774,0.00003019,-0.00000265,0.00000257,0.00000397,-0.0
 0000667,-0.00000116,0.00000013,0.00001445,-0.00003847,-0.00001203,-0.0
 0001432,0.00000462,0.00001306,0.00000201,0.00000144,-0.00000187,-0.000
 00311,-0.00000459,-0.00000103,-0.00054434,-0.00157239,-0.00111092,0.00
 019333,0.00019689,0.00023788,-0.00004363,0.00006999,0.00124280,0.00080
 291,-0.00015968,0.00093048,-0.00001617,-0.00018041,0.00021091,0.030302
 53,0.14180859,0.19111217,-0.00001946,-0.00008850,0.00021501,0.00005859
 ,0.00001867,-0.00004625,0.00217472,0.00059141,-0.00088412,0.00017294,-
 0.00001162,0.00000884,0.00002518,0.00005102,-0.00005704,0.00006911,0.0
 0002277,-0.00008764,0.00013658,-0.00001267,0.00063736,-0.00872368,0.00
 526783,0.00101056,-0.00021289,-0.00018398,-0.00013307,-0.24165450,0.10
 650708,0.03406636,-0.02223937,0.01136553,0.00561248,-0.00000581,-0.000
 01154,-0.00001479,-0.00019475,-0.00000589,-0.00003370,0.00002172,0.000
 10155,-0.00010090,-0.00000718,0.00000347,0.00001192,-0.00002138,-0.000
 00460,0.00000302,0.00001375,-0.00007610,0.00004783,0.00003060,-0.00001
 131,-0.00001237,-0.00003564,-0.00000892,-0.00001627,-0.00000918,-0.000
 01324,-0.00000211,0.00023276,-0.00010505,-0.00010747,-0.00010317,-0.00
 035217,-0.00044769,0.00052774,0.00066256,-0.00172887,0.00063455,-0.000
 07274,-0.00024611,-0.00007905,-0.00005177,-0.00008112,0.00538337,-0.00
 239203,-0.00030500,0.26478137,-0.00013073,-0.00017959,0.00022884,0.000
 00621,-0.00000450,0.00000601,0.00191623,0.00191576,0.00060900,-0.00001
 241,-0.00008165,0.00002127,0.00001168,0.00004300,-0.00008512,0.0002393
 4,-0.00002457,-0.00002031,-0.00090762,0.00046602,-0.00081221,0.0129174
 1,-0.00858964,-0.00163389,-0.00030025,-0.00002166,-0.00006969,0.108796
 76,-0.10889168,-0.02152974,-0.02186659,0.01031674,0.00429970,0.0000071
 6,-0.00000202,-0.00000425,0.00000679,0.00002419,-0.00003634,-0.0000615
 9,0.00011137,-0.00011485,0.00000070,0.00000130,0.00000090,0.00000159,0
 .00000120,0.00000044,-0.00008190,0.00001911,0.00001884,0.00005697,-0.0
 0000271,-0.00002400,-0.00003285,-0.00000893,-0.00001160,0.00000150,0.0
 0000039,0.00000305,-0.00020841,0.00001584,0.00009490,-0.00005134,0.000
 47684,0.00018551,0.00070388,-0.00011492,0.00306643,-0.00027896,0.00016
 907,-0.00040218,0.00006585,0.00007752,-0.00004045,0.01945766,-0.010436
 97,-0.00282050,-0.11766116,0.11601840,0.00001921,0.00015899,-0.0000688
 5,-0.00001117,0.00000650,-0.00001262,-0.00141892,0.00042567,0.00104044
 ,0.00003269,0.00011953,-0.00006103,0.00000652,-0.00006304,0.00004480,0
 .00008979,-0.00009495,-0.00001075,-0.00024098,0.00045624,0.00178928,-0
 .02615866,0.01463077,0.00375151,-0.00019026,0.00019315,-0.00047472,0.0
 3507674,-0.02056835,-0.05538290,0.01165836,-0.00758417,-0.00416325,0.0
 0000476,0.00000904,0.00000912,-0.00002044,-0.00003741,0.00003457,-0.00
 004122,-0.00008636,0.00005339,0.00000073,-0.00000236,-0.00000103,-0.00
 000289,-0.00000168,0.00000065,0.00004414,-0.00003183,-0.00001529,-0.00
 004601,-0.00001123,0.00003423,0.00002342,0.00000866,0.00001026,-0.0000
 0339,0.00000123,-0.00000304,0.00036708,0.00007629,0.00011904,0.0003681
 7,-0.00027582,-0.00028065,-0.00230850,0.00215391,-0.00472913,0.0007530
 5,-0.00041739,0.00123194,0.00000920,-0.00007272,0.00011580,0.01926441,
 -0.00909293,-0.00345864,-0.03874841,0.01831819,0.05999210,0.00003452,-
 0.00004559,0.00028225,0.00010314,0.00004708,-0.00009215,-0.00068897,-0
 .00022824,-0.00848903,0.00035476,0.00003974,-0.00006023,0.00007231,0.0
 0006311,-0.00012014,-0.00005276,0.00011381,-0.00003959,-0.00014591,0.0
 0002519,-0.00022817,-0.00359976,-0.00301638,0.00080424,0.00027436,-0.0
 0131420,0.00145332,0.00876640,-0.01189049,0.02132544,-0.07914431,0.042
 78439,-0.06912058,-0.00000131,-0.00001697,-0.00002789,-0.00035706,-0.0
 0004125,-0.00003265,-0.00012361,0.00010870,-0.00008913,-0.00001595,0.0
 0000626,0.00002205,-0.00004274,-0.00000941,0.00000958,-0.00012207,-0.0
 0016990,0.00010083,0.00009096,-0.00001726,-0.00001272,-0.00006351,-0.0
 0002263,-0.00003200,-0.00002107,-0.00002980,-0.00000804,0.00005339,0.0
 0010202,0.00000821,0.00001655,0.00004399,0.00001519,0.00020867,-0.0002
 4847,0.00004643,0.00055546,-0.00069622,0.00125621,-0.00001031,0.000083
 10,-0.00039391,0.00069532,0.00069063,-0.00078661,0.00113440,0.00096457
 ,-0.00029732,0.07982440,0.00031445,-0.00000064,-0.00043174,-0.00004157
 ,-0.00003011,0.00005328,-0.01147618,0.00915977,-0.03337243,-0.00026835
 ,-0.00007248,0.00005660,-0.00005145,-0.00000777,0.00010507,-0.00086893
 ,0.00045835,-0.00029079,-0.00017961,-0.00034717,-0.00061315,-0.0047664
 5,-0.00236502,0.00074500,-0.00033619,-0.00401458,-0.00163342,0.0084236
 6,-0.00895717,0.01660115,0.04603685,-0.11518868,0.11755034,-0.00001717
 ,-0.00000914,0.00000382,0.00017634,0.00005960,0.00001289,0.00015125,-0
 .00015384,0.00025592,0.00000603,0.00000089,-0.00000981,0.00002143,0.00
 000628,-0.00000644,-0.00000862,0.00011224,-0.00008422,-0.00004722,0.00
 004239,0.00001964,0.00003983,0.00001156,0.00001595,0.00001117,0.000010
 65,0.00000772,0.00013874,0.00020736,0.00005459,-0.00000504,0.00008726,
 0.00003061,-0.00009011,0.00026140,-0.00041138,0.00031733,-0.00044472,0
 .00162125,-0.00006468,0.00017128,-0.00106790,0.00026430,0.00030105,-0.
 00047260,-0.00015555,0.00099205,-0.00054953,-0.04145884,0.12565580,0.0
 0040289,-0.00018946,-0.00030187,0.00003221,-0.00001686,0.00000199,-0.0
 1071426,0.00332005,-0.03070033,-0.00004559,-0.00009758,0.00009637,-0.0
 0002455,0.00008168,0.00006830,-0.00119089,0.00047148,-0.00041962,-0.00
 023763,-0.00010328,0.00024802,0.00183708,0.00110178,0.00076286,0.00098
 659,-0.00467898,0.00215032,-0.00260319,0.00573718,-0.00667593,-0.06610
 543,0.10617426,-0.22566409,-0.00003167,-0.00003443,-0.00002093,-0.0000
 1524,0.00006989,-0.00001067,-0.00005387,0.00002662,-0.00006850,-0.0000
 0242,0.00000690,0.00000368,-0.00000060,0.00000254,-0.00000421,0.000056
 72,0.00002244,-0.00002962,-0.00004750,0.00003733,0.00002407,0.00000330
 ,-0.00000139,-0.00000183,0.00000096,-0.00000907,0.00000477,0.00002195,
 0.00011578,-0.00004031,0.00003954,-0.00000471,-0.00001904,-0.00013170,
 0.00006938,0.00001307,-0.00035748,0.00013548,-0.00045212,-0.00017297,0
 .00016857,-0.00110656,0.00023132,0.00029862,0.00021210,-0.00016293,-0.
 00047882,0.00016098,0.07690601,-0.11026971,0.25476003,-0.00162191,-0.0
 0206000,-0.00005076,-0.00017402,-0.00005103,-0.00004781,0.01052792,-0.
 00434126,0.00122891,-0.00068751,0.00093560,-0.00147444,-0.00004153,0.0
 0024854,-0.00020524,0.00092413,0.00013027,0.00034879,0.00005411,-0.000
 04263,0.00024291,0.00105949,0.00118017,-0.00114587,0.00014245,0.000830
 42,-0.00094052,-0.02229620,0.01020727,0.00406773,-0.23855058,0.1049957
 3,0.04097487,0.00000538,0.00001218,-0.00003031,0.00004853,-0.00032823,
 0.00028510,-0.00159708,-0.00140156,-0.00160054,0.00001043,0.00000443,-
 0.00001453,-0.00001216,-0.00000046,0.00001957,-0.00037425,-0.00000036,
 -0.00001808,-0.00044755,0.00026119,0.00027556,-0.00005245,-0.00000502,
 -0.00006012,0.00004411,0.00001693,0.00001111,0.00003107,0.00003174,0.0
 0008603,-0.00001628,-0.00004541,-0.00007968,0.00048664,-0.00052174,0.0
 0063156,0.00031950,-0.00019414,-0.00024127,-0.00001776,0.00007003,0.00
 001035,0.00041229,-0.00015104,-0.00032072,-0.00208286,-0.00356106,0.00
 176469,-0.00778218,0.00393761,0.00139865,0.26168575,0.00012217,0.00047
 088,-0.00150587,-0.00001185,-0.00000650,0.00004308,0.01580325,-0.02198
 881,-0.01835346,0.00033718,0.00013692,0.00060297,-0.00008325,-0.000178
 11,0.00043610,-0.00186759,0.00057066,-0.00034007,-0.00023070,0.0000385
 4,-0.00020548,-0.00035515,0.00117222,-0.00092384,0.00249636,-0.0014134
 8,0.00422467,-0.01998145,0.01045377,0.00567372,0.10218441,-0.10341497,
 -0.01936270,-0.00005878,-0.00000962,0.00002129,0.00020909,-0.00002809,
 -0.00001256,-0.00087075,-0.00114515,-0.00028321,0.00000958,-0.00000480
 ,-0.00000620,0.00002230,0.00000258,-0.00000705,0.00040612,-0.00010241,
 0.00027233,0.00002979,0.00003100,-0.00007636,0.00016915,0.00005001,0.0
 0006048,-0.00000019,0.00000848,-0.00000651,0.00009006,0.00017883,-0.00
 007869,0.00004636,-0.00005728,-0.00003099,0.00025933,-0.00016160,-0.00
 014690,0.00010836,0.00007546,-0.00025975,-0.00042060,0.00016411,-0.000
 67831,0.00100008,0.00083882,-0.00054321,-0.00337497,-0.00229188,0.0023
 3654,0.01413309,-0.00595265,-0.00196835,-0.11016603,0.12256708,-0.0004
 6822,-0.00055910,-0.00113903,-0.00018117,-0.00007468,0.00014604,0.0161
 8778,-0.02246170,-0.01251852,-0.00114731,0.00030572,-0.00012990,-0.000
 12626,-0.00002598,0.00024518,-0.00120894,0.00072293,0.00074329,-0.0003
 7758,-0.00006024,-0.00041865,0.00071861,-0.00125517,0.00044211,0.00375
 627,-0.00175096,0.00248949,0.01127759,-0.00376068,-0.00127018,0.038000
 69,-0.01631715,-0.06190091,-0.00002507,0.00001185,0.00002576,0.0005577
 4,-0.00000380,0.00005553,-0.00030019,-0.00073855,0.00005520,0.00002167
 ,-0.00000630,-0.00003182,0.00006180,0.00001672,-0.00001069,-0.00016141
 ,0.00041063,-0.00049048,0.00004586,0.00000207,0.00000024,0.00010381,0.
 00003413,0.00004307,0.00004730,0.00003982,0.00002013,0.00005259,0.0001
 3160,-0.00005445,-0.00002685,0.00001392,0.00008861,-0.00012058,0.00040
 205,-0.00008973,-0.00020833,0.00007611,0.00016957,-0.00034042,0.000276
 50,-0.00054637,-0.00019614,0.00013221,0.00039907,0.00159686,0.00122991
 ,0.00027887,-0.02241179,0.01207811,0.00699386,-0.04513665,0.03112428,0
 .06641707,0.00110306,-0.00055169,0.00138308,-0.00340014,0.00156460,-0.
 00374640,0.00005731,0.00001515,-0.00000677,-0.00032146,-0.00040678,-0.
 00015757,0.00546135,-0.00253981,0.02656570,0.00028148,-0.00000575,-0.0
 0048839,0.00002401,-0.00000917,0.00000930,0.,0.00001223,-0.00000297,-0
 .00016139,0.00000693,-0.00013202,0.00000289,-0.00000768,-0.00000260,-0
 .00004219,-0.00000177,-0.00000777,-0.06362643,0.00377304,-0.05935393,0
 .00062384,-0.00002867,-0.00003578,-0.00014863,0.00028800,-0.00048957,0
 .00047865,0.00003790,-0.00006620,0.00080294,0.00171113,-0.00021416,0.0
 0004657,0.00010545,-0.00001599,-0.00042134,-0.00068712,0.00015673,-0.0
 0359186,0.00201313,0.00304324,0.00084120,-0.00011176,-0.00087279,-0.00
 000170,0.00000046,0.00000163,0.00001092,0.00000711,-0.00000251,0.00000
 061,-0.00001037,0.00000046,0.00000780,0.00000183,-0.00000026,0.0000327
 8,-0.00000818,-0.00000243,0.00000162,0.00000296,0.00000160,0.00000599,
 0.00000202,-0.00000198,0.00001092,-0.00000324,0.00000320,-0.00000138,-
 0.00001543,-0.00001648,0.06788817,-0.00067489,0.00043790,0.00045344,0.
 01079683,-0.00396130,0.03181912,0.00006342,-0.00000581,0.00004396,0.00
 024686,-0.00023161,0.00068244,-0.00361493,0.00126762,-0.01439083,0.000
 10981,-0.00000177,-0.00003019,0.00001331,-0.00000469,0.00000228,0.0000
 0288,-0.00000595,-0.00000333,-0.00012804,0.00003570,0.00003183,0.00000
 062,-0.00000241,0.00000225,-0.00001214,-0.00000881,-0.00001653,0.00368
 481,-0.05076414,0.02214017,-0.00083769,-0.00119224,-0.00014809,0.00006
 363,0.00000757,0.00002487,-0.00041834,0.00183516,-0.00018306,0.0002680
 9,-0.00522421,0.00156875,-0.00002054,0.00006562,-0.00010396,-0.0006246
 4,-0.00034648,-0.00021440,0.00262268,-0.00043102,-0.00128003,-0.000680
 37,0.00014865,0.00034866,-0.00000099,-0.00000100,0.00000116,0.00000699
 ,0.00000392,-0.00000188,-0.00000318,0.00000094,0.00000097,0.00000098,0
 .00000282,0.00000055,0.00001266,-0.00000675,-0.00000379,0.00000130,0.0
 0000216,0.00000080,0.00000210,0.00000137,-0.00000166,0.00000329,-0.000
 00076,0.00000297,-0.00000096,-0.00000534,-0.00000541,-0.00799392,0.057
 20058,-0.00079445,-0.00044241,0.00035326,-0.00204965,-0.00133446,-0.00
 540537,0.00007886,-0.00000623,0.00005734,-0.00087861,-0.00027035,-0.00
 126988,-0.00279516,0.00126807,-0.01917743,0.00018736,-0.00004003,0.000
 29391,0.00002960,-0.00001738,-0.00000176,0.00000163,-0.00001203,-0.000
 00648,-0.00009545,0.00008666,0.00001562,-0.00000052,0.00000236,0.00000
 284,-0.00000617,-0.00002472,-0.00002468,-0.05933207,0.02532190,-0.2932
 3294,0.00104440,0.00108042,0.00033887,0.00071703,0.00021364,-0.0000825
 0,0.00033761,0.00009988,0.00145658,0.00028548,0.00104292,0.00095111,0.
 00011068,0.00003324,0.00032981,-0.00024465,0.00007946,0.00072480,0.003
 08219,-0.00181924,-0.00067032,-0.00003292,-0.00027603,0.00047980,-0.00
 000130,-0.00000022,0.00000021,0.00001141,0.00000914,-0.00000447,-0.000
 00457,0.00000423,0.00000105,-0.00000137,0.00000461,0.00000157,0.000013
 95,-0.00001101,-0.00000486,0.00000207,0.00000228,0.00000101,0.00000076
 ,0.00000055,-0.00000134,0.00000414,0.00000073,0.00000467,0.00001618,-0
 .00000389,-0.00000522,0.06201754,-0.02500865,0.31959631,0.00049631,0.0
 0283762,0.00333391,0.00399619,0.00303293,0.00023543,-0.00025431,0.0000
 0584,-0.00027222,-0.00001112,0.00077927,0.00002032,-0.02022126,-0.0115
 7493,-0.00542002,-0.00303658,-0.00013996,0.00034055,-0.00022127,0.0001
 1165,-0.00003438,-0.00001374,-0.00001380,0.00003173,0.00087652,-0.0005
 3910,0.00053834,0.00000124,0.00000151,-0.00000338,0.00009021,0.0000815
 3,0.00008638,-0.24658095,-0.11468756,-0.03849060,0.00108634,0.00092748
 ,-0.00048941,0.00006957,0.00006948,-0.00013527,-0.00058235,-0.00032892
 ,0.00066492,0.00136795,0.00010852,0.00010986,0.00004848,-0.00010454,0.
 00010640,0.00005653,-0.00005422,0.00008809,0.00092054,-0.00023000,0.00
 008906,0.00089205,0.00023074,-0.00058719,0.00001158,0.00000788,-0.0000
 1313,-0.00008158,-0.00006628,0.00002302,0.00000735,0.00002072,-0.00000
 696,-0.00001954,-0.00002093,-0.00000876,-0.00012984,0.00004948,0.00002
 077,-0.00000918,-0.00001173,-0.00000914,-0.00001446,-0.00000144,0.0000
 0717,-0.00002401,0.00000019,-0.00002248,0.00000390,0.00001006,0.000024
 83,-0.00596559,-0.00288964,-0.00170400,0.26724105,0.00135550,-0.001245
 45,-0.00243668,-0.02632068,-0.01194347,-0.00489547,0.00005069,0.000006
 27,0.00011949,0.00185416,-0.00054043,0.00058472,0.01435097,0.00768745,
 0.00411914,0.00160131,0.00016362,-0.00017809,0.00010237,-0.00005032,0.
 00000834,0.00001580,-0.00002151,-0.00001396,-0.00019760,0.00021439,-0.
 00031565,-0.00000448,0.00000839,0.00000664,-0.00000011,-0.00004552,-0.
 00005173,-0.11486202,-0.11182366,-0.02180641,-0.00220859,-0.00662366,0
 .00180490,-0.00011306,0.00002653,0.00015465,0.00115347,-0.00106930,-0.
 00040624,-0.00043377,0.00171664,0.00048368,-0.00016030,0.00008000,-0.0
 0006925,-0.00016143,0.00009168,-0.00006201,-0.00076498,0.00024710,0.00
 016410,-0.00055956,0.00058831,0.00069840,-0.00000311,-0.00000295,0.000
 00519,0.00003314,0.00003243,-0.00000818,-0.00000425,0.00001440,0.00000
 497,-0.00000532,0.00001340,0.00000616,0.00004558,-0.00001523,-0.000005
 99,0.00000338,0.00000239,0.00000218,-0.00000017,0.00000056,-0.00000329
 ,-0.00000330,0.00000682,0.00000970,0.00000881,0.00000134,0.00001117,0.
 00283940,0.00118428,0.00001654,0.12238815,0.12129552,0.00092626,-0.002
 01431,-0.00175372,0.00752860,0.00421083,-0.00043745,0.00008244,0.00000
 533,0.00011811,-0.00068181,-0.00036711,-0.00094843,0.01744522,0.010514
 14,0.00370345,0.00169624,0.00003667,-0.00011208,0.00011748,-0.00005470
 ,0.00001432,0.00001085,-0.00000645,-0.00001887,-0.00024612,0.00026768,
 -0.00027165,-0.00000199,0.00000177,0.00000247,-0.00003209,-0.00003921,
 -0.00004219,-0.04134472,-0.02321061,-0.05496249,0.00116450,0.00336500,
 -0.00058923,0.00031197,0.00003608,0.00014244,0.00017789,0.00017391,0.0
 0019786,0.00053170,0.00000832,0.00072064,0.00006345,0.00002307,0.00017
 813,-0.00009392,0.00008814,0.00044008,-0.00077409,0.00055157,0.0006204
 0,-0.00090020,0.00006972,0.00065502,-0.00000508,-0.00000323,0.00000395
 ,0.00004048,0.00003460,-0.00001166,-0.00000949,-0.00000310,0.00000464,
 0.00000453,0.00001140,0.00000475,0.00005603,-0.00002371,-0.00000987,0.
 00000416,0.00000482,0.00000406,0.00000488,0.00000042,-0.00000371,0.000
 00803,0.00000045,0.00001051,0.00000454,-0.00000207,-0.00000714,-0.0275
 6593,-0.01573240,-0.00472150,0.04147617,0.02205296,0.05706917\\-0.0004
 9773,-0.00297107,0.00008724,-0.00000698,-0.00000258,0.00000215,0.00034
 318,0.00271776,0.00071522,0.00000572,-0.00000711,-0.00000012,-0.000004
 07,0.00000211,0.00000148,0.00089367,0.00561026,0.00015169,0.00000171,0
 .00000381,0.00000898,0.00000026,-0.00000276,-0.00000256,-0.00074129,-0
 .00535404,-0.00095653,-0.00000062,0.00000192,-0.00000294,-0.00000239,0
 .00000225,-0.00000450,0.00000305,-0.00000135,-0.00000099,0.00000042,0.
 00000057,-0.00000303,0.00000022,0.00000066,0.00000006,0.00000170,-0.00
 000062,-0.00000030,0.00000006,-0.00000088,0.00000010,-0.00000006,0.000
 00105,0.00000020,0.00000075,-0.00000134,0.00000065,0.00000097,-0.00000
 031,0.00000107,0.00000195,-0.00000043,0.00000086,-0.00000033,-0.000001
 51,-0.00000287,0.00000139,0.00000101,-0.00000198,-0.00000035,0.0000000
 4,-0.00000022,-0.00000024,0.00000092,-0.00000098,-0.00000163,0.0000002
 0,0.00000517,0.00000036,-0.00000037,0.00000061,0.00000063,0.00000110,-
 0.00000077,0.00000044,0.00000023,0.00000039,0.00000043,0.00000044,-0.0
 0000009,-0.00000028,-0.00000028,0.00000119,-0.00000094,0.00000033,0.00
 000082\\\@


 The theorems and results in mathematical physics are
 not theorems and results about Nature, but about our
 description of it.
                   --Gerard 't Hooft
 Job cpu time:       0 days 14 hours 27 minutes 46.1 seconds.
 Elapsed time:       0 days  0 hours 54 minutes 15.4 seconds.
 File lengths (MBytes):  RWF=    690 Int=      0 D2E=      0 Chk=     33 Scr=      1
 Normal termination of Gaussian 16 at Sun Nov  4 23:00:22 2018.
