 Entering Gaussian System, Link 0=g16
 Initial command:
 /apps/gaussian/g16a03/g16/l1.exe "/jobfs/local/2011996.r-man2/Gau-12226.inp" -scrdir="/jobfs/local/2011996.r-man2/"
 Entering Link 1 = /apps/gaussian/g16a03/g16/l1.exe PID=     12227.
  
 Copyright (c) 1988,1990,1992,1993,1995,1998,2003,2009,2016,
            Gaussian, Inc.  All Rights Reserved.
  
 This is part of the Gaussian(R) 16 program.  It is based on
 the Gaussian(R) 09 system (copyright 2009, Gaussian, Inc.),
 the Gaussian(R) 03 system (copyright 2003, Gaussian, Inc.),
 the Gaussian(R) 98 system (copyright 1998, Gaussian, Inc.),
 the Gaussian(R) 94 system (copyright 1995, Gaussian, Inc.),
 the Gaussian 92(TM) system (copyright 1992, Gaussian, Inc.),
 the Gaussian 90(TM) system (copyright 1990, Gaussian, Inc.),
 the Gaussian 88(TM) system (copyright 1988, Gaussian, Inc.),
 the Gaussian 86(TM) system (copyright 1986, Carnegie Mellon
 University), and the Gaussian 82(TM) system (copyright 1983,
 Carnegie Mellon University). Gaussian is a federally registered
 trademark of Gaussian, Inc.
  
 This software contains proprietary and confidential information,
 including trade secrets, belonging to Gaussian, Inc.
  
 This software is provided under written license and may be
 used, copied, transmitted, or stored only in accord with that
 written license.
  
 The following legend is applicable only to US Government
 contracts under FAR:
  
                    RESTRICTED RIGHTS LEGEND
  
 Use, reproduction and disclosure by the US Government is
 subject to restrictions as set forth in subparagraphs (a)
 and (c) of the Commercial Computer Software - Restricted
 Rights clause in FAR 52.227-19.
  
 Gaussian, Inc.
 340 Quinnipiac St., Bldg. 40, Wallingford CT 06492
  
  
 ---------------------------------------------------------------
 Warning -- This program may not be used in any manner that
 competes with the business of Gaussian, Inc. or will provide
 assistance to any competitor of Gaussian, Inc.  The licensee
 of this program is prohibited from giving any competitor of
 Gaussian, Inc. access to this program.  By using this program,
 the user acknowledges that Gaussian, Inc. is engaged in the
 business of creating and licensing software in the field of
 computational chemistry and represents and warrants to the
 licensee that it is not a competitor of Gaussian, Inc. and that
 it will not use this program in any manner prohibited above.
 ---------------------------------------------------------------
  

 Cite this work as:
 Gaussian 16, Revision A.03,
 M. J. Frisch, G. W. Trucks, H. B. Schlegel, G. E. Scuseria, 
 M. A. Robb, J. R. Cheeseman, G. Scalmani, V. Barone, 
 G. A. Petersson, H. Nakatsuji, X. Li, M. Caricato, A. V. Marenich, 
 J. Bloino, B. G. Janesko, R. Gomperts, B. Mennucci, H. P. Hratchian, 
 J. V. Ortiz, A. F. Izmaylov, J. L. Sonnenberg, D. Williams-Young, 
 F. Ding, F. Lipparini, F. Egidi, J. Goings, B. Peng, A. Petrone, 
 T. Henderson, D. Ranasinghe, V. G. Zakrzewski, J. Gao, N. Rega, 
 G. Zheng, W. Liang, M. Hada, M. Ehara, K. Toyota, R. Fukuda, 
 J. Hasegawa, M. Ishida, T. Nakajima, Y. Honda, O. Kitao, H. Nakai, 
 T. Vreven, K. Throssell, J. A. Montgomery, Jr., J. E. Peralta, 
 F. Ogliaro, M. J. Bearpark, J. J. Heyd, E. N. Brothers, K. N. Kudin, 
 V. N. Staroverov, T. A. Keith, R. Kobayashi, J. Normand, 
 K. Raghavachari, A. P. Rendell, J. C. Burant, S. S. Iyengar, 
 J. Tomasi, M. Cossi, J. M. Millam, M. Klene, C. Adamo, R. Cammi, 
 J. W. Ochterski, R. L. Martin, K. Morokuma, O. Farkas, 
 J. B. Foresman, and D. J. Fox, Gaussian, Inc., Wallingford CT, 2016.
 
 ******************************************
 Gaussian 16:  ES64L-G16RevA.03 25-Dec-2016
                 4-Nov-2018 
 ******************************************
 %mem=6000mb
 %nproc=24
 Will use up to   24 processors via shared memory.
 %chk=D_a1-4_2SO_PHI.inp_extract_20.chk
 ----------------------------------------------------------------------
 #M062X/6-311++G(2d,2p) opt=ModRedundant freq=noraman SCRF=(Solvent=Wat
 er)
 ----------------------------------------------------------------------
 1/18=120,19=15,26=3,38=1/1,3;
 2/9=110,12=2,17=6,18=5,40=1/2;
 3/5=4,6=6,7=1212,11=2,25=1,30=1,70=2201,71=1,72=1,74=-55/1,2,3;
 4//1;
 5/5=2,38=5,53=1/2;
 6/7=2,8=2,9=2,10=2,28=1/1;
 7//1,2,3,16;
 1/18=20,19=15,26=3/3(2);
 2/9=110/2;
 99//99;
 2/9=110/2;
 3/5=4,6=6,7=1212,11=2,25=1,30=1,70=2205,71=1,72=1,74=-55/1,2,3;
 4/5=5,16=3,69=1/1;
 5/5=2,38=5,53=1/2;
 7//1,2,3,16;
 1/18=20,19=15,26=3/3(-5);
 2/9=110/2;
 6/7=2,8=2,9=2,10=2,19=2,28=1/1;
 99/9=1/99;
 -----------------------------
 D_a1-4_2SO_PHI.inp_extract_20
 -----------------------------
 Symbolic Z-matrix:
 Charge =  0 Multiplicity = 1
 C                     0.88487   0.35389  -0.18618 
 C                     3.65121  -0.69139   0.04521 
 O                    -1.71757   1.16594  -0.73189 
 C                     1.35193  -1.09716  -0.33703 
 C                     2.07592   1.24267   0.18812 
 O                    -0.10373   0.44707   0.82875 
 C                    -2.41801   0.18585   1.38393 
 C                    -2.81881  -1.09354   0.65374 
 C                    -1.38893   1.        0.61478 
 C                    -3.24524  -0.74138  -0.76965 
 C                    -2.13027   0.01605  -1.46761 
 C                     3.34401   0.71571  -0.4803 
 O                     2.47536  -1.36121   0.4753 
 H                     0.47141   0.68273  -1.12535 
 H                     4.14568  -1.29267  -0.71211 
 H                     4.29314  -0.64403   0.91472 
 H                     0.57404  -1.7816   -0.03276 
 H                     1.60198  -1.30279  -1.37392 
 H                     2.20116   1.2232    1.26654 
 H                     1.87831   2.27102  -0.09605 
 H                    -2.02378  -0.02071   2.37283 
 H                    -3.2956    0.81449   1.51039 
 H                    -1.98507  -1.79046   0.62555 
 H                    -3.62639  -1.58439   1.18778 
 H                    -1.36184   2.00974   1.00127 
 H                    -3.47261  -1.63348  -1.34603 
 H                    -4.1435   -0.12905  -0.74585 
 H                    -2.44645   0.39526  -2.42921 
 H                    -1.28077  -0.63831  -1.62682 
 H                     3.20818   0.69748  -1.55804 
 H                     4.18962   1.36497  -0.28031 
 
 The following ModRedundant input section has been read:
 D       1       6       9       3 F                                           
 

 GradGradGradGradGradGradGradGradGradGradGradGradGradGradGradGradGradGrad
 Berny optimization.
 Initialization pass.
                           ----------------------------
                           !    Initial Parameters    !
                           ! (Angstroms and Degrees)  !
 --------------------------                            --------------------------
 ! Name  Definition              Value          Derivative Info.                !
 --------------------------------------------------------------------------------
 ! R1    R(1,4)                  1.5318         estimate D2E/DX2                !
 ! R2    R(1,5)                  1.5325         estimate D2E/DX2                !
 ! R3    R(1,6)                  1.4199         estimate D2E/DX2                !
 ! R4    R(1,14)                 1.0776         estimate D2E/DX2                !
 ! R5    R(2,12)                 1.5331         estimate D2E/DX2                !
 ! R6    R(2,13)                 1.42           estimate D2E/DX2                !
 ! R7    R(2,15)                 1.0861         estimate D2E/DX2                !
 ! R8    R(2,16)                 1.0818         estimate D2E/DX2                !
 ! R9    R(3,9)                  1.3961         estimate D2E/DX2                !
 ! R10   R(3,11)                 1.4261         estimate D2E/DX2                !
 ! R11   R(4,13)                 1.4113         estimate D2E/DX2                !
 ! R12   R(4,17)                 1.0799         estimate D2E/DX2                !
 ! R13   R(4,18)                 1.0863         estimate D2E/DX2                !
 ! R14   R(5,12)                 1.5273         estimate D2E/DX2                !
 ! R15   R(5,19)                 1.0858         estimate D2E/DX2                !
 ! R16   R(5,20)                 1.085          estimate D2E/DX2                !
 ! R17   R(6,9)                  1.4154         estimate D2E/DX2                !
 ! R18   R(7,8)                  1.5266         estimate D2E/DX2                !
 ! R19   R(7,9)                  1.521          estimate D2E/DX2                !
 ! R20   R(7,21)                 1.0844         estimate D2E/DX2                !
 ! R21   R(7,22)                 1.0869         estimate D2E/DX2                !
 ! R22   R(8,10)                 1.5271         estimate D2E/DX2                !
 ! R23   R(8,23)                 1.087          estimate D2E/DX2                !
 ! R24   R(8,24)                 1.0855         estimate D2E/DX2                !
 ! R25   R(9,25)                 1.0815         estimate D2E/DX2                !
 ! R26   R(10,11)                1.5179         estimate D2E/DX2                !
 ! R27   R(10,26)                1.0862         estimate D2E/DX2                !
 ! R28   R(10,27)                1.0874         estimate D2E/DX2                !
 ! R29   R(11,28)                1.081          estimate D2E/DX2                !
 ! R30   R(11,29)                1.0841         estimate D2E/DX2                !
 ! R31   R(12,30)                1.0864         estimate D2E/DX2                !
 ! R32   R(12,31)                1.0847         estimate D2E/DX2                !
 ! A1    A(4,1,5)              109.6613         estimate D2E/DX2                !
 ! A2    A(4,1,6)              110.1722         estimate D2E/DX2                !
 ! A3    A(4,1,14)             108.6774         estimate D2E/DX2                !
 ! A4    A(5,1,6)              109.1764         estimate D2E/DX2                !
 ! A5    A(5,1,14)             109.5175         estimate D2E/DX2                !
 ! A6    A(6,1,14)             109.6223         estimate D2E/DX2                !
 ! A7    A(12,2,13)            111.7672         estimate D2E/DX2                !
 ! A8    A(12,2,15)            111.1206         estimate D2E/DX2                !
 ! A9    A(12,2,16)            110.7454         estimate D2E/DX2                !
 ! A10   A(13,2,15)            109.091          estimate D2E/DX2                !
 ! A11   A(13,2,16)            105.5794         estimate D2E/DX2                !
 ! A12   A(15,2,16)            108.3318         estimate D2E/DX2                !
 ! A13   A(9,3,11)             118.0282         estimate D2E/DX2                !
 ! A14   A(1,4,13)             111.3005         estimate D2E/DX2                !
 ! A15   A(1,4,17)             110.6715         estimate D2E/DX2                !
 ! A16   A(1,4,18)             110.091          estimate D2E/DX2                !
 ! A17   A(13,4,17)            107.0172         estimate D2E/DX2                !
 ! A18   A(13,4,18)            109.3159         estimate D2E/DX2                !
 ! A19   A(17,4,18)            108.3488         estimate D2E/DX2                !
 ! A20   A(1,5,12)             109.7734         estimate D2E/DX2                !
 ! A21   A(1,5,19)             108.7721         estimate D2E/DX2                !
 ! A22   A(1,5,20)             110.1292         estimate D2E/DX2                !
 ! A23   A(12,5,19)            109.4334         estimate D2E/DX2                !
 ! A24   A(12,5,20)            111.3219         estimate D2E/DX2                !
 ! A25   A(19,5,20)            107.3444         estimate D2E/DX2                !
 ! A26   A(1,6,9)              123.353          estimate D2E/DX2                !
 ! A27   A(8,7,9)              112.6024         estimate D2E/DX2                !
 ! A28   A(8,7,21)             111.8378         estimate D2E/DX2                !
 ! A29   A(8,7,22)             109.17           estimate D2E/DX2                !
 ! A30   A(9,7,21)             108.4897         estimate D2E/DX2                !
 ! A31   A(9,7,22)             107.1897         estimate D2E/DX2                !
 ! A32   A(21,7,22)            107.3131         estimate D2E/DX2                !
 ! A33   A(7,8,10)             109.0189         estimate D2E/DX2                !
 ! A34   A(7,8,23)             110.3851         estimate D2E/DX2                !
 ! A35   A(7,8,24)             109.8137         estimate D2E/DX2                !
 ! A36   A(10,8,23)            109.7466         estimate D2E/DX2                !
 ! A37   A(10,8,24)            110.7999         estimate D2E/DX2                !
 ! A38   A(23,8,24)            107.0655         estimate D2E/DX2                !
 ! A39   A(3,9,6)              113.9548         estimate D2E/DX2                !
 ! A40   A(3,9,7)              113.0882         estimate D2E/DX2                !
 ! A41   A(3,9,25)             103.8653         estimate D2E/DX2                !
 ! A42   A(6,9,7)              109.1959         estimate D2E/DX2                !
 ! A43   A(6,9,25)             106.7358         estimate D2E/DX2                !
 ! A44   A(7,9,25)             109.632          estimate D2E/DX2                !
 ! A45   A(8,10,11)            109.7891         estimate D2E/DX2                !
 ! A46   A(8,10,26)            111.3265         estimate D2E/DX2                !
 ! A47   A(8,10,27)            109.8858         estimate D2E/DX2                !
 ! A48   A(11,10,26)           108.6392         estimate D2E/DX2                !
 ! A49   A(11,10,27)           109.6251         estimate D2E/DX2                !
 ! A50   A(26,10,27)           107.5291         estimate D2E/DX2                !
 ! A51   A(3,11,10)            112.1912         estimate D2E/DX2                !
 ! A52   A(3,11,28)            105.1126         estimate D2E/DX2                !
 ! A53   A(3,11,29)            109.6151         estimate D2E/DX2                !
 ! A54   A(10,11,28)           111.669          estimate D2E/DX2                !
 ! A55   A(10,11,29)           109.9947         estimate D2E/DX2                !
 ! A56   A(28,11,29)           108.0786         estimate D2E/DX2                !
 ! A57   A(2,12,5)             109.4529         estimate D2E/DX2                !
 ! A58   A(2,12,30)            110.4676         estimate D2E/DX2                !
 ! A59   A(2,12,31)            109.2654         estimate D2E/DX2                !
 ! A60   A(5,12,30)            109.6426         estimate D2E/DX2                !
 ! A61   A(5,12,31)            111.105          estimate D2E/DX2                !
 ! A62   A(30,12,31)           106.882          estimate D2E/DX2                !
 ! A63   A(2,13,4)             113.3653         estimate D2E/DX2                !
 ! D1    D(5,1,4,13)            28.236          estimate D2E/DX2                !
 ! D2    D(5,1,4,17)           147.1069         estimate D2E/DX2                !
 ! D3    D(5,1,4,18)           -93.1396         estimate D2E/DX2                !
 ! D4    D(6,1,4,13)           -91.954          estimate D2E/DX2                !
 ! D5    D(6,1,4,17)            26.917          estimate D2E/DX2                !
 ! D6    D(6,1,4,18)           146.6705         estimate D2E/DX2                !
 ! D7    D(14,1,4,13)          147.9242         estimate D2E/DX2                !
 ! D8    D(14,1,4,17)          -93.2048         estimate D2E/DX2                !
 ! D9    D(14,1,4,18)           26.5487         estimate D2E/DX2                !
 ! D10   D(4,1,5,12)            33.7378         estimate D2E/DX2                !
 ! D11   D(4,1,5,19)           -85.9721         estimate D2E/DX2                !
 ! D12   D(4,1,5,20)           156.6457         estimate D2E/DX2                !
 ! D13   D(6,1,5,12)           154.5324         estimate D2E/DX2                !
 ! D14   D(6,1,5,19)            34.8225         estimate D2E/DX2                !
 ! D15   D(6,1,5,20)           -82.5596         estimate D2E/DX2                !
 ! D16   D(14,1,5,12)          -85.4348         estimate D2E/DX2                !
 ! D17   D(14,1,5,19)          154.8553         estimate D2E/DX2                !
 ! D18   D(14,1,5,20)           37.4731         estimate D2E/DX2                !
 ! D19   D(4,1,6,9)           -124.3534         estimate D2E/DX2                !
 ! D20   D(5,1,6,9)            115.1646         estimate D2E/DX2                !
 ! D21   D(14,1,6,9)            -4.8037         estimate D2E/DX2                !
 ! D22   D(13,2,12,5)           26.9087         estimate D2E/DX2                !
 ! D23   D(13,2,12,30)         -93.9118         estimate D2E/DX2                !
 ! D24   D(13,2,12,31)         148.7778         estimate D2E/DX2                !
 ! D25   D(15,2,12,5)          149.035          estimate D2E/DX2                !
 ! D26   D(15,2,12,30)          28.2144         estimate D2E/DX2                !
 ! D27   D(15,2,12,31)         -89.096          estimate D2E/DX2                !
 ! D28   D(16,2,12,5)          -90.5102         estimate D2E/DX2                !
 ! D29   D(16,2,12,30)         148.6693         estimate D2E/DX2                !
 ! D30   D(16,2,12,31)          31.3588         estimate D2E/DX2                !
 ! D31   D(12,2,13,4)           37.5853         estimate D2E/DX2                !
 ! D32   D(15,2,13,4)          -85.6981         estimate D2E/DX2                !
 ! D33   D(16,2,13,4)          158.0691         estimate D2E/DX2                !
 ! D34   D(11,3,9,6)            78.1961         estimate D2E/DX2                !
 ! D35   D(11,3,9,7)           -47.2903         estimate D2E/DX2                !
 ! D36   D(11,3,9,25)         -166.0683         estimate D2E/DX2                !
 ! D37   D(9,3,11,10)           51.6233         estimate D2E/DX2                !
 ! D38   D(9,3,11,28)          173.1724         estimate D2E/DX2                !
 ! D39   D(9,3,11,29)          -70.8842         estimate D2E/DX2                !
 ! D40   D(1,4,13,2)           -68.8496         estimate D2E/DX2                !
 ! D41   D(17,4,13,2)          170.1147         estimate D2E/DX2                !
 ! D42   D(18,4,13,2)           52.9771         estimate D2E/DX2                !
 ! D43   D(1,5,12,2)           -62.807          estimate D2E/DX2                !
 ! D44   D(1,5,12,30)           58.5134         estimate D2E/DX2                !
 ! D45   D(1,5,12,31)          176.4358         estimate D2E/DX2                !
 ! D46   D(19,5,12,2)           56.4983         estimate D2E/DX2                !
 ! D47   D(19,5,12,30)         177.8187         estimate D2E/DX2                !
 ! D48   D(19,5,12,31)         -64.2589         estimate D2E/DX2                !
 ! D49   D(20,5,12,2)          174.992          estimate D2E/DX2                !
 ! D50   D(20,5,12,30)         -63.6877         estimate D2E/DX2                !
 ! D51   D(20,5,12,31)          54.2348         estimate D2E/DX2                !
 ! D52   D(1,6,9,3)             13.8938         Frozen                          !
 ! D53   D(1,6,9,7)            141.4148         estimate D2E/DX2                !
 ! D54   D(1,6,9,25)          -100.1489         estimate D2E/DX2                !
 ! D55   D(9,7,8,10)           -52.5172         estimate D2E/DX2                !
 ! D56   D(9,7,8,23)            68.1023         estimate D2E/DX2                !
 ! D57   D(9,7,8,24)          -174.0802         estimate D2E/DX2                !
 ! D58   D(21,7,8,10)         -174.9904         estimate D2E/DX2                !
 ! D59   D(21,7,8,23)          -54.3709         estimate D2E/DX2                !
 ! D60   D(21,7,8,24)           63.4466         estimate D2E/DX2                !
 ! D61   D(22,7,8,10)           66.4067         estimate D2E/DX2                !
 ! D62   D(22,7,8,23)         -172.9738         estimate D2E/DX2                !
 ! D63   D(22,7,8,24)          -55.1564         estimate D2E/DX2                !
 ! D64   D(8,7,9,3)             47.4514         estimate D2E/DX2                !
 ! D65   D(8,7,9,6)            -80.5565         estimate D2E/DX2                !
 ! D66   D(8,7,9,25)           162.8331         estimate D2E/DX2                !
 ! D67   D(21,7,9,3)           171.7892         estimate D2E/DX2                !
 ! D68   D(21,7,9,6)            43.7813         estimate D2E/DX2                !
 ! D69   D(21,7,9,25)          -72.8291         estimate D2E/DX2                !
 ! D70   D(22,7,9,3)           -72.622          estimate D2E/DX2                !
 ! D71   D(22,7,9,6)           159.3701         estimate D2E/DX2                !
 ! D72   D(22,7,9,25)           42.7597         estimate D2E/DX2                !
 ! D73   D(7,8,10,11)           55.6901         estimate D2E/DX2                !
 ! D74   D(7,8,10,26)          176.0288         estimate D2E/DX2                !
 ! D75   D(7,8,10,27)          -64.9553         estimate D2E/DX2                !
 ! D76   D(23,8,10,11)         -65.3204         estimate D2E/DX2                !
 ! D77   D(23,8,10,26)          55.0183         estimate D2E/DX2                !
 ! D78   D(23,8,10,27)         174.0342         estimate D2E/DX2                !
 ! D79   D(24,8,10,11)         176.652          estimate D2E/DX2                !
 ! D80   D(24,8,10,26)         -63.0092         estimate D2E/DX2                !
 ! D81   D(24,8,10,27)          56.0066         estimate D2E/DX2                !
 ! D82   D(8,10,11,3)          -54.6883         estimate D2E/DX2                !
 ! D83   D(8,10,11,28)        -172.4022         estimate D2E/DX2                !
 ! D84   D(8,10,11,29)          67.6039         estimate D2E/DX2                !
 ! D85   D(26,10,11,3)        -176.6441         estimate D2E/DX2                !
 ! D86   D(26,10,11,28)         65.642          estimate D2E/DX2                !
 ! D87   D(26,10,11,29)        -54.352          estimate D2E/DX2                !
 ! D88   D(27,10,11,3)          66.1147         estimate D2E/DX2                !
 ! D89   D(27,10,11,28)        -51.5992         estimate D2E/DX2                !
 ! D90   D(27,10,11,29)       -171.5932         estimate D2E/DX2                !
 --------------------------------------------------------------------------------
 Trust Radius=3.00D-01 FncErr=1.00D-07 GrdErr=1.00D-06 EigMax=2.50D+02 EigMin=1.00D-04
 Number of steps in this run=    186 maximum allowed number of steps=    186.
 GradGradGradGradGradGradGradGradGradGradGradGradGradGradGradGradGradGrad

                          Input orientation:                          
 ---------------------------------------------------------------------
 Center     Atomic      Atomic             Coordinates (Angstroms)
 Number     Number       Type             X           Y           Z
 ---------------------------------------------------------------------
      1          6           0        0.884872    0.353893   -0.186179
      2          6           0        3.651206   -0.691389    0.045208
      3          8           0       -1.717573    1.165936   -0.731891
      4          6           0        1.351925   -1.097165   -0.337030
      5          6           0        2.075920    1.242673    0.188119
      6          8           0       -0.103732    0.447072    0.828751
      7          6           0       -2.418008    0.185847    1.383932
      8          6           0       -2.818810   -1.093538    0.653741
      9          6           0       -1.388934    0.999996    0.614776
     10          6           0       -3.245235   -0.741380   -0.769650
     11          6           0       -2.130266    0.016053   -1.467605
     12          6           0        3.344005    0.715714   -0.480298
     13          8           0        2.475356   -1.361207    0.475301
     14          1           0        0.471414    0.682728   -1.125349
     15          1           0        4.145682   -1.292668   -0.712113
     16          1           0        4.293143   -0.644032    0.914718
     17          1           0        0.574043   -1.781596   -0.032761
     18          1           0        1.601980   -1.302794   -1.373917
     19          1           0        2.201163    1.223196    1.266544
     20          1           0        1.878310    2.271015   -0.096048
     21          1           0       -2.023778   -0.020705    2.372826
     22          1           0       -3.295602    0.814486    1.510393
     23          1           0       -1.985065   -1.790462    0.625551
     24          1           0       -3.626388   -1.584393    1.187778
     25          1           0       -1.361843    2.009739    1.001275
     26          1           0       -3.472611   -1.633478   -1.346032
     27          1           0       -4.143502   -0.129053   -0.745854
     28          1           0       -2.446450    0.395259   -2.429211
     29          1           0       -1.280768   -0.638311   -1.626815
     30          1           0        3.208183    0.697480   -1.558040
     31          1           0        4.189624    1.364965   -0.280314
 ---------------------------------------------------------------------
                    Distance matrix (angstroms):
                    1          2          3          4          5
     1  C    0.000000
     2  C    2.966270   0.000000
     3  O    2.780276   5.733875   0.000000
     4  C    1.531817   2.365894   3.833974   0.000000
     5  C    1.532522   2.498509   3.904215   2.504954   0.000000
     6  O    1.419895   4.001199   2.357298   2.421291   2.407130
     7  C    3.660943   6.276710   2.434726   4.338228   4.768882
     8  C    4.064207   6.511002   2.870178   4.286802   5.443626
     9  C    2.495831   5.346794   1.396084   3.579990   3.499449
    10  C    4.312522   6.944594   2.443979   4.631158   5.759208
    11  C    3.293516   6.017848   1.426121   3.826631   4.683804
    12  C    2.502949   1.533124   5.087786   2.697302   1.527255
    13  O    2.430795   1.419950   5.042263   1.411275   2.649946
    14  H    1.077553   3.656430   2.275953   2.136531   2.147831
    15  H    3.690617   1.086084   6.357899   2.825595   3.394449
    16  H    3.718083   1.081838   6.489685   3.228462   3.000613
    17  H    2.163438   3.265511   3.798451   1.079873   3.383877
    18  H    2.160920   2.566527   4.186437   1.086253   3.023901
    19  H    2.144461   2.694424   4.399263   2.945629   1.085848
    20  H    2.161111   3.455279   3.815216   3.417571   1.085029
    21  H    3.892181   6.170338   3.337836   4.460657   4.814207
    22  H    4.535071   7.257587   2.764332   5.354147   5.548423
    23  H    3.673378   5.771682   3.264122   3.541571   5.087519
    24  H    5.098645   7.420667   3.859147   5.229343   6.442665
    25  H    3.033084   5.774151   1.960207   4.336871   3.614945
    26  H    4.927734   7.319279   3.360662   4.958010   6.435220
    27  H    5.082422   7.854901   2.749968   5.595006   6.437014
    28  H    4.016293   6.669705   2.001524   4.586088   5.293426
    29  H    2.783864   5.207960   2.060824   2.967350   4.254344
    30  H    2.719895   2.166940   5.016477   2.856100   2.151354
    31  H    3.457241   2.150454   5.927775   3.757371   2.168439
                    6          7          8          9         10
     6  O    0.000000
     7  C    2.394230   0.000000
     8  C    3.126621   1.526646   0.000000
     9  C    1.415364   1.520997   2.535537   0.000000
    10  C    3.719724   2.486357   1.527055   2.897392   0.000000
    11  C    3.092874   2.871043   2.491063   2.419510   1.517894
    12  C    3.697657   6.079219   6.522249   4.866283   6.754623
    13  O    3.169621   5.211909   5.303931   4.530725   5.887211
    14  H    2.050569   3.859034   4.140755   2.567019   3.996009
    15  H    4.843395   7.047087   7.099955   6.135871   7.411672
    16  H    4.531049   6.778526   7.130921   5.922735   7.724876
    17  H    2.483655   3.851002   3.529329   3.465521   4.026405
    18  H    3.289868   5.097263   4.868118   4.266534   4.916891
    19  H    2.471148   4.735675   5.562635   3.655601   6.137499
    20  H    2.847896   4.999661   5.826263   3.577100   5.981553
    21  H    2.507899   1.084432   2.176764   2.129694   3.447678
    22  H    3.284458   1.086900   2.145166   2.114693   2.760770
    23  H    2.930403   2.160643   1.087027   2.853444   2.152949
    24  H    4.082261   2.152303   1.085503   3.466064   2.165057
    25  H    2.013588   2.142077   3.445847   1.081525   3.775182
    26  H    4.517490   3.445988   2.172115   3.888658   1.086165
    27  H    4.373905   2.759072   2.154972   3.273180   1.087380
    28  H    4.013144   3.818995   3.443800   3.278705   2.164289
    29  H    2.931429   3.322220   2.788143   2.778575   2.145807
    30  H    4.090019   6.369536   6.665161   5.093734   6.658715
    31  H    4.528295   6.915261   7.485642   5.661687   7.742950
                   11         12         13         14         15
    11  C    0.000000
    12  C    5.606420   0.000000
    13  O    5.184928   2.445674   0.000000
    14  H    2.707459   2.944309   3.279563   0.000000
    15  H    6.455311   2.174861   2.050522   4.192040   0.000000
    16  H    6.882685   2.166989   2.002942   4.530759   1.757570
    17  H    3.550156   3.756266   2.012423   2.697624   3.668402
    18  H    3.959520   2.812042   2.045924   2.298317   2.628404
    19  H    5.262513   2.148274   2.716687   3.000881   3.745105
    20  H    4.799448   2.171375   3.725042   2.358277   4.268530
    21  H    3.842083   6.123375   5.063571   4.354082   7.014056
    22  H    3.296055   6.932315   6.253720   4.599446   8.046884
    23  H    2.768733   5.991895   4.483547   3.900847   6.294696
    24  H    3.442509   7.527240   6.147253   5.223253   8.006233
    25  H    3.265061   5.100447   5.134591   3.105530   6.646384
    26  H    2.130170   7.261849   6.226532   4.579175   7.652215
    27  H    2.143618   7.539689   6.842419   4.701112   8.370526
    28  H    1.080951   6.118033   5.978757   3.208835   7.018100
    29  H    1.084060   4.953424   4.364623   2.250945   5.541771
    30  H    5.382523   1.086420   2.984913   2.770802   2.356944
    31  H    6.570406   1.084708   3.307821   3.873579   2.692841
                   16         17         18         19         20
    16  H    0.000000
    17  H    4.002933   0.000000
    18  H    3.593630   1.756304   0.000000
    19  H    2.826075   3.655747   3.702929   0.000000
    20  H    3.917980   4.257790   3.805446   1.748947   0.000000
    21  H    6.512918   3.954271   5.369167   4.541066   5.154960
    22  H    7.750558   4.908678   6.065347   5.517330   5.609946
    23  H    6.388569   2.642440   4.135527   5.197837   5.651722
    24  H    7.979838   4.378610   5.829015   6.469089   6.842082
    25  H    6.247308   4.380765   5.039708   3.658419   3.430885
    26  H    8.148431   4.256998   5.085430   6.868613   6.740911
    27  H    8.613924   5.049221   5.897686   6.792135   6.514967
    28  H    7.595005   4.427759   4.515176   5.995364   5.259816
    29  H    6.126002   2.699710   2.969130   4.894954   4.559298
    30  H    3.015182   3.925683   2.571942   3.044461   2.526261
    31  H    2.339848   4.799433   3.874120   2.523261   2.489388
                   21         22         23         24         25
    21  H    0.000000
    22  H    1.748963   0.000000
    23  H    2.487269   3.047328   0.000000
    24  H    2.533341   2.442974   1.747142   0.000000
    25  H    2.538112   2.329647   3.869251   4.252144   0.000000
    26  H    4.304655   3.766036   2.474788   2.538947   4.820604
    27  H    3.772418   2.588407   3.049571   2.474743   3.919760
    28  H    4.838516   4.051826   3.784418   4.288809   3.943495
    29  H    4.114685   4.001531   2.626145   3.784037   3.731702
    30  H    6.583382   7.192231   6.158551   7.710890   5.399746
    31  H    6.896782   7.716104   6.993146   8.481984   5.733846
                   26         27         28         29         30
    26  H    0.000000
    27  H    1.753169   0.000000
    28  H    2.518344   2.447157   0.000000
    29  H    2.423504   3.038204   1.752404   0.000000
    30  H    7.078935   7.442451   5.729324   4.683989   0.000000
    31  H    8.296762   8.478786   7.042412   5.979245   1.743946
                   31
    31  H    0.000000
 Stoichiometry    C10H18O3
 Framework group  C1[X(C10H18O3)]
 Deg. of freedom    87
 Full point group                 C1      NOp   1
 Largest Abelian subgroup         C1      NOp   1
 Largest concise Abelian subgroup C1      NOp   1
                         Standard orientation:                         
 ---------------------------------------------------------------------
 Center     Atomic      Atomic             Coordinates (Angstroms)
 Number     Number       Type             X           Y           Z
 ---------------------------------------------------------------------
      1          6           0        0.884872   -0.353893    0.186179
      2          6           0        3.651206    0.691389   -0.045208
      3          8           0       -1.717573   -1.165936    0.731891
      4          6           0        1.351925    1.097165    0.337030
      5          6           0        2.075920   -1.242673   -0.188119
      6          8           0       -0.103732   -0.447072   -0.828751
      7          6           0       -2.418008   -0.185847   -1.383932
      8          6           0       -2.818810    1.093538   -0.653741
      9          6           0       -1.388934   -0.999996   -0.614776
     10          6           0       -3.245235    0.741380    0.769650
     11          6           0       -2.130266   -0.016053    1.467605
     12          6           0        3.344005   -0.715714    0.480298
     13          8           0        2.475356    1.361207   -0.475301
     14          1           0        0.471414   -0.682728    1.125349
     15          1           0        4.145682    1.292668    0.712113
     16          1           0        4.293143    0.644032   -0.914718
     17          1           0        0.574043    1.781596    0.032761
     18          1           0        1.601980    1.302794    1.373917
     19          1           0        2.201163   -1.223196   -1.266544
     20          1           0        1.878310   -2.271015    0.096048
     21          1           0       -2.023778    0.020705   -2.372826
     22          1           0       -3.295602   -0.814486   -1.510393
     23          1           0       -1.985065    1.790462   -0.625551
     24          1           0       -3.626388    1.584393   -1.187778
     25          1           0       -1.361843   -2.009739   -1.001275
     26          1           0       -3.472611    1.633478    1.346032
     27          1           0       -4.143502    0.129053    0.745854
     28          1           0       -2.446450   -0.395259    2.429211
     29          1           0       -1.280768    0.638311    1.626815
     30          1           0        3.208183   -0.697480    1.558040
     31          1           0        4.189624   -1.364965    0.280314
 ---------------------------------------------------------------------
 Rotational constants (GHZ):           1.7512530           0.4345448           0.4197796
 Standard basis: 6-311++G(2d,2p) (5D, 7F)
 There are   557 symmetry adapted cartesian basis functions of A   symmetry.
 There are   531 symmetry adapted basis functions of A   symmetry.
   531 basis functions,   762 primitive gaussians,   557 cartesian basis functions
    51 alpha electrons       51 beta electrons
       nuclear repulsion energy       900.3187152065 Hartrees.
 NAtoms=   31 NActive=   31 NUniq=   31 SFac= 1.00D+00 NAtFMM=   60 NAOKFM=F Big=F
 Integral buffers will be    131072 words long.
 Raffenetti 2 integral format.
 Two-electron integral symmetry is turned on.
 ------------------------------------------------------------------------------
 Polarizable Continuum Model (PCM)
 =================================
 Model                : PCM.
 Atomic radii         : UFF (Universal Force Field).
 Polarization charges : Total charges.
 Charge compensation  : None.
 Solution method      : On-the-fly selection.
 Cavity type          : Scaled VdW (van der Waals Surface) (Alpha=1.100).
 Cavity algorithm     : GePol (No added spheres)
                        Default sphere list used, NSphG=   31.
                        Lebedev-Laikov grids with approx.  5.0 points / Ang**2.
                        Smoothing algorithm: York/Karplus (Gamma=1.0000).
                        Polarization charges: spherical gaussians, with
                                              point-specific exponents (IZeta= 3).
                        Self-potential: point-specific (ISelfS= 7).
                        Self-field    : sphere-specific E.n sum rule (ISelfD= 2).
 1st derivatives      : Analytical E(r).r(x)/FMM algorithm (CHGder, D1EAlg=3).
                        Cavity 1st derivative terms included.
 Solvent              : Water, Eps=  78.355300 Eps(inf)=   1.777849
 ------------------------------------------------------------------------------
 One-electron integrals computed using PRISM.
 NBasis=   531 RedAO= T EigKep=  4.77D-06  NBF=   531
 NBsUse=   531 1.00D-06 EigRej= -1.00D+00 NBFU=   531
 ExpMin= 3.60D-02 ExpMax= 8.59D+03 ExpMxC= 1.30D+03 IAcc=3 IRadAn=         5 AccDes= 0.00D+00
 Harris functional with IExCor= 1009 and IRadAn=       5 diagonalized for initial guess.
 HarFok:  IExCor= 1009 AccDes= 0.00D+00 IRadAn=         5 IDoV= 1 UseB2=F ITyADJ=14
 ICtDFT=  3500011 ScaDFX=  1.000000  1.000000  1.000000  1.000000
 FoFCou: FMM=F IPFlag=           0 FMFlag=      100000 FMFlg1=           0
         NFxFlg=           0 DoJE=T BraDBF=F KetDBF=T FulRan=T
         wScrn=  0.000000 ICntrl=       500 IOpCl=  0 I1Cent=   200000004 NGrid=           0
         NMat0=    1 NMatS0=      1 NMatT0=    0 NMatD0=    1 NMtDS0=    0 NMtDT0=    0
 Petite list used in FoFCou.
 Requested convergence on RMS density matrix=1.00D-08 within 128 cycles.
 Requested convergence on MAX density matrix=1.00D-06.
 Requested convergence on             energy=1.00D-06.
 No special actions if energy rises.
 Inv3:  Mode=1 IEnd=    12570627.
 Iteration    1 A*A^-1 deviation from unit magnitude is 4.66D-15 for   2026.
 Iteration    1 A*A^-1 deviation from orthogonality  is 2.44D-15 for   1717    698.
 Iteration    1 A^-1*A deviation from unit magnitude is 4.66D-15 for   2026.
 Iteration    1 A^-1*A deviation from orthogonality  is 2.56D-12 for   2017   1557.
 Error on total polarization charges =  0.01482
 SCF Done:  E(RM062X) =  -617.485375033     A.U. after   12 cycles
            NFock= 12  Conv=0.62D-08     -V/T= 2.0035

 **********************************************************************

            Population analysis using the SCF density.

 **********************************************************************

 Orbital symmetries:
       Occupied  (A) (A) (A) (A) (A) (A) (A) (A) (A) (A) (A) (A)
                 (A) (A) (A) (A) (A) (A) (A) (A) (A) (A) (A) (A)
                 (A) (A) (A) (A) (A) (A) (A) (A) (A) (A) (A) (A)
                 (A) (A) (A) (A) (A) (A) (A) (A) (A) (A) (A) (A)
                 (A) (A) (A)
       Virtual   (A) (A) (A) (A) (A) (A) (A) (A) (A) (A) (A) (A)
                 (A) (A) (A) (A) (A) (A) (A) (A) (A) (A) (A) (A)
                 (A) (A) (A) (A) (A) (A) (A) (A) (A) (A) (A) (A)
                 (A) (A) (A) (A) (A) (A) (A) (A) (A) (A) (A) (A)
                 (A) (A) (A) (A) (A) (A) (A) (A) (A) (A) (A) (A)
                 (A) (A) (A) (A) (A) (A) (A) (A) (A) (A) (A) (A)
                 (A) (A) (A) (A) (A) (A) (A) (A) (A) (A) (A) (A)
                 (A) (A) (A) (A) (A) (A) (A) (A) (A) (A) (A) (A)
                 (A) (A) (A) (A) (A) (A) (A) (A) (A) (A) (A) (A)
                 (A) (A) (A) (A) (A) (A) (A) (A) (A) (A) (A) (A)
                 (A) (A) (A) (A) (A) (A) (A) (A) (A) (A) (A) (A)
                 (A) (A) (A) (A) (A) (A) (A) (A) (A) (A) (A) (A)
                 (A) (A) (A) (A) (A) (A) (A) (A) (A) (A) (A) (A)
                 (A) (A) (A) (A) (A) (A) (A) (A) (A) (A) (A) (A)
                 (A) (A) (A) (A) (A) (A) (A) (A) (A) (A) (A) (A)
                 (A) (A) (A) (A) (A) (A) (A) (A) (A) (A) (A) (A)
                 (A) (A) (A) (A) (A) (A) (A) (A) (A) (A) (A) (A)
                 (A) (A) (A) (A) (A) (A) (A) (A) (A) (A) (A) (A)
                 (A) (A) (A) (A) (A) (A) (A) (A) (A) (A) (A) (A)
                 (A) (A) (A) (A) (A) (A) (A) (A) (A) (A) (A) (A)
                 (A) (A) (A) (A) (A) (A) (A) (A) (A) (A) (A) (A)
                 (A) (A) (A) (A) (A) (A) (A) (A) (A) (A) (A) (A)
                 (A) (A) (A) (A) (A) (A) (A) (A) (A) (A) (A) (A)
                 (A) (A) (A) (A) (A) (A) (A) (A) (A) (A) (A) (A)
                 (A) (A) (A) (A) (A) (A) (A) (A) (A) (A) (A) (A)
                 (A) (A) (A) (A) (A) (A) (A) (A) (A) (A) (A) (A)
                 (A) (A) (A) (A) (A) (A) (A) (A) (A) (A) (A) (A)
                 (A) (A) (A) (A) (A) (A) (A) (A) (A) (A) (A) (A)
                 (A) (A) (A) (A) (A) (A) (A) (A) (A) (A) (A) (A)
                 (A) (A) (A) (A) (A) (A) (A) (A) (A) (A) (A) (A)
                 (A) (A) (A) (A) (A) (A) (A) (A) (A) (A) (A) (A)
                 (A) (A) (A) (A) (A) (A) (A) (A) (A) (A) (A) (A)
                 (A) (A) (A) (A) (A) (A) (A) (A) (A) (A) (A) (A)
                 (A) (A) (A) (A) (A) (A) (A) (A) (A) (A) (A) (A)
                 (A) (A) (A) (A) (A) (A) (A) (A) (A) (A) (A) (A)
                 (A) (A) (A) (A) (A) (A) (A) (A) (A) (A) (A) (A)
                 (A) (A) (A) (A) (A) (A) (A) (A) (A) (A) (A) (A)
                 (A) (A) (A) (A) (A) (A) (A) (A) (A) (A) (A) (A)
                 (A) (A) (A) (A) (A) (A) (A) (A) (A) (A) (A) (A)
                 (A) (A) (A) (A) (A) (A) (A) (A) (A) (A) (A) (A)
 The electronic state is 1-A.
 Alpha  occ. eigenvalues --  -19.63508 -19.62484 -19.62151 -10.63580 -10.58479
 Alpha  occ. eigenvalues --  -10.58165 -10.57751 -10.57686 -10.53109 -10.53097
 Alpha  occ. eigenvalues --  -10.52996 -10.52934 -10.52879  -1.19828  -1.16411
 Alpha  occ. eigenvalues --   -1.13204  -0.90949  -0.89934  -0.87512  -0.84474
 Alpha  occ. eigenvalues --   -0.75123  -0.74590  -0.73749  -0.70833  -0.64989
 Alpha  occ. eigenvalues --   -0.62684  -0.59897  -0.59319  -0.58223  -0.56482
 Alpha  occ. eigenvalues --   -0.54386  -0.53486  -0.52790  -0.50837  -0.49433
 Alpha  occ. eigenvalues --   -0.47957  -0.46242  -0.45967  -0.45413  -0.45020
 Alpha  occ. eigenvalues --   -0.43776  -0.42544  -0.41910  -0.40521  -0.39634
 Alpha  occ. eigenvalues --   -0.38845  -0.36967  -0.35934  -0.35102  -0.33486
 Alpha  occ. eigenvalues --   -0.30823
 Alpha virt. eigenvalues --   -0.00184   0.00719   0.00911   0.01111   0.02243
 Alpha virt. eigenvalues --    0.02498   0.02586   0.03367   0.03625   0.04459
 Alpha virt. eigenvalues --    0.04569   0.04755   0.05531   0.05829   0.07141
 Alpha virt. eigenvalues --    0.07673   0.08045   0.08120   0.09252   0.09356
 Alpha virt. eigenvalues --    0.09996   0.10521   0.11002   0.11508   0.11623
 Alpha virt. eigenvalues --    0.12278   0.12552   0.12905   0.13319   0.13475
 Alpha virt. eigenvalues --    0.13635   0.13785   0.14123   0.14581   0.15065
 Alpha virt. eigenvalues --    0.15126   0.15308   0.15826   0.15934   0.16187
 Alpha virt. eigenvalues --    0.16347   0.16731   0.17047   0.17478   0.17689
 Alpha virt. eigenvalues --    0.18072   0.18891   0.19112   0.19216   0.19506
 Alpha virt. eigenvalues --    0.19893   0.20100   0.20362   0.20882   0.21376
 Alpha virt. eigenvalues --    0.22035   0.22381   0.22765   0.23151   0.23493
 Alpha virt. eigenvalues --    0.24326   0.24873   0.25869   0.26100   0.26663
 Alpha virt. eigenvalues --    0.27447   0.28173   0.28523   0.29115   0.29394
 Alpha virt. eigenvalues --    0.30255   0.31128   0.31300   0.31780   0.32036
 Alpha virt. eigenvalues --    0.32757   0.33152   0.33812   0.34362   0.34804
 Alpha virt. eigenvalues --    0.35283   0.35559   0.35970   0.36167   0.36542
 Alpha virt. eigenvalues --    0.37277   0.37440   0.37629   0.37907   0.38265
 Alpha virt. eigenvalues --    0.39201   0.39425   0.39605   0.40140   0.40457
 Alpha virt. eigenvalues --    0.41990   0.42332   0.43532   0.44207   0.46313
 Alpha virt. eigenvalues --    0.46849   0.48529   0.49982   0.50165   0.50988
 Alpha virt. eigenvalues --    0.52730   0.52909   0.53391   0.54524   0.55162
 Alpha virt. eigenvalues --    0.55789   0.56247   0.57400   0.58003   0.58904
 Alpha virt. eigenvalues --    0.59324   0.59995   0.60813   0.60978   0.61116
 Alpha virt. eigenvalues --    0.61474   0.62305   0.62777   0.63208   0.64117
 Alpha virt. eigenvalues --    0.64221   0.64941   0.66001   0.66641   0.66723
 Alpha virt. eigenvalues --    0.67588   0.68375   0.69909   0.70424   0.70538
 Alpha virt. eigenvalues --    0.70753   0.71236   0.71528   0.72566   0.73245
 Alpha virt. eigenvalues --    0.73887   0.74137   0.74351   0.74939   0.75476
 Alpha virt. eigenvalues --    0.76610   0.77080   0.77315   0.78228   0.78955
 Alpha virt. eigenvalues --    0.79640   0.81347   0.84361   0.85047   0.85886
 Alpha virt. eigenvalues --    0.86427   0.87753   0.88016   0.89621   0.90094
 Alpha virt. eigenvalues --    0.91035   0.92012   0.92751   0.94722   0.96780
 Alpha virt. eigenvalues --    0.97274   0.98617   0.99222   1.01124   1.01739
 Alpha virt. eigenvalues --    1.03258   1.04200   1.05694   1.06148   1.06966
 Alpha virt. eigenvalues --    1.07245   1.08167   1.08888   1.10642   1.11565
 Alpha virt. eigenvalues --    1.12603   1.13706   1.15910   1.16239   1.16880
 Alpha virt. eigenvalues --    1.17429   1.17982   1.18520   1.20722   1.21398
 Alpha virt. eigenvalues --    1.21636   1.22537   1.22899   1.23947   1.24392
 Alpha virt. eigenvalues --    1.25537   1.25870   1.26587   1.26930   1.28066
 Alpha virt. eigenvalues --    1.28272   1.29211   1.29634   1.30266   1.30550
 Alpha virt. eigenvalues --    1.31708   1.32175   1.33698   1.34414   1.34733
 Alpha virt. eigenvalues --    1.36130   1.36416   1.36984   1.37927   1.38425
 Alpha virt. eigenvalues --    1.39422   1.40196   1.40453   1.40909   1.41999
 Alpha virt. eigenvalues --    1.43155   1.43340   1.43668   1.44774   1.45696
 Alpha virt. eigenvalues --    1.45902   1.46450   1.47238   1.48199   1.48485
 Alpha virt. eigenvalues --    1.48866   1.49697   1.50851   1.51301   1.52042
 Alpha virt. eigenvalues --    1.52602   1.53514   1.53940   1.55079   1.56124
 Alpha virt. eigenvalues --    1.56487   1.57858   1.58120   1.58829   1.58978
 Alpha virt. eigenvalues --    1.59608   1.60522   1.60832   1.61133   1.62251
 Alpha virt. eigenvalues --    1.63190   1.63853   1.64741   1.65993   1.66841
 Alpha virt. eigenvalues --    1.67832   1.68775   1.69155   1.70122   1.71014
 Alpha virt. eigenvalues --    1.72858   1.74114   1.74911   1.75673   1.76041
 Alpha virt. eigenvalues --    1.77241   1.78917   1.80231   1.80614   1.83489
 Alpha virt. eigenvalues --    1.86053   1.86893   1.88496   1.97916   1.98822
 Alpha virt. eigenvalues --    2.00669   2.06245   2.10676   2.16127   2.18593
 Alpha virt. eigenvalues --    2.22537   2.26163   2.26257   2.30395   2.37920
 Alpha virt. eigenvalues --    2.42635   2.43831   2.44800   2.48039   2.51385
 Alpha virt. eigenvalues --    2.58167   2.77042   2.77650   2.82871   2.83143
 Alpha virt. eigenvalues --    2.84509   2.87454   2.90629   2.92480   2.93229
 Alpha virt. eigenvalues --    2.94500   2.96038   2.98173   3.02141   3.03520
 Alpha virt. eigenvalues --    3.05597   3.07319   3.09032   3.10025   3.11661
 Alpha virt. eigenvalues --    3.12090   3.13705   3.15501   3.17077   3.19115
 Alpha virt. eigenvalues --    3.23038   3.29752   3.31078   3.31634   3.34510
 Alpha virt. eigenvalues --    3.35457   3.36249   3.36640   3.37529   3.39459
 Alpha virt. eigenvalues --    3.40135   3.41892   3.44277   3.45361   3.46216
 Alpha virt. eigenvalues --    3.48644   3.49178   3.50288   3.51038   3.51291
 Alpha virt. eigenvalues --    3.52810   3.53200   3.53688   3.54776   3.56106
 Alpha virt. eigenvalues --    3.57077   3.57385   3.57800   3.59109   3.59369
 Alpha virt. eigenvalues --    3.61231   3.61964   3.63215   3.63610   3.64272
 Alpha virt. eigenvalues --    3.65470   3.66822   3.67749   3.69059   3.69515
 Alpha virt. eigenvalues --    3.69726   3.70969   3.72320   3.73766   3.74414
 Alpha virt. eigenvalues --    3.74762   3.75839   3.76648   3.77866   3.79323
 Alpha virt. eigenvalues --    3.80784   3.81536   3.81732   3.82906   3.84653
 Alpha virt. eigenvalues --    3.86521   3.87458   3.89217   3.89699   3.92209
 Alpha virt. eigenvalues --    3.93803   3.94577   3.95803   3.97421   3.98793
 Alpha virt. eigenvalues --    3.99092   4.01136   4.01864   4.03268   4.04029
 Alpha virt. eigenvalues --    4.05595   4.06019   4.07274   4.08176   4.08286
 Alpha virt. eigenvalues --    4.09248   4.09657   4.10426   4.11149   4.11940
 Alpha virt. eigenvalues --    4.12450   4.13051   4.13533   4.14605   4.16678
 Alpha virt. eigenvalues --    4.16829   4.17507   4.18292   4.19954   4.20252
 Alpha virt. eigenvalues --    4.22101   4.23279   4.24987   4.26057   4.26910
 Alpha virt. eigenvalues --    4.27641   4.28652   4.29928   4.32020   4.32467
 Alpha virt. eigenvalues --    4.33325   4.34670   4.35858   4.37245   4.38825
 Alpha virt. eigenvalues --    4.41705   4.42563   4.44047   4.46554   4.49776
 Alpha virt. eigenvalues --    4.59011   4.61819   4.73802   4.75848   4.82203
 Alpha virt. eigenvalues --    4.85822   4.93526   4.94940   4.99754   5.01789
 Alpha virt. eigenvalues --    5.04702   5.07542   5.07795   5.11751   5.12900
 Alpha virt. eigenvalues --    5.13883   5.15455   5.16549   5.33265   5.40102
 Alpha virt. eigenvalues --    5.47936   5.55999   5.60549   5.62053   5.84318
 Alpha virt. eigenvalues --    5.87486   6.06571   6.99578   7.05810   7.06784
 Alpha virt. eigenvalues --    7.09420   7.10143   7.11144   7.13099   7.20326
 Alpha virt. eigenvalues --    7.27268   7.36375   7.38839   7.44872   7.52836
 Alpha virt. eigenvalues --    7.54211   7.62134  23.96556  23.98117  24.06176
 Alpha virt. eigenvalues --   24.07409  24.10229  24.12080  24.14213  24.14807
 Alpha virt. eigenvalues --   24.17243  24.17715  50.16941  50.18819  50.22196
          Condensed to atoms (all electrons):
               1          2          3          4          5          6
     1  C    8.060936  -0.014500   0.089259  -0.592903  -1.179798   0.003096
     2  C   -0.014500   5.580483  -0.002455  -0.163316   0.090258   0.014681
     3  O    0.089259  -0.002455   8.143596  -0.000449  -0.033085  -0.039353
     4  C   -0.592903  -0.163316  -0.000449   6.576167  -0.299473  -0.107076
     5  C   -1.179798   0.090258  -0.033085  -0.299473   7.041064  -0.113576
     6  O    0.003096   0.014681  -0.039353  -0.107076  -0.113576   8.295258
     7  C    0.103714  -0.014133  -0.064195   0.025807   0.024759  -0.044330
     8  C    0.114991  -0.006610  -0.021935  -0.065347  -0.023823  -0.045547
     9  C   -0.871340   0.053601   0.300413   0.089372   0.185477   0.290641
    10  C    0.086485   0.001442  -0.074293   0.047452  -0.003180  -0.050824
    11  C   -0.013685   0.000474   0.130758  -0.015259  -0.021547   0.046966
    12  C    0.295943  -0.248621   0.007621   0.024362  -0.256574  -0.008662
    13  O   -0.054631   0.073080   0.000386   0.166331  -0.050832   0.026915
    14  H    0.566386   0.017061  -0.005220  -0.150296  -0.037549  -0.018512
    15  H    0.031712   0.526834   0.000115  -0.030837  -0.020185  -0.000488
    16  H   -0.010519   0.401091  -0.000185   0.028996  -0.022049   0.001976
    17  H    0.026198   0.032213   0.001307   0.322591   0.001920  -0.016779
    18  H   -0.130373   0.035524   0.000153   0.455092   0.033243   0.012751
    19  H   -0.119040  -0.035908   0.000266   0.002564   0.505174  -0.002232
    20  H   -0.031800  -0.003393   0.000306   0.027250   0.407385   0.003855
    21  H   -0.023189   0.001689   0.008970   0.005887   0.003981  -0.005472
    22  H    0.002609  -0.000371  -0.009971   0.000528  -0.001705   0.007456
    23  H   -0.022994  -0.002152   0.002790   0.002452   0.010428   0.006985
    24  H    0.008060  -0.000411  -0.005132  -0.004646   0.000480   0.000182
    25  H   -0.028689   0.000932  -0.059484  -0.013652   0.040579  -0.053058
    26  H    0.001989   0.000214   0.008850  -0.001662  -0.001115   0.000056
    27  H    0.001928   0.000108  -0.003999  -0.000213   0.000177  -0.001471
    28  H    0.005401   0.000481  -0.060113  -0.001429   0.001434   0.002157
    29  H   -0.048833  -0.012473  -0.032451   0.035303   0.010062   0.006761
    30  H   -0.057049  -0.098117  -0.000522   0.012179  -0.016145   0.002709
    31  H    0.035429  -0.009059   0.000382  -0.017875  -0.036160  -0.003049
               7          8          9         10         11         12
     1  C    0.103714   0.114991  -0.871340   0.086485  -0.013685   0.295943
     2  C   -0.014133  -0.006610   0.053601   0.001442   0.000474  -0.248621
     3  O   -0.064195  -0.021935   0.300413  -0.074293   0.130758   0.007621
     4  C    0.025807  -0.065347   0.089372   0.047452  -0.015259   0.024362
     5  C    0.024759  -0.023823   0.185477  -0.003180  -0.021547  -0.256574
     6  O   -0.044330  -0.045547   0.290641  -0.050824   0.046966  -0.008662
     7  C    6.646624  -0.352303  -1.012097   0.025047   0.141747   0.006901
     8  C   -0.352303   5.855298   0.082463  -0.240615   0.087490   0.005169
     9  C   -1.012097   0.082463   7.088866   0.027987  -0.290289  -0.110734
    10  C    0.025047  -0.240615   0.027987   6.262941  -0.263111   0.000407
    11  C    0.141747   0.087490  -0.290289  -0.263111   5.511979  -0.005579
    12  C    0.006901   0.005169  -0.110734   0.000407  -0.005579   5.874129
    13  O    0.005570  -0.004485  -0.008109   0.002010  -0.000386   0.035584
    14  H    0.012319  -0.010827  -0.045238  -0.013834  -0.003318   0.006518
    15  H   -0.000938   0.000328   0.000065   0.000091  -0.000155  -0.103416
    16  H    0.000647  -0.000428  -0.000536  -0.000053   0.000378   0.022664
    17  H    0.014753  -0.015809  -0.018547   0.017842   0.008958  -0.018276
    18  H   -0.003172  -0.005415   0.016551   0.008335   0.000064  -0.050220
    19  H    0.010960  -0.001413  -0.008793   0.000024  -0.000698  -0.005430
    20  H    0.000449  -0.000075  -0.000435   0.002991   0.000749  -0.011371
    21  H    0.426697  -0.041349  -0.007463   0.006578   0.000618  -0.001647
    22  H    0.506353  -0.002984  -0.111649  -0.036885   0.023128   0.000494
    23  H   -0.098009   0.559495   0.033300  -0.129657   0.015672   0.001472
    24  H   -0.022558   0.413746  -0.002289  -0.031249   0.013579   0.000040
    25  H   -0.037919   0.001934   0.447119  -0.010291  -0.001165  -0.009098
    26  H    0.011516  -0.049773  -0.007978   0.434428  -0.026124  -0.000181
    27  H   -0.052715  -0.005233   0.038137   0.475271  -0.087352  -0.000135
    28  H    0.003337   0.013647  -0.019338  -0.021316   0.435951  -0.001056
    29  H   -0.003074   0.025782   0.012071  -0.149397   0.480992   0.011013
    30  H    0.001728  -0.000221  -0.001312  -0.000036   0.000707   0.532476
    31  H   -0.000495   0.000125   0.000491   0.000040  -0.000398   0.384225
              13         14         15         16         17         18
     1  C   -0.054631   0.566386   0.031712  -0.010519   0.026198  -0.130373
     2  C    0.073080   0.017061   0.526834   0.401091   0.032213   0.035524
     3  O    0.000386  -0.005220   0.000115  -0.000185   0.001307   0.000153
     4  C    0.166331  -0.150296  -0.030837   0.028996   0.322591   0.455092
     5  C   -0.050832  -0.037549  -0.020185  -0.022049   0.001920   0.033243
     6  O    0.026915  -0.018512  -0.000488   0.001976  -0.016779   0.012751
     7  C    0.005570   0.012319  -0.000938   0.000647   0.014753  -0.003172
     8  C   -0.004485  -0.010827   0.000328  -0.000428  -0.015809  -0.005415
     9  C   -0.008109  -0.045238   0.000065  -0.000536  -0.018547   0.016551
    10  C    0.002010  -0.013834   0.000091  -0.000053   0.017842   0.008335
    11  C   -0.000386  -0.003318  -0.000155   0.000378   0.008958   0.000064
    12  C    0.035584   0.006518  -0.103416   0.022664  -0.018276  -0.050220
    13  O    8.362760   0.002033  -0.061461  -0.080335  -0.077608  -0.028528
    14  H    0.002033   0.457770   0.002069  -0.000321   0.006260  -0.009337
    15  H   -0.061461   0.002069   0.524165  -0.028004  -0.000904   0.009804
    16  H   -0.080335  -0.000321  -0.028004   0.514168  -0.000784  -0.004814
    17  H   -0.077608   0.006260  -0.000904  -0.000784   0.522390  -0.006951
    18  H   -0.028528  -0.009337   0.009804  -0.004814  -0.006951   0.484374
    19  H   -0.001081  -0.001961  -0.004070   0.006829   0.002635   0.000497
    20  H    0.000573  -0.019077   0.001187  -0.001726  -0.000201   0.000053
    21  H    0.000594  -0.001194   0.000048  -0.000010  -0.001034   0.000204
    22  H    0.000121  -0.000764  -0.000034   0.000043  -0.000118   0.000158
    23  H    0.000951  -0.003416  -0.000340   0.000260  -0.022721   0.000499
    24  H   -0.000149   0.000686  -0.000010  -0.000006   0.001671  -0.000226
    25  H   -0.001125   0.000578  -0.000031  -0.000145   0.002478  -0.000460
    26  H   -0.000154   0.000306   0.000032   0.000001   0.000806   0.000626
    27  H    0.000029   0.000684   0.000011  -0.000013  -0.000031  -0.000100
    28  H    0.000042  -0.002025  -0.000044   0.000013   0.002138   0.000277
    29  H    0.002246  -0.018509  -0.001029   0.000510  -0.028084  -0.014017
    30  H   -0.000106  -0.013491  -0.016152   0.009614  -0.001899  -0.007182
    31  H    0.010126   0.002499   0.003211  -0.011711   0.002902  -0.000598
              19         20         21         22         23         24
     1  C   -0.119040  -0.031800  -0.023189   0.002609  -0.022994   0.008060
     2  C   -0.035908  -0.003393   0.001689  -0.000371  -0.002152  -0.000411
     3  O    0.000266   0.000306   0.008970  -0.009971   0.002790  -0.005132
     4  C    0.002564   0.027250   0.005887   0.000528   0.002452  -0.004646
     5  C    0.505174   0.407385   0.003981  -0.001705   0.010428   0.000480
     6  O   -0.002232   0.003855  -0.005472   0.007456   0.006985   0.000182
     7  C    0.010960   0.000449   0.426697   0.506353  -0.098009  -0.022558
     8  C   -0.001413  -0.000075  -0.041349  -0.002984   0.559495   0.413746
     9  C   -0.008793  -0.000435  -0.007463  -0.111649   0.033300  -0.002289
    10  C    0.000024   0.002991   0.006578  -0.036885  -0.129657  -0.031249
    11  C   -0.000698   0.000749   0.000618   0.023128   0.015672   0.013579
    12  C   -0.005430  -0.011371  -0.001647   0.000494   0.001472   0.000040
    13  O   -0.001081   0.000573   0.000594   0.000121   0.000951  -0.000149
    14  H   -0.001961  -0.019077  -0.001194  -0.000764  -0.003416   0.000686
    15  H   -0.004070   0.001187   0.000048  -0.000034  -0.000340  -0.000010
    16  H    0.006829  -0.001726  -0.000010   0.000043   0.000260  -0.000006
    17  H    0.002635  -0.000201  -0.001034  -0.000118  -0.022721   0.001671
    18  H    0.000497   0.000053   0.000204   0.000158   0.000499  -0.000226
    19  H    0.462366  -0.014724  -0.000955   0.000231  -0.000074   0.000144
    20  H   -0.014724   0.488064   0.000089   0.000377   0.000124  -0.000044
    21  H   -0.000955   0.000089   0.473210  -0.003233  -0.000221  -0.011155
    22  H    0.000231   0.000377  -0.003233   0.443546   0.001216  -0.002158
    23  H   -0.000074   0.000124  -0.000221   0.001216   0.497012  -0.006105
    24  H    0.000144  -0.000044  -0.011155  -0.002158  -0.006105   0.461915
    25  H    0.001945  -0.004621  -0.014523  -0.005494  -0.000868   0.003317
    26  H   -0.000094   0.000033   0.000976  -0.001627  -0.003824  -0.006820
    27  H    0.000015  -0.000121  -0.000889  -0.005934   0.000212  -0.001821
    28  H   -0.000039   0.000216   0.000640   0.001060  -0.002261   0.002024
    29  H   -0.000420   0.000444  -0.000138   0.000147   0.012349  -0.002306
    30  H    0.005346  -0.000769  -0.000040   0.000078   0.000320   0.000005
    31  H   -0.000581  -0.012807  -0.000017  -0.000031  -0.000095   0.000001
              25         26         27         28         29         30
     1  C   -0.028689   0.001989   0.001928   0.005401  -0.048833  -0.057049
     2  C    0.000932   0.000214   0.000108   0.000481  -0.012473  -0.098117
     3  O   -0.059484   0.008850  -0.003999  -0.060113  -0.032451  -0.000522
     4  C   -0.013652  -0.001662  -0.000213  -0.001429   0.035303   0.012179
     5  C    0.040579  -0.001115   0.000177   0.001434   0.010062  -0.016145
     6  O   -0.053058   0.000056  -0.001471   0.002157   0.006761   0.002709
     7  C   -0.037919   0.011516  -0.052715   0.003337  -0.003074   0.001728
     8  C    0.001934  -0.049773  -0.005233   0.013647   0.025782  -0.000221
     9  C    0.447119  -0.007978   0.038137  -0.019338   0.012071  -0.001312
    10  C   -0.010291   0.434428   0.475271  -0.021316  -0.149397  -0.000036
    11  C   -0.001165  -0.026124  -0.087352   0.435951   0.480992   0.000707
    12  C   -0.009098  -0.000181  -0.000135  -0.001056   0.011013   0.532476
    13  O   -0.001125  -0.000154   0.000029   0.000042   0.002246  -0.000106
    14  H    0.000578   0.000306   0.000684  -0.002025  -0.018509  -0.013491
    15  H   -0.000031   0.000032   0.000011  -0.000044  -0.001029  -0.016152
    16  H   -0.000145   0.000001  -0.000013   0.000013   0.000510   0.009614
    17  H    0.002478   0.000806  -0.000031   0.002138  -0.028084  -0.001899
    18  H   -0.000460   0.000626  -0.000100   0.000277  -0.014017  -0.007182
    19  H    0.001945  -0.000094   0.000015  -0.000039  -0.000420   0.005346
    20  H   -0.004621   0.000033  -0.000121   0.000216   0.000444  -0.000769
    21  H   -0.014523   0.000976  -0.000889   0.000640  -0.000138  -0.000040
    22  H   -0.005494  -0.001627  -0.005934   0.001060   0.000147   0.000078
    23  H   -0.000868  -0.003824   0.000212  -0.002261   0.012349   0.000320
    24  H    0.003317  -0.006820  -0.001821   0.002024  -0.002306   0.000005
    25  H    0.496088   0.000687   0.001271   0.001031  -0.002298  -0.000175
    26  H    0.000687   0.482808  -0.009638  -0.009270  -0.004781  -0.000056
    27  H    0.001271  -0.009638   0.479323  -0.004283   0.004275  -0.000040
    28  H    0.001031  -0.009270  -0.004283   0.466237  -0.022944   0.000010
    29  H   -0.002298  -0.004781   0.004275  -0.022944   0.584759   0.002531
    30  H   -0.000175  -0.000056  -0.000040   0.000010   0.002531   0.474535
    31  H    0.000599  -0.000003   0.000008   0.000006  -0.000558  -0.010241
              31
     1  C    0.035429
     2  C   -0.009059
     3  O    0.000382
     4  C   -0.017875
     5  C   -0.036160
     6  O   -0.003049
     7  C   -0.000495
     8  C    0.000125
     9  C    0.000491
    10  C    0.000040
    11  C   -0.000398
    12  C    0.384225
    13  O    0.010126
    14  H    0.002499
    15  H    0.003211
    16  H   -0.011711
    17  H    0.002902
    18  H   -0.000598
    19  H   -0.000581
    20  H   -0.012807
    21  H   -0.000017
    22  H   -0.000031
    23  H   -0.000095
    24  H    0.000001
    25  H    0.000599
    26  H   -0.000003
    27  H    0.000008
    28  H    0.000006
    29  H   -0.000558
    30  H   -0.010241
    31  H    0.482928
 Mulliken charges:
               1
     1  C   -0.234792
     2  C   -0.218647
     3  O   -0.282331
     4  C   -0.357901
     5  C   -0.239627
     6  O   -0.212017
     7  C   -0.262987
     8  C   -0.266278
     9  C   -0.150410
    10  C   -0.374631
    11  C   -0.171144
    12  C   -0.378017
    13  O   -0.320360
    14  H    0.279719
    15  H    0.168426
    16  H    0.174448
    17  H    0.242683
    18  H    0.203186
    19  H    0.198515
    20  H    0.167019
    21  H    0.182347
    22  H    0.195412
    23  H    0.147198
    24  H    0.191236
    25  H    0.244540
    26  H    0.179772
    27  H    0.172535
    28  H    0.208017
    29  H    0.152067
    30  H    0.181317
    31  H    0.180707
 Sum of Mulliken charges =  -0.00000
 Mulliken charges with hydrogens summed into heavy atoms:
               1
     1  C    0.044927
     2  C    0.124226
     3  O   -0.282331
     4  C    0.087968
     5  C    0.125906
     6  O   -0.212017
     7  C    0.114772
     8  C    0.072156
     9  C    0.094130
    10  C   -0.022324
    11  C    0.188940
    12  C   -0.015994
    13  O   -0.320360
 Electronic spatial extent (au):  <R**2>=           2909.4744
 Charge=              0.0000 electrons
 Dipole moment (field-independent basis, Debye):
    X=             -0.8391    Y=             -0.0686    Z=              2.3325  Tot=              2.4797
 Quadrupole moment (field-independent basis, Debye-Ang):
   XX=            -70.1299   YY=            -83.5776   ZZ=            -79.6298
   XY=             -7.1816   XZ=              4.0015   YZ=              4.3351
 Traceless Quadrupole moment (field-independent basis, Debye-Ang):
   XX=              7.6492   YY=             -5.7985   ZZ=             -1.8507
   XY=             -7.1816   XZ=              4.0015   YZ=              4.3351
 Octapole moment (field-independent basis, Debye-Ang**2):
  XXX=             12.6350  YYY=             -4.7853  ZZZ=              5.7754  XYY=             -3.9829
  XXY=             -4.5562  XXZ=              3.1793  XZZ=             -6.3495  YZZ=             -0.1051
  YYZ=             -0.3704  XYZ=              0.9734
 Hexadecapole moment (field-independent basis, Debye-Ang**3):
 XXXX=          -2732.4659 YYYY=           -544.4132 ZZZZ=           -432.2428 XXXY=            -16.2725
 XXXZ=             -4.9558 YYYX=            -10.3185 YYYZ=             10.9246 ZZZX=            -14.5332
 ZZZY=             -2.8677 XXYY=           -594.4258 XXZZ=           -541.9404 YYZZ=           -166.6350
 XXYZ=             19.2674 YYXZ=             12.9265 ZZXY=              3.7206
 N-N= 9.003187152065D+02 E-N=-3.242557542892D+03  KE= 6.153284494474D+02
 D1PCM: PCM CHGder 1st derivatives, ID1Alg=3 FixD1E=F DoIter=F DoCFld=F I1PDM=0.
 Calling FoFJK, ICntrl=      2127 FMM=F ISym2X=0 I1Cent= 0 IOpClX= 0 NMat=1 NMatS=1 NMatT=0.
 ***** Axes restored to original set *****
 -------------------------------------------------------------------
 Center     Atomic                   Forces (Hartrees/Bohr)
 Number     Number              X              Y              Z
 -------------------------------------------------------------------
      1        6           0.000472069    0.004561542    0.004512437
      2        6          -0.004847547    0.003427775   -0.002704029
      3        8          -0.001576969    0.004600179   -0.003765823
      4        6           0.005465263    0.005312200    0.000482506
      5        6           0.001518359   -0.002395399   -0.003093373
      6        8           0.000825791   -0.016258544    0.006101815
      7        6           0.001124837   -0.001975318   -0.001614039
      8        6           0.000252950    0.004161245   -0.001616102
      9        6           0.000152488    0.002446558   -0.004347532
     10        6           0.002772117   -0.000989528    0.000628864
     11        6          -0.002923427   -0.000291762    0.007533702
     12        6          -0.000599652   -0.000582212    0.001747312
     13        8          -0.001787211   -0.004732054    0.008214854
     14        1          -0.003161371    0.002923578   -0.006982921
     15        1           0.002792679   -0.002131318   -0.004280866
     16        1           0.002541919    0.000596047    0.003967168
     17        1          -0.004939883   -0.002379472    0.002025629
     18        1           0.000712899   -0.000708219   -0.006479056
     19        1          -0.000453081   -0.001520889    0.003587162
     20        1          -0.000766137    0.002497152   -0.000854024
     21        1           0.001717594   -0.000704401    0.002701344
     22        1          -0.002847486    0.002085095   -0.000058565
     23        1           0.003558196   -0.001712874   -0.000331451
     24        1          -0.001809105   -0.001217162    0.001197741
     25        1          -0.000875410    0.007083948    0.002007314
     26        1          -0.000765457   -0.002406729   -0.001259115
     27        1          -0.002214063    0.002417281    0.000243899
     28        1          -0.001227248    0.001405237   -0.004045136
     29        1           0.005779246   -0.005211638   -0.000384127
     30        1          -0.000876296   -0.000175688   -0.003359350
     31        1           0.001983935    0.001875371    0.000223760
 -------------------------------------------------------------------
 Cartesian Forces:  Max     0.016258544 RMS     0.003537077

 GradGradGradGradGradGradGradGradGradGradGradGradGradGradGradGradGradGrad
 Berny optimization.
 FormGI is forming the generalized inverse of G from B-inverse, IUseBI=4.
 Internal  Forces:  Max     0.015415866 RMS     0.002281183
 Search for a local minimum.
 Step number   1 out of a maximum of  186
 All quantities printed in internal units (Hartrees-Bohrs-Radians)
 Mixed Optimization -- RFO/linear search
 Second derivative matrix not updated -- first step.
 ITU=  0
     Eigenvalues ---    0.00414   0.00610   0.00657   0.00739   0.01351
     Eigenvalues ---    0.01429   0.01437   0.02679   0.02806   0.03077
     Eigenvalues ---    0.03373   0.04109   0.04300   0.04674   0.04720
     Eigenvalues ---    0.04810   0.04820   0.04942   0.05070   0.05189
     Eigenvalues ---    0.05240   0.05656   0.05737   0.05988   0.06153
     Eigenvalues ---    0.06295   0.06385   0.06694   0.07374   0.07765
     Eigenvalues ---    0.07816   0.07838   0.07908   0.08099   0.08225
     Eigenvalues ---    0.08357   0.08966   0.10180   0.11242   0.11670
     Eigenvalues ---    0.11682   0.11785   0.11786   0.12484   0.12663
     Eigenvalues ---    0.14698   0.14924   0.16408   0.18497   0.19366
     Eigenvalues ---    0.19997   0.21789   0.22546   0.25000   0.27220
     Eigenvalues ---    0.27723   0.28587   0.28667   0.29011   0.29134
     Eigenvalues ---    0.29325   0.30422   0.35117   0.35158   0.35173
     Eigenvalues ---    0.35230   0.35249   0.35260   0.35269   0.35297
     Eigenvalues ---    0.35338   0.35393   0.35431   0.35464   0.35508
     Eigenvalues ---    0.35773   0.35811   0.35880   0.36010   0.36292
     Eigenvalues ---    0.40288   0.40307   0.41542   0.42476   0.43166
     Eigenvalues ---    0.447421000.000001000.000001000.000001000.00000
     Eigenvalues --- 1000.000001000.000001000.000001000.000001000.00000
     Eigenvalues --- 1000.000001000.000001000.000001000.000001000.00000
     Eigenvalues --- 1000.000001000.000001000.000001000.000001000.00000
     Eigenvalues --- 1000.000001000.000001000.000001000.000001000.00000
     Eigenvalues --- 1000.000001000.000001000.000001000.000001000.00000
     Eigenvalues --- 1000.000001000.000001000.000001000.000001000.00000
     Eigenvalues --- 1000.000001000.000001000.000001000.000001000.00000
     Eigenvalues --- 1000.000001000.000001000.000001000.000001000.00000
     Eigenvalues --- 1000.000001000.000001000.000001000.000001000.00000
     Eigenvalues --- 1000.000001000.000001000.000001000.000001000.00000
     Eigenvalues --- 1000.000001000.000001000.000001000.000001000.00000
     Eigenvalues --- 1000.000001000.000001000.000001000.000001000.00000
     Eigenvalues --- 1000.000001000.000001000.000001000.000001000.00000
     Eigenvalues --- 1000.000001000.000001000.000001000.000001000.00000
     Eigenvalues --- 1000.000001000.000001000.000001000.000001000.00000
     Eigenvalues --- 1000.000001000.000001000.000001000.000001000.00000
     Eigenvalues --- 1000.000001000.000001000.000001000.000001000.00000
     Eigenvalues --- 1000.000001000.000001000.000001000.000001000.00000
     Eigenvalues --- 1000.000001000.000001000.000001000.000001000.00000
 RFO step:  Lambda=-4.49756129D-03 EMin= 4.14279321D-03
 Linear search not attempted -- first point.
 Iteration  1 RMS(Cart)=  0.10859008 RMS(Int)=  0.00246241
 Iteration  2 RMS(Cart)=  0.00572218 RMS(Int)=  0.00008563
 Iteration  3 RMS(Cart)=  0.00001202 RMS(Int)=  0.00008541
 Iteration  4 RMS(Cart)=  0.00000000 RMS(Int)=  0.00008541
 Iteration  1 RMS(Cart)=  0.00010355 RMS(Int)=  0.00002202
 Iteration  2 RMS(Cart)=  0.00005410 RMS(Int)=  0.00002462
 Iteration  3 RMS(Cart)=  0.00002826 RMS(Int)=  0.00002767
 Iteration  4 RMS(Cart)=  0.00001477 RMS(Int)=  0.00002958
 Iteration  5 RMS(Cart)=  0.00000771 RMS(Int)=  0.00003065
 Iteration  6 RMS(Cart)=  0.00000403 RMS(Int)=  0.00003123
 Iteration  7 RMS(Cart)=  0.00000211 RMS(Int)=  0.00003153
 Iteration  8 RMS(Cart)=  0.00000110 RMS(Int)=  0.00003169
 Iteration  9 RMS(Cart)=  0.00000057 RMS(Int)=  0.00003178
 Variable       Old X    -DE/DX   Delta X   Delta X   Delta X     New X
                                 (Linear)    (Quad)   (Total)
    R1        2.89471   0.00018   0.00000   0.00009   0.00010   2.89481
    R2        2.89605  -0.00084   0.00000  -0.00426  -0.00426   2.89179
    R3        2.68321   0.00036   0.00000   0.00083   0.00083   2.68405
    R4        2.03628   0.00819   0.00000   0.02230   0.02230   2.05858
    R5        2.89718   0.00069   0.00000   0.00330   0.00329   2.90048
    R6        2.68332   0.00350   0.00000   0.00938   0.00938   2.69270
    R7        2.05240   0.00544   0.00000   0.01522   0.01522   2.06762
    R8        2.04438   0.00472   0.00000   0.01304   0.01304   2.05742
    R9        2.63822   0.00248   0.00000   0.00416   0.00421   2.64243
   R10        2.69498   0.00264   0.00000   0.00593   0.00590   2.70088
   R11        2.66692   0.00261   0.00000   0.00615   0.00616   2.67308
   R12        2.04066   0.00564   0.00000   0.01546   0.01546   2.05613
   R13        2.05272   0.00648   0.00000   0.01816   0.01816   2.07088
   R14        2.88609  -0.00022   0.00000  -0.00177  -0.00178   2.88432
   R15        2.05196   0.00354   0.00000   0.00989   0.00989   2.06184
   R16        2.05041   0.00273   0.00000   0.00762   0.00762   2.05803
   R17        2.67465   0.00324   0.00000   0.00742   0.00742   2.68207
   R18        2.88494  -0.00148   0.00000  -0.00450  -0.00447   2.88047
   R19        2.87427  -0.00065   0.00000  -0.00270  -0.00264   2.87163
   R20        2.04928   0.00322   0.00000   0.00897   0.00897   2.05825
   R21        2.05394   0.00350   0.00000   0.00982   0.00982   2.06377
   R22        2.88571  -0.00152   0.00000  -0.00320  -0.00325   2.88246
   R23        2.05418   0.00384   0.00000   0.01077   0.01077   2.06496
   R24        2.05130   0.00249   0.00000   0.00695   0.00695   2.05825
   R25        2.04379   0.00731   0.00000   0.02016   0.02016   2.06394
   R26        2.86840  -0.00034   0.00000  -0.00065  -0.00071   2.86769
   R27        2.05255   0.00281   0.00000   0.00786   0.00786   2.06041
   R28        2.05485   0.00319   0.00000   0.00898   0.00898   2.06383
   R29        2.04270   0.00445   0.00000   0.01225   0.01225   2.05495
   R30        2.04858   0.00773   0.00000   0.02150   0.02150   2.07008
   R31        2.05304   0.00345   0.00000   0.00966   0.00966   2.06270
   R32        2.04980   0.00271   0.00000   0.00755   0.00755   2.05735
    A1        1.91395   0.00014   0.00000  -0.00635  -0.00645   1.90750
    A2        1.92287  -0.00142   0.00000  -0.00629  -0.00625   1.91662
    A3        1.89678   0.00062   0.00000   0.00389   0.00393   1.90071
    A4        1.90549   0.00144   0.00000   0.00601   0.00602   1.91151
    A5        1.91144  -0.00083   0.00000   0.00173   0.00175   1.91319
    A6        1.91327   0.00003   0.00000   0.00100   0.00097   1.91424
    A7        1.95071   0.00187   0.00000   0.00582   0.00573   1.95644
    A8        1.93942  -0.00116   0.00000  -0.00631  -0.00634   1.93308
    A9        1.93287  -0.00083   0.00000  -0.00555  -0.00551   1.92736
   A10        1.90400   0.00046   0.00000   0.00698   0.00704   1.91104
   A11        1.84271  -0.00094   0.00000  -0.00255  -0.00253   1.84018
   A12        1.89075   0.00060   0.00000   0.00191   0.00188   1.89262
   A13        2.05998  -0.00510   0.00000  -0.03801  -0.03783   2.02215
   A14        1.94256   0.00102   0.00000   0.00159   0.00143   1.94399
   A15        1.93158  -0.00189   0.00000  -0.01803  -0.01802   1.91356
   A16        1.92145  -0.00056   0.00000   0.00078   0.00074   1.92219
   A17        1.86780  -0.00036   0.00000  -0.00045  -0.00048   1.86732
   A18        1.90792   0.00113   0.00000   0.01352   0.01354   1.92146
   A19        1.89104   0.00069   0.00000   0.00292   0.00286   1.89390
   A20        1.91591  -0.00065   0.00000  -0.00620  -0.00635   1.90955
   A21        1.89843  -0.00034   0.00000  -0.00993  -0.00990   1.88853
   A22        1.92212  -0.00021   0.00000   0.00010   0.00017   1.92229
   A23        1.90997   0.00087   0.00000   0.00360   0.00357   1.91354
   A24        1.94293   0.00005   0.00000   0.00472   0.00474   1.94767
   A25        1.87351   0.00029   0.00000   0.00769   0.00764   1.88115
   A26        2.15292  -0.01542   0.00000  -0.06057  -0.06057   2.09234
   A27        1.96528  -0.00130   0.00000  -0.01453  -0.01461   1.95068
   A28        1.95194  -0.00072   0.00000  -0.00545  -0.00569   1.94625
   A29        1.90538   0.00151   0.00000   0.01225   0.01237   1.91774
   A30        1.89350   0.00059   0.00000  -0.00484  -0.00495   1.88855
   A31        1.87081  -0.00006   0.00000   0.00709   0.00711   1.87792
   A32        1.87297   0.00006   0.00000   0.00700   0.00702   1.87999
   A33        1.90274   0.00219   0.00000   0.00111   0.00119   1.90393
   A34        1.92658  -0.00097   0.00000  -0.00704  -0.00710   1.91949
   A35        1.91661  -0.00061   0.00000   0.00290   0.00289   1.91950
   A36        1.91544  -0.00112   0.00000  -0.00347  -0.00356   1.91188
   A37        1.93382  -0.00016   0.00000   0.00273   0.00274   1.93656
   A38        1.86865   0.00059   0.00000   0.00370   0.00373   1.87237
   A39        1.98889  -0.00132   0.00000  -0.02495  -0.02495   1.96394
   A40        1.97376   0.00292   0.00000   0.01001   0.00930   1.98306
   A41        1.81279  -0.00007   0.00000   0.00250   0.00265   1.81544
   A42        1.90583  -0.00445   0.00000  -0.02424  -0.02448   1.88135
   A43        1.86289   0.00410   0.00000   0.03363   0.03386   1.89676
   A44        1.91344  -0.00077   0.00000   0.00793   0.00799   1.92143
   A45        1.91618  -0.00159   0.00000  -0.00612  -0.00639   1.90979
   A46        1.94301  -0.00029   0.00000  -0.00100  -0.00095   1.94206
   A47        1.91787   0.00109   0.00000   0.00208   0.00218   1.92005
   A48        1.89611   0.00073   0.00000   0.00408   0.00418   1.90030
   A49        1.91332   0.00019   0.00000  -0.00258  -0.00253   1.91079
   A50        1.87674  -0.00009   0.00000   0.00372   0.00368   1.88042
   A51        1.95811   0.00259   0.00000   0.00672   0.00650   1.96461
   A52        1.83456  -0.00130   0.00000  -0.00159  -0.00156   1.83300
   A53        1.91314  -0.00003   0.00000   0.00167   0.00180   1.91494
   A54        1.94899  -0.00048   0.00000  -0.00250  -0.00242   1.94657
   A55        1.91977  -0.00139   0.00000  -0.00598  -0.00596   1.91381
   A56        1.88633   0.00058   0.00000   0.00187   0.00183   1.88816
   A57        1.91031  -0.00039   0.00000  -0.00754  -0.00760   1.90272
   A58        1.92802   0.00061   0.00000   0.00269   0.00267   1.93069
   A59        1.90704  -0.00014   0.00000   0.00344   0.00346   1.91050
   A60        1.91362  -0.00044   0.00000  -0.00134  -0.00134   1.91228
   A61        1.93915   0.00040   0.00000   0.00132   0.00136   1.94051
   A62        1.86544  -0.00002   0.00000   0.00176   0.00174   1.86718
   A63        1.97860  -0.00483   0.00000  -0.02880  -0.02883   1.94977
    D1        0.49281   0.00194   0.00000   0.01920   0.01922   0.51203
    D2        2.56750   0.00092   0.00000   0.00789   0.00791   2.57541
    D3       -1.62559   0.00021   0.00000   0.00054   0.00058  -1.62501
    D4       -1.60490   0.00096   0.00000   0.01973   0.01971  -1.58518
    D5        0.46979  -0.00006   0.00000   0.00841   0.00841   0.47820
[...]
 10538,0.00005704,0.00001154,-0.00000115,-0.00000591,0.00000554,0.00001
 149,-0.00000340,-0.00080626,-0.00080216,0.00039958,-0.00036148,-0.0006
 2354,0.00052202,-0.00013748,-0.00000305,-0.00005493,0.00029360,0.00106
 767,0.00057674,0.00385855,0.08254824,0.09581107,0.00019889,0.00002455,
 -0.00012876,0.00001622,-0.00000198,-0.00000307,-0.00417968,-0.00508820
 ,0.00142182,-0.00001830,-0.00003900,0.00001836,-0.00001005,0.00002964,
 0.00001975,-0.00042053,0.00011710,-0.00014784,0.00050386,0.00107371,-0
 .00119134,-0.00237676,-0.00673500,-0.00426661,0.00063275,0.00005512,0.
 00174307,-0.05387516,-0.02932211,-0.01564111,-0.00229963,-0.01938118,-
 0.01415234,-0.00000826,-0.00001479,-0.00000906,-0.00003306,0.00003092,
 -0.00000830,0.00006477,-0.00001458,0.00000201,-0.00000255,0.00000254,0
 .00000218,-0.00000300,0.00000060,-0.00000116,0.00001862,0.00000423,-0.
 00000800,-0.00001523,0.00001480,0.00000563,-0.00000216,-0.00000331,-0.
 00000100,0.00000181,-0.00000501,0.00000218,0.00027058,-0.00035585,-0.0
 0012281,0.00008386,-0.00042306,-0.00018024,0.00017986,-0.00030912,0.00
 036888,0.00018604,0.00039798,0.00028235,0.00001463,0.00003999,-0.00017
 062,0.05491222,0.00018147,0.00000627,-0.00009289,0.00003445,0.00000330
 ,-0.00001632,-0.00452886,-0.00240498,0.00075476,0.00005689,-0.00003053
 ,0.00000005,-0.00000541,0.00003680,0.00000770,-0.00051697,0.00009174,-
 0.00019012,0.00032416,0.00073938,0.00153069,0.00153975,0.00792688,0.00
 408341,0.00092572,0.00001790,0.00183868,-0.03163883,-0.24707345,-0.113
 02804,0.00099735,-0.01412258,-0.00971268,-0.00000964,-0.00001755,-0.00
 001270,-0.00008657,0.00003081,-0.00001740,0.00006640,0.00000696,-0.000
 03088,-0.00000478,0.00000377,0.00000563,-0.00000799,-0.00000115,-0.000
 00076,-0.00002799,-0.00002987,-0.00000120,-0.00001752,0.00001613,0.000
 00779,-0.00001214,-0.00000631,-0.00000456,-0.00000087,-0.00000938,0.00
 000171,0.00001292,0.00028167,0.00033419,-0.00001898,0.00012779,0.00011
 809,-0.00025560,0.00041943,-0.00062852,-0.00011709,0.00032894,-0.00072
 859,0.00004850,-0.00002319,-0.00015806,0.03517409,0.26628284,0.0000520
 9,-0.00005409,-0.00010461,0.00000832,-0.00000149,-0.00000527,0.0037712
 5,0.00383270,0.00043054,0.00001983,0.00000174,0.00002537,-0.00002116,0
 .00001229,0.00003242,-0.00013457,-0.00007173,0.00034518,-0.00211044,0.
 00307854,-0.00624824,-0.00405527,-0.02853726,-0.01459140,0.00059554,0.
 00076962,-0.00168186,-0.01651898,-0.11295447,-0.11075121,-0.00008881,0
 .01251324,0.00795955,-0.00001145,-0.00001144,-0.00000664,-0.00002170,-
 0.00000187,-0.00000197,-0.00003555,0.00000187,0.00004123,-0.00000124,0
 .00000178,0.00000162,-0.00000270,-0.00000059,-0.00000043,-0.00000048,-
 0.00002427,-0.00001071,-0.00000927,0.00000377,0.00000791,0.00000594,0.
 00000279,-0.00000003,-0.00000183,-0.00000198,-0.00000145,-0.00064631,-
 0.00195186,-0.00081676,0.00019392,0.00021866,0.00014956,-0.00005672,0.
 00026618,0.00137756,0.00080389,0.00003081,0.00128880,-0.00008831,-0.00
 012720,0.00032147,0.01886514,0.12259175,0.12144304,0.00007910,-0.00005
 545,0.00015192,0.00005686,0.00002104,-0.00004310,0.00224078,0.00010789
 ,-0.00100991,0.00018743,0.00001637,0.00001286,0.00002638,0.00005162,-0
 .00005434,0.00000585,-0.00006608,-0.00011416,0.00010955,0.00015568,0.0
 0053171,-0.00662117,0.00428521,-0.00092936,-0.00025518,-0.00010254,0.0
 0010475,-0.23652075,0.11434750,-0.00864616,-0.02327680,0.01391607,0.00
 113901,-0.00000389,-0.00001269,-0.00001502,-0.00018807,-0.00002085,-0.
 00003437,0.00003452,0.00007879,-0.00008710,-0.00000819,0.00000365,0.00
 001098,-0.00002083,-0.00000564,0.00000202,-0.00001523,-0.00009702,0.00
 004916,0.00002176,-0.00000098,-0.00000498,-0.00003204,-0.00001217,-0.0
 0001557,-0.00000721,-0.00001426,-0.00000214,0.00022579,-0.00014629,-0.
 00006424,-0.00008658,-0.00046560,-0.00029231,0.00083735,0.00018564,-0.
 00140534,0.00059335,-0.00013809,-0.00027345,-0.00008563,-0.00005154,-0
 .00007622,0.00491875,-0.00231008,0.00073863,0.25908510,-0.00012783,-0.
 00010559,0.00021496,0.00000463,0.00000334,-0.00000680,0.00160652,0.001
 90820,0.00041833,0.00003869,-0.00000347,-0.00001970,0.00002037,0.00001
 428,-0.00006724,0.00028048,-0.00002322,-0.00000938,-0.00091429,0.00046
 308,-0.00063484,0.00558577,-0.00459791,0.00096965,-0.00031410,0.000034
 02,-0.00019004,0.11673333,-0.12077830,0.00307696,-0.01734487,0.0087725
 5,-0.00030392,0.00000960,0.00000316,-0.00000104,-0.00003004,-0.0000075
 5,-0.00001401,-0.00006825,0.00006101,-0.00008286,-0.00000020,0.0000004
 6,0.00000127,-0.00000336,-0.00000089,0.00000149,-0.00006380,-0.0000113
 7,0.00002849,0.00003499,-0.00000704,-0.00000388,-0.00002297,-0.0000082
 5,-0.00000811,-0.00000194,-0.00000048,0.00000037,-0.00013584,0.0000715
 6,0.00009875,0.00003121,0.00042368,-0.00001105,-0.00010526,0.00085231,
 0.00153479,-0.00008388,0.00003456,-0.00006574,0.00007347,0.00003548,-0
 .00001777,0.02348294,-0.01357931,0.00141947,-0.12649612,0.12679329,0.0
 0007652,0.00008376,-0.00014151,-0.00001867,-0.00000416,0.00000735,-0.0
 0170468,0.00025324,0.00070340,-0.00003668,0.00007373,-0.00001772,-0.00
 000975,-0.00004568,0.00006114,-0.00000792,-0.00019158,0.00005672,-0.00
 014817,0.00101221,0.00182666,-0.02885214,0.01768868,-0.00290756,-0.000
 12782,0.00009253,-0.00052729,-0.00836440,0.00380218,-0.04816988,0.0154
 9507,-0.01039588,-0.00134478,-0.00000044,0.00000468,0.00000795,0.00005
 138,-0.00000716,0.00002659,-0.00004044,-0.00007456,0.00007904,0.000002
 83,-0.00000183,-0.00000335,0.00000548,0.00000109,-0.00000102,0.0000398
 3,0.00000092,-0.00004923,-0.00003953,-0.00000742,0.00001924,0.00002705
 ,0.00001180,0.00001185,0.00000106,0.00000484,-0.00000085,0.00045205,0.
 00007508,0.00010657,0.00037773,-0.00054742,-0.00012746,-0.00179672,0.0
 0070846,-0.00600838,0.00074859,-0.00012802,0.00137231,-0.00003075,-0.0
 0005918,0.00012653,0.01360864,-0.00700238,0.00009648,0.00808989,-0.007
 16994,0.05482139,0.00027459,0.00013089,0.00011885,0.00009342,0.0000544
 8,-0.00009404,-0.00094858,-0.00167975,-0.00880677,0.00037451,0.0001715
 4,-0.00016389,0.00005148,0.00003680,-0.00007787,-0.00004000,-0.0000701
 0,-0.00003907,-0.00011714,-0.00009356,-0.00031458,-0.00399084,-0.00281
 622,0.00129947,-0.00006943,-0.00102848,0.00134564,0.00764799,-0.006952
 42,0.02509817,-0.07083816,0.02207813,-0.06561278,0.00000031,-0.0000177
 2,-0.00002490,-0.00039015,-0.00007875,-0.00000020,-0.00006273,0.000047
 44,-0.00004526,-0.00001872,0.00000537,0.00002008,-0.00004366,-0.000012
 58,0.00000688,-0.00013879,-0.00024279,0.00009044,0.00003724,0.00000631
 ,0.00003318,-0.00004580,-0.00002257,-0.00002295,-0.00001817,-0.0000303
 4,-0.00000859,0.00007840,0.00011191,-0.00001638,0.00001870,0.00006457,
 0.00000361,0.00017235,-0.00020437,0.00012020,0.00042177,-0.00032014,0.
 00151602,0.00002484,-0.00002368,-0.00045082,0.00070137,0.00038501,-0.0
 0091677,0.00123939,0.00085537,-0.00048426,0.07182012,0.00026196,0.0000
 3227,-0.00036237,-0.00002887,-0.00003189,0.00005473,-0.01196434,0.0011
 8531,-0.04081082,-0.00031106,-0.00016995,0.00011900,-0.00004492,0.0000
 0375,0.00008133,-0.00084173,0.00069026,-0.00015131,-0.00022220,-0.0003
 9990,-0.00037280,-0.00403021,-0.00152669,0.00089705,-0.00030341,-0.005
 58362,-0.00001050,0.00634267,-0.00337137,0.01526416,0.02554774,-0.0719
 1809,0.08291642,-0.00001664,-0.00001140,-0.00000005,0.00017047,0.00009
 647,-0.00000761,0.00014625,-0.00008735,0.00018070,0.00000564,0.0000016
 5,-0.00000814,0.00002095,0.00000775,-0.00000577,0.00003024,0.00015045,
 -0.00007407,-0.00004016,0.00003560,-0.00000340,0.00002920,0.00001053,0
 .00001261,0.00000865,0.00000918,0.00000746,0.00016098,0.00023500,-0.00
 000474,0.00001292,0.00008355,0.00000994,-0.00008914,0.00013754,-0.0004
 8143,0.00009887,0.00003045,0.00145254,-0.00009133,-0.00012199,-0.00147
 068,0.00032802,0.00021144,-0.00048750,-0.00016713,0.00069217,-0.000697
 44,-0.01864882,0.08297842,0.00032724,-0.00009263,-0.00017874,0.0000456
 4,-0.00000477,-0.00001030,-0.00699826,-0.00356234,-0.02193159,0.000004
 02,-0.00008185,0.00008196,-0.00001839,0.00007242,0.00002089,-0.0007754
 8,0.00038095,-0.00016674,-0.00021639,0.00013514,0.00030442,0.00278549,
 0.00155804,0.00043894,0.00072506,-0.00335468,0.00329714,-0.00345707,0.
 00486218,-0.01125248,-0.06414211,0.07131837,-0.27754083,-0.00001997,-0
 .00003090,-0.00002141,-0.00006369,0.00005208,-0.00002543,-0.00004826,0
 .00001824,-0.00014604,-0.00000494,0.00000646,0.00000601,-0.00000650,0.
 00000006,-0.00000203,0.00003243,-0.00000601,0.00000245,-0.00002681,0.0
 0002736,0.00001302,-0.00000942,-0.00000738,-0.00000712,-0.00000042,-0.
 00001193,0.00000217,0.00000426,0.00005468,-0.00007146,0.00003784,-0.00
 003939,-0.00001180,-0.00008766,0.00001509,0.00010677,-0.00031250,-0.00
 000433,-0.00083515,-0.00015182,-0.00005975,-0.00094931,0.00022867,0.00
 032384,0.00013067,-0.00011141,-0.00059370,0.00047967,0.07227679,-0.071
 73956,0.30532682,-0.00090217,-0.00191992,-0.00011061,-0.00017106,-0.00
 003470,-0.00006000,0.01091824,-0.00455446,0.00193455,-0.00141038,0.001
 00391,-0.00189606,-0.00002889,0.00018787,-0.00009796,0.00019955,0.0002
 3342,0.00015432,0.00006428,-0.00007105,0.00014614,0.00098548,0.0007334
 2,-0.00122491,0.00026523,0.00050829,-0.00072867,-0.02304267,0.01240048
 ,0.00035336,-0.23139369,0.11667304,0.00704894,0.00000771,0.00001114,-0
 .00001721,-0.00004672,-0.00035159,0.00029677,-0.00095443,-0.00122990,-
 0.00092929,0.00000428,0.00000078,-0.00001374,-0.00001934,-0.00000233,0
 .00001938,-0.00081013,0.00008619,-0.00053285,-0.00015469,0.00019321,0.
 00029124,-0.00002564,0.00000535,-0.00002992,0.00004044,0.00002332,0.00
 001419,0.00003228,0.00005681,0.00006979,-0.00002095,-0.00006140,-0.000
 07222,0.00043934,-0.00027418,0.00077810,0.00029696,-0.00028597,-0.0001
 4457,-0.00006926,0.00005710,0.00005680,0.00054880,-0.00017642,-0.00032
 649,-0.00253072,-0.00304694,0.00268215,-0.00621882,0.00363967,0.000003
 23,0.25399380,-0.00020683,0.00011924,-0.00151833,-0.00004811,-0.000041
 61,0.00007491,0.01852842,-0.03220840,-0.01369938,0.00020793,0.00013606
 ,0.00057361,-0.00008382,-0.00017075,0.00041654,-0.00201422,0.00119615,
 -0.00044635,-0.00040205,0.00000458,-0.00037200,-0.00017597,0.00053987,
 -0.00095216,0.00309746,-0.00121390,0.00535146,-0.01558271,0.01030761,0
 .00190557,0.11355677,-0.11837150,-0.00346572,-0.00004876,-0.00000436,0
 .00002473,0.00038391,0.00005484,0.00002525,-0.00052630,-0.00111120,-0.
 00001072,0.00001737,-0.00000469,-0.00001387,0.00003945,0.00001109,-0.0
 0000857,0.00061526,-0.00003768,0.00048348,-0.00013152,-0.00000119,-0.0
 0009293,0.00015897,0.00006360,0.00006272,0.00000968,0.00001505,-0.0000
 0128,0.00012597,0.00018549,-0.00013108,0.00001858,-0.00005301,0.000021
 42,0.00037900,-0.00012424,-0.00023157,0.00009419,-0.00001173,-0.000188
 04,-0.00040703,0.00007765,-0.00059694,0.00091274,0.00076220,-0.0005220
 6,-0.00300850,-0.00103896,0.00252122,0.00829627,-0.00337650,0.00075523
 ,-0.12380970,0.14429741,-0.00070579,-0.00075267,-0.00048357,-0.0001393
 8,-0.00006163,0.00012363,0.01196504,-0.01862647,-0.00364165,-0.0014621
 3,0.00003076,-0.00022595,-0.00006783,0.00001922,0.00007380,-0.00093442
 ,0.00103306,0.00041388,-0.00018131,-0.00012809,-0.00037449,0.00060304,
 -0.00123244,0.00103323,0.00316653,-0.00163138,0.00199755,0.01440781,-0
 .00701412,-0.00018103,0.00476511,0.00001033,-0.05488047,-0.00000040,0.
 00001639,0.00002261,0.00047778,0.00004150,-0.00001144,-0.00002763,-0.0
 0027623,0.00006741,0.00002076,-0.00000343,-0.00002418,0.00005071,0.000
 01694,-0.00000404,-0.00061795,0.00062015,-0.00068233,0.00014299,0.0000
 1610,-0.00006467,0.00003903,0.00002072,0.00002318,0.00003680,0.0000410
 3,0.00002193,0.00004027,0.00008285,-0.00005119,-0.00008298,0.00005481,
 0.00004728,-0.00024271,0.00024099,-0.00007848,-0.00026075,0.00014128,0
 .00015221,-0.00026556,0.00014438,-0.00029728,-0.00054218,0.00001953,0.
 00056578,0.00234147,0.00143603,-0.00050021,-0.02486321,0.01569097,0.00
 292627,-0.00767738,0.01004595,0.05404735,0.00112665,-0.00042605,0.0013
 7194,-0.00374654,0.00141206,-0.00572332,0.00005752,0.00001132,-0.00001
 481,-0.00024658,-0.00037786,-0.00014561,0.00412753,-0.00134393,0.02899
 339,0.00024195,-0.00002560,-0.00049715,0.00003021,-0.00002114,0.000010
 72,-0.00000217,0.00000268,-0.00000461,-0.00010844,0.00004440,-0.000097
 00,0.00000224,-0.00000488,0.00000116,-0.00003541,-0.00000542,-0.000010
 20,-0.05751775,0.00011074,-0.04597599,0.00062709,0.00001878,-0.0000100
 6,-0.00004210,0.00020405,-0.00048150,0.00050582,-0.00006383,-0.0001224
 6,0.00066702,0.00201682,-0.00039679,0.00003796,0.00010079,-0.00002816,
 -0.00033216,-0.00057524,0.00019673,-0.00427910,0.00196976,0.00283581,0
 .00096258,-0.00007950,-0.00086534,-0.00000191,-0.00000058,0.00000118,0
 .00001451,0.00000672,-0.00000404,-0.00000232,-0.00000490,0.00000468,0.
 00000509,0.00000199,-0.00000070,0.00001871,-0.00001355,0.00000002,0.00
 000159,0.00000325,0.00000038,0.00000533,0.00000106,-0.00000237,0.00000
 801,-0.00000167,0.00000306,-0.00000152,-0.00001310,-0.00000922,0.06206
 294,-0.00071856,0.00033241,0.00053714,0.00862979,-0.00228420,0.0319962
 4,0.00006479,-0.00000258,0.00004092,0.00017547,-0.00023371,0.00061797,
 -0.00252842,0.00047696,-0.01339198,0.00015066,0.00000317,-0.00002733,0
 .00000697,-0.00000361,0.00000229,0.00000387,-0.00000280,-0.00000255,-0
 .00013932,0.00005911,-0.00000315,0.00000067,-0.00000243,0.00000200,-0.
 00001676,-0.00001325,-0.00001628,0.00021758,-0.04918477,0.01024595,-0.
 00066637,-0.00120032,-0.00014494,0.00005768,0.00005279,0.00000958,-0.0
 0050511,0.00180276,-0.00022403,0.00057126,-0.00498484,0.00177982,-0.00
 000822,0.00006575,-0.00009738,-0.00049489,-0.00037090,-0.00010358,0.00
 256142,-0.00021804,-0.00093293,-0.00065786,0.00010442,0.00026211,-0.00
 000004,-0.00000042,0.00000061,0.00000731,0.00000213,-0.00000157,-0.000
 00055,-0.00000173,0.00000063,0.00000243,0.00000220,0.00000013,0.000015
 04,-0.00001310,0.00000120,0.00000143,0.00000202,0.00000065,0.00000256,
 0.00000053,-0.00000139,0.00000266,0.,0.00000328,-0.00000259,-0.0000067
 1,-0.00000476,-0.00442782,0.05504803,-0.00074735,-0.00052574,0.0005138
 2,-0.00206817,-0.00143152,-0.00686373,0.00008540,-0.00000366,0.0000531
 1,-0.00078759,-0.00038453,-0.00128141,-0.00120703,0.00033892,-0.017114
 49,0.00023984,-0.00004273,0.00023778,0.00001977,-0.00001437,0.00000165
 ,0.00000278,-0.00000682,-0.00000317,-0.00013400,0.00012845,-0.00001532
 ,0.00000023,0.00000065,0.00000193,-0.00001426,-0.00002527,-0.00001765,
 -0.04623733,0.01344751,-0.30053475,0.00099199,0.00120828,0.00033466,0.
 00072660,0.00031549,-0.00009900,0.00028648,0.00011645,0.00148035,0.000
 18206,0.00139484,0.00084825,0.00009911,0.00005043,0.00032164,-0.000276
 09,0.00008224,0.00055435,0.00288939,-0.00151106,-0.00020442,0.00003125
 ,-0.00027286,0.00042871,-0.00000134,0.00000067,-0.00000022,0.00001202,
 0.00000493,-0.00000546,-0.00000110,-0.00000115,0.00000043,0.00000202,0
 .00000346,0.00000034,0.00000722,-0.00001801,-0.00000061,0.00000227,0.0
 0000274,0.00000080,0.00000228,0.00000009,-0.00000127,0.00000639,0.0000
 0069,0.00000497,0.00001032,-0.00000690,-0.00000754,0.04749429,-0.01265
 988,0.32731697,-0.00006383,0.00327318,0.00351670,0.00491389,0.00389256
 ,0.00073520,-0.00029445,-0.00000086,-0.00027369,-0.00014535,0.00080574
 ,-0.00000027,-0.02094917,-0.01426476,-0.00674801,-0.00312031,-0.000267
 21,0.00033106,-0.00022194,0.00017372,-0.00007372,-0.00000783,0.0000140
 7,0.00003022,0.00079710,-0.00086438,0.00051488,0.00000383,-0.00000097,
 -0.00000273,0.00010212,0.00010087,0.00008298,-0.22587840,-0.12229963,-
 0.04389562,0.00108728,0.00120244,-0.00054285,0.00005632,0.00002948,-0.
 00017402,-0.00068998,-0.00030355,0.00064297,0.00133508,0.00009106,0.00
 010841,0.00005311,-0.00010058,0.00010615,0.00008310,-0.00006466,0.0000
 7477,0.00101965,-0.00020601,0.00011058,0.00102214,0.00023230,-0.000610
 73,0.00001661,0.00000457,-0.00001116,-0.00010386,-0.00005106,0.0000393
 8,0.00000884,0.00002083,-0.00001339,-0.00002090,-0.00002038,-0.0000024
 6,-0.00007342,0.00010502,-0.00000005,-0.00001028,-0.00001419,-0.000006
 88,-0.00001502,0.00000123,0.00000649,-0.00002351,-0.00000260,-0.000022
 64,0.00000469,0.00001663,0.00002347,-0.00418675,-0.00230508,-0.0016174
 6,0.24530126,0.00159835,-0.00110558,-0.00211494,-0.02457611,-0.0133938
 0,-0.00596724,0.00004341,0.00001309,0.00009233,0.00185257,-0.00036348,
 0.00069021,0.01273944,0.00827088,0.00442666,0.00141101,0.00021734,-0.0
 0018868,0.00009083,-0.00006267,0.00002329,0.00000735,-0.00001907,-0.00
 000484,-0.00011948,0.00029179,-0.00022098,-0.00000310,0.00000933,-0.00
 000002,0.00000269,-0.00005086,-0.00003810,-0.12255634,-0.12934878,-0.0
 2960420,-0.00177625,-0.00653008,0.00183978,-0.00010464,0.00003634,0.00
 016226,0.00121055,-0.00100606,-0.00024946,-0.00045420,0.00174364,0.000
 43148,-0.00016436,0.00005744,-0.00006577,-0.00016223,0.00007650,-0.000
 05774,-0.00075284,0.00020550,0.00013106,-0.00061618,0.00060306,0.00062
 574,-0.00000432,-0.00000249,0.00000500,0.00003794,0.00001938,-0.000014
 45,-0.00000182,0.00000402,-0.00000262,-0.00000053,0.00000878,0.0000021
 2,0.00001087,-0.00002163,-0.00000266,0.00000278,0.00000201,0.00000194,
 -0.00000099,-0.00000137,-0.00000039,-0.00000446,0.00000697,0.00000581,
 0.00000719,0.00000558,0.00000824,0.00148067,0.00057115,-0.00019133,0.1
 3080222,0.13976304,0.00106273,-0.00184082,-0.00125635,0.00836698,0.005
 37405,0.00012644,0.00008520,0.00000788,0.00008684,-0.00067050,-0.00038
 135,-0.00099445,0.01479013,0.01061335,0.00383060,0.00146598,0.00009834
 ,-0.00011663,0.00009074,-0.00006286,0.00002452,0.00000680,-0.00001051,
 -0.00001095,-0.00017971,0.00034384,-0.00017657,-0.00000219,0.00000105,
 0.00000093,-0.00003042,-0.00003528,-0.00003028,-0.04659238,-0.03115009
 ,-0.05815050,0.00111902,0.00370839,-0.00073054,0.00031314,0.00009950,0
 .00013824,0.00006607,0.00020884,0.00025055,0.00057387,0.00001524,0.000
 73180,0.00006777,0.00002154,0.00018199,-0.00011472,0.00008387,0.000434
 19,-0.00075873,0.00049717,0.00055417,-0.00087838,0.00003405,0.00053638
 ,-0.00000518,-0.00000080,0.00000169,0.00003983,0.00001937,-0.00001668,
 -0.00000499,-0.00000578,0.00000370,0.00000597,0.00000739,0.00000083,0.
 00001732,-0.00003544,-0.00000099,0.00000349,0.00000457,0.00000262,0.00
 000452,-0.00000066,-0.00000239,0.00000662,0.00000060,0.00000828,0.0000
 0260,-0.00000420,-0.00000762,-0.02652402,-0.01788875,-0.00595070,0.047
 67242,0.03027749,0.06053087\\-0.00175509,-0.00490898,-0.00125031,0.000
 00522,0.00001047,-0.00001000,0.00196704,0.00473978,0.00001148,0.000006
 72,0.00001509,0.00000467,0.00000022,-0.00000023,-0.00000010,0.00345629
 ,0.00932539,0.00188773,0.00000530,0.00000148,0.00000152,0.00000147,0.0
 0000583,-0.00000049,-0.00366397,-0.00915293,-0.00064486,0.00000248,-0.
 00000601,-0.00000329,-0.00000066,-0.00000416,0.00000269,-0.00000278,-0
 .00000805,0.00000558,-0.00000580,-0.00001626,-0.00000886,0.00000481,0.
 00000191,-0.00000159,-0.00000028,0.00000040,0.00000011,-0.00000340,0.0
 0000054,0.00000201,0.00000158,-0.00000125,0.00000315,-0.00000330,0.000
 00001,-0.00000600,0.00000181,-0.00000291,0.00000206,-0.00000541,-0.000
 00101,0.00000073,-0.00000268,-0.00000687,0.00000209,-0.00000604,-0.000
 00157,0.00000522,0.00000166,-0.00000200,-0.00000094,-0.00000040,0.0000
 0154,0.00000181,0.00000470,-0.00000334,-0.00000151,-0.00000320,0.00000
 240,0.00000534,-0.00000313,0.00000520,-0.00000055,-0.00000237,0.000006
 60,0.00000242,-0.00000027,0.00000055,-0.00000141,-0.00000164,0.0000000
 9,-0.00000512,0.00000110,-0.00000173,-0.00000359\\\@


 TIME IS IN FACT THE HERO OF THE PLOT. THE TIME
 WITH WHICH WE HAVE TO DEAL IS OF THE ORDER OF TWO
 BILLION YEARS...GIVEN SO MUCH TIME, THE "IMPOSSIBLE"
 BECOMES POSSIBLE, THE POSSIBLE PROBABLE, THE PROBABLE
 VIRTUALLY CERTAIN.  ONE HAS ONLY TO WAIT, TIME
 ITSELF PERFORMS THE MIRACLES.
 "ORIGIN OF LIFE" LECTURES, GEORGE WALD, 1954
 Job cpu time:       0 days 16 hours  5 minutes 16.1 seconds.
 Elapsed time:       0 days  1 hours  0 minutes 21.4 seconds.
 File lengths (MBytes):  RWF=    686 Int=      0 D2E=      0 Chk=     33 Scr=      1
 Normal termination of Gaussian 16 at Sun Nov  4 23:04:32 2018.
