 Entering Gaussian System, Link 0=g16
 Initial command:
 /apps/gaussian/g16a03/g16/l1.exe "/jobfs/local/2011999.r-man2/Gau-3654.inp" -scrdir="/jobfs/local/2011999.r-man2/"
 Entering Link 1 = /apps/gaussian/g16a03/g16/l1.exe PID=      3655.
  
 Copyright (c) 1988,1990,1992,1993,1995,1998,2003,2009,2016,
            Gaussian, Inc.  All Rights Reserved.
  
 This is part of the Gaussian(R) 16 program.  It is based on
 the Gaussian(R) 09 system (copyright 2009, Gaussian, Inc.),
 the Gaussian(R) 03 system (copyright 2003, Gaussian, Inc.),
 the Gaussian(R) 98 system (copyright 1998, Gaussian, Inc.),
 the Gaussian(R) 94 system (copyright 1995, Gaussian, Inc.),
 the Gaussian 92(TM) system (copyright 1992, Gaussian, Inc.),
 the Gaussian 90(TM) system (copyright 1990, Gaussian, Inc.),
 the Gaussian 88(TM) system (copyright 1988, Gaussian, Inc.),
 the Gaussian 86(TM) system (copyright 1986, Carnegie Mellon
 University), and the Gaussian 82(TM) system (copyright 1983,
 Carnegie Mellon University). Gaussian is a federally registered
 trademark of Gaussian, Inc.
  
 This software contains proprietary and confidential information,
 including trade secrets, belonging to Gaussian, Inc.
  
 This software is provided under written license and may be
 used, copied, transmitted, or stored only in accord with that
 written license.
  
 The following legend is applicable only to US Government
 contracts under FAR:
  
                    RESTRICTED RIGHTS LEGEND
  
 Use, reproduction and disclosure by the US Government is
 subject to restrictions as set forth in subparagraphs (a)
 and (c) of the Commercial Computer Software - Restricted
 Rights clause in FAR 52.227-19.
  
 Gaussian, Inc.
 340 Quinnipiac St., Bldg. 40, Wallingford CT 06492
  
  
 ---------------------------------------------------------------
 Warning -- This program may not be used in any manner that
 competes with the business of Gaussian, Inc. or will provide
 assistance to any competitor of Gaussian, Inc.  The licensee
 of this program is prohibited from giving any competitor of
 Gaussian, Inc. access to this program.  By using this program,
 the user acknowledges that Gaussian, Inc. is engaged in the
 business of creating and licensing software in the field of
 computational chemistry and represents and warrants to the
 licensee that it is not a competitor of Gaussian, Inc. and that
 it will not use this program in any manner prohibited above.
 ---------------------------------------------------------------
  

 Cite this work as:
 Gaussian 16, Revision A.03,
 M. J. Frisch, G. W. Trucks, H. B. Schlegel, G. E. Scuseria, 
 M. A. Robb, J. R. Cheeseman, G. Scalmani, V. Barone, 
 G. A. Petersson, H. Nakatsuji, X. Li, M. Caricato, A. V. Marenich, 
 J. Bloino, B. G. Janesko, R. Gomperts, B. Mennucci, H. P. Hratchian, 
 J. V. Ortiz, A. F. Izmaylov, J. L. Sonnenberg, D. Williams-Young, 
 F. Ding, F. Lipparini, F. Egidi, J. Goings, B. Peng, A. Petrone, 
 T. Henderson, D. Ranasinghe, V. G. Zakrzewski, J. Gao, N. Rega, 
 G. Zheng, W. Liang, M. Hada, M. Ehara, K. Toyota, R. Fukuda, 
 J. Hasegawa, M. Ishida, T. Nakajima, Y. Honda, O. Kitao, H. Nakai, 
 T. Vreven, K. Throssell, J. A. Montgomery, Jr., J. E. Peralta, 
 F. Ogliaro, M. J. Bearpark, J. J. Heyd, E. N. Brothers, K. N. Kudin, 
 V. N. Staroverov, T. A. Keith, R. Kobayashi, J. Normand, 
 K. Raghavachari, A. P. Rendell, J. C. Burant, S. S. Iyengar, 
 J. Tomasi, M. Cossi, J. M. Millam, M. Klene, C. Adamo, R. Cammi, 
 J. W. Ochterski, R. L. Martin, K. Morokuma, O. Farkas, 
 J. B. Foresman, and D. J. Fox, Gaussian, Inc., Wallingford CT, 2016.
 
 ******************************************
 Gaussian 16:  ES64L-G16RevA.03 25-Dec-2016
                 4-Nov-2018 
 ******************************************
 %mem=6000mb
 %nproc=24
 Will use up to   24 processors via shared memory.
 %chk=D_a1-4_2SO_PHI.inp_extract_23.chk
 ----------------------------------------------------------------------
 #M062X/6-311++G(2d,2p) opt=ModRedundant freq=noraman SCRF=(Solvent=Wat
 er)
 ----------------------------------------------------------------------
 1/18=120,19=15,26=3,38=1/1,3;
 2/9=110,12=2,17=6,18=5,40=1/2;
 3/5=4,6=6,7=1212,11=2,25=1,30=1,70=2201,71=1,72=1,74=-55/1,2,3;
 4//1;
 5/5=2,38=5,53=1/2;
 6/7=2,8=2,9=2,10=2,28=1/1;
 7//1,2,3,16;
 1/18=20,19=15,26=3/3(2);
 2/9=110/2;
 99//99;
 2/9=110/2;
 3/5=4,6=6,7=1212,11=2,25=1,30=1,70=2205,71=1,72=1,74=-55/1,2,3;
 4/5=5,16=3,69=1/1;
 5/5=2,38=5,53=1/2;
 7//1,2,3,16;
 1/18=20,19=15,26=3/3(-5);
 2/9=110/2;
 6/7=2,8=2,9=2,10=2,19=2,28=1/1;
 99/9=1/99;
 -----------------------------
 D_a1-4_2SO_PHI.inp_extract_23
 -----------------------------
 Symbolic Z-matrix:
 Charge =  0 Multiplicity = 1
 C                     0.94656   0.22555  -0.39202 
 C                     3.79283  -0.41277   0.14129 
 O                    -1.71268   1.28114  -0.28828 
 C                     1.77355  -0.91463  -0.98132 
 C                     1.81147   1.05876   0.56563 
 O                    -0.16983  -0.35607   0.26701 
 C                    -2.21912  -0.31997   1.45329 
 C                    -3.06159  -1.13163   0.46802 
 C                    -1.15934   0.50927   0.74496 
 C                    -3.59814  -0.21336  -0.63023 
 C                    -2.45954   0.56725  -1.26515 
 C                     3.26817   1.02583   0.1046 
 O                     2.75328  -1.35781  -0.06883 
 H                     0.58649   0.84023  -1.20728 
 H                     4.56726  -0.56482  -0.60465 
 H                     4.2062   -0.64491   1.11379 
 H                     1.14124  -1.76089  -1.20807 
 H                     2.25214  -0.59183  -1.90064 
 H                     1.73887   0.63405   1.56271 
 H                     1.45185   2.07983   0.62137 
 H                    -1.7352   -0.95879   2.18429 
 H                    -2.85978   0.36937   1.99638 
 H                    -2.46089  -1.92058   0.0237 
 H                    -3.87896  -1.61452   0.99473 
 H                    -0.72259   1.22894   1.42196 
 H                    -4.10978  -0.78308  -1.40075 
 H                    -4.31766   0.48447  -0.20816 
 H                    -2.82733   1.31617  -1.95286 
 H                    -1.79758  -0.09673  -1.81102 
 H                     3.34206   1.4316   -0.90017 
 H                     3.88842   1.64766   0.74101 
 
 The following ModRedundant input section has been read:
 D       1       6       9       3 F                                           
 

 GradGradGradGradGradGradGradGradGradGradGradGradGradGradGradGradGradGrad
 Berny optimization.
 Initialization pass.
                           ----------------------------
                           !    Initial Parameters    !
                           ! (Angstroms and Degrees)  !
 --------------------------                            --------------------------
 ! Name  Definition              Value          Derivative Info.                !
 --------------------------------------------------------------------------------
 ! R1    R(1,4)                  1.5268         estimate D2E/DX2                !
 ! R2    R(1,5)                  1.536          estimate D2E/DX2                !
 ! R3    R(1,6)                  1.4209         estimate D2E/DX2                !
 ! R4    R(1,14)                 1.0827         estimate D2E/DX2                !
 ! R5    R(2,12)                 1.5317         estimate D2E/DX2                !
 ! R6    R(2,13)                 1.4205         estimate D2E/DX2                !
 ! R7    R(2,15)                 1.086          estimate D2E/DX2                !
 ! R8    R(2,16)                 1.0819         estimate D2E/DX2                !
 ! R9    R(3,9)                  1.4034         estimate D2E/DX2                !
 ! R10   R(3,11)                 1.4219         estimate D2E/DX2                !
 ! R11   R(4,13)                 1.4103         estimate D2E/DX2                !
 ! R12   R(4,17)                 1.0805         estimate D2E/DX2                !
 ! R13   R(4,18)                 1.0855         estimate D2E/DX2                !
 ! R14   R(5,12)                 1.5283         estimate D2E/DX2                !
 ! R15   R(5,19)                 1.0862         estimate D2E/DX2                !
 ! R16   R(5,20)                 1.084          estimate D2E/DX2                !
 ! R17   R(6,9)                  1.3987         estimate D2E/DX2                !
 ! R18   R(7,8)                  1.5295         estimate D2E/DX2                !
 ! R19   R(7,9)                  1.5207         estimate D2E/DX2                !
 ! R20   R(7,21)                 1.0847         estimate D2E/DX2                !
 ! R21   R(7,22)                 1.0865         estimate D2E/DX2                !
 ! R22   R(8,10)                 1.5288         estimate D2E/DX2                !
 ! R23   R(8,23)                 1.0866         estimate D2E/DX2                !
 ! R24   R(8,24)                 1.0857         estimate D2E/DX2                !
 ! R25   R(9,25)                 1.0803         estimate D2E/DX2                !
 ! R26   R(10,11)                1.5195         estimate D2E/DX2                !
 ! R27   R(10,26)                1.0863         estimate D2E/DX2                !
 ! R28   R(10,27)                1.0876         estimate D2E/DX2                !
 ! R29   R(11,28)                1.0812         estimate D2E/DX2                !
 ! R30   R(11,29)                1.0849         estimate D2E/DX2                !
 ! R31   R(12,30)                1.0861         estimate D2E/DX2                !
 ! R32   R(12,31)                1.0846         estimate D2E/DX2                !
 ! A1    A(4,1,5)              109.9211         estimate D2E/DX2                !
 ! A2    A(4,1,6)              107.392          estimate D2E/DX2                !
 ! A3    A(4,1,14)             108.2694         estimate D2E/DX2                !
 ! A4    A(5,1,6)              112.0419         estimate D2E/DX2                !
 ! A5    A(5,1,14)             110.4118         estimate D2E/DX2                !
 ! A6    A(6,1,14)             108.6841         estimate D2E/DX2                !
 ! A7    A(12,2,13)            111.7537         estimate D2E/DX2                !
 ! A8    A(12,2,15)            111.0579         estimate D2E/DX2                !
 ! A9    A(12,2,16)            110.7274         estimate D2E/DX2                !
 ! A10   A(13,2,15)            109.0946         estimate D2E/DX2                !
 ! A11   A(13,2,16)            105.6537         estimate D2E/DX2                !
 ! A12   A(15,2,16)            108.3562         estimate D2E/DX2                !
 ! A13   A(9,3,11)             115.8983         estimate D2E/DX2                !
 ! A14   A(1,4,13)             111.1749         estimate D2E/DX2                !
 ! A15   A(1,4,17)             110.4209         estimate D2E/DX2                !
 ! A16   A(1,4,18)             110.0966         estimate D2E/DX2                !
 ! A17   A(13,4,17)            107.2302         estimate D2E/DX2                !
 ! A18   A(13,4,18)            109.5801         estimate D2E/DX2                !
 ! A19   A(17,4,18)            108.2514         estimate D2E/DX2                !
 ! A20   A(1,5,12)             109.6909         estimate D2E/DX2                !
 ! A21   A(1,5,19)             108.8183         estimate D2E/DX2                !
 ! A22   A(1,5,20)             110.8682         estimate D2E/DX2                !
 ! A23   A(12,5,19)            109.4024         estimate D2E/DX2                !
 ! A24   A(12,5,20)            110.6113         estimate D2E/DX2                !
 ! A25   A(19,5,20)            107.3939         estimate D2E/DX2                !
 ! A26   A(1,6,9)              117.4572         estimate D2E/DX2                !
 ! A27   A(8,7,9)              111.9126         estimate D2E/DX2                !
 ! A28   A(8,7,21)             111.5508         estimate D2E/DX2                !
 ! A29   A(8,7,22)             109.5045         estimate D2E/DX2                !
 ! A30   A(9,7,21)             108.9136         estimate D2E/DX2                !
 ! A31   A(9,7,22)             107.3244         estimate D2E/DX2                !
 ! A32   A(21,7,22)            107.4477         estimate D2E/DX2                !
 ! A33   A(7,8,10)             109.7143         estimate D2E/DX2                !
 ! A34   A(7,8,23)             110.134          estimate D2E/DX2                !
 ! A35   A(7,8,24)             109.7679         estimate D2E/DX2                !
 ! A36   A(10,8,23)            109.6568         estimate D2E/DX2                !
 ! A37   A(10,8,24)            110.5754         estimate D2E/DX2                !
 ! A38   A(23,8,24)            106.9558         estimate D2E/DX2                !
 ! A39   A(3,9,6)              111.5694         estimate D2E/DX2                !
 ! A40   A(3,9,7)              111.5971         estimate D2E/DX2                !
 ! A41   A(3,9,25)             104.7382         estimate D2E/DX2                !
 ! A42   A(6,9,7)              108.35           estimate D2E/DX2                !
 ! A43   A(6,9,25)             109.8937         estimate D2E/DX2                !
 ! A44   A(7,9,25)             110.678          estimate D2E/DX2                !
 ! A45   A(8,10,11)            110.2278         estimate D2E/DX2                !
 ! A46   A(8,10,26)            111.0898         estimate D2E/DX2                !
 ! A47   A(8,10,27)            109.8038         estimate D2E/DX2                !
 ! A48   A(11,10,26)           109.024          estimate D2E/DX2                !
 ! A49   A(11,10,27)           109.1644         estimate D2E/DX2                !
 ! A50   A(26,10,27)           107.4683         estimate D2E/DX2                !
 ! A51   A(3,11,10)            111.3734         estimate D2E/DX2                !
 ! A52   A(3,11,28)            105.5383         estimate D2E/DX2                !
 ! A53   A(3,11,29)            109.4188         estimate D2E/DX2                !
 ! A54   A(10,11,28)           111.5124         estimate D2E/DX2                !
 ! A55   A(10,11,29)           110.6731         estimate D2E/DX2                !
 ! A56   A(28,11,29)           108.1462         estimate D2E/DX2                !
 ! A57   A(2,12,5)             109.8462         estimate D2E/DX2                !
 ! A58   A(2,12,30)            110.4707         estimate D2E/DX2                !
 ! A59   A(2,12,31)            109.179          estimate D2E/DX2                !
 ! A60   A(5,12,30)            109.6255         estimate D2E/DX2                !
 ! A61   A(5,12,31)            110.8381         estimate D2E/DX2                !
 ! A62   A(30,12,31)           106.8412         estimate D2E/DX2                !
 ! A63   A(2,13,4)             113.2676         estimate D2E/DX2                !
 ! D1    D(5,1,4,13)            31.5404         estimate D2E/DX2                !
 ! D2    D(5,1,4,17)           150.434          estimate D2E/DX2                !
 ! D3    D(5,1,4,18)           -90.0889         estimate D2E/DX2                !
 ! D4    D(6,1,4,13)           -90.5875         estimate D2E/DX2                !
 ! D5    D(6,1,4,17)            28.3061         estimate D2E/DX2                !
 ! D6    D(6,1,4,18)           147.7832         estimate D2E/DX2                !
 ! D7    D(14,1,4,13)          152.2239         estimate D2E/DX2                !
 ! D8    D(14,1,4,17)          -88.8825         estimate D2E/DX2                !
 ! D9    D(14,1,4,18)           30.5946         estimate D2E/DX2                !
 ! D10   D(4,1,5,12)            30.3849         estimate D2E/DX2                !
 ! D11   D(4,1,5,19)           -89.2662         estimate D2E/DX2                !
 ! D12   D(4,1,5,20)           152.8352         estimate D2E/DX2                !
 ! D13   D(6,1,5,12)           149.708          estimate D2E/DX2                !
 ! D14   D(6,1,5,19)            30.057          estimate D2E/DX2                !
 ! D15   D(6,1,5,20)           -87.8416         estimate D2E/DX2                !
 ! D16   D(14,1,5,12)          -88.9978         estimate D2E/DX2                !
 ! D17   D(14,1,5,19)          151.3512         estimate D2E/DX2                !
 ! D18   D(14,1,5,20)           33.4526         estimate D2E/DX2                !
 ! D19   D(4,1,6,9)           -172.3489         estimate D2E/DX2                !
 ! D20   D(5,1,6,9)             66.8524         estimate D2E/DX2                !
 ! D21   D(14,1,6,9)           -55.4317         estimate D2E/DX2                !
 ! D22   D(13,2,12,5)           28.9573         estimate D2E/DX2                !
 ! D23   D(13,2,12,30)         -92.0993         estimate D2E/DX2                !
 ! D24   D(13,2,12,31)         150.69           estimate D2E/DX2                !
 ! D25   D(15,2,12,5)          151.0341         estimate D2E/DX2                !
 ! D26   D(15,2,12,30)          29.9775         estimate D2E/DX2                !
 ! D27   D(15,2,12,31)         -87.2333         estimate D2E/DX2                !
 ! D28   D(16,2,12,5)          -88.5341         estimate D2E/DX2                !
 ! D29   D(16,2,12,30)         150.4093         estimate D2E/DX2                !
 ! D30   D(16,2,12,31)          33.1985         estimate D2E/DX2                !
 ! D31   D(12,2,13,4)           35.4588         estimate D2E/DX2                !
 ! D32   D(15,2,13,4)          -87.7384         estimate D2E/DX2                !
 ! D33   D(16,2,13,4)          155.9597         estimate D2E/DX2                !
 ! D34   D(11,3,9,6)            66.4419         estimate D2E/DX2                !
 ! D35   D(11,3,9,7)           -54.9292         estimate D2E/DX2                !
 ! D36   D(11,3,9,25)         -174.72           estimate D2E/DX2                !
 ! D37   D(9,3,11,10)           57.1894         estimate D2E/DX2                !
 ! D38   D(9,3,11,28)          178.3567         estimate D2E/DX2                !
 ! D39   D(9,3,11,29)          -65.4901         estimate D2E/DX2                !
 ! D40   D(1,4,13,2)           -69.4855         estimate D2E/DX2                !
 ! D41   D(17,4,13,2)          169.7244         estimate D2E/DX2                !
 ! D42   D(18,4,13,2)           52.4445         estimate D2E/DX2                !
 ! D43   D(1,5,12,2)           -61.9788         estimate D2E/DX2                !
 ! D44   D(1,5,12,30)           59.5849         estimate D2E/DX2                !
 ! D45   D(1,5,12,31)          177.2848         estimate D2E/DX2                !
 ! D46   D(19,5,12,2)           57.314          estimate D2E/DX2                !
 ! D47   D(19,5,12,30)         178.8777         estimate D2E/DX2                !
 ! D48   D(19,5,12,31)         -63.4223         estimate D2E/DX2                !
 ! D49   D(20,5,12,2)          175.4183         estimate D2E/DX2                !
 ! D50   D(20,5,12,30)         -63.018          estimate D2E/DX2                !
 ! D51   D(20,5,12,31)          54.6819         estimate D2E/DX2                !
 ! D52   D(1,6,9,3)             58.8938         Frozen                          !
 ! D53   D(1,6,9,7)           -177.8682         estimate D2E/DX2                !
 ! D54   D(1,6,9,25)           -56.826          estimate D2E/DX2                !
 ! D55   D(9,7,8,10)           -51.5199         estimate D2E/DX2                !
 ! D56   D(9,7,8,23)            69.2745         estimate D2E/DX2                !
 ! D57   D(9,7,8,24)          -173.2205         estimate D2E/DX2                !
 ! D58   D(21,7,8,10)         -173.8304         estimate D2E/DX2                !
 ! D59   D(21,7,8,23)          -53.0359         estimate D2E/DX2                !
 ! D60   D(21,7,8,24)           64.469          estimate D2E/DX2                !
 ! D61   D(22,7,8,10)           67.361          estimate D2E/DX2                !
 ! D62   D(22,7,8,23)         -171.8445         estimate D2E/DX2                !
 ! D63   D(22,7,8,24)          -54.3396         estimate D2E/DX2                !
 ! D64   D(8,7,9,3)             51.5044         estimate D2E/DX2                !
 ! D65   D(8,7,9,6)            -71.7168         estimate D2E/DX2                !
 ! D66   D(8,7,9,25)           167.7272         estimate D2E/DX2                !
 ! D67   D(21,7,9,3)           175.3085         estimate D2E/DX2                !
 ! D68   D(21,7,9,6)            52.0872         estimate D2E/DX2                !
 ! D69   D(21,7,9,25)          -68.4687         estimate D2E/DX2                !
 ! D70   D(22,7,9,3)           -68.6584         estimate D2E/DX2                !
 ! D71   D(22,7,9,6)           168.1204         estimate D2E/DX2                !
 ! D72   D(22,7,9,25)           47.5645         estimate D2E/DX2                !
 ! D73   D(7,8,10,11)           52.9005         estimate D2E/DX2                !
 ! D74   D(7,8,10,26)          173.8604         estimate D2E/DX2                !
 ! D75   D(7,8,10,27)          -67.4001         estimate D2E/DX2                !
 ! D76   D(23,8,10,11)         -68.1821         estimate D2E/DX2                !
 ! D77   D(23,8,10,26)          52.7779         estimate D2E/DX2                !
 ! D78   D(23,8,10,27)         171.5173         estimate D2E/DX2                !
 ! D79   D(24,8,10,11)         174.1162         estimate D2E/DX2                !
 ! D80   D(24,8,10,26)         -64.9239         estimate D2E/DX2                !
 ! D81   D(24,8,10,27)          53.8156         estimate D2E/DX2                !
 ! D82   D(8,10,11,3)          -54.909          estimate D2E/DX2                !
 ! D83   D(8,10,11,28)        -172.5198         estimate D2E/DX2                !
 ! D84   D(8,10,11,29)          67.0471         estimate D2E/DX2                !
 ! D85   D(26,10,11,3)        -177.0961         estimate D2E/DX2                !
 ! D86   D(26,10,11,28)         65.293          estimate D2E/DX2                !
 ! D87   D(26,10,11,29)        -55.1401         estimate D2E/DX2                !
 ! D88   D(27,10,11,3)          65.7758         estimate D2E/DX2                !
 ! D89   D(27,10,11,28)        -51.8351         estimate D2E/DX2                !
 ! D90   D(27,10,11,29)       -172.2681         estimate D2E/DX2                !
 --------------------------------------------------------------------------------
 Trust Radius=3.00D-01 FncErr=1.00D-07 GrdErr=1.00D-06 EigMax=2.50D+02 EigMin=1.00D-04
 Number of steps in this run=    186 maximum allowed number of steps=    186.
 GradGradGradGradGradGradGradGradGradGradGradGradGradGradGradGradGradGrad

                          Input orientation:                          
 ---------------------------------------------------------------------
 Center     Atomic      Atomic             Coordinates (Angstroms)
 Number     Number       Type             X           Y           Z
 ---------------------------------------------------------------------
      1          6           0        0.946563    0.225547   -0.392017
      2          6           0        3.792826   -0.412773    0.141290
      3          8           0       -1.712679    1.281141   -0.288280
      4          6           0        1.773552   -0.914630   -0.981317
      5          6           0        1.811468    1.058761    0.565628
      6          8           0       -0.169833   -0.356070    0.267011
      7          6           0       -2.219117   -0.319970    1.453288
      8          6           0       -3.061585   -1.131630    0.468020
      9          6           0       -1.159343    0.509271    0.744955
     10          6           0       -3.598137   -0.213358   -0.630226
     11          6           0       -2.459536    0.567245   -1.265154
     12          6           0        3.268165    1.025834    0.104600
     13          8           0        2.753276   -1.357810   -0.068825
     14          1           0        0.586489    0.840233   -1.207275
     15          1           0        4.567255   -0.564815   -0.604653
     16          1           0        4.206202   -0.644908    1.113786
     17          1           0        1.141236   -1.760893   -1.208066
     18          1           0        2.252137   -0.591834   -1.900640
     19          1           0        1.738869    0.634049    1.562707
     20          1           0        1.451852    2.079827    0.621368
     21          1           0       -1.735196   -0.958791    2.184293
     22          1           0       -2.859781    0.369365    1.996381
     23          1           0       -2.460889   -1.920578    0.023702
     24          1           0       -3.878955   -1.614523    0.994727
     25          1           0       -0.722590    1.228935    1.421962
     26          1           0       -4.109781   -0.783079   -1.400753
     27          1           0       -4.317656    0.484467   -0.208158
     28          1           0       -2.827334    1.316165   -1.952856
     29          1           0       -1.797583   -0.096731   -1.811020
     30          1           0        3.342058    1.431595   -0.900171
     31          1           0        3.888420    1.647656    0.741005
 ---------------------------------------------------------------------
                    Distance matrix (angstroms):
                    1          2          3          4          5
     1  C    0.000000
     2  C    2.965313   0.000000
     3  O    2.862972   5.776198   0.000000
     4  C    1.526823   2.364228   4.177980   0.000000
     5  C    1.536031   2.504247   3.632936   2.507738   0.000000
     6  O    1.420893   3.965058   2.317149   2.376354   2.452850
     7  C    3.704628   6.154138   2.419317   4.714056   4.351374
     8  C    4.318199   6.899743   2.865833   5.052348   5.343593
     9  C    2.409989   5.073318   1.403403   3.689090   3.026519
    10  C    4.572054   7.433797   2.430104   5.428636   5.684380
    11  C    3.532794   6.483097   1.421874   4.493946   4.672775
    12  C    2.505379   1.531733   5.002834   2.679269   1.528266
    13  O    2.423981   1.420531   5.192011   1.410287   2.670084
    14  H    1.082653   3.697195   2.514980   2.130662   2.165990
    15  H    3.712048   1.085950   6.553260   2.840603   3.405865
    16  H    3.694642   1.081903   6.380330   3.221800   2.989601
    17  H    2.156334   3.266362   4.271394   1.080463   3.397889
    18  H    2.156056   2.564228   4.671992   1.085539   3.000188
    19  H    2.148387   2.708321   3.969643   2.978534   1.086194
    20  H    2.172699   3.453069   3.388158   3.411578   1.083977
    21  H    3.902802   5.918701   3.336378   4.725923   4.389695
    22  H    4.495930   6.950560   2.714195   5.655361   4.933851
    23  H    4.048383   6.433992   3.302750   4.466820   5.236715
    24  H    5.347386   7.812092   3.837151   6.028718   6.301705
    25  H    2.661462   4.972354   1.976848   4.074475   2.680246
    26  H    5.253712   8.060163   3.353312   5.899732   6.505399
    27  H    5.273789   8.167440   2.725255   6.297465   6.204411
    28  H    4.227052   7.155501   2.003621   5.204660   5.284648
    29  H    3.106086   5.929930   2.055353   3.756377   4.473127
    30  H    2.729683   2.165531   5.093860   2.823396   2.151808
    31  H    3.458418   2.148061   5.706669   3.742241   2.165937
                    6          7          8          9         10
     6  O    0.000000
     7  C    2.368147   0.000000
     8  C    3.000688   1.529476   0.000000
     9  C    1.398705   1.520690   2.527405   0.000000
    10  C    3.546642   2.500818   1.528809   2.891545   0.000000
    11  C    2.905646   2.869648   2.500506   2.394661   1.519502
    12  C    3.708890   5.808650   6.697198   4.503301   7.015816
    13  O    3.108188   5.302700   5.843969   4.410988   6.478070
    14  H    2.043693   4.036842   4.472505   2.639823   4.353635
    15  H    4.821138   7.095767   7.724708   5.980721   8.172992
    16  H    4.466558   6.442482   7.312636   5.500658   8.008466
    17  H    2.422454   4.522282   4.568254   3.776321   5.019006
    18  H    3.258870   5.595968   5.842737   4.455312   5.998575
    19  H    2.510440   4.072810   5.230709   3.013954   5.831868
    20  H    2.947715   4.463981   5.541488   3.049633   5.685734
    21  H    2.547470   1.084730   2.175954   2.135066   3.456550
    22  H    3.279146   1.086546   2.151650   2.115923   2.789946
    23  H    2.784928   2.159656   1.086597   2.849280   2.153034
    24  H    3.983825   2.154346   1.085679   3.459650   2.163930
    25  H    2.037570   2.153992   3.457336   1.080281   3.815816
    26  H    4.299647   3.454653   2.170833   3.870312   1.086312
    27  H    4.258723   2.794886   2.155621   3.299088   1.087570
    28  H    3.845321   3.827360   3.450683   3.272836   2.164007
    29  H    2.652365   3.298975   2.804058   2.703257   2.156356
    30  H    4.109920   6.287560   7.031978   4.880546   7.137580
    31  H    4.550715   6.456075   7.490095   5.174538   7.835316
                   11         12         13         14         15
    11  C    0.000000
    12  C    5.907037   0.000000
    13  O    5.684228   2.444779   0.000000
    14  H    3.058781   2.991129   3.289746   0.000000
    15  H    7.147980   2.172749   2.050969   4.264248   0.000000
    16  H    7.180580   2.165583   2.004443   4.549208   1.757785
    17  H    4.288245   3.743363   2.014701   2.659624   3.678630
    18  H    4.893584   2.769504   2.047781   2.303466   2.653316
    19  H    5.062397   2.149027   2.767385   3.007207   3.759587
    20  H    4.598459   2.162624   3.739976   2.372632   4.266497
    21  H    3.840851   5.770397   5.038069   4.486585   6.903211
    22  H    3.291954   6.446822   6.225321   4.728838   7.924578
    23  H    2.801859   6.442821   5.245263   4.292306   7.185244
    24  H    3.447017   7.671058   6.721870   5.551111   8.660160
    25  H    3.267324   4.207472   4.582067   2.962712   5.941983
    26  H    2.136603   7.744181   7.014692   4.972678   8.716213
    27  H    2.139323   7.611542   7.308316   5.017514   8.955437
    28  H    1.081245   6.439917   6.468611   3.526555   7.748270
    29  H    1.084903   5.530963   5.033476   2.631769   6.495043
    30  H    5.876973   1.086125   2.969610   2.834992   2.360951
    31  H    6.744517   1.084615   3.313186   3.917968   2.677058
                   16         17         18         19         20
    16  H    0.000000
    17  H    4.003803   0.000000
    18  H    3.592764   1.755124   0.000000
    19  H    2.815136   3.710808   3.709583   0.000000
    20  H    3.905522   4.265494   3.760153   1.748935   0.000000
    21  H    6.045223   4.519439   5.720154   3.872033   4.672602
    22  H    7.192763   5.551091   6.499414   4.626631   4.838029
    23  H    6.875007   3.810257   5.261299   5.150983   5.627609
    24  H    8.143960   5.484163   6.857064   6.077715   6.496547
    25  H    5.281974   4.396586   4.817041   2.536233   2.468434
    26  H    8.688934   5.344757   6.384392   6.707984   6.573961
    27  H    8.699378   5.986732   6.869141   6.311880   6.043220
    28  H    7.919642   5.076667   5.426252   5.802988   5.051855
    29  H    6.700778   3.430692   4.080857   4.941919   4.605729
    30  H    3.019045   3.889781   2.506617   3.045006   2.511606
    31  H    2.344312   4.792088   3.830278   2.514590   2.477488
                   21         22         23         24         25
    21  H    0.000000
    22  H    1.750429   0.000000
    23  H    2.473827   3.048675   0.000000
    24  H    2.537864   2.444962   1.745701   0.000000
    25  H    2.528372   2.374111   3.859566   4.269710   0.000000
    26  H    4.303729   3.798835   2.458012   2.546155   4.846543
    27  H    3.804723   2.645494   3.047226   2.458689   4.016967
    28  H    4.846049   4.061275   3.810193   4.287550   3.978310
    29  H    4.087734   3.980177   2.670692   3.808939   3.655841
    30  H    6.403622   6.926843   6.764969   8.063033   4.685588
    31  H    6.364095   6.981992   7.318507   8.428422   4.679791
                   26         27         28         29         30
    26  H    0.000000
    27  H    1.752760   0.000000
    28  H    2.521173   2.440646   0.000000
    29  H    2.446559   3.042651   1.754075   0.000000
    30  H    7.790075   7.749010   6.259622   5.438873   0.000000
    31  H    8.629416   8.342278   7.243488   6.471966   1.743173
                   31
    31  H    0.000000
 Stoichiometry    C10H18O3
 Framework group  C1[X(C10H18O3)]
 Deg. of freedom    87
 Full point group                 C1      NOp   1
 Largest Abelian subgroup         C1      NOp   1
 Largest concise Abelian subgroup C1      NOp   1
                         Standard orientation:                         
 ---------------------------------------------------------------------
 Center     Atomic      Atomic             Coordinates (Angstroms)
 Number     Number       Type             X           Y           Z
 ---------------------------------------------------------------------
      1          6           0        0.946563    0.225547   -0.392017
      2          6           0        3.792826   -0.412773    0.141290
      3          8           0       -1.712679    1.281141   -0.288280
      4          6           0        1.773552   -0.914630   -0.981317
      5          6           0        1.811468    1.058761    0.565628
      6          8           0       -0.169833   -0.356070    0.267011
      7          6           0       -2.219117   -0.319970    1.453288
      8          6           0       -3.061585   -1.131630    0.468020
      9          6           0       -1.159343    0.509271    0.744955
     10          6           0       -3.598137   -0.213358   -0.630226
     11          6           0       -2.459536    0.567245   -1.265154
     12          6           0        3.268165    1.025834    0.104600
     13          8           0        2.753276   -1.357810   -0.068825
     14          1           0        0.586489    0.840233   -1.207275
     15          1           0        4.567255   -0.564815   -0.604653
     16          1           0        4.206202   -0.644908    1.113786
     17          1           0        1.141236   -1.760893   -1.208066
     18          1           0        2.252137   -0.591834   -1.900640
     19          1           0        1.738869    0.634049    1.562707
     20          1           0        1.451852    2.079827    0.621368
     21          1           0       -1.735196   -0.958791    2.184293
     22          1           0       -2.859781    0.369365    1.996381
     23          1           0       -2.460889   -1.920578    0.023702
     24          1           0       -3.878955   -1.614523    0.994727
     25          1           0       -0.722590    1.228935    1.421962
     26          1           0       -4.109781   -0.783079   -1.400753
     27          1           0       -4.317656    0.484467   -0.208158
     28          1           0       -2.827334    1.316165   -1.952856
     29          1           0       -1.797583   -0.096731   -1.811020
     30          1           0        3.342058    1.431595   -0.900171
     31          1           0        3.888420    1.647656    0.741005
 ---------------------------------------------------------------------
 Rotational constants (GHZ):           1.9538243           0.4066398           0.3957014
 Standard basis: 6-311++G(2d,2p) (5D, 7F)
 There are   557 symmetry adapted cartesian basis functions of A   symmetry.
 There are   531 symmetry adapted basis functions of A   symmetry.
   531 basis functions,   762 primitive gaussians,   557 cartesian basis functions
    51 alpha electrons       51 beta electrons
       nuclear repulsion energy       896.5809401505 Hartrees.
 NAtoms=   31 NActive=   31 NUniq=   31 SFac= 1.00D+00 NAtFMM=   60 NAOKFM=F Big=F
 Integral buffers will be    131072 words long.
 Raffenetti 2 integral format.
 Two-electron integral symmetry is turned on.
 ------------------------------------------------------------------------------
 Polarizable Continuum Model (PCM)
 =================================
 Model                : PCM.
 Atomic radii         : UFF (Universal Force Field).
 Polarization charges : Total charges.
 Charge compensation  : None.
 Solution method      : On-the-fly selection.
 Cavity type          : Scaled VdW (van der Waals Surface) (Alpha=1.100).
 Cavity algorithm     : GePol (No added spheres)
                        Default sphere list used, NSphG=   31.
                        Lebedev-Laikov grids with approx.  5.0 points / Ang**2.
                        Smoothing algorithm: York/Karplus (Gamma=1.0000).
                        Polarization charges: spherical gaussians, with
                                              point-specific exponents (IZeta= 3).
                        Self-potential: point-specific (ISelfS= 7).
                        Self-field    : sphere-specific E.n sum rule (ISelfD= 2).
 1st derivatives      : Analytical E(r).r(x)/FMM algorithm (CHGder, D1EAlg=3).
                        Cavity 1st derivative terms included.
 Solvent              : Water, Eps=  78.355300 Eps(inf)=   1.777849
 ------------------------------------------------------------------------------
 One-electron integrals computed using PRISM.
 NBasis=   531 RedAO= T EigKep=  4.42D-06  NBF=   531
 NBsUse=   531 1.00D-06 EigRej= -1.00D+00 NBFU=   531
 ExpMin= 3.60D-02 ExpMax= 8.59D+03 ExpMxC= 1.30D+03 IAcc=3 IRadAn=         5 AccDes= 0.00D+00
 Harris functional with IExCor= 1009 and IRadAn=       5 diagonalized for initial guess.
 HarFok:  IExCor= 1009 AccDes= 0.00D+00 IRadAn=         5 IDoV= 1 UseB2=F ITyADJ=14
 ICtDFT=  3500011 ScaDFX=  1.000000  1.000000  1.000000  1.000000
 FoFCou: FMM=F IPFlag=           0 FMFlag=      100000 FMFlg1=           0
         NFxFlg=           0 DoJE=T BraDBF=F KetDBF=T FulRan=T
         wScrn=  0.000000 ICntrl=       500 IOpCl=  0 I1Cent=   200000004 NGrid=           0
         NMat0=    1 NMatS0=      1 NMatT0=    0 NMatD0=    1 NMtDS0=    0 NMtDT0=    0
 Petite list used in FoFCou.
 Requested convergence on RMS density matrix=1.00D-08 within 128 cycles.
 Requested convergence on MAX density matrix=1.00D-06.
 Requested convergence on             energy=1.00D-06.
 No special actions if energy rises.
 Inv3:  Mode=1 IEnd=    12656748.
 Iteration    1 A*A^-1 deviation from unit magnitude is 4.11D-15 for   2038.
 Iteration    1 A*A^-1 deviation from orthogonality  is 2.41D-15 for   2042    881.
 Iteration    1 A^-1*A deviation from unit magnitude is 4.11D-15 for   2038.
 Iteration    1 A^-1*A deviation from orthogonality  is 1.45D-15 for   1650    617.
 Error on total polarization charges =  0.01471
 SCF Done:  E(RM062X) =  -617.495713185     A.U. after   13 cycles
            NFock= 13  Conv=0.14D-08     -V/T= 2.0035

 **********************************************************************

            Population analysis using the SCF density.

 **********************************************************************

 Orbital symmetries:
       Occupied  (A) (A) (A) (A) (A) (A) (A) (A) (A) (A) (A) (A)
                 (A) (A) (A) (A) (A) (A) (A) (A) (A) (A) (A) (A)
                 (A) (A) (A) (A) (A) (A) (A) (A) (A) (A) (A) (A)
                 (A) (A) (A) (A) (A) (A) (A) (A) (A) (A) (A) (A)
                 (A) (A) (A)
       Virtual   (A) (A) (A) (A) (A) (A) (A) (A) (A) (A) (A) (A)
                 (A) (A) (A) (A) (A) (A) (A) (A) (A) (A) (A) (A)
                 (A) (A) (A) (A) (A) (A) (A) (A) (A) (A) (A) (A)
                 (A) (A) (A) (A) (A) (A) (A) (A) (A) (A) (A) (A)
                 (A) (A) (A) (A) (A) (A) (A) (A) (A) (A) (A) (A)
                 (A) (A) (A) (A) (A) (A) (A) (A) (A) (A) (A) (A)
                 (A) (A) (A) (A) (A) (A) (A) (A) (A) (A) (A) (A)
                 (A) (A) (A) (A) (A) (A) (A) (A) (A) (A) (A) (A)
                 (A) (A) (A) (A) (A) (A) (A) (A) (A) (A) (A) (A)
                 (A) (A) (A) (A) (A) (A) (A) (A) (A) (A) (A) (A)
                 (A) (A) (A) (A) (A) (A) (A) (A) (A) (A) (A) (A)
                 (A) (A) (A) (A) (A) (A) (A) (A) (A) (A) (A) (A)
                 (A) (A) (A) (A) (A) (A) (A) (A) (A) (A) (A) (A)
                 (A) (A) (A) (A) (A) (A) (A) (A) (A) (A) (A) (A)
                 (A) (A) (A) (A) (A) (A) (A) (A) (A) (A) (A) (A)
                 (A) (A) (A) (A) (A) (A) (A) (A) (A) (A) (A) (A)
                 (A) (A) (A) (A) (A) (A) (A) (A) (A) (A) (A) (A)
                 (A) (A) (A) (A) (A) (A) (A) (A) (A) (A) (A) (A)
                 (A) (A) (A) (A) (A) (A) (A) (A) (A) (A) (A) (A)
                 (A) (A) (A) (A) (A) (A) (A) (A) (A) (A) (A) (A)
                 (A) (A) (A) (A) (A) (A) (A) (A) (A) (A) (A) (A)
                 (A) (A) (A) (A) (A) (A) (A) (A) (A) (A) (A) (A)
                 (A) (A) (A) (A) (A) (A) (A) (A) (A) (A) (A) (A)
                 (A) (A) (A) (A) (A) (A) (A) (A) (A) (A) (A) (A)
                 (A) (A) (A) (A) (A) (A) (A) (A) (A) (A) (A) (A)
                 (A) (A) (A) (A) (A) (A) (A) (A) (A) (A) (A) (A)
                 (A) (A) (A) (A) (A) (A) (A) (A) (A) (A) (A) (A)
                 (A) (A) (A) (A) (A) (A) (A) (A) (A) (A) (A) (A)
                 (A) (A) (A) (A) (A) (A) (A) (A) (A) (A) (A) (A)
                 (A) (A) (A) (A) (A) (A) (A) (A) (A) (A) (A) (A)
                 (A) (A) (A) (A) (A) (A) (A) (A) (A) (A) (A) (A)
                 (A) (A) (A) (A) (A) (A) (A) (A) (A) (A) (A) (A)
                 (A) (A) (A) (A) (A) (A) (A) (A) (A) (A) (A) (A)
                 (A) (A) (A) (A) (A) (A) (A) (A) (A) (A) (A) (A)
                 (A) (A) (A) (A) (A) (A) (A) (A) (A) (A) (A) (A)
                 (A) (A) (A) (A) (A) (A) (A) (A) (A) (A) (A) (A)
                 (A) (A) (A) (A) (A) (A) (A) (A) (A) (A) (A) (A)
                 (A) (A) (A) (A) (A) (A) (A) (A) (A) (A) (A) (A)
                 (A) (A) (A) (A) (A) (A) (A) (A) (A) (A) (A) (A)
                 (A) (A) (A) (A) (A) (A) (A) (A) (A) (A) (A) (A)
 The electronic state is 1-A.
 Alpha  occ. eigenvalues --  -19.62836 -19.62792 -19.62553 -10.63239 -10.58580
 Alpha  occ. eigenvalues --  -10.57857 -10.57808 -10.57667 -10.53291 -10.53213
 Alpha  occ. eigenvalues --  -10.52951 -10.52913 -10.52760  -1.20203  -1.16490
 Alpha  occ. eigenvalues --   -1.13354  -0.90819  -0.89593  -0.87565  -0.84510
 Alpha  occ. eigenvalues --   -0.75239  -0.74563  -0.73173  -0.71106  -0.64964
 Alpha  occ. eigenvalues --   -0.62509  -0.60243  -0.59236  -0.58370  -0.55745
 Alpha  occ. eigenvalues --   -0.54456  -0.54008  -0.52693  -0.50393  -0.49551
 Alpha  occ. eigenvalues --   -0.47853  -0.46361  -0.45947  -0.45372  -0.45131
 Alpha  occ. eigenvalues --   -0.43410  -0.42907  -0.42069  -0.41099  -0.39415
 Alpha  occ. eigenvalues --   -0.38580  -0.37094  -0.35817  -0.34313  -0.33322
 Alpha  occ. eigenvalues --   -0.32133
 Alpha virt. eigenvalues --   -0.00149   0.00769   0.00876   0.01087   0.02215
 Alpha virt. eigenvalues --    0.02424   0.02608   0.03431   0.03671   0.04410
 Alpha virt. eigenvalues --    0.04486   0.04578   0.05430   0.06007   0.07003
 Alpha virt. eigenvalues --    0.07479   0.07603   0.08147   0.09035   0.09297
 Alpha virt. eigenvalues --    0.09934   0.10483   0.10917   0.11798   0.12203
 Alpha virt. eigenvalues --    0.12315   0.12717   0.12900   0.13060   0.13427
 Alpha virt. eigenvalues --    0.13755   0.13972   0.14133   0.14557   0.14792
 Alpha virt. eigenvalues --    0.15070   0.15518   0.15761   0.16074   0.16107
 Alpha virt. eigenvalues --    0.16695   0.16768   0.17007   0.17662   0.17751
 Alpha virt. eigenvalues --    0.18026   0.18347   0.18655   0.19063   0.19524
 Alpha virt. eigenvalues --    0.20066   0.20307   0.20623   0.21185   0.21584
 Alpha virt. eigenvalues --    0.21679   0.22272   0.22738   0.23168   0.23582
 Alpha virt. eigenvalues --    0.24690   0.24901   0.25784   0.26156   0.27421
 Alpha virt. eigenvalues --    0.27600   0.28194   0.28388   0.28888   0.29604
 Alpha virt. eigenvalues --    0.29939   0.30378   0.30782   0.31325   0.32164
 Alpha virt. eigenvalues --    0.32407   0.32940   0.34007   0.34461   0.34765
 Alpha virt. eigenvalues --    0.35106   0.35300   0.35596   0.35899   0.36182
 Alpha virt. eigenvalues --    0.36795   0.37205   0.37724   0.37902   0.38486
 Alpha virt. eigenvalues --    0.38945   0.39162   0.39862   0.40824   0.41476
 Alpha virt. eigenvalues --    0.41912   0.43273   0.43618   0.43858   0.44761
 Alpha virt. eigenvalues --    0.45907   0.48298   0.49416   0.49982   0.50591
 Alpha virt. eigenvalues --    0.52184   0.52678   0.53601   0.54552   0.55133
 Alpha virt. eigenvalues --    0.55901   0.56582   0.57479   0.58403   0.58853
 Alpha virt. eigenvalues --    0.59719   0.59983   0.60680   0.61379   0.61625
 Alpha virt. eigenvalues --    0.61889   0.62278   0.62628   0.63278   0.64335
 Alpha virt. eigenvalues --    0.64601   0.65061   0.65366   0.65959   0.66258
 Alpha virt. eigenvalues --    0.67450   0.67974   0.68374   0.69466   0.70052
 Alpha virt. eigenvalues --    0.71421   0.71611   0.71983   0.72388   0.73016
 Alpha virt. eigenvalues --    0.73498   0.74047   0.74406   0.75008   0.76201
 Alpha virt. eigenvalues --    0.76323   0.76906   0.76996   0.78022   0.78762
 Alpha virt. eigenvalues --    0.79256   0.82149   0.83386   0.84338   0.86235
 Alpha virt. eigenvalues --    0.86528   0.87312   0.87841   0.88589   0.89291
 Alpha virt. eigenvalues --    0.91675   0.92453   0.93070   0.94318   0.95224
 Alpha virt. eigenvalues --    0.96991   0.98271   0.99355   1.01365   1.02123
 Alpha virt. eigenvalues --    1.02570   1.03427   1.05112   1.05953   1.07030
 Alpha virt. eigenvalues --    1.07930   1.08205   1.08963   1.11573   1.12213
 Alpha virt. eigenvalues --    1.13427   1.14616   1.14850   1.16099   1.16885
 Alpha virt. eigenvalues --    1.17293   1.18920   1.19166   1.20104   1.21188
 Alpha virt. eigenvalues --    1.22238   1.22292   1.22958   1.24432   1.24919
 Alpha virt. eigenvalues --    1.25350   1.25839   1.27084   1.27272   1.28015
 Alpha virt. eigenvalues --    1.28260   1.28938   1.29246   1.30692   1.31049
 Alpha virt. eigenvalues --    1.31919   1.32566   1.33227   1.33401   1.35488
 Alpha virt. eigenvalues --    1.35925   1.36594   1.37465   1.37779   1.38358
 Alpha virt. eigenvalues --    1.38989   1.39457   1.40502   1.40771   1.41225
 Alpha virt. eigenvalues --    1.42131   1.42763   1.44285   1.44676   1.45296
 Alpha virt. eigenvalues --    1.45871   1.46856   1.47356   1.47724   1.48200
 Alpha virt. eigenvalues --    1.48626   1.49033   1.50653   1.51416   1.51620
 Alpha virt. eigenvalues --    1.52574   1.53222   1.53836   1.54652   1.55393
 Alpha virt. eigenvalues --    1.56408   1.57048   1.57524   1.58306   1.58635
 Alpha virt. eigenvalues --    1.60094   1.60345   1.60748   1.62064   1.62754
 Alpha virt. eigenvalues --    1.64122   1.64149   1.64250   1.64829   1.65280
 Alpha virt. eigenvalues --    1.67072   1.68816   1.69497   1.70055   1.70658
 Alpha virt. eigenvalues --    1.71831   1.73199   1.74334   1.75034   1.76399
 Alpha virt. eigenvalues --    1.78508   1.80430   1.80886   1.81593   1.83878
 Alpha virt. eigenvalues --    1.85519   1.86629   1.89722   1.98601   1.99907
 Alpha virt. eigenvalues --    2.01078   2.07126   2.13434   2.14264   2.20088
 Alpha virt. eigenvalues --    2.23542   2.26714   2.28532   2.32605   2.40915
 Alpha virt. eigenvalues --    2.41811   2.42469   2.44439   2.46402   2.51337
 Alpha virt. eigenvalues --    2.60094   2.76809   2.77196   2.80294   2.81607
 Alpha virt. eigenvalues --    2.83712   2.87460   2.91643   2.92480   2.92992
 Alpha virt. eigenvalues --    2.93893   2.95980   2.98471   3.02931   3.03653
 Alpha virt. eigenvalues --    3.04716   3.06643   3.08089   3.10596   3.11863
 Alpha virt. eigenvalues --    3.13306   3.14846   3.15453   3.19239   3.22330
 Alpha virt. eigenvalues --    3.25787   3.28443   3.31444   3.32248   3.33961
 Alpha virt. eigenvalues --    3.34466   3.36032   3.37084   3.37304   3.40583
 Alpha virt. eigenvalues --    3.41710   3.43081   3.44135   3.45610   3.46037
 Alpha virt. eigenvalues --    3.47012   3.49299   3.49974   3.51493   3.51967
 Alpha virt. eigenvalues --    3.52455   3.53328   3.54045   3.55306   3.55607
 Alpha virt. eigenvalues --    3.56840   3.57033   3.58319   3.59065   3.59772
 Alpha virt. eigenvalues --    3.60578   3.62193   3.62445   3.65070   3.65345
 Alpha virt. eigenvalues --    3.65865   3.66520   3.67934   3.68693   3.69710
 Alpha virt. eigenvalues --    3.70507   3.71639   3.72923   3.73688   3.74369
 Alpha virt. eigenvalues --    3.74757   3.74986   3.76579   3.77916   3.78644
 Alpha virt. eigenvalues --    3.80270   3.81230   3.82411   3.83698   3.84018
 Alpha virt. eigenvalues --    3.86096   3.88811   3.90336   3.92062   3.92283
 Alpha virt. eigenvalues --    3.93136   3.93884   3.95356   3.97698   3.99268
 Alpha virt. eigenvalues --    3.99672   4.00110   4.01770   4.03160   4.04206
 Alpha virt. eigenvalues --    4.05471   4.06481   4.07021   4.07309   4.07950
 Alpha virt. eigenvalues --    4.08766   4.08802   4.10009   4.11358   4.11672
 Alpha virt. eigenvalues --    4.12549   4.12927   4.13799   4.14885   4.15695
 Alpha virt. eigenvalues --    4.16254   4.16973   4.17832   4.19336   4.19940
 Alpha virt. eigenvalues --    4.21229   4.23048   4.25477   4.26471   4.26984
 Alpha virt. eigenvalues --    4.27574   4.29934   4.30206   4.32358   4.32498
 Alpha virt. eigenvalues --    4.33227   4.34101   4.34761   4.36324   4.38198
 Alpha virt. eigenvalues --    4.41610   4.42736   4.46200   4.46855   4.49515
 Alpha virt. eigenvalues --    4.59015   4.60989   4.72605   4.75640   4.81646
 Alpha virt. eigenvalues --    4.85157   4.93244   4.95498   5.01134   5.02285
 Alpha virt. eigenvalues --    5.05012   5.06815   5.07806   5.11810   5.12889
 Alpha virt. eigenvalues --    5.14092   5.15111   5.16666   5.31809   5.38419
 Alpha virt. eigenvalues --    5.41674   5.58537   5.60960   5.65107   5.84786
 Alpha virt. eigenvalues --    5.87420   6.06682   7.03494   7.05447   7.07343
 Alpha virt. eigenvalues --    7.08711   7.10035   7.11988   7.13497   7.19864
 Alpha virt. eigenvalues --    7.25317   7.34939   7.37628   7.47566   7.53514
 Alpha virt. eigenvalues --    7.54706   7.66268  23.96763  23.97535  24.05751
 Alpha virt. eigenvalues --   24.06759  24.10442  24.11542  24.12209  24.15362
 Alpha virt. eigenvalues --   24.16969  24.23326  50.17088  50.18505  50.24577
          Condensed to atoms (all electrons):
               1          2          3          4          5          6
     1  C    8.615424   0.011274   0.067411  -0.629020  -1.860306  -0.037184
     2  C    0.011274   5.559488  -0.001887  -0.104735   0.028307   0.015105
     3  O    0.067411  -0.001887   8.188760   0.018897  -0.084634  -0.057284
     4  C   -0.629020  -0.104735   0.018897   6.231347   0.088963  -0.116985
     5  C   -1.860306   0.028307  -0.084634   0.088963   7.477826  -0.045629
     6  O   -0.037184   0.015105  -0.057284  -0.116985  -0.045629   8.311577
     7  C    0.332829  -0.006659  -0.006190  -0.035604  -0.207349  -0.084925
     8  C    0.077348   0.003473   0.000616   0.004795  -0.036544  -0.016248
     9  C   -1.128934   0.043655   0.262154   0.098154   0.484351   0.322491
    10  C    0.001538  -0.003069  -0.060665  -0.003793   0.021152  -0.009171
    11  C    0.181396   0.004511   0.110046   0.010688  -0.085225  -0.027735
    12  C    0.262872  -0.228647  -0.005681  -0.057513  -0.395183  -0.014618
    13  O   -0.025657   0.111778   0.000048   0.104395  -0.032336   0.028764
    14  H    0.591860  -0.007353  -0.001571  -0.106982  -0.077833  -0.030892
    15  H    0.043160   0.518996   0.000025  -0.027678  -0.030160   0.000028
    16  H   -0.020746   0.407956   0.000063   0.023638  -0.010092   0.001254
    17  H    0.035060   0.008537   0.000073   0.357967   0.003986  -0.005262
    18  H   -0.084688   0.035329   0.001311   0.482359  -0.000737   0.012720
    19  H   -0.104252  -0.031424  -0.000725  -0.019237   0.491928   0.004651
    20  H   -0.020721  -0.000823   0.005360   0.016830   0.396603   0.001585
    21  H   -0.011652   0.000503   0.007545   0.000321   0.008461  -0.003582
    22  H    0.007236  -0.000022  -0.006415   0.002013  -0.004585   0.008006
    23  H   -0.016934   0.000165   0.001490  -0.000752   0.007411  -0.003410
    24  H    0.006909  -0.000079  -0.004568  -0.001679  -0.001533   0.000789
    25  H   -0.079927   0.003983  -0.064508  -0.009235   0.072820  -0.029994
    26  H    0.002630   0.000083   0.009892  -0.001016   0.000931   0.000430
    27  H   -0.002759  -0.000053  -0.002141   0.000155  -0.000555  -0.000065
    28  H    0.007779   0.000145  -0.066875   0.001716   0.000584   0.000879
    29  H   -0.038863  -0.001302  -0.027629   0.015109   0.009942   0.014713
    30  H   -0.062949  -0.082486  -0.000389  -0.000566   0.003287   0.001768
    31  H   -0.015750  -0.014717  -0.000245   0.000244  -0.002688  -0.001785
               7          8          9         10         11         12
     1  C    0.332829   0.077348  -1.128934   0.001538   0.181396   0.262872
     2  C   -0.006659   0.003473   0.043655  -0.003069   0.004511  -0.228647
     3  O   -0.006190   0.000616   0.262154  -0.060665   0.110046  -0.005681
     4  C   -0.035604   0.004795   0.098154  -0.003793   0.010688  -0.057513
     5  C   -0.207349  -0.036544   0.484351   0.021152  -0.085225  -0.395183
     6  O   -0.084925  -0.016248   0.322491  -0.009171  -0.027735  -0.014618
     7  C    6.721231  -0.055398  -1.116244  -0.150842   0.228934  -0.029815
     8  C   -0.055398   5.657732  -0.149311  -0.012976  -0.000116   0.002265
     9  C   -1.116244  -0.149311   7.397259   0.238409  -0.520486  -0.117226
    10  C   -0.150842  -0.012976   0.238409   5.700659  -0.074987  -0.005020
    11  C    0.228934  -0.000116  -0.520486  -0.074987   5.562667  -0.001859
    12  C   -0.029815   0.002265  -0.117226  -0.005020  -0.001859   6.156152
    13  O    0.003899  -0.000185   0.003830   0.000253   0.000125  -0.006181
    14  H    0.007426  -0.004800  -0.058711  -0.010734   0.011960   0.032580
    15  H   -0.000286   0.000092  -0.001758  -0.000130   0.000292  -0.100580
    16  H   -0.000106  -0.000290  -0.001473   0.000102  -0.000026   0.022632
    17  H    0.006738  -0.004418  -0.023128   0.004159   0.000384   0.004316
    18  H    0.000543   0.001631   0.002200   0.000132   0.003766  -0.051573
    19  H    0.004890   0.001851  -0.014864  -0.000622  -0.002428   0.015808
    20  H    0.003839  -0.001226  -0.011049   0.002468   0.003740  -0.006521
    21  H    0.434990  -0.042049  -0.020932  -0.001647   0.002662  -0.000299
    22  H    0.525362  -0.001733  -0.144885  -0.017095   0.014775   0.000331
    23  H   -0.064310   0.521942   0.007606  -0.071380   0.001658   0.000344
    24  H   -0.047316   0.425106   0.011556  -0.020040   0.004792  -0.000094
    25  H   -0.103934  -0.006995   0.535418   0.015902  -0.038394  -0.013916
    26  H   -0.003295  -0.042067   0.002213   0.440517  -0.036867   0.000030
    27  H   -0.003020  -0.030747   0.000439   0.494368  -0.086987  -0.000094
    28  H   -0.000083   0.010022  -0.013373  -0.014879   0.427846  -0.000762
    29  H    0.021100  -0.001329  -0.004808  -0.072707   0.451700   0.000305
    30  H    0.000175  -0.000261   0.001451   0.000512  -0.000751   0.511475
    31  H   -0.001068  -0.000122   0.002025  -0.000022  -0.000493   0.391136
              13         14         15         16         17         18
     1  C   -0.025657   0.591860   0.043160  -0.020746   0.035060  -0.084688
     2  C    0.111778  -0.007353   0.518996   0.407956   0.008537   0.035329
     3  O    0.000048  -0.001571   0.000025   0.000063   0.000073   0.001311
     4  C    0.104395  -0.106982  -0.027678   0.023638   0.357967   0.482359
     5  C   -0.032336  -0.077833  -0.030160  -0.010092   0.003986  -0.000737
     6  O    0.028764  -0.030892   0.000028   0.001254  -0.005262   0.012720
     7  C    0.003899   0.007426  -0.000286  -0.000106   0.006738   0.000543
     8  C   -0.000185  -0.004800   0.000092  -0.000290  -0.004418   0.001631
     9  C    0.003830  -0.058711  -0.001758  -0.001473  -0.023128   0.002200
    10  C    0.000253  -0.010734  -0.000130   0.000102   0.004159   0.000132
    11  C    0.000125   0.011960   0.000292  -0.000026   0.000384   0.003766
    12  C   -0.006181   0.032580  -0.100580   0.022632   0.004316  -0.051573
    13  O    8.383269   0.002936  -0.070056  -0.076999  -0.076103  -0.039040
    14  H    0.002936   0.452782   0.000330   0.001173   0.004169  -0.012982
    15  H   -0.070056   0.000330   0.527581  -0.028744  -0.002158   0.009360
    16  H   -0.076999   0.001173  -0.028744   0.510241   0.000764  -0.004353
    17  H   -0.076103   0.004169  -0.002158   0.000764   0.488324  -0.008426
    18  H   -0.039040  -0.012982   0.009360  -0.004353  -0.008426   0.468429
    19  H   -0.003517   0.004182  -0.003322   0.004347   0.001569  -0.000702
    20  H    0.000760  -0.010830   0.001304  -0.002093  -0.001013   0.002795
    21  H    0.000486  -0.000927   0.000033  -0.000096  -0.000482  -0.000046
    22  H    0.000067  -0.001248  -0.000028   0.000063  -0.000228   0.000290
    23  H    0.000174  -0.001023  -0.000029   0.000095  -0.003432   0.000380
    24  H    0.000009   0.000492  -0.000003  -0.000010   0.000471   0.000017
    25  H   -0.000119   0.001315   0.000085  -0.000238   0.001390  -0.000310
    26  H    0.000007   0.000347   0.000008  -0.000002   0.000149   0.000046
    27  H   -0.000005  -0.000021   0.000000  -0.000003   0.000119  -0.000131
    28  H   -0.000010  -0.001406   0.000005  -0.000009   0.000499   0.000252
    29  H    0.000382  -0.011091  -0.000220   0.000123  -0.006876  -0.001173
    30  H    0.001201  -0.005163  -0.015119   0.008105  -0.001378  -0.006709
    31  H    0.008718  -0.001010   0.002389  -0.011034   0.002110  -0.001266
              19         20         21         22         23         24
     1  C   -0.104252  -0.020721  -0.011652   0.007236  -0.016934   0.006909
     2  C   -0.031424  -0.000823   0.000503  -0.000022   0.000165  -0.000079
     3  O   -0.000725   0.005360   0.007545  -0.006415   0.001490  -0.004568
     4  C   -0.019237   0.016830   0.000321   0.002013  -0.000752  -0.001679
     5  C    0.491928   0.396603   0.008461  -0.004585   0.007411  -0.001533
     6  O    0.004651   0.001585  -0.003582   0.008006  -0.003410   0.000789
     7  C    0.004890   0.003839   0.434990   0.525362  -0.064310  -0.047316
     8  C    0.001851  -0.001226  -0.042049  -0.001733   0.521942   0.425106
     9  C   -0.014864  -0.011049  -0.020932  -0.144885   0.007606   0.011556
    10  C   -0.000622   0.002468  -0.001647  -0.017095  -0.071380  -0.020040
    11  C   -0.002428   0.003740   0.002662   0.014775   0.001658   0.004792
    12  C    0.015808  -0.006521  -0.000299   0.000331   0.000344  -0.000094
    13  O   -0.003517   0.000760   0.000486   0.000067   0.000174   0.000009
    14  H    0.004182  -0.010830  -0.000927  -0.001248  -0.001023   0.000492
    15  H   -0.003322   0.001304   0.000033  -0.000028  -0.000029  -0.000003
    16  H    0.004347  -0.002093  -0.000096   0.000063   0.000095  -0.000010
    17  H    0.001569  -0.001013  -0.000482  -0.000228  -0.003432   0.000471
    18  H   -0.000702   0.002795  -0.000046   0.000290   0.000380   0.000017
    19  H    0.456705  -0.023466  -0.001886   0.000063  -0.000022   0.000217
    20  H   -0.023466   0.490175   0.000413   0.000726   0.000204  -0.000140
    21  H   -0.001886   0.000413   0.469358  -0.003804  -0.001125  -0.009662
    22  H    0.000063   0.000726  -0.003804   0.450368   0.002238  -0.003504
    23  H   -0.000022   0.000204  -0.001125   0.002238   0.463512  -0.008850
    24  H    0.000217  -0.000140  -0.009662  -0.003504  -0.008850   0.472515
    25  H    0.000926  -0.015541  -0.010599  -0.014867  -0.003056   0.003413
    26  H   -0.000051  -0.000023   0.000826  -0.002354  -0.003782  -0.006895
    27  H    0.000079  -0.000122  -0.001161  -0.002825   0.000517  -0.001780
    28  H   -0.000187   0.000415   0.000969   0.000712  -0.002195   0.001277
    29  H    0.000050  -0.000571  -0.000068  -0.000789   0.000907  -0.001662
    30  H    0.000838  -0.004536  -0.000027   0.000050   0.000042  -0.000007
    31  H    0.000955  -0.012252   0.000058  -0.000083  -0.000004   0.000008
              25         26         27         28         29         30
     1  C   -0.079927   0.002630  -0.002759   0.007779  -0.038863  -0.062949
     2  C    0.003983   0.000083  -0.000053   0.000145  -0.001302  -0.082486
     3  O   -0.064508   0.009892  -0.002141  -0.066875  -0.027629  -0.000389
     4  C   -0.009235  -0.001016   0.000155   0.001716   0.015109  -0.000566
     5  C    0.072820   0.000931  -0.000555   0.000584   0.009942   0.003287
     6  O   -0.029994   0.000430  -0.000065   0.000879   0.014713   0.001768
     7  C   -0.103934  -0.003295  -0.003020  -0.000083   0.021100   0.000175
     8  C   -0.006995  -0.042067  -0.030747   0.010022  -0.001329  -0.000261
     9  C    0.535418   0.002213   0.000439  -0.013373  -0.004808   0.001451
    10  C    0.015902   0.440517   0.494368  -0.014879  -0.072707   0.000512
    11  C   -0.038394  -0.036867  -0.086987   0.427846   0.451700  -0.000751
    12  C   -0.013916   0.000030  -0.000094  -0.000762   0.000305   0.511475
    13  O   -0.000119   0.000007  -0.000005  -0.000010   0.000382   0.001201
    14  H    0.001315   0.000347  -0.000021  -0.001406  -0.011091  -0.005163
    15  H    0.000085   0.000008   0.000000   0.000005  -0.000220  -0.015119
    16  H   -0.000238  -0.000002  -0.000003  -0.000009   0.000123   0.008105
    17  H    0.001390   0.000149   0.000119   0.000499  -0.006876  -0.001378
    18  H   -0.000310   0.000046  -0.000131   0.000252  -0.001173  -0.006709
    19  H    0.000926  -0.000051   0.000079  -0.000187   0.000050   0.000838
    20  H   -0.015541  -0.000023  -0.000122   0.000415  -0.000571  -0.004536
    21  H   -0.010599   0.000826  -0.001161   0.000969  -0.000068  -0.000027
    22  H   -0.014867  -0.002354  -0.002825   0.000712  -0.000789   0.000050
    23  H   -0.003056  -0.003782   0.000517  -0.002195   0.000907   0.000042
    24  H    0.003413  -0.006895  -0.001780   0.001277  -0.001662  -0.000007
    25  H    0.477780   0.001183   0.000493  -0.001484   0.000158  -0.000564
    26  H    0.001183   0.487443  -0.010946  -0.010392  -0.001426  -0.000020
    27  H    0.000493  -0.010946   0.479392  -0.004929   0.005436   0.000016
    28  H   -0.001484  -0.010392  -0.004929   0.474888  -0.015408  -0.000077
    29  H    0.000158  -0.001426   0.005436  -0.015408   0.520467   0.000542
    30  H   -0.000564  -0.000020   0.000016  -0.000077   0.000542   0.465457
    31  H    0.002510   0.000002   0.000000   0.000005  -0.000123  -0.008766
              31
     1  C   -0.015750
     2  C   -0.014717
     3  O   -0.000245
     4  C    0.000244
     5  C   -0.002688
     6  O   -0.001785
     7  C   -0.001068
     8  C   -0.000122
     9  C    0.002025
    10  C   -0.000022
    11  C   -0.000493
    12  C    0.391136
    13  O    0.008718
    14  H   -0.001010
    15  H    0.002389
    16  H   -0.011034
    17  H    0.002110
    18  H   -0.001266
    19  H    0.000955
    20  H   -0.012252
    21  H    0.000058
    22  H   -0.000083
    23  H   -0.000004
    24  H    0.000008
    25  H    0.002510
    26  H    0.000002
    27  H    0.000000
    28  H    0.000005
    29  H   -0.000123
    30  H   -0.008766
    31  H    0.494430
 Mulliken charges:
               1
     1  C   -0.104384
     2  C   -0.270028
     3  O   -0.282282
     4  C   -0.342797
     5  C   -0.221160
     6  O   -0.239990
     7  C   -0.375512
     8  C   -0.300058
     9  C   -0.086028
    10  C   -0.390394
    11  C   -0.145588
    12  C   -0.364661
    13  O   -0.320894
    14  H    0.233024
    15  H    0.176586
    16  H    0.175758
    17  H    0.212121
    18  H    0.190576
    19  H    0.217646
    20  H    0.183710
    21  H    0.183418
    22  H    0.192165
    23  H    0.171620
    24  H    0.180251
    25  H    0.276304
    26  H    0.172400
    27  H    0.167329
    28  H    0.204076
    29  H    0.145111
    30  H    0.194846
    31  H    0.166835
 Sum of Mulliken charges =  -0.00000
 Mulliken charges with hydrogens summed into heavy atoms:
               1
     1  C    0.128640
     2  C    0.082316
     3  O   -0.282282
     4  C    0.059900
     5  C    0.180196
     6  O   -0.239990
     7  C    0.000071
     8  C    0.051814
     9  C    0.190276
    10  C   -0.050665
    11  C    0.203599
    12  C   -0.002981
    13  O   -0.320894
 Electronic spatial extent (au):  <R**2>=           3035.1004
 Charge=              0.0000 electrons
 Dipole moment (field-independent basis, Debye):
    X=             -0.2250    Y=              1.5563    Z=             -0.8503  Tot=              1.7876
 Quadrupole moment (field-independent basis, Debye-Ang):
   XX=            -70.8135   YY=            -86.5589   ZZ=            -75.1207
   XY=              8.8284   XZ=             -0.3865   YZ=              2.0329
 Traceless Quadrupole moment (field-independent basis, Debye-Ang):
   XX=              6.6842   YY=             -9.0612   ZZ=              2.3770
   XY=              8.8284   XZ=             -0.3865   YZ=              2.0329
 Octapole moment (field-independent basis, Debye-Ang**2):
  XXX=              8.2126  YYY=              1.3256  ZZZ=             -2.5827  XYY=             -4.2169
  XXY=             11.6118  XXZ=             -1.7026  XZZ=             -0.9244  YZZ=              0.9737
  YYZ=             -0.8231  XYZ=              2.5843
 Hexadecapole moment (field-independent basis, Debye-Ang**3):
 XXXX=          -2987.5776 YYYY=           -501.8230 ZZZZ=           -420.1322 XXXY=             31.4626
 XXXZ=             22.4384 YYYX=             15.5837 YYYZ=              4.7303 ZZZX=              4.9940
 ZZZY=             -3.3359 XXYY=           -642.2356 XXZZ=           -562.4398 YYZZ=           -145.1931
 XXYZ=             -1.0806 YYXZ=              2.1734 ZZXY=            -10.5168
 N-N= 8.965809401505D+02 E-N=-3.235179143434D+03  KE= 6.153388399326D+02
 D1PCM: PCM CHGder 1st derivatives, ID1Alg=3 FixD1E=F DoIter=F DoCFld=F I1PDM=0.
 Calling FoFJK, ICntrl=      2127 FMM=F ISym2X=0 I1Cent= 0 IOpClX= 0 NMat=1 NMatS=1 NMatT=0.
 ***** Axes restored to original set *****
 -------------------------------------------------------------------
 Center     Atomic                   Forces (Hartrees/Bohr)
 Number     Number              X              Y              Z
 -------------------------------------------------------------------
      1        6           0.000690168    0.000131983    0.003777055
      2        6          -0.004978848    0.003496076   -0.002328434
      3        8           0.000930184    0.010750336   -0.000367831
      4        6           0.003047051    0.004634487    0.004200329
      5        6           0.001564778   -0.000985997   -0.003755555
      6        8          -0.001071118   -0.012961869    0.000061826
      7        6           0.000580208   -0.001695044   -0.002313147
      8        6           0.001026717    0.003778292   -0.000495517
      9        6          -0.002739115   -0.003523649   -0.004160070
     10        6           0.002564484   -0.001409785   -0.000054239
     11        6          -0.001752538   -0.003022234    0.005813927
     12        6          -0.000778172   -0.001358973    0.001492118
     13        8          -0.001913046   -0.007776805    0.004831909
     14        1          -0.002218975    0.004877024   -0.004901531
     15        1           0.004085457    0.000322087   -0.003728948
     16        1           0.001498806   -0.000691271    0.004505522
     17        1          -0.003935762   -0.003276184   -0.000325375
     18        1           0.001838435    0.002483350   -0.005408604
     19        1          -0.000715320   -0.002867031    0.003041794
     20        1          -0.001269595    0.003113030    0.000033132
     21        1           0.001621221   -0.001999643    0.001856077
     22        1          -0.001970681    0.002472652    0.001154335
     23        1           0.002784833   -0.001720044   -0.001540855
     24        1          -0.001995555   -0.001019110    0.001283093
     25        1           0.002933366    0.006173420    0.004738694
     26        1          -0.001516483   -0.001661686   -0.001748923
     27        1          -0.001606715    0.002469959    0.001560022
     28        1          -0.001566405    0.003088340   -0.002721710
     29        1           0.003639276   -0.004895129   -0.002619878
     30        1          -0.000278201    0.001148568   -0.003280880
     31        1           0.001501546    0.001924849    0.001401664
 -------------------------------------------------------------------
 Cartesian Forces:  Max     0.012961869 RMS     0.003329484

 GradGradGradGradGradGradGradGradGradGradGradGradGradGradGradGradGradGrad
 Berny optimization.
 FormGI is forming the generalized inverse of G from B-inverse, IUseBI=4.
 Internal  Forces:  Max     0.014249780 RMS     0.002103034
 Search for a local minimum.
 Step number   1 out of a maximum of  186
 All quantities printed in internal units (Hartrees-Bohrs-Radians)
 Mixed Optimization -- RFO/linear search
 Second derivative matrix not updated -- first step.
 ITU=  0
     Eigenvalues ---    0.00423   0.00609   0.00623   0.00729   0.01414
     Eigenvalues ---    0.01415   0.01457   0.02698   0.02771   0.03074
     Eigenvalues ---    0.03361   0.04088   0.04273   0.04653   0.04748
     Eigenvalues ---    0.04820   0.04864   0.04927   0.05115   0.05194
     Eigenvalues ---    0.05233   0.05626   0.05680   0.06021   0.06171
     Eigenvalues ---    0.06369   0.06826   0.06852   0.07363   0.07812
     Eigenvalues ---    0.07862   0.07881   0.07965   0.08103   0.08165
     Eigenvalues ---    0.08236   0.08867   0.10227   0.11212   0.11580
     Eigenvalues ---    0.11658   0.11756   0.11775   0.12401   0.12694
     Eigenvalues ---    0.14492   0.14707   0.16084   0.18411   0.19014
     Eigenvalues ---    0.20135   0.21634   0.22485   0.25000   0.27394
     Eigenvalues ---    0.27492   0.28533   0.28597   0.28846   0.28942
     Eigenvalues ---    0.29574   0.30356   0.35095   0.35209   0.35215
     Eigenvalues ---    0.35242   0.35256   0.35264   0.35285   0.35317
     Eigenvalues ---    0.35333   0.35408   0.35429   0.35442   0.35518
     Eigenvalues ---    0.35676   0.35765   0.35844   0.35938   0.35960
     Eigenvalues ---    0.40243   0.40811   0.41643   0.42326   0.43469
     Eigenvalues ---    0.458361000.000001000.000001000.000001000.00000
     Eigenvalues --- 1000.000001000.000001000.000001000.000001000.00000
     Eigenvalues --- 1000.000001000.000001000.000001000.000001000.00000
     Eigenvalues --- 1000.000001000.000001000.000001000.000001000.00000
     Eigenvalues --- 1000.000001000.000001000.000001000.000001000.00000
     Eigenvalues --- 1000.000001000.000001000.000001000.000001000.00000
     Eigenvalues --- 1000.000001000.000001000.000001000.000001000.00000
     Eigenvalues --- 1000.000001000.000001000.000001000.000001000.00000
     Eigenvalues --- 1000.000001000.000001000.000001000.000001000.00000
     Eigenvalues --- 1000.000001000.000001000.000001000.000001000.00000
     Eigenvalues --- 1000.000001000.000001000.000001000.000001000.00000
     Eigenvalues --- 1000.000001000.000001000.000001000.000001000.00000
     Eigenvalues --- 1000.000001000.000001000.000001000.000001000.00000
     Eigenvalues --- 1000.000001000.000001000.000001000.000001000.00000
     Eigenvalues --- 1000.000001000.000001000.000001000.000001000.00000
     Eigenvalues --- 1000.000001000.000001000.000001000.000001000.00000
     Eigenvalues --- 1000.000001000.000001000.000001000.000001000.00000
     Eigenvalues --- 1000.000001000.000001000.000001000.000001000.00000
     Eigenvalues --- 1000.000001000.000001000.000001000.000001000.00000
     Eigenvalues --- 1000.000001000.000001000.000001000.000001000.00000
 RFO step:  Lambda=-3.40205415D-03 EMin= 4.22631719D-03
 Linear search not attempted -- first point.
 Iteration  1 RMS(Cart)=  0.03978390 RMS(Int)=  0.00042209
 Iteration  2 RMS(Cart)=  0.00118975 RMS(Int)=  0.00004386
 Iteration  3 RMS(Cart)=  0.00000074 RMS(Int)=  0.00004386
 Iteration  1 RMS(Cart)=  0.00000474 RMS(Int)=  0.00000099
 Iteration  2 RMS(Cart)=  0.00000248 RMS(Int)=  0.00000111
 Iteration  3 RMS(Cart)=  0.00000130 RMS(Int)=  0.00000124
 Iteration  4 RMS(Cart)=  0.00000068 RMS(Int)=  0.00000133
 Variable       Old X    -DE/DX   Delta X   Delta X   Delta X     New X
                                 (Linear)    (Quad)   (Total)
    R1        2.88528  -0.00039   0.00000  -0.00160  -0.00159   2.88369
    R2        2.90268  -0.00109   0.00000  -0.00523  -0.00523   2.89745
    R3        2.68510   0.00086   0.00000   0.00202   0.00202   2.68711
    R4        2.04592   0.00720   0.00000   0.01999   0.01999   2.06590
    R5        2.89456   0.00055   0.00000   0.00277   0.00276   2.89731
    R6        2.68441   0.00360   0.00000   0.00979   0.00979   2.69421
    R7        2.05215   0.00543   0.00000   0.01524   0.01524   2.06739
    R8        2.04450   0.00477   0.00000   0.01321   0.01321   2.05771
    R9        2.65205   0.00369   0.00000   0.00794   0.00796   2.66000
   R10        2.68695   0.00316   0.00000   0.00727   0.00728   2.69423
   R11        2.66506   0.00297   0.00000   0.00697   0.00698   2.67204
   R12        2.04178   0.00494   0.00000   0.01361   0.01361   2.05539
   R13        2.05137   0.00613   0.00000   0.01719   0.01719   2.06856
   R14        2.88800  -0.00043   0.00000  -0.00277  -0.00278   2.88523
   R15        2.05261   0.00396   0.00000   0.01114   0.01114   2.06374
   R16        2.04842   0.00335   0.00000   0.00935   0.00935   2.05777
   R17        2.64317   0.00287   0.00000   0.00621   0.00621   2.64938
   R18        2.89029  -0.00147   0.00000  -0.00473  -0.00473   2.88556
   R19        2.87369  -0.00070   0.00000  -0.00221  -0.00221   2.87148
   R20        2.04984   0.00315   0.00000   0.00881   0.00881   2.05866
   R21        2.05328   0.00331   0.00000   0.00930   0.00930   2.06257
   R22        2.88903  -0.00093   0.00000  -0.00284  -0.00286   2.88617
   R23        2.05337   0.00342   0.00000   0.00962   0.00962   2.06299
   R24        2.05164   0.00258   0.00000   0.00723   0.00723   2.05886
   R25        2.04144   0.00827   0.00000   0.02278   0.02278   2.06421
   R26        2.87144   0.00003   0.00000  -0.00000   0.00000   2.87145
   R27        2.05283   0.00283   0.00000   0.00794   0.00794   2.06078
   R28        2.05521   0.00325   0.00000   0.00918   0.00918   2.06439
   R29        2.04326   0.00440   0.00000   0.01217   0.01217   2.05543
   R30        2.05017   0.00653   0.00000   0.01827   0.01827   2.06845
   R31        2.05248   0.00344   0.00000   0.00967   0.00967   2.06215
   R32        2.04963   0.00279   0.00000   0.00779   0.00779   2.05741
    A1        1.91848   0.00059   0.00000  -0.00420  -0.00430   1.91418
    A2        1.87434  -0.00073   0.00000  -0.00185  -0.00186   1.87248
    A3        1.88966   0.00093   0.00000   0.01263   0.01265   1.90231
    A4        1.95550   0.00006   0.00000  -0.00572  -0.00570   1.94980
    A5        1.92705  -0.00126   0.00000  -0.00507  -0.00504   1.92201
    A6        1.89689   0.00046   0.00000   0.00506   0.00501   1.90191
    A7        1.95047   0.00179   0.00000   0.00607   0.00599   1.95646
    A8        1.93833  -0.00117   0.00000  -0.00652  -0.00655   1.93178
    A9        1.93256  -0.00089   0.00000  -0.00644  -0.00642   1.92614
   A10        1.90406   0.00050   0.00000   0.00770   0.00776   1.91182
   A11        1.84401  -0.00082   0.00000  -0.00211  -0.00209   1.84192
   A12        1.89117   0.00060   0.00000   0.00163   0.00159   1.89276
   A13        2.02281  -0.00555   0.00000  -0.03509  -0.03500   1.98781
   A14        1.94037   0.00056   0.00000   0.00043   0.00031   1.94068
   A15        1.92721  -0.00145   0.00000  -0.01530  -0.01530   1.91191
   A16        1.92155  -0.00078   0.00000  -0.00150  -0.00153   1.92002
   A17        1.87152  -0.00034   0.00000  -0.00054  -0.00058   1.87094
   A18        1.91253   0.00136   0.00000   0.01329   0.01332   1.92585
   A19        1.88934   0.00070   0.00000   0.00392   0.00386   1.89320
   A20        1.91447  -0.00049   0.00000  -0.00591  -0.00606   1.90841
   A21        1.89924  -0.00035   0.00000  -0.00899  -0.00897   1.89027
   A22        1.93501  -0.00017   0.00000   0.00071   0.00078   1.93580
   A23        1.90943   0.00083   0.00000   0.00336   0.00335   1.91278
   A24        1.93053  -0.00007   0.00000   0.00408   0.00411   1.93464
   A25        1.87438   0.00027   0.00000   0.00685   0.00681   1.88118
   A26        2.05001  -0.01425   0.00000  -0.05623  -0.05623   1.99378
   A27        1.95324  -0.00151   0.00000  -0.01305  -0.01317   1.94007
   A28        1.94693  -0.00035   0.00000  -0.00219  -0.00227   1.94465
   A29        1.91121   0.00121   0.00000   0.00760   0.00768   1.91889
   A30        1.90090   0.00073   0.00000  -0.00108  -0.00107   1.89983
   A31        1.87316  -0.00003   0.00000   0.00306   0.00307   1.87624
   A32        1.87532   0.00002   0.00000   0.00663   0.00661   1.88193
   A33        1.91488   0.00194   0.00000  -0.00131  -0.00131   1.91356
   A34        1.92220  -0.00097   0.00000  -0.00634  -0.00636   1.91585
   A35        1.91581  -0.00055   0.00000   0.00171   0.00172   1.91753
   A36        1.91387  -0.00087   0.00000  -0.00192  -0.00199   1.91188
   A37        1.92991  -0.00027   0.00000   0.00184   0.00188   1.93179
   A38        1.86673   0.00066   0.00000   0.00610   0.00611   1.87284
   A39        1.94725   0.00005   0.00000  -0.00572  -0.00561   1.94164
   A40        1.94774   0.00320   0.00000   0.01036   0.01015   1.95789
   A41        1.82803  -0.00196   0.00000  -0.00516  -0.00517   1.82285
   A42        1.89106  -0.00318   0.00000  -0.01762  -0.01757   1.87350
   A43        1.91801   0.00189   0.00000   0.01468   0.01470   1.93270
   A44        1.93169   0.00016   0.00000   0.00463   0.00469   1.93639
   A45        1.92384  -0.00101   0.00000  -0.00604  -0.00622   1.91762
   A46        1.93888  -0.00050   0.00000  -0.00148  -0.00146   1.93743
   A47        1.91644   0.00092   0.00000   0.00186   0.00193   1.91837
   A48        1.90283   0.00060   0.00000   0.00389   0.00395   1.90677
   A49        1.90528   0.00003   0.00000  -0.00163  -0.00159   1.90369
   A50        1.87568  -0.00000   0.00000   0.00365   0.00362   1.87930
   A51        1.94383   0.00223   0.00000   0.00546   0.00539   1.94922
   A52        1.84199  -0.00133   0.00000  -0.00233  -0.00234   1.83965
   A53        1.90972   0.00025   0.00000   0.00242   0.00249   1.91221
   A54        1.94626  -0.00022   0.00000  -0.00158  -0.00152   1.94474
   A55        1.93161  -0.00165   0.00000  -0.00770  -0.00773   1.92388
   A56        1.88751   0.00072   0.00000   0.00411   0.00410   1.89161
   A57        1.91718  -0.00049   0.00000  -0.00845  -0.00852   1.90866
   A58        1.92808   0.00066   0.00000   0.00302   0.00300   1.93107
   A59        1.90553  -0.00008   0.00000   0.00416   0.00419   1.90972
   A60        1.91333  -0.00048   0.00000  -0.00267  -0.00267   1.91066
   A61        1.93449   0.00046   0.00000   0.00251   0.00256   1.93705
   A62        1.86473  -0.00005   0.00000   0.00184   0.00182   1.86655
   A63        1.97689  -0.00436   0.00000  -0.02594  -0.02596   1.95094
    D1        0.55048   0.00153   0.00000   0.01033   0.01034   0.56082
    D2        2.62557   0.00052   0.00000   0.00001   0.00003   2.62560
    D3       -1.57235  -0.00003   0.00000  -0.00573  -0.00569  -1.57804
    D4       -1.58105   0.00156   0.00000   0.02096   0.02096  -1.56009
    D5        0.49403   0.00055   0.00000   0.01065   0.01066   0.50469
    D6        2.57930  -0.00000   0.00000   0.00490   0.00493   2.58424
    D7        2.65681   0.00093   0.00000   0.00941   0.00939   2.66620
    D8       -1.55129  -0.00009   0.00000  -0.00090  -0.00092  -1.55221
    D9        0.53398  -0.00064   0.00000  -0.00665  -0.00664   0.52733
   D10        0.53032   0.00107   0.00000   0.01502   0.01503   0.54535
[...]
 001966,-0.00060591,0.00023457,0.00537786,0.00017075,0.00013208,0.00040
 540,0.00015551,0.00016758,0.00005589,0.00007957,0.00015267,0.00013109,
 -0.00012250,-0.00001664,0.00007663,-0.00000957,0.00000778,0.00002001,-
 0.00000266,0.00000345,0.00016130,0.00008057,0.00011299,-0.00002447,-0.
 00002767,0.00002705,-0.00014225,0.00006103,0.00038424,0.00066043,-0.00
 017906,-0.00093975,-0.00054786,0.00023843,-0.00060531,-0.00046651,0.00
 059032,-0.00005047,0.00012921,0.00005552,0.00067484,0.00051900,0.00067
 191,0.08211774,0.10832844,0.17669210,0.00025229,0.00010914,-0.00010451
 ,0.00002441,0.00000271,0.00000550,-0.00582447,-0.00416817,0.00067406,0
 .00002449,-0.00006224,0.00000158,-0.00003246,0.00000278,0.00003983,-0.
 00054921,0.00031282,0.00010190,0.00055615,0.00214126,-0.00094720,-0.00
 570991,-0.00443369,-0.00701632,0.00134114,-0.00105557,0.00133269,-0.10
 864768,-0.06274226,-0.08947757,-0.00991692,-0.01026664,-0.02063907,0.0
 0000558,-0.00000521,-0.00002131,-0.00006327,0.00002772,-0.00001596,0.0
 0000893,-0.00002929,-0.00001328,-0.00000767,0.00000449,0.00000413,-0.0
 0000468,-0.00000027,-0.00000381,0.00000252,0.00000235,-0.00000401,-0.0
 0002739,0.00001224,0.00001116,0.00000420,-0.00000608,0.00000306,0.0000
 1748,0.00001357,-0.00000018,-0.00009512,-0.00042505,-0.00039530,-0.000
 06017,-0.00023108,-0.00024422,0.00013032,-0.00029946,0.00027570,0.0003
 9300,0.00025517,0.00026463,-0.00003058,0.00011425,-0.00013069,0.115879
 61,0.00012122,0.00000991,-0.00000761,0.00001467,0.00000425,0.00000277,
 -0.00559061,-0.00157060,0.00027767,0.00003062,-0.00001866,-0.00001817,
 -0.00000016,0.00000907,0.00001700,-0.00031544,0.00035618,-0.00011536,0
 .00133690,-0.00299444,0.00320060,0.01203183,0.01227117,0.01680947,0.00
 060115,-0.00146277,0.00137682,-0.06442400,-0.11378643,-0.09732449,-0.0
 0399338,-0.00782184,-0.01356625,0.00000272,0.00000008,-0.00001027,-0.0
 0003931,0.00001821,-0.00000946,0.00001720,0.00000242,-0.00003819,-0.00
 000399,0.00000163,0.00000190,-0.00000266,-0.00000039,-0.00000197,-0.00
 000176,0.00000252,0.00000115,-0.00001117,0.00000202,0.00000303,-0.0000
 0329,-0.00000266,-0.00000279,0.00001555,0.00000553,0.00000304,0.000774
 96,0.00062502,0.00096235,-0.00005162,0.00007123,0.00013377,-0.00032050
 ,0.00097908,-0.00088176,-0.00061855,0.00078779,-0.00088228,0.00001125,
 0.00013016,-0.00024611,0.06988065,0.12203474,0.00008822,0.00007010,-0.
 00004730,0.00001080,0.00000112,0.00000148,0.00366078,0.00257813,0.0010
 8831,-0.00000056,-0.00003500,0.00002182,-0.00002996,-0.00000503,0.0000
 1673,-0.00018912,-0.00022318,0.00020258,-0.00134434,0.00485589,-0.0022
 7177,-0.01033335,-0.01235288,-0.01611538,0.00061868,0.00095297,-0.0009
 3388,-0.09119950,-0.09732357,-0.18803856,0.00523452,0.00589047,0.01031
 937,0.,-0.00000637,-0.00000897,-0.00002150,0.00000688,-0.00000841,-0.0
 0001369,-0.00000762,0.00002357,-0.00000294,0.00000173,0.00000188,-0.00
 000165,-0.00000037,-0.00000159,0.00000273,-0.00000195,-0.00000474,-0.0
 0001372,0.00000951,0.00000685,0.00000706,-0.00000421,0.00000145,-0.000
 00827,0.00000395,-0.00000555,-0.00119984,-0.00086586,-0.00087069,0.000
 30240,0.00015045,0.00027201,0.00013644,0.00005969,0.00109439,0.0007054
 9,-0.00042655,0.00047965,-0.00003179,-0.00020486,0.00020495,0.10095636
 ,0.10370103,0.20322588,0.00016964,-0.00003339,0.00000441,0.00001817,0.
 00000534,0.00000248,0.00254119,0.00049744,-0.00093758,0.00004024,-0.00
 003297,-0.00000713,-0.00002395,0.00001797,-0.00000473,-0.00005552,-0.0
 0006413,-0.00016447,0.00005020,0.00009032,0.00068373,-0.00674610,0.006
 92571,0.00383318,-0.00029526,0.00008664,0.00006390,-0.15387746,0.10676
 626,0.06541542,-0.01914438,0.01704669,0.01311841,0.00000231,-0.0000069
 5,-0.00001234,-0.00004506,0.00001621,-0.00001563,0.00005433,0.00003927
 ,-0.00002171,-0.00000422,0.00000124,0.00000258,-0.00000301,-0.00000089
 ,-0.00000232,0.00000460,-0.00000290,-0.00000147,-0.00001023,0.00000453
 ,0.00000377,-0.00000792,-0.00000612,-0.00000787,-0.00000406,0.00000143
 ,-0.00000281,0.00015998,-0.00012366,-0.00013058,-0.00023156,-0.0001541
 2,-0.00036169,0.00034831,0.00119571,-0.00150354,0.00062630,-0.00027351
 ,-0.00027492,-0.00007582,-0.00000011,-0.00002242,0.01099702,-0.0101831
 4,-0.00584516,0.16748869,-0.00007920,-0.00005994,0.00012901,-0.0000024
 6,0.00000045,-0.00000083,0.00201952,0.00097159,0.00061666,0.00000707,0
 .00000661,-0.00001547,0.00002339,0.00002497,-0.00003819,0.00021255,0.0
 0001798,-0.00014924,-0.00085340,0.00070338,-0.00086197,0.01412848,-0.0
 1656753,-0.00830334,-0.00013408,0.00001201,0.00013263,0.10839167,-0.15
 832516,-0.07109615,-0.01325733,0.01126293,0.00828803,0.00000242,0.0000
 0347,0.00000664,0.00000263,0.00000445,-0.00000039,0.00003102,0.0000515
 6,-0.00003309,0.00000127,-0.00000109,-0.00000059,0.00000081,-0.0000000
 8,0.00000064,-0.00000293,0.00000167,0.00000467,0.00000774,-0.00000363,
 -0.00000348,-0.00001227,-0.00000360,-0.00000747,-0.00000150,-0.0000043
 3,0.00000204,-0.00028116,0.00011668,0.00019033,0.00020111,0.00053873,0
 .00040356,0.00132353,-0.00176443,0.00394175,-0.00058356,0.00057147,-0.
 00037145,0.00009592,0.00004388,-0.00005320,0.00986377,-0.01035444,-0.0
 0591781,-0.11857730,0.17269106,-0.00014809,-0.00006675,-0.00001428,-0.
 00001349,-0.00000369,-0.00000212,-0.00112540,0.00070799,0.00173386,-0.
 00001720,0.00003728,0.00000222,0.00000782,-0.00001324,0.00001011,0.000
 24043,-0.00013087,0.00011761,0.00017211,0.00032124,0.00156690,-0.01618
 814,0.01656584,0.00926475,-0.00018910,0.00038190,-0.00043268,0.0668201
 9,-0.07002838,-0.09192751,0.00961046,-0.01037622,-0.00885856,-0.000003
 87,0.00000119,0.00000553,0.00003615,-0.00001559,0.00001351,-0.00007394
 ,-0.00002739,0.00001236,0.00000335,-0.00000114,-0.00000205,0.00000233,
 0.00000039,0.00000182,-0.00000494,0.00000070,-0.00000089,0.00000907,-0
 .00000602,-0.00000371,0.00000456,0.00000559,0.00000314,0.00000088,-0.0
 0000225,0.00000019,0.00035099,-0.00004371,0.00004995,0.00030122,-0.000
 27770,-0.00020696,-0.00212833,0.00319185,-0.00287612,0.00057977,-0.000
 76759,0.00103784,0.00002064,-0.00007598,0.00007062,0.01507611,-0.01374
 503,-0.00935412,-0.07527163,0.07241713,0.09960476,0.00055095,0.0001657
 9,-0.00016459,0.00004099,0.00000952,0.00000646,-0.00956394,0.01093088,
 -0.01912335,0.00006914,-0.00008257,0.00002311,-0.00007141,0.00002334,0
 .00000543,-0.00047079,0.00007361,-0.00034408,-0.00039361,0.00008374,-0
 .00035443,-0.00484106,-0.00217559,0.00147628,-0.00077517,-0.00338620,-
 0.00029152,0.00992431,-0.01958625,0.01833228,-0.07417035,0.05860923,-0
 .04777606,0.00001413,-0.00001564,-0.00002211,-0.00009952,0.00003078,-0
 .00002803,0.00003169,-0.00000843,0.00000756,-0.00001192,0.00000539,0.0
 0000575,-0.00000772,-0.00000189,-0.00000539,0.00001233,-0.00000975,-0.
 00000919,-0.00004049,0.00001657,0.00001619,-0.00000682,-0.00002491,0.0
 0001309,0.00001207,0.00000702,-0.00000859,0.00019719,0.00015909,0.0000
 0386,0.00005686,0.00006224,0.00003676,0.00004654,-0.00014358,-0.000092
 39,0.00050873,-0.00111293,0.00129847,-0.00029874,0.00051421,-0.0008141
 9,0.00076756,0.00070722,-0.00093797,0.00120474,0.00080586,-0.00045574,
 0.08254493,-0.00014166,0.00004909,0.00003524,-0.00002081,-0.00000763,0
 .00000093,-0.00948905,0.01485287,-0.01743034,-0.00005170,0.00002493,0.
 00000512,0.00003368,-0.00001837,-0.00001491,0.00008264,0.00058004,0.00
 077157,-0.00029558,-0.00010088,-0.00050091,-0.00408710,-0.00039918,0.0
 0077532,-0.00131430,-0.00218962,-0.00295132,0.00620636,-0.01044551,0.0
 0875476,0.06432281,-0.19350657,0.12764851,0.00000244,0.00001819,0.0000
 1945,0.00004188,-0.00001346,0.00001564,0.00003546,-0.00009585,0.000079
 18,0.00000363,-0.00000001,-0.00000276,0.00000314,0.00000113,0.00000180
 ,-0.00000588,0.00000471,0.00000420,0.00001041,-0.00000379,-0.00000411,
 0.00001449,0.00000448,0.00000982,0.00000128,0.00001708,-0.00000228,0.0
 0017484,0.00010747,0.00004395,0.00001124,0.00005006,0.00004939,-0.0000
 7691,0.00031883,-0.00030815,0.00038885,-0.00059468,0.00113702,-0.00025
 695,0.00040442,-0.00068187,-0.00002013,0.00008207,-0.00030519,-0.00023
 154,0.00101787,-0.00025722,-0.06050904,0.20261519,0.00025911,0.0001449
 2,-0.00008657,0.00002100,-0.00000070,0.00000832,-0.01630701,0.01539398
 ,-0.02671982,-0.00000696,-0.00006906,0.00001568,-0.00004599,-0.0000042
 5,0.00002329,-0.00040905,0.00081683,0.00104158,-0.00027118,-0.00005850
 ,0.00022552,0.00248263,0.00072946,0.00042898,0.00021192,-0.00627449,-0
 .00053700,-0.00260464,0.00971541,-0.00701306,-0.04745604,0.11724922,-0
 .15132471,0.00001319,0.00000730,-0.00000841,-0.00006005,0.00002779,-0.
 00001501,-0.00005277,-0.00005364,-0.00002789,-0.00000840,0.00000663,0.
 00000404,-0.00000425,0.00000030,-0.00000443,-0.00000398,0.00000392,-0.
 00000562,-0.00003297,0.00001600,0.00001368,0.00001735,-0.00001425,0.00
 001640,0.00001260,0.00003136,-0.00000897,0.00008369,0.00014347,-0.0000
 3166,0.00000886,-0.00002381,-0.00002566,-0.00010862,0.00018581,-0.0000
 2374,-0.00035887,0.00045630,-0.00039540,-0.00052006,0.00074833,-0.0010
 6047,0.00024238,0.00012266,0.00023432,-0.00053325,-0.00042226,0.000188
 11,0.06127020,-0.12901463,0.17353200,0.00004165,0.00018997,-0.00083729
 ,-0.00003616,-0.00002913,0.00000412,0.01208898,-0.01629734,-0.01423529
 ,-0.00004895,0.00000274,0.00005938,0.00000781,-0.00020030,0.00009818,-
 0.00183924,0.00052756,-0.00125511,-0.00010394,-0.00008199,-0.00008107,
 0.00088761,0.00077042,-0.00104728,0.00136068,-0.00064528,0.00053427,-0
 .01797710,0.01651291,0.01228917,-0.15341214,0.10266942,0.07663643,-0.0
 0001252,0.00000480,0.00001654,0.00011048,-0.00001965,0.00002420,0.0000
 0408,-0.00042820,0.00025651,0.00000765,0.00000155,-0.00000369,0.000008
 27,0.00000442,0.00000352,0.00012347,0.00004598,0.00004097,0.00001640,0
 .00000337,-0.00000303,0.00003948,0.00002871,0.00003981,-0.00002408,0.0
 0000531,0.00000066,0.00010324,0.00008683,0.00004808,-0.00006556,-0.000
 01207,-0.00004954,0.00036546,-0.00064296,0.00036334,0.00010392,-0.0001
 8912,-0.00027814,-0.00014854,0.00012214,0.00010354,0.00058540,0.000021
 93,-0.00054136,-0.00317147,-0.00333987,0.00237691,-0.00519883,0.005158
 14,0.00418573,0.16617401,-0.00000473,0.00031442,-0.00031455,-0.0000174
 8,-0.00000644,-0.00000237,0.00095254,-0.01378803,-0.01991099,-0.000114
 02,0.00007469,0.00006889,-0.00004119,-0.00007738,0.00014451,0.00003741
 ,0.00141678,0.00199731,-0.00033118,0.00026126,-0.00000823,-0.00036979,
 0.00139273,-0.00041258,0.00232906,-0.00307371,0.00264345,-0.01122212,0
 .01099542,0.00928790,0.10038230,-0.14785439,-0.06950504,-0.00001089,0.
 00001160,-0.00000453,0.00004276,-0.00005706,0.00002604,-0.00044072,-0.
 00027293,-0.00004126,0.00000039,0.00000270,-0.00000076,0.00000004,0.00
 000009,0.00000028,-0.00010372,-0.00004615,-0.00004411,-0.00002618,-0.0
 0000325,0.00001211,0.00005881,0.00002073,0.00003091,0.00002607,0.00002
 761,-0.00000343,0.00010856,0.00014797,-0.00006916,0.00000852,-0.000058
 55,-0.00001153,0.00022472,-0.00019400,-0.00047826,0.00010054,0.0000133
 3,-0.00021753,-0.00016296,0.00015375,-0.00020851,0.00100253,0.00061997
 ,-0.00060141,-0.00300376,-0.00095655,0.00220718,0.01485402,-0.01277264
 ,-0.00986268,-0.10427190,0.16371033,-0.00062783,0.00007921,-0.00011438
 ,-0.00004779,-0.00001752,0.00000128,0.00430354,-0.02344337,-0.02377415
 ,-0.00015628,0.00008276,0.00000228,0.00007398,-0.00010447,0.00005288,-
 0.00092068,0.00166398,0.00118127,-0.00037389,0.00033994,-0.00042413,-0
 .00017561,-0.00118185,0.00026177,0.00377510,-0.00469157,0.00124445,0.0
 1035457,-0.00765572,-0.00498098,0.07317219,-0.06483531,-0.10305652,0.0
 0000052,0.00004126,0.00003610,0.00010586,-0.00002696,0.00004288,-0.000
 18166,-0.00015363,0.00006832,0.00000819,0.00000154,-0.00000545,0.00000
 726,0.00000327,0.00000417,-0.00004471,0.00001245,-0.00000447,0.0000166
 4,-0.00001039,-0.00000593,0.00004947,0.00001959,0.00002621,0.00002006,
 0.00003369,0.00000371,0.00007891,0.00014964,-0.00008960,-0.00005284,-0
 .00000632,0.00010440,-0.00013133,0.00038503,-0.00018735,-0.00015658,0.
 00015957,0.00020203,-0.00030182,0.00037587,-0.00009487,0.00001720,0.00
 023371,0.00046280,0.00198969,0.00114342,-0.00000153,-0.01208109,0.0121
 2494,0.01154737,-0.07874060,0.08527748,0.11750691,0.00127808,-0.000317
 04,0.00139195,-0.00314025,0.00526224,-0.01368666,-0.00002207,-0.000025
 39,-0.00010482,-0.00007026,-0.00027544,-0.00019954,-0.00248919,-0.0115
 0679,0.03279289,0.00018473,0.00019689,-0.00051191,0.00000754,-0.000043
 60,-0.00008802,-0.00002013,-0.00001246,0.00002543,0.00002189,0.0001795
 7,0.00026636,0.00000488,-0.00000482,-0.00000370,-0.00000232,0.00002986
 ,0.00000846,-0.04803408,-0.00407897,0.00571581,0.00051993,0.00022492,0
 .00022743,-0.00017682,0.00016260,-0.00036607,0.00074975,-0.00034982,-0
 .00036632,-0.00027670,0.00332546,-0.00006713,0.00000371,0.00009667,-0.
 00003156,0.00014704,-0.00049699,-0.00009450,-0.00629872,-0.00005201,0.
 00179070,0.00129856,0.00045065,-0.00062266,0.00000016,-0.00000075,0.00
 000379,0.00000533,0.00000426,-0.00000246,-0.00000067,-0.00000279,-0.00
 000166,-0.00000813,-0.00000744,-0.00000818,0.00003946,-0.00013102,-0.0
 0009250,-0.00000278,-0.00000020,-0.00000115,0.00000038,0.00000150,0.00
 000028,-0.00000557,-0.00000270,-0.00000813,-0.00000331,-0.00000620,-0.
 00000570,0.05559640,-0.00036032,0.00009032,0.00063460,0.00133588,-0.00
 947914,0.03001857,0.00004458,-0.00002525,0.00001031,0.00012641,-0.0005
 0985,0.00093252,-0.00095230,-0.00011231,-0.00069717,0.00011266,0.00005
 113,-0.00016697,0.00001292,-0.00002027,-0.00000730,-0.00000131,-0.0000
 0083,-0.00000195,-0.00007309,0.00008668,0.00003925,-0.00000095,0.00000
 027,0.00000109,-0.00001838,-0.00000326,-0.00000993,-0.00298009,-0.0772
 0528,0.07859261,-0.00026907,-0.00118373,-0.00091092,-0.00017987,-0.000
 04200,-0.00007451,-0.00073849,0.00164263,-0.00040988,0.00174994,-0.004
 58743,0.00012167,0.00000834,0.00013825,-0.00019324,-0.00021806,-0.0004
 1733,-0.00063423,0.00030170,0.00086152,0.00014381,-0.00041239,0.000112
 83,-0.00017800,-0.00000077,0.00000043,0.00000074,0.00000945,0.00000307
 ,-0.00000356,-0.00000048,-0.00000211,0.00000042,0.00000199,0.00000197,
 0.00000020,0.00000326,-0.00001282,-0.00000836,0.00000194,0.00000072,0.
 00000075,0.00000115,-0.00000028,-0.00000090,0.00000283,-0.00000097,0.0
 0000184,-0.00000234,-0.00000264,-0.00000270,0.00088488,0.08362044,-0.0
 0047724,-0.00103354,0.00038188,-0.00041822,-0.00146141,-0.00040833,0.0
 0011509,-0.00000776,0.00009281,-0.00041233,-0.00044876,-0.00146270,0.0
 0196393,0.00341495,-0.00995348,0.00032477,0.00004769,-0.00003295,0.000
 01400,-0.00000029,0.00004362,0.00001166,0.00000619,-0.00002448,-0.0002
 2227,0.00008429,-0.00008453,-0.00000232,0.00000549,0.00000525,-0.00004
 000,-0.00003100,-0.00003539,0.00491806,0.08146984,-0.28277382,0.000524
 55,0.00075786,0.00074857,0.00056265,0.00054884,0.00005284,-0.00019106,
 0.00018929,0.00134343,0.00004117,0.00023064,0.00136068,0.00000088,-0.0
 0001335,0.00034784,-0.00061667,-0.00068185,0.00046639,0.00210207,-0.00
 048386,0.00073016,0.00014212,-0.00024279,0.00019241,0.00000064,0.00000
 157,-0.00000063,0.00001373,0.00000186,-0.00000543,-0.00000119,-0.00000
 431,0.00000066,0.00001202,0.00000685,0.00000555,-0.00001492,0.00005155
 ,0.00006661,0.00000646,0.00000268,0.00000264,0.00000309,-0.00000121,-0
 .00000253,0.00001173,-0.00000144,0.00000958,-0.00000521,-0.00000024,-0
 .00000598,-0.00885430,-0.08795848,0.30617996,-0.00309665,0.00187670,0.
 00452452,0.00718413,0.00727382,0.00691367,-0.00035254,0.00019698,-0.00
 017369,-0.00092077,0.00069894,0.00026828,-0.01797231,-0.01931218,-0.01
 943223,-0.00305203,-0.00163284,-0.00039228,-0.00006079,0.00012118,-0.0
 0000503,-0.00000663,-0.00000525,0.00004229,0.00102538,-0.00098813,-0.0
 0040987,0.00000821,-0.00001559,-0.00000907,0.00014013,0.00005208,0.000
 10971,-0.12772670,-0.09249547,-0.08325532,0.00073288,0.00291318,0.0001
 2207,-0.00001891,0.00001884,-0.00046207,-0.00103487,-0.00056412,0.0002
 5231,0.00128440,-0.00008116,0.00008355,0.00011249,-0.00014027,0.000065
 15,0.00016434,0.00000210,0.00002499,0.00139029,-0.00002218,0.00019386,
 0.00139379,0.00051431,-0.00043854,0.00000388,-0.00000437,-0.00000348,-
 0.00007250,-0.00001970,0.00003599,0.00000357,0.00003011,0.00000914,-0.
 00003618,-0.00000939,-0.00000393,0.00008170,0.00013025,0.00001417,-0.0
 0001778,-0.00000808,-0.00000761,-0.00001009,0.00000478,0.00000660,-0.0
 0002621,0.00001206,-0.00001644,0.00001326,-0.00000144,0.00002522,0.000
 69318,0.00160999,0.00048711,0.14017335,0.00101061,0.00080091,-0.000313
 78,-0.01764074,-0.01584727,-0.01539151,-0.00005310,0.00001023,-0.00001
 880,0.00162255,-0.00001152,0.00142476,0.00149727,0.00092743,0.00210467
 ,0.00013169,0.00027074,0.00002815,-0.00000383,0.00000499,-0.00001164,-
 0.00000276,-0.00000202,0.00000680,0.00005563,-0.00003792,0.00000771,0.
 00000066,-0.00000079,-0.00000216,0.00002203,0.00001071,0.00001610,-0.0
 9273008,-0.15216207,-0.09425972,0.00017150,-0.00731838,-0.00077921,-0.
 00019549,-0.00009573,0.00004567,0.00120140,-0.00056390,-0.00014359,-0.
 00081091,0.00129672,0.00049580,-0.00012923,0.00002977,-0.00013506,-0.0
 0004265,0.00007113,-0.00017384,-0.00018495,-0.00004505,-0.00009476,-0.
 00024817,0.00045861,0.00039229,-0.00000070,-0.00000170,0.00000070,-0.0
 0000517,-0.00000202,0.00000173,0.00000070,0.00000120,-0.00000053,-0.00
 000378,-0.00000231,-0.00000152,0.00000200,-0.00000985,-0.00001116,-0.0
 0000223,-0.00000154,-0.00000080,-0.00000142,0.00000027,0.00000140,-0.0
 0000456,0.00000072,-0.00000327,0.00000395,0.00000033,0.00000247,0.0064
 9495,0.00699524,0.00555069,0.09984484,0.16522308,0.00190861,-0.0005921
 8,-0.00049879,0.00203083,0.00344718,0.00027635,0.00001547,-0.00002647,
 -0.00000050,-0.00000545,-0.00002529,-0.00088642,0.00757080,0.00857695,
 0.00745313,0.00083511,0.00053751,0.00014688,0.00000114,-0.00000813,-0.
 00001418,0.00000066,0.00000137,0.00000006,-0.00014555,0.00017520,0.000
 12721,-0.00000035,0.00000031,-0.00000102,-0.00000948,0.00000151,-0.000
 00578,-0.08566975,-0.09648352,-0.13370059,0.00024657,0.00223490,0.0005
 6950,0.00021060,0.00018609,0.00022695,0.00012421,-0.00020223,0.0002954
 7,0.00043558,0.00030440,0.00107506,-0.00000385,-0.00007299,0.00020666,
 -0.00024680,-0.00010659,0.00041648,-0.00079306,0.00011599,0.00051816,-
 0.00081198,-0.00003712,0.00032133,0.00000016,0.00000010,0.00000084,0.0
 0000479,0.00000061,-0.00000369,0.00000131,-0.00000505,-0.00000274,0.00
 000356,-0.00000223,-0.00000170,-0.00002706,-0.00004158,-0.00002652,0.0
 0000069,0.00000010,0.00000028,0.00000056,-0.00000038,-0.00000020,0.000
 00155,-0.00000170,-0.00000045,-0.00000371,0.00000109,-0.00000349,-0.01
 710610,-0.01924028,-0.01724062,0.09143095,0.10126241,0.14075235\\0.000
 44279,0.00006420,0.00062872,0.00007216,0.00004752,-0.00000679,-0.00059
 137,-0.00047610,-0.00009927,-0.00002794,0.00001947,-0.00002947,-0.0000
 2160,-0.00000377,0.00001702,-0.00080547,-0.00018146,-0.00097394,0.0000
 5263,0.00001053,-0.00000192,-0.00000271,-0.00005310,0.00000425,0.00097
 440,0.00067526,0.00052184,-0.00001934,0.00001607,-0.00002368,0.0000082
 8,-0.00005855,-0.00009386,-0.00001381,-0.00001427,-0.00000920,0.000002
 22,-0.00003643,0.00001700,-0.00000374,-0.00001732,0.00002402,-0.000026
 75,-0.00000106,0.00001939,-0.00002239,-0.00000528,-0.00002051,0.000026
 19,0.00001967,0.00001017,-0.00001240,-0.00000684,0.00001768,-0.0000000
 8,0.00001392,-0.00001727,-0.00000257,-0.00001611,-0.00000900,-0.000029
 92,-0.00000112,0.00000276,0.00001218,0.00000433,-0.00001062,-0.0000066
 5,0.00000792,0.00000762,0.00001335,0.00001288,-0.00000636,-0.00000727,
 -0.00003291,-0.00003785,0.00000050,-0.00000255,0.00002448,0.00000847,-
 0.00000791,0.00000146,0.00000737,-0.00001385,0.00002371,-0.00002286,0.
 00003493,0.00002436,-0.00000027,0.00000397,0.00000666,-0.00000337,-0.0
 0000206,-0.00001140\\\@


 THE MOLECULE ALSO HAS A BODY.  WHEN THIS BODY IS HIT, THE MOLECULE
 FEELS HURT ALL OVER -- A. KITAIGORODSKI
 Job cpu time:       0 days 15 hours 56 minutes 38.7 seconds.
 Elapsed time:       0 days  0 hours 59 minutes 48.5 seconds.
 File lengths (MBytes):  RWF=    692 Int=      0 D2E=      0 Chk=     33 Scr=      1
 Normal termination of Gaussian 16 at Sun Nov  4 22:54:43 2018.
