 Entering Gaussian System, Link 0=g16
 Initial command:
 /apps/gaussian/g16a03/g16/l1.exe "/jobfs/local/2012009.r-man2/Gau-1117.inp" -scrdir="/jobfs/local/2012009.r-man2/"
 Entering Link 1 = /apps/gaussian/g16a03/g16/l1.exe PID=      1118.
  
 Copyright (c) 1988,1990,1992,1993,1995,1998,2003,2009,2016,
            Gaussian, Inc.  All Rights Reserved.
  
 This is part of the Gaussian(R) 16 program.  It is based on
 the Gaussian(R) 09 system (copyright 2009, Gaussian, Inc.),
 the Gaussian(R) 03 system (copyright 2003, Gaussian, Inc.),
 the Gaussian(R) 98 system (copyright 1998, Gaussian, Inc.),
 the Gaussian(R) 94 system (copyright 1995, Gaussian, Inc.),
 the Gaussian 92(TM) system (copyright 1992, Gaussian, Inc.),
 the Gaussian 90(TM) system (copyright 1990, Gaussian, Inc.),
 the Gaussian 88(TM) system (copyright 1988, Gaussian, Inc.),
 the Gaussian 86(TM) system (copyright 1986, Carnegie Mellon
 University), and the Gaussian 82(TM) system (copyright 1983,
 Carnegie Mellon University). Gaussian is a federally registered
 trademark of Gaussian, Inc.
  
 This software contains proprietary and confidential information,
 including trade secrets, belonging to Gaussian, Inc.
  
 This software is provided under written license and may be
 used, copied, transmitted, or stored only in accord with that
 written license.
  
 The following legend is applicable only to US Government
 contracts under FAR:
  
                    RESTRICTED RIGHTS LEGEND
  
 Use, reproduction and disclosure by the US Government is
 subject to restrictions as set forth in subparagraphs (a)
 and (c) of the Commercial Computer Software - Restricted
 Rights clause in FAR 52.227-19.
  
 Gaussian, Inc.
 340 Quinnipiac St., Bldg. 40, Wallingford CT 06492
  
  
 ---------------------------------------------------------------
 Warning -- This program may not be used in any manner that
 competes with the business of Gaussian, Inc. or will provide
 assistance to any competitor of Gaussian, Inc.  The licensee
 of this program is prohibited from giving any competitor of
 Gaussian, Inc. access to this program.  By using this program,
 the user acknowledges that Gaussian, Inc. is engaged in the
 business of creating and licensing software in the field of
 computational chemistry and represents and warrants to the
 licensee that it is not a competitor of Gaussian, Inc. and that
 it will not use this program in any manner prohibited above.
 ---------------------------------------------------------------
  

 Cite this work as:
 Gaussian 16, Revision A.03,
 M. J. Frisch, G. W. Trucks, H. B. Schlegel, G. E. Scuseria, 
 M. A. Robb, J. R. Cheeseman, G. Scalmani, V. Barone, 
 G. A. Petersson, H. Nakatsuji, X. Li, M. Caricato, A. V. Marenich, 
 J. Bloino, B. G. Janesko, R. Gomperts, B. Mennucci, H. P. Hratchian, 
 J. V. Ortiz, A. F. Izmaylov, J. L. Sonnenberg, D. Williams-Young, 
 F. Ding, F. Lipparini, F. Egidi, J. Goings, B. Peng, A. Petrone, 
 T. Henderson, D. Ranasinghe, V. G. Zakrzewski, J. Gao, N. Rega, 
 G. Zheng, W. Liang, M. Hada, M. Ehara, K. Toyota, R. Fukuda, 
 J. Hasegawa, M. Ishida, T. Nakajima, Y. Honda, O. Kitao, H. Nakai, 
 T. Vreven, K. Throssell, J. A. Montgomery, Jr., J. E. Peralta, 
 F. Ogliaro, M. J. Bearpark, J. J. Heyd, E. N. Brothers, K. N. Kudin, 
 V. N. Staroverov, T. A. Keith, R. Kobayashi, J. Normand, 
 K. Raghavachari, A. P. Rendell, J. C. Burant, S. S. Iyengar, 
 J. Tomasi, M. Cossi, J. M. Millam, M. Klene, C. Adamo, R. Cammi, 
 J. W. Ochterski, R. L. Martin, K. Morokuma, O. Farkas, 
 J. B. Foresman, and D. J. Fox, Gaussian, Inc., Wallingford CT, 2016.
 
 ******************************************
 Gaussian 16:  ES64L-G16RevA.03 25-Dec-2016
                 4-Nov-2018 
 ******************************************
 %mem=6000mb
 %nproc=24
 Will use up to   24 processors via shared memory.
 %chk=D_a1-4_2SO_PHI.inp_extract_9.chk
 ----------------------------------------------------------------------
 #M062X/6-311++G(2d,2p) opt=ModRedundant freq=noraman SCRF=(Solvent=Wat
 er)
 ----------------------------------------------------------------------
 1/18=120,19=15,26=3,38=1/1,3;
 2/9=110,12=2,17=6,18=5,40=1/2;
 3/5=4,6=6,7=1212,11=2,25=1,30=1,70=2201,71=1,72=1,74=-55/1,2,3;
 4//1;
 5/5=2,38=5,53=1/2;
 6/7=2,8=2,9=2,10=2,28=1/1;
 7//1,2,3,16;
 1/18=20,19=15,26=3/3(2);
 2/9=110/2;
 99//99;
 2/9=110/2;
 3/5=4,6=6,7=1212,11=2,25=1,30=1,70=2205,71=1,72=1,74=-55/1,2,3;
 4/5=5,16=3,69=1/1;
 5/5=2,38=5,53=1/2;
 7//1,2,3,16;
 1/18=20,19=15,26=3/3(-5);
 2/9=110/2;
 6/7=2,8=2,9=2,10=2,19=2,28=1/1;
 99/9=1/99;
 ----------------------------
 D_a1-4_2SO_PHI.inp_extract_9
 ----------------------------
 Symbolic Z-matrix:
 Charge =  0 Multiplicity = 1
 C                     0.86113   0.11159  -0.25811 
 C                     3.8025    0.01656   0.10463 
 O                    -2.27612  -0.4047    1.34001 
 C                     1.78563  -1.10077  -0.42364 
 C                     1.67681   1.32775   0.18516 
 O                    -0.1293   -0.09862   0.7342 
 C                    -1.74712  -1.06553  -0.90982 
 C                    -2.41169   0.20295  -1.45028 
 C                    -1.25615  -0.92058   0.52959 
 C                    -3.46835   0.69497  -0.46255 
 C                    -2.85835   0.82258   0.92153 
 C                     3.07672   1.2602   -0.42072 
 O                     2.89227  -1.0181    0.44763 
 H                     0.39137   0.31815  -1.20815 
 H                     4.5106   -0.36122  -0.62694 
 H                     4.3414    0.24373   1.01476 
 H                     1.26914  -2.02005  -0.18781 
 H                     2.13487  -1.16444  -1.45024 
 H                     1.7513    1.32165   1.26806 
 H                     1.16698   2.24145  -0.09982 
 H                    -0.94828  -1.4079   -1.55661 
 H                    -2.48372  -1.86388  -0.88329 
 H                    -1.67499   0.98565  -1.6069 
 H                    -2.85938  -0.00734  -2.41673 
 H                    -1.03939  -1.8962    0.94006 
 H                    -3.86866   1.65783  -0.76683 
 H                    -4.29754  -0.00755  -0.42499 
 H                    -3.60603   1.05465   1.66707 
 H                    -2.10707   1.60449   0.94021 
 H                     3.00585   1.2301   -1.50424 
 H                     3.6519    2.14398  -0.16706 
 
 The following ModRedundant input section has been read:
 D       1       6       9       3 F                                           
 

 GradGradGradGradGradGradGradGradGradGradGradGradGradGradGradGradGradGrad
 Berny optimization.
 Initialization pass.
                           ----------------------------
                           !    Initial Parameters    !
                           ! (Angstroms and Degrees)  !
 --------------------------                            --------------------------
 ! Name  Definition              Value          Derivative Info.                !
 --------------------------------------------------------------------------------
 ! R1    R(1,4)                  1.5336         estimate D2E/DX2                !
 ! R2    R(1,5)                  1.53           estimate D2E/DX2                !
 ! R3    R(1,6)                  1.4177         estimate D2E/DX2                !
 ! R4    R(1,14)                 1.0798         estimate D2E/DX2                !
 ! R5    R(2,12)                 1.5328         estimate D2E/DX2                !
 ! R6    R(2,13)                 1.4201         estimate D2E/DX2                !
 ! R7    R(2,15)                 1.086          estimate D2E/DX2                !
 ! R8    R(2,16)                 1.0818         estimate D2E/DX2                !
 ! R9    R(3,9)                  1.4012         estimate D2E/DX2                !
 ! R10   R(3,11)                 1.4214         estimate D2E/DX2                !
 ! R11   R(4,13)                 1.4109         estimate D2E/DX2                !
 ! R12   R(4,17)                 1.0805         estimate D2E/DX2                !
 ! R13   R(4,18)                 1.0862         estimate D2E/DX2                !
 ! R14   R(5,12)                 1.5269         estimate D2E/DX2                !
 ! R15   R(5,19)                 1.0855         estimate D2E/DX2                !
 ! R16   R(5,20)                 1.0844         estimate D2E/DX2                !
 ! R17   R(6,9)                  1.4097         estimate D2E/DX2                !
 ! R18   R(7,8)                  1.5306         estimate D2E/DX2                !
 ! R19   R(7,9)                  1.5277         estimate D2E/DX2                !
 ! R20   R(7,21)                 1.0834         estimate D2E/DX2                !
 ! R21   R(7,22)                 1.0866         estimate D2E/DX2                !
 ! R22   R(8,10)                 1.5278         estimate D2E/DX2                !
 ! R23   R(8,23)                 1.0862         estimate D2E/DX2                !
 ! R24   R(8,24)                 1.0857         estimate D2E/DX2                !
 ! R25   R(9,25)                 1.0804         estimate D2E/DX2                !
 ! R26   R(10,11)                1.5179         estimate D2E/DX2                !
 ! R27   R(10,26)                1.0862         estimate D2E/DX2                !
 ! R28   R(10,27)                1.0874         estimate D2E/DX2                !
 ! R29   R(11,28)                1.0811         estimate D2E/DX2                !
 ! R30   R(11,29)                1.0845         estimate D2E/DX2                !
 ! R31   R(12,30)                1.0862         estimate D2E/DX2                !
 ! R32   R(12,31)                1.0846         estimate D2E/DX2                !
 ! A1    A(4,1,5)              109.7712         estimate D2E/DX2                !
 ! A2    A(4,1,6)              112.3018         estimate D2E/DX2                !
 ! A3    A(4,1,14)             108.5739         estimate D2E/DX2                !
 ! A4    A(5,1,6)              106.7098         estimate D2E/DX2                !
 ! A5    A(5,1,14)             109.5601         estimate D2E/DX2                !
 ! A6    A(6,1,14)             109.8937         estimate D2E/DX2                !
 ! A7    A(12,2,13)            111.7419         estimate D2E/DX2                !
 ! A8    A(12,2,15)            111.107          estimate D2E/DX2                !
 ! A9    A(12,2,16)            110.7232         estimate D2E/DX2                !
 ! A10   A(13,2,15)            109.098          estimate D2E/DX2                !
 ! A11   A(13,2,16)            105.6097         estimate D2E/DX2                !
 ! A12   A(15,2,16)            108.3596         estimate D2E/DX2                !
 ! A13   A(9,3,11)             116.4742         estimate D2E/DX2                !
 ! A14   A(1,4,13)             111.0917         estimate D2E/DX2                !
 ! A15   A(1,4,17)             111.1532         estimate D2E/DX2                !
 ! A16   A(1,4,18)             110.0084         estimate D2E/DX2                !
 ! A17   A(13,4,17)            106.8585         estimate D2E/DX2                !
 ! A18   A(13,4,18)            109.5654         estimate D2E/DX2                !
 ! A19   A(17,4,18)            108.0649         estimate D2E/DX2                !
 ! A20   A(1,5,12)             109.7952         estimate D2E/DX2                !
 ! A21   A(1,5,19)             108.7329         estimate D2E/DX2                !
 ! A22   A(1,5,20)             110.0571         estimate D2E/DX2                !
 ! A23   A(12,5,19)            109.4327         estimate D2E/DX2                !
 ! A24   A(12,5,20)            111.3479         estimate D2E/DX2                !
 ! A25   A(19,5,20)            107.4077         estimate D2E/DX2                !
 ! A26   A(1,6,9)              122.9092         estimate D2E/DX2                !
 ! A27   A(8,7,9)              113.1784         estimate D2E/DX2                !
 ! A28   A(8,7,21)             111.7926         estimate D2E/DX2                !
 ! A29   A(8,7,22)             108.8556         estimate D2E/DX2                !
 ! A30   A(9,7,21)             110.8251         estimate D2E/DX2                !
 ! A31   A(9,7,22)             105.3412         estimate D2E/DX2                !
 ! A32   A(21,7,22)            106.3943         estimate D2E/DX2                !
 ! A33   A(7,8,10)             109.8099         estimate D2E/DX2                !
 ! A34   A(7,8,23)             110.7075         estimate D2E/DX2                !
 ! A35   A(7,8,24)             109.4419         estimate D2E/DX2                !
 ! A36   A(10,8,23)            109.2825         estimate D2E/DX2                !
 ! A37   A(10,8,24)            110.652          estimate D2E/DX2                !
 ! A38   A(23,8,24)            106.9113         estimate D2E/DX2                !
 ! A39   A(3,9,6)              106.4548         estimate D2E/DX2                !
 ! A40   A(3,9,7)              110.2392         estimate D2E/DX2                !
 ! A41   A(3,9,25)             104.9971         estimate D2E/DX2                !
 ! A42   A(6,9,7)              116.677          estimate D2E/DX2                !
 ! A43   A(6,9,25)             108.1201         estimate D2E/DX2                !
 ! A44   A(7,9,25)             109.6791         estimate D2E/DX2                !
 ! A45   A(8,10,11)            109.7938         estimate D2E/DX2                !
 ! A46   A(8,10,26)            111.0539         estimate D2E/DX2                !
 ! A47   A(8,10,27)            109.9775         estimate D2E/DX2                !
 ! A48   A(11,10,26)           109.208          estimate D2E/DX2                !
 ! A49   A(11,10,27)           109.2233         estimate D2E/DX2                !
 ! A50   A(26,10,27)           107.5366         estimate D2E/DX2                !
 ! A51   A(3,11,10)            111.1298         estimate D2E/DX2                !
 ! A52   A(3,11,28)            105.4027         estimate D2E/DX2                !
 ! A53   A(3,11,29)            109.4931         estimate D2E/DX2                !
 ! A54   A(10,11,28)           111.6506         estimate D2E/DX2                !
 ! A55   A(10,11,29)           110.7758         estimate D2E/DX2                !
 ! A56   A(28,11,29)           108.2073         estimate D2E/DX2                !
 ! A57   A(2,12,5)             109.513          estimate D2E/DX2                !
 ! A58   A(2,12,30)            110.5053         estimate D2E/DX2                !
 ! A59   A(2,12,31)            109.2612         estimate D2E/DX2                !
 ! A60   A(5,12,30)            109.7078         estimate D2E/DX2                !
 ! A61   A(5,12,31)            110.9392         estimate D2E/DX2                !
 ! A62   A(30,12,31)           106.8869         estimate D2E/DX2                !
 ! A63   A(2,13,4)             113.3459         estimate D2E/DX2                !
 ! D1    D(5,1,4,13)            29.3398         estimate D2E/DX2                !
 ! D2    D(5,1,4,17)           148.1908         estimate D2E/DX2                !
 ! D3    D(5,1,4,18)           -92.1557         estimate D2E/DX2                !
 ! D4    D(6,1,4,13)           -89.1939         estimate D2E/DX2                !
 ! D5    D(6,1,4,17)            29.6571         estimate D2E/DX2                !
 ! D6    D(6,1,4,18)           149.3106         estimate D2E/DX2                !
 ! D7    D(14,1,4,13)          149.0824         estimate D2E/DX2                !
 ! D8    D(14,1,4,17)          -92.0666         estimate D2E/DX2                !
 ! D9    D(14,1,4,18)           27.5869         estimate D2E/DX2                !
 ! D10   D(4,1,5,12)            32.7066         estimate D2E/DX2                !
 ! D11   D(4,1,5,19)           -86.9917         estimate D2E/DX2                !
 ! D12   D(4,1,5,20)           155.614          estimate D2E/DX2                !
 ! D13   D(6,1,5,12)           154.6408         estimate D2E/DX2                !
 ! D14   D(6,1,5,19)            34.9425         estimate D2E/DX2                !
 ! D15   D(6,1,5,20)           -82.4519         estimate D2E/DX2                !
 ! D16   D(14,1,5,12)          -86.432          estimate D2E/DX2                !
 ! D17   D(14,1,5,19)          153.8697         estimate D2E/DX2                !
 ! D18   D(14,1,5,20)           36.4753         estimate D2E/DX2                !
 ! D19   D(4,1,6,9)            -75.0091         estimate D2E/DX2                !
 ! D20   D(5,1,6,9)            164.6684         estimate D2E/DX2                !
 ! D21   D(14,1,6,9)            45.9586         estimate D2E/DX2                !
 ! D22   D(13,2,12,5)           27.7253         estimate D2E/DX2                !
 ! D23   D(13,2,12,30)         -93.2392         estimate D2E/DX2                !
 ! D24   D(13,2,12,31)         149.4248         estimate D2E/DX2                !
 ! D25   D(15,2,12,5)          149.8331         estimate D2E/DX2                !
 ! D26   D(15,2,12,30)          28.8686         estimate D2E/DX2                !
 ! D27   D(15,2,12,31)         -88.4674         estimate D2E/DX2                !
 ! D28   D(16,2,12,5)          -89.701          estimate D2E/DX2                !
 ! D29   D(16,2,12,30)         149.3345         estimate D2E/DX2                !
 ! D30   D(16,2,12,31)          31.9985         estimate D2E/DX2                !
 ! D31   D(12,2,13,4)           36.863          estimate D2E/DX2                !
 ! D32   D(15,2,13,4)          -86.3909         estimate D2E/DX2                !
 ! D33   D(16,2,13,4)          157.3247         estimate D2E/DX2                !
 ! D34   D(11,3,9,6)            72.4009         estimate D2E/DX2                !
 ! D35   D(11,3,9,7)           -55.0326         estimate D2E/DX2                !
 ! D36   D(11,3,9,25)         -173.0892         estimate D2E/DX2                !
 ! D37   D(9,3,11,10)           59.2817         estimate D2E/DX2                !
 ! D38   D(9,3,11,28)         -179.6042         estimate D2E/DX2                !
 ! D39   D(9,3,11,29)          -63.4159         estimate D2E/DX2                !
 ! D40   D(1,4,13,2)           -69.0622         estimate D2E/DX2                !
 ! D41   D(17,4,13,2)          169.5368         estimate D2E/DX2                !
 ! D42   D(18,4,13,2)           52.6921         estimate D2E/DX2                !
 ! D43   D(1,5,12,2)           -62.7328         estimate D2E/DX2                !
 ! D44   D(1,5,12,30)           58.7136         estimate D2E/DX2                !
 ! D45   D(1,5,12,31)          176.5819         estimate D2E/DX2                !
 ! D46   D(19,5,12,2)           56.5373         estimate D2E/DX2                !
 ! D47   D(19,5,12,30)         177.9837         estimate D2E/DX2                !
 ! D48   D(19,5,12,31)         -64.1479         estimate D2E/DX2                !
 ! D49   D(20,5,12,2)          175.1248         estimate D2E/DX2                !
 ! D50   D(20,5,12,30)         -63.4287         estimate D2E/DX2                !
 ! D51   D(20,5,12,31)          54.4396         estimate D2E/DX2                !
 ! D52   D(1,6,9,3)           -151.1062         Frozen                          !
 ! D53   D(1,6,9,7)            -27.596          estimate D2E/DX2                !
 ! D54   D(1,6,9,25)            96.5258         estimate D2E/DX2                !
 ! D55   D(9,7,8,10)           -50.4425         estimate D2E/DX2                !
 ! D56   D(9,7,8,23)            70.3151         estimate D2E/DX2                !
 ! D57   D(9,7,8,24)          -172.09           estimate D2E/DX2                !
 ! D58   D(21,7,8,10)         -176.4353         estimate D2E/DX2                !
 ! D59   D(21,7,8,23)          -55.6776         estimate D2E/DX2                !
 ! D60   D(21,7,8,24)           61.9173         estimate D2E/DX2                !
 ! D61   D(22,7,8,10)           66.3227         estimate D2E/DX2                !
 ! D62   D(22,7,8,23)         -172.9197         estimate D2E/DX2                !
 ! D63   D(22,7,8,24)          -55.3248         estimate D2E/DX2                !
 ! D64   D(8,7,9,3)             50.1124         estimate D2E/DX2                !
 ! D65   D(8,7,9,6)            -71.4293         estimate D2E/DX2                !
 ! D66   D(8,7,9,25)           165.2486         estimate D2E/DX2                !
 ! D67   D(21,7,9,3)           176.6199         estimate D2E/DX2                !
 ! D68   D(21,7,9,6)            55.0782         estimate D2E/DX2                !
 ! D69   D(21,7,9,25)          -68.2439         estimate D2E/DX2                !
 ! D70   D(22,7,9,3)           -68.7044         estimate D2E/DX2                !
 ! D71   D(22,7,9,6)           169.7539         estimate D2E/DX2                !
 ! D72   D(22,7,9,25)           46.4318         estimate D2E/DX2                !
 ! D73   D(7,8,10,11)           52.2838         estimate D2E/DX2                !
 ! D74   D(7,8,10,26)          173.1616         estimate D2E/DX2                !
 ! D75   D(7,8,10,27)          -67.9256         estimate D2E/DX2                !
 ! D76   D(23,8,10,11)         -69.3305         estimate D2E/DX2                !
 ! D77   D(23,8,10,26)          51.5473         estimate D2E/DX2                !
 ! D78   D(23,8,10,27)         170.46           estimate D2E/DX2                !
 ! D79   D(24,8,10,11)         173.2046         estimate D2E/DX2                !
 ! D80   D(24,8,10,26)         -65.9176         estimate D2E/DX2                !
 ! D81   D(24,8,10,27)          52.9952         estimate D2E/DX2                !
 ! D82   D(8,10,11,3)          -55.8175         estimate D2E/DX2                !
 ! D83   D(8,10,11,28)        -173.1896         estimate D2E/DX2                !
 ! D84   D(8,10,11,29)          66.1369         estimate D2E/DX2                !
 ! D85   D(26,10,11,3)        -177.8026         estimate D2E/DX2                !
 ! D86   D(26,10,11,28)         64.8254         estimate D2E/DX2                !
 ! D87   D(26,10,11,29)        -55.8482         estimate D2E/DX2                !
 ! D88   D(27,10,11,3)          64.849          estimate D2E/DX2                !
 ! D89   D(27,10,11,28)        -52.5231         estimate D2E/DX2                !
 ! D90   D(27,10,11,29)       -173.1967         estimate D2E/DX2                !
 --------------------------------------------------------------------------------
 Trust Radius=3.00D-01 FncErr=1.00D-07 GrdErr=1.00D-06 EigMax=2.50D+02 EigMin=1.00D-04
 Number of steps in this run=    186 maximum allowed number of steps=    186.
 GradGradGradGradGradGradGradGradGradGradGradGradGradGradGradGradGradGrad

                          Input orientation:                          
 ---------------------------------------------------------------------
 Center     Atomic      Atomic             Coordinates (Angstroms)
 Number     Number       Type             X           Y           Z
 ---------------------------------------------------------------------
      1          6           0        0.861131    0.111591   -0.258113
      2          6           0        3.802503    0.016561    0.104633
      3          8           0       -2.276121   -0.404700    1.340010
      4          6           0        1.785630   -1.100772   -0.423639
      5          6           0        1.676810    1.327746    0.185162
      6          8           0       -0.129300   -0.098616    0.734198
      7          6           0       -1.747116   -1.065527   -0.909820
      8          6           0       -2.411693    0.202945   -1.450280
      9          6           0       -1.256145   -0.920580    0.529591
     10          6           0       -3.468348    0.694968   -0.462549
     11          6           0       -2.858350    0.822583    0.921526
     12          6           0        3.076718    1.260196   -0.420723
     13          8           0        2.892270   -1.018102    0.447631
     14          1           0        0.391372    0.318149   -1.208145
     15          1           0        4.510599   -0.361224   -0.626938
     16          1           0        4.341405    0.243725    1.014756
     17          1           0        1.269136   -2.020046   -0.187814
     18          1           0        2.134869   -1.164441   -1.450243
     19          1           0        1.751302    1.321647    1.268061
     20          1           0        1.166983    2.241447   -0.099820
     21          1           0       -0.948283   -1.407897   -1.556607
     22          1           0       -2.483717   -1.863878   -0.883289
     23          1           0       -1.674988    0.985653   -1.606898
     24          1           0       -2.859379   -0.007339   -2.416727
     25          1           0       -1.039389   -1.896202    0.940060
     26          1           0       -3.868663    1.657826   -0.766827
     27          1           0       -4.297543   -0.007554   -0.424986
     28          1           0       -3.606025    1.054648    1.667071
     29          1           0       -2.107072    1.604492    0.940208
     30          1           0        3.005853    1.230095   -1.504237
     31          1           0        3.651904    2.143978   -0.167055
 ---------------------------------------------------------------------
                    Distance matrix (angstroms):
                    1          2          3          4          5
     1  C    0.000000
     2  C    2.965179   0.000000
     3  O    3.558497   6.217177   0.000000
     4  C    1.533598   2.365435   4.482499   0.000000
     5  C    1.529986   2.498852   4.467741   2.506029   0.000000
     6  O    1.417682   3.983553   2.251563   2.451909   2.366006
     7  C    2.934839   5.744415   2.403804   3.566218   4.318566
     8  C    3.484392   6.408489   2.858904   4.513445   4.544855
     9  C    2.483689   5.162242   1.401165   3.192728   3.711580
    10  C    4.373387   7.324425   2.424849   5.552520   5.224231
    11  C    3.966308   6.758990   1.421388   5.203394   4.622239
    12  C    2.500912   1.532772   5.875793   2.690927   1.526893
    13  O    2.428952   1.420105   5.280612   1.410885   2.655040
    14  H    1.079769   3.667445   3.759139   2.138397   2.147776
    15  H    3.698405   1.085964   7.066141   2.830851   3.397423
    16  H    3.708094   1.081824   6.657169   3.226242   2.993893
    17  H    2.171471   3.263624   4.184786   1.080483   3.393084
    18  H    2.161444   2.567763   5.274424   1.086249   3.015852
    19  H    2.141459   2.695225   4.382418   2.954850   1.085475
    20  H    2.157519   3.455124   4.574950   3.414383   1.084430
    21  H    2.696092   5.230561   3.340651   2.975268   4.172363
    22  H    3.934632   6.635405   2.667462   4.361299   5.351452
    23  H    3.002516   5.819913   3.313414   4.210599   3.816157
    24  H    4.303017   7.123096   3.822455   5.171470   5.397156
    25  H    3.013109   5.272620   1.978394   3.236219   4.282692
    26  H    5.002058   7.893034   3.350965   6.300688   5.636267
    27  H    5.162747   8.117378   2.712763   6.180625   6.152089
    28  H    4.954914   7.642325   2.001327   6.171454   5.493540
    29  H    3.531990   6.175985   2.055547   4.932713   3.868391
    30  H    2.720976   2.166975   6.217841   2.844218   2.151734
    31  H    3.453593   2.149976   6.626348   3.751962   2.165938
                    6          7          8          9         10
     6  O    0.000000
     7  C    2.501008   0.000000
     8  C    3.173673   1.530615   0.000000
     9  C    1.409705   1.527732   2.552937   0.000000
    10  C    3.634724   2.502406   1.527815   2.913448   0.000000
    11  C    2.886419   2.855456   2.491770   2.399852   1.517909
    12  C    3.668619   5.377507   5.683346   4.942933   6.569560
    13  O    3.171350   4.834131   5.764117   4.150370   6.649849
    14  H    2.053653   2.564505   2.815861   2.696013   3.949094
    15  H    4.842553   6.303575   6.993876   5.908111   8.050227
    16  H    4.492562   6.518299   7.189047   5.737905   7.961048
    17  H    2.549043   3.245023   4.481519   2.846145   5.467224
    18  H    3.321781   3.920669   4.747733   3.934233   5.985732
    19  H    2.416365   4.762425   5.096214   3.823305   5.534662
    20  H    2.802112   4.481534   4.334300   4.033128   4.899945
    21  H    2.762741   1.083367   2.178919   2.164366   3.459730
    22  H    3.357930   1.086577   2.144394   2.095942   2.773844
    23  H    3.007577   2.167593   1.086230   2.893741   2.147131
    24  H    4.170131   2.151200   1.085662   3.476371   2.163999
    25  H    2.025329   2.147779   3.464587   1.080419   3.818549
    26  H    4.395566   3.455150   2.169458   3.892830   1.086247
    27  H    4.327384   2.803400   2.156842   3.315861   1.087434
    28  H    3.779932   3.819824   3.445244   3.273732   2.164164
    29  H    2.618129   3.268206   2.787752   2.696047   2.155930
    30  H    4.074954   5.311678   5.514323   5.189074   6.579267
    31  H    4.487648   6.324717   6.494727   5.828017   7.272203
                   11         12         13         14         15
    11  C    0.000000
    12  C    6.100670   0.000000
    13  O    6.056594   2.445138   0.000000
    14  H    3.917990   2.952722   3.283543   0.000000
    15  H    7.622372   2.174291   2.050653   4.215137   0.000000
    16  H    7.223589   2.166390   2.003455   4.533165   1.757768
    17  H    5.132964   3.752544   2.010534   2.697907   3.667643
    18  H    5.874163   2.797473   2.048657   2.301405   2.639523
    19  H    4.649521   2.147672   2.729348   2.998002   3.746571
    20  H    4.388579   2.170926   3.728401   2.351389   4.269838
    21  H    3.842465   4.960805   4.349570   2.212541   5.635530
    22  H    3.258033   6.394704   5.602492   3.623936   7.158501
    23  H    2.796402   4.905211   5.394068   2.207806   6.405926
    24  H    3.439870   6.389673   6.504433   3.483388   7.592441
    25  H    3.271201   5.362547   4.058508   3.400766   5.967747
    26  H    2.137498   6.965358   7.371955   4.487471   8.620218
    27  H    2.138574   7.482442   7.312734   4.765013   8.817553
    28  H    1.081069   7.004298   6.929009   4.978803   8.552588
    29  H    1.084504   5.370508   5.666926   3.537276   7.079093
    30  H    6.359188   1.086246   2.979443   2.784749   2.359282
    31  H    6.731605   1.084554   3.309627   3.879251   2.687915
                   16         17         18         19         20
    16  H    0.000000
    17  H    4.001209   0.000000
    18  H    3.595546   1.753648   0.000000
    19  H    2.816862   3.676815   3.703638   0.000000
    20  H    3.912816   4.263625   3.789527   1.748874   0.000000
    21  H    6.109056   2.676802   3.094578   4.766227   4.462543
    22  H    7.390998   3.819945   4.705527   5.719376   5.549336
    23  H    6.604583   4.440258   4.377494   4.485281   3.453274
    24  H    7.980564   5.105260   5.216847   6.049979   5.161074
    25  H    5.791184   2.572300   4.040413   4.272013   4.803079
    26  H    8.519327   6.344996   6.668931   5.986467   5.113046
    27  H    8.761702   5.924043   6.615547   6.420413   5.918174
    28  H    8.015283   6.054877   6.899266   5.378796   5.226089
    29  H    6.590910   5.080206   5.601367   3.882594   3.493824
    30  H    3.016944   3.913128   2.548594   3.044325   2.525206
    31  H    2.341591   4.797615   3.859223   2.519538   2.487741
                   21         22         23         24         25
    21  H    0.000000
    22  H    1.737479   0.000000
    23  H    2.501941   3.049177   0.000000
    24  H    2.520646   2.437066   1.744889   0.000000
    25  H    2.545602   2.326312   3.898214   4.260069   0.000000
    26  H    4.307091   3.786032   2.443306   2.552175   4.852769
    27  H    3.802508   2.635516   3.043217   2.456695   4.005735
    28  H    4.849724   4.035060   3.801649   4.285172   3.977899
    29  H    4.080608   3.936571   2.656578   3.799076   3.659891
    30  H    4.753623   6.331953   4.688343   6.063401   5.666772
    31  H    5.975650   7.363542   5.638319   7.217063   6.289435
                   26         27         28         29         30
    26  H    0.000000
    27  H    1.753364   0.000000
    28  H    2.521242   2.446052   0.000000
    29  H    2.453572   3.043125   1.754286   0.000000
    30  H    6.927171   7.485730   7.335183   5.679567   0.000000
    31  H    7.560092   8.239498   7.564932   5.889217   1.743737
                   31
    31  H    0.000000
 Stoichiometry    C10H18O3
 Framework group  C1[X(C10H18O3)]
 Deg. of freedom    87
 Full point group                 C1      NOp   1
 Largest Abelian subgroup         C1      NOp   1
 Largest concise Abelian subgroup C1      NOp   1
                         Standard orientation:                         
 ---------------------------------------------------------------------
 Center     Atomic      Atomic             Coordinates (Angstroms)
 Number     Number       Type             X           Y           Z
 ---------------------------------------------------------------------
      1          6           0       -0.861131    0.111591    0.258113
      2          6           0       -3.802503    0.016561   -0.104633
      3          8           0        2.276121   -0.404700   -1.340010
      4          6           0       -1.785630   -1.100772    0.423639
      5          6           0       -1.676810    1.327746   -0.185162
      6          8           0        0.129300   -0.098616   -0.734198
      7          6           0        1.747116   -1.065527    0.909820
      8          6           0        2.411693    0.202945    1.450280
      9          6           0        1.256145   -0.920580   -0.529591
     10          6           0        3.468348    0.694968    0.462549
     11          6           0        2.858350    0.822583   -0.921526
     12          6           0       -3.076718    1.260196    0.420723
     13          8           0       -2.892270   -1.018102   -0.447631
     14          1           0       -0.391372    0.318149    1.208145
     15          1           0       -4.510599   -0.361224    0.626938
     16          1           0       -4.341405    0.243725   -1.014756
     17          1           0       -1.269136   -2.020046    0.187814
     18          1           0       -2.134869   -1.164441    1.450243
     19          1           0       -1.751302    1.321647   -1.268061
     20          1           0       -1.166983    2.241447    0.099820
     21          1           0        0.948283   -1.407897    1.556607
     22          1           0        2.483717   -1.863878    0.883289
     23          1           0        1.674988    0.985653    1.606898
     24          1           0        2.859379   -0.007339    2.416727
     25          1           0        1.039389   -1.896202   -0.940060
     26          1           0        3.868663    1.657826    0.766827
     27          1           0        4.297543   -0.007554    0.424986
     28          1           0        3.606025    1.054648   -1.667071
     29          1           0        2.107072    1.604492   -0.940208
     30          1           0       -3.005853    1.230095    1.504237
     31          1           0       -3.651904    2.143978    0.167055
 ---------------------------------------------------------------------
 Rotational constants (GHZ):           1.8651273           0.4146317           0.4061191
 Standard basis: 6-311++G(2d,2p) (5D, 7F)
 There are   557 symmetry adapted cartesian basis functions of A   symmetry.
 There are   531 symmetry adapted basis functions of A   symmetry.
   531 basis functions,   762 primitive gaussians,   557 cartesian basis functions
    51 alpha electrons       51 beta electrons
       nuclear repulsion energy       897.9063475032 Hartrees.
 NAtoms=   31 NActive=   31 NUniq=   31 SFac= 1.00D+00 NAtFMM=   60 NAOKFM=F Big=F
 Integral buffers will be    131072 words long.
 Raffenetti 2 integral format.
 Two-electron integral symmetry is turned on.
 ------------------------------------------------------------------------------
 Polarizable Continuum Model (PCM)
 =================================
 Model                : PCM.
 Atomic radii         : UFF (Universal Force Field).
 Polarization charges : Total charges.
 Charge compensation  : None.
 Solution method      : On-the-fly selection.
 Cavity type          : Scaled VdW (van der Waals Surface) (Alpha=1.100).
 Cavity algorithm     : GePol (No added spheres)
                        Default sphere list used, NSphG=   31.
                        Lebedev-Laikov grids with approx.  5.0 points / Ang**2.
                        Smoothing algorithm: York/Karplus (Gamma=1.0000).
                        Polarization charges: spherical gaussians, with
                                              point-specific exponents (IZeta= 3).
                        Self-potential: point-specific (ISelfS= 7).
                        Self-field    : sphere-specific E.n sum rule (ISelfD= 2).
 1st derivatives      : Analytical E(r).r(x)/FMM algorithm (CHGder, D1EAlg=3).
                        Cavity 1st derivative terms included.
 Solvent              : Water, Eps=  78.355300 Eps(inf)=   1.777849
 ------------------------------------------------------------------------------
 One-electron integrals computed using PRISM.
 NBasis=   531 RedAO= T EigKep=  4.29D-06  NBF=   531
 NBsUse=   531 1.00D-06 EigRej= -1.00D+00 NBFU=   531
 ExpMin= 3.60D-02 ExpMax= 8.59D+03 ExpMxC= 1.30D+03 IAcc=3 IRadAn=         5 AccDes= 0.00D+00
 Harris functional with IExCor= 1009 and IRadAn=       5 diagonalized for initial guess.
 HarFok:  IExCor= 1009 AccDes= 0.00D+00 IRadAn=         5 IDoV= 1 UseB2=F ITyADJ=14
 ICtDFT=  3500011 ScaDFX=  1.000000  1.000000  1.000000  1.000000
 FoFCou: FMM=F IPFlag=           0 FMFlag=      100000 FMFlg1=           0
         NFxFlg=           0 DoJE=T BraDBF=F KetDBF=T FulRan=T
         wScrn=  0.000000 ICntrl=       500 IOpCl=  0 I1Cent=   200000004 NGrid=           0
         NMat0=    1 NMatS0=      1 NMatT0=    0 NMatD0=    1 NMtDS0=    0 NMtDT0=    0
 Petite list used in FoFCou.
 Requested convergence on RMS density matrix=1.00D-08 within 128 cycles.
 Requested convergence on MAX density matrix=1.00D-06.
 Requested convergence on             energy=1.00D-06.
 No special actions if energy rises.
 Inv3:  Mode=1 IEnd=    12362700.
 Iteration    1 A*A^-1 deviation from unit magnitude is 6.22D-15 for   2024.
 Iteration    1 A*A^-1 deviation from orthogonality  is 2.61D-15 for   1983    961.
 Iteration    1 A^-1*A deviation from unit magnitude is 6.22D-15 for   2024.
 Iteration    1 A^-1*A deviation from orthogonality  is 1.68D-15 for   1751   1215.
 Error on total polarization charges =  0.01482
 SCF Done:  E(RM062X) =  -617.487451700     A.U. after   12 cycles
            NFock= 12  Conv=0.45D-08     -V/T= 2.0035

 **********************************************************************

            Population analysis using the SCF density.

 **********************************************************************

 Orbital symmetries:
       Occupied  (A) (A) (A) (A) (A) (A) (A) (A) (A) (A) (A) (A)
                 (A) (A) (A) (A) (A) (A) (A) (A) (A) (A) (A) (A)
                 (A) (A) (A) (A) (A) (A) (A) (A) (A) (A) (A) (A)
                 (A) (A) (A) (A) (A) (A) (A) (A) (A) (A) (A) (A)
                 (A) (A) (A)
       Virtual   (A) (A) (A) (A) (A) (A) (A) (A) (A) (A) (A) (A)
                 (A) (A) (A) (A) (A) (A) (A) (A) (A) (A) (A) (A)
                 (A) (A) (A) (A) (A) (A) (A) (A) (A) (A) (A) (A)
                 (A) (A) (A) (A) (A) (A) (A) (A) (A) (A) (A) (A)
                 (A) (A) (A) (A) (A) (A) (A) (A) (A) (A) (A) (A)
                 (A) (A) (A) (A) (A) (A) (A) (A) (A) (A) (A) (A)
                 (A) (A) (A) (A) (A) (A) (A) (A) (A) (A) (A) (A)
                 (A) (A) (A) (A) (A) (A) (A) (A) (A) (A) (A) (A)
                 (A) (A) (A) (A) (A) (A) (A) (A) (A) (A) (A) (A)
                 (A) (A) (A) (A) (A) (A) (A) (A) (A) (A) (A) (A)
                 (A) (A) (A) (A) (A) (A) (A) (A) (A) (A) (A) (A)
                 (A) (A) (A) (A) (A) (A) (A) (A) (A) (A) (A) (A)
                 (A) (A) (A) (A) (A) (A) (A) (A) (A) (A) (A) (A)
                 (A) (A) (A) (A) (A) (A) (A) (A) (A) (A) (A) (A)
                 (A) (A) (A) (A) (A) (A) (A) (A) (A) (A) (A) (A)
                 (A) (A) (A) (A) (A) (A) (A) (A) (A) (A) (A) (A)
                 (A) (A) (A) (A) (A) (A) (A) (A) (A) (A) (A) (A)
                 (A) (A) (A) (A) (A) (A) (A) (A) (A) (A) (A) (A)
                 (A) (A) (A) (A) (A) (A) (A) (A) (A) (A) (A) (A)
                 (A) (A) (A) (A) (A) (A) (A) (A) (A) (A) (A) (A)
                 (A) (A) (A) (A) (A) (A) (A) (A) (A) (A) (A) (A)
                 (A) (A) (A) (A) (A) (A) (A) (A) (A) (A) (A) (A)
                 (A) (A) (A) (A) (A) (A) (A) (A) (A) (A) (A) (A)
                 (A) (A) (A) (A) (A) (A) (A) (A) (A) (A) (A) (A)
                 (A) (A) (A) (A) (A) (A) (A) (A) (A) (A) (A) (A)
                 (A) (A) (A) (A) (A) (A) (A) (A) (A) (A) (A) (A)
                 (A) (A) (A) (A) (A) (A) (A) (A) (A) (A) (A) (A)
                 (A) (A) (A) (A) (A) (A) (A) (A) (A) (A) (A) (A)
                 (A) (A) (A) (A) (A) (A) (A) (A) (A) (A) (A) (A)
                 (A) (A) (A) (A) (A) (A) (A) (A) (A) (A) (A) (A)
                 (A) (A) (A) (A) (A) (A) (A) (A) (A) (A) (A) (A)
                 (A) (A) (A) (A) (A) (A) (A) (A) (A) (A) (A) (A)
                 (A) (A) (A) (A) (A) (A) (A) (A) (A) (A) (A) (A)
                 (A) (A) (A) (A) (A) (A) (A) (A) (A) (A) (A) (A)
                 (A) (A) (A) (A) (A) (A) (A) (A) (A) (A) (A) (A)
                 (A) (A) (A) (A) (A) (A) (A) (A) (A) (A) (A) (A)
                 (A) (A) (A) (A) (A) (A) (A) (A) (A) (A) (A) (A)
                 (A) (A) (A) (A) (A) (A) (A) (A) (A) (A) (A) (A)
                 (A) (A) (A) (A) (A) (A) (A) (A) (A) (A) (A) (A)
                 (A) (A) (A) (A) (A) (A) (A) (A) (A) (A) (A) (A)
 The electronic state is 1-A.
 Alpha  occ. eigenvalues --  -19.62835 -19.62716 -19.62628 -10.63685 -10.58931
 Alpha  occ. eigenvalues --  -10.57894 -10.57840 -10.57632 -10.53375 -10.53291
 Alpha  occ. eigenvalues --  -10.53258 -10.53217 -10.52842  -1.19958  -1.16545
 Alpha  occ. eigenvalues --   -1.13327  -0.90466  -0.90287  -0.87137  -0.85078
 Alpha  occ. eigenvalues --   -0.75735  -0.74660  -0.73474  -0.70870  -0.65048
 Alpha  occ. eigenvalues --   -0.62629  -0.60144  -0.58838  -0.58280  -0.57350
 Alpha  occ. eigenvalues --   -0.55112  -0.53204  -0.52661  -0.50876  -0.49539
 Alpha  occ. eigenvalues --   -0.47945  -0.47199  -0.45712  -0.45582  -0.45044
 Alpha  occ. eigenvalues --   -0.44068  -0.42835  -0.41466  -0.39930  -0.39454
 Alpha  occ. eigenvalues --   -0.38392  -0.37533  -0.36872  -0.35266  -0.33110
 Alpha  occ. eigenvalues --   -0.31244
 Alpha virt. eigenvalues --   -0.00232   0.00749   0.00999   0.01017   0.02216
 Alpha virt. eigenvalues --    0.02479   0.02699   0.03394   0.03622   0.04387
 Alpha virt. eigenvalues --    0.04564   0.04850   0.05427   0.06122   0.07177
 Alpha virt. eigenvalues --    0.07581   0.07830   0.08328   0.08660   0.09188
 Alpha virt. eigenvalues --    0.09968   0.10666   0.11255   0.11452   0.11770
 Alpha virt. eigenvalues --    0.12071   0.12363   0.12517   0.13242   0.13533
 Alpha virt. eigenvalues --    0.13672   0.13979   0.14250   0.14470   0.14501
 Alpha virt. eigenvalues --    0.15143   0.15536   0.15842   0.16022   0.16196
 Alpha virt. eigenvalues --    0.16573   0.16759   0.17068   0.17276   0.17858
 Alpha virt. eigenvalues --    0.18161   0.18508   0.18640   0.19399   0.19843
 Alpha virt. eigenvalues --    0.20000   0.20209   0.20746   0.21072   0.21315
 Alpha virt. eigenvalues --    0.21873   0.22531   0.22912   0.23388   0.24301
 Alpha virt. eigenvalues --    0.24428   0.25071   0.25496   0.26146   0.26864
 Alpha virt. eigenvalues --    0.27749   0.28071   0.28588   0.29048   0.29641
 Alpha virt. eigenvalues --    0.29771   0.31210   0.31620   0.31741   0.32167
 Alpha virt. eigenvalues --    0.32729   0.33205   0.33595   0.34349   0.34600
 Alpha virt. eigenvalues --    0.34678   0.34954   0.35553   0.35784   0.36422
 Alpha virt. eigenvalues --    0.37298   0.37459   0.37798   0.38161   0.38400
 Alpha virt. eigenvalues --    0.39093   0.39845   0.40074   0.40305   0.41162
 Alpha virt. eigenvalues --    0.41961   0.42344   0.43094   0.44076   0.44698
 Alpha virt. eigenvalues --    0.47388   0.47969   0.48349   0.49963   0.51324
 Alpha virt. eigenvalues --    0.51730   0.52453   0.53964   0.54502   0.54829
 Alpha virt. eigenvalues --    0.56328   0.56580   0.57149   0.57690   0.58734
 Alpha virt. eigenvalues --    0.59870   0.59948   0.60718   0.60953   0.61131
 Alpha virt. eigenvalues --    0.61696   0.62218   0.62613   0.63699   0.63892
 Alpha virt. eigenvalues --    0.64631   0.65119   0.65719   0.66121   0.66506
 Alpha virt. eigenvalues --    0.67541   0.68384   0.69611   0.70280   0.70620
 Alpha virt. eigenvalues --    0.70831   0.71146   0.71672   0.72107   0.73333
 Alpha virt. eigenvalues --    0.73438   0.73847   0.74470   0.74618   0.76070
 Alpha virt. eigenvalues --    0.76602   0.77356   0.77993   0.78837   0.80473
 Alpha virt. eigenvalues --    0.81163   0.82118   0.82617   0.85094   0.85544
 Alpha virt. eigenvalues --    0.86685   0.86874   0.87962   0.89490   0.89608
 Alpha virt. eigenvalues --    0.91570   0.92080   0.93926   0.94760   0.95796
 Alpha virt. eigenvalues --    0.97494   0.98088   0.98321   0.99852   1.00799
 Alpha virt. eigenvalues --    1.02653   1.04240   1.05274   1.05925   1.07760
 Alpha virt. eigenvalues --    1.08608   1.09529   1.09662   1.10067   1.12004
 Alpha virt. eigenvalues --    1.13052   1.13725   1.13915   1.15641   1.16364
 Alpha virt. eigenvalues --    1.18021   1.18171   1.19089   1.20206   1.20728
 Alpha virt. eigenvalues --    1.21845   1.22469   1.23342   1.24053   1.25176
 Alpha virt. eigenvalues --    1.25286   1.25597   1.26751   1.27372   1.27488
 Alpha virt. eigenvalues --    1.28703   1.29264   1.29702   1.30756   1.31287
 Alpha virt. eigenvalues --    1.32497   1.32600   1.33523   1.35206   1.35565
 Alpha virt. eigenvalues --    1.35619   1.36796   1.37575   1.37825   1.38496
 Alpha virt. eigenvalues --    1.38668   1.39467   1.40238   1.40634   1.41925
 Alpha virt. eigenvalues --    1.42295   1.43401   1.43863   1.44314   1.45382
 Alpha virt. eigenvalues --    1.45893   1.46073   1.47604   1.48196   1.49421
 Alpha virt. eigenvalues --    1.49777   1.50330   1.50707   1.51399   1.52434
 Alpha virt. eigenvalues --    1.53179   1.53670   1.54660   1.54723   1.55552
 Alpha virt. eigenvalues --    1.56450   1.57359   1.57824   1.58152   1.58560
 Alpha virt. eigenvalues --    1.59152   1.60291   1.60664   1.60895   1.62596
 Alpha virt. eigenvalues --    1.63344   1.64452   1.64743   1.66198   1.67750
 Alpha virt. eigenvalues --    1.68019   1.69069   1.69743   1.71061   1.71825
 Alpha virt. eigenvalues --    1.72505   1.73460   1.75027   1.76123   1.76963
 Alpha virt. eigenvalues --    1.78042   1.79229   1.81333   1.82435   1.84632
 Alpha virt. eigenvalues --    1.86258   1.88029   1.90529   1.96531   1.98099
 Alpha virt. eigenvalues --    2.03922   2.05280   2.09631   2.17205   2.21349
 Alpha virt. eigenvalues --    2.22615   2.23045   2.28031   2.29006   2.38293
 Alpha virt. eigenvalues --    2.40859   2.42059   2.44298   2.49508   2.51150
 Alpha virt. eigenvalues --    2.57780   2.75634   2.77507   2.80891   2.82423
 Alpha virt. eigenvalues --    2.84552   2.86777   2.91628   2.91769   2.93640
 Alpha virt. eigenvalues --    2.95383   2.96220   3.00057   3.01137   3.02878
 Alpha virt. eigenvalues --    3.05894   3.07616   3.07982   3.10163   3.11470
 Alpha virt. eigenvalues --    3.13220   3.15127   3.17196   3.18339   3.21606
 Alpha virt. eigenvalues --    3.24709   3.28136   3.31302   3.32710   3.33269
 Alpha virt. eigenvalues --    3.35571   3.35909   3.36724   3.37523   3.39251
 Alpha virt. eigenvalues --    3.42665   3.43476   3.44040   3.45257   3.46357
 Alpha virt. eigenvalues --    3.46439   3.48664   3.49209   3.50637   3.51439
 Alpha virt. eigenvalues --    3.52370   3.53716   3.54417   3.55043   3.55979
 Alpha virt. eigenvalues --    3.57144   3.57495   3.58520   3.59356   3.60358
 Alpha virt. eigenvalues --    3.61809   3.63152   3.63719   3.64043   3.64361
 Alpha virt. eigenvalues --    3.65881   3.66351   3.66972   3.68658   3.69586
 Alpha virt. eigenvalues --    3.70861   3.71886   3.72363   3.72823   3.74556
 Alpha virt. eigenvalues --    3.75359   3.75618   3.76584   3.78720   3.79875
 Alpha virt. eigenvalues --    3.80055   3.80954   3.81966   3.84226   3.85278
 Alpha virt. eigenvalues --    3.87008   3.88457   3.89522   3.89924   3.90729
 Alpha virt. eigenvalues --    3.94057   3.95716   3.96359   3.96577   3.97780
 Alpha virt. eigenvalues --    3.99916   4.00238   4.01487   4.03736   4.04175
 Alpha virt. eigenvalues --    4.05493   4.06159   4.06343   4.06887   4.08681
 Alpha virt. eigenvalues --    4.08964   4.09500   4.10532   4.11465   4.12010
 Alpha virt. eigenvalues --    4.12195   4.13224   4.13341   4.14378   4.15838
 Alpha virt. eigenvalues --    4.17099   4.18788   4.19202   4.19742   4.20938
 Alpha virt. eigenvalues --    4.23660   4.23803   4.24879   4.26101   4.26514
 Alpha virt. eigenvalues --    4.28649   4.29683   4.30660   4.31332   4.32662
 Alpha virt. eigenvalues --    4.34078   4.34724   4.37582   4.38142   4.39174
 Alpha virt. eigenvalues --    4.42045   4.42973   4.43686   4.47644   4.55147
 Alpha virt. eigenvalues --    4.58557   4.60583   4.74013   4.75926   4.82329
 Alpha virt. eigenvalues --    4.85407   4.93310   4.95431   4.99069   5.02202
 Alpha virt. eigenvalues --    5.04769   5.07192   5.08707   5.11620   5.12788
 Alpha virt. eigenvalues --    5.14576   5.15930   5.16655   5.32639   5.34396
 Alpha virt. eigenvalues --    5.42641   5.57542   5.60115   5.63072   5.85830
 Alpha virt. eigenvalues --    5.88263   6.01713   7.00152   7.07014   7.08271
 Alpha virt. eigenvalues --    7.08899   7.10480   7.11870   7.12297   7.15958
 Alpha virt. eigenvalues --    7.25311   7.35369   7.40451   7.48362   7.52802
 Alpha virt. eigenvalues --    7.56294   7.60522  23.96425  23.97619  24.05078
 Alpha virt. eigenvalues --   24.08475  24.11443  24.11644  24.14003  24.15283
 Alpha virt. eigenvalues --   24.17012  24.19993  50.16970  50.18556  50.23018
          Condensed to atoms (all electrons):
               1          2          3          4          5          6
     1  C    7.432033   0.043896  -0.033141  -0.450783  -1.045124   0.186628
     2  C    0.043896   5.575549  -0.000257  -0.141559   0.055467   0.010017
     3  O   -0.033141  -0.000257   8.214535   0.010228   0.000889   0.002023
     4  C   -0.450783  -0.141559   0.010228   6.367759  -0.221781  -0.062392
     5  C   -1.045124   0.055467   0.000889  -0.221781   7.013946  -0.226486
     6  O    0.186628   0.010017   0.002023  -0.062392  -0.226486   8.203465
     7  C    0.158774  -0.026607   0.033469   0.247129  -0.168838   0.057294
     8  C   -0.103887   0.006362  -0.008490  -0.076565   0.063326  -0.000494
     9  C   -0.646218   0.060501   0.119386  -0.043767   0.173652   0.233882
    10  C    0.142901  -0.002437  -0.083319  -0.017589  -0.017065  -0.030969
    11  C    0.012519  -0.003185   0.179984  -0.005094   0.032136  -0.009580
    12  C    0.159976  -0.237512   0.000241  -0.056671  -0.206863   0.024995
    13  O   -0.027901   0.059918   0.001083   0.130863  -0.046561   0.025822
    14  H    0.531898   0.005383  -0.000835  -0.118280  -0.093893  -0.018325
    15  H    0.048967   0.507959   0.000024  -0.036154  -0.031718   0.000868
    16  H   -0.017680   0.414943  -0.000012   0.028772  -0.017591   0.000142
    17  H    0.019596   0.023313   0.002939   0.381002  -0.022151  -0.008002
    18  H   -0.081564   0.026594   0.000767   0.423614   0.035255   0.010708
    19  H   -0.087868  -0.035616   0.002580  -0.016186   0.492433  -0.005087
    20  H   -0.061519  -0.011220  -0.000203   0.036184   0.436560   0.005527
    21  H   -0.025803  -0.008631   0.005149   0.025006   0.026888  -0.005436
    22  H   -0.007879   0.000147  -0.005949   0.004507   0.001208   0.003029
    23  H   -0.005056   0.001626   0.002483   0.001368   0.003323  -0.002675
    24  H   -0.000033   0.000268  -0.001134  -0.000153  -0.002561   0.001090
    25  H   -0.026752   0.000398  -0.079152  -0.005019   0.009815  -0.055875
    26  H    0.000400  -0.000020   0.009030  -0.002100  -0.000447  -0.000134
    27  H   -0.006411  -0.000003  -0.011961   0.000693   0.000474  -0.000115
    28  H   -0.001971  -0.000278  -0.064500   0.000516   0.005272  -0.002095
    29  H    0.005277   0.002198  -0.038471  -0.003389  -0.008159  -0.009548
    30  H   -0.064450  -0.089137   0.000153   0.006691   0.000903  -0.000727
    31  H    0.040663  -0.012475   0.000028  -0.021870  -0.047543  -0.001222
               7          8          9         10         11         12
     1  C    0.158774  -0.103887  -0.646218   0.142901   0.012519   0.159976
     2  C   -0.026607   0.006362   0.060501  -0.002437  -0.003185  -0.237512
     3  O    0.033469  -0.008490   0.119386  -0.083319   0.179984   0.000241
     4  C    0.247129  -0.076565  -0.043767  -0.017589  -0.005094  -0.056671
     5  C   -0.168838   0.063326   0.173652  -0.017065   0.032136  -0.206863
     6  O    0.057294  -0.000494   0.233882  -0.030969  -0.009580   0.024995
     7  C    7.192711  -0.531913  -1.556998  -0.065530   0.225157   0.018715
     8  C   -0.531913   5.888081   0.250560  -0.116208   0.022358  -0.012207
     9  C   -1.556998   0.250560   7.655019   0.007337  -0.426071  -0.067663
    10  C   -0.065530  -0.116208   0.007337   6.085834  -0.138532   0.010395
    11  C    0.225157   0.022358  -0.426071  -0.138532   5.516418  -0.013077
    12  C    0.018715  -0.012207  -0.067663   0.010395  -0.013077   5.872187
    13  O    0.012495   0.002099  -0.044427  -0.000134   0.001547   0.056218
    14  H   -0.029276   0.040577  -0.018735   0.003039  -0.027095   0.026312
    15  H    0.001300  -0.000534  -0.002865   0.000020  -0.000273  -0.085595
    16  H   -0.000936   0.000554   0.001585   0.000089   0.000061   0.010862
    17  H    0.018919  -0.011686   0.005122  -0.000302   0.005474  -0.012178
    18  H   -0.015987   0.009184   0.002219   0.000747   0.000154  -0.026735
    19  H    0.009817   0.000824  -0.030745  -0.000169   0.005832   0.003208
    20  H    0.005154  -0.004645   0.000581   0.005975  -0.002022  -0.015599
    21  H    0.463946  -0.044971  -0.073894  -0.013699   0.010272   0.007584
    22  H    0.467862   0.012234  -0.094815  -0.038463   0.017566  -0.001393
    23  H   -0.041519   0.526019  -0.022536  -0.100516   0.011857  -0.003137
    24  H   -0.040942   0.421814   0.011567  -0.025934   0.009548  -0.000761
    25  H   -0.074546  -0.023433   0.554337   0.001237  -0.020589   0.003322
    26  H    0.001981  -0.047928   0.016293   0.428756  -0.036781   0.000386
    27  H   -0.045029   0.002942   0.031354   0.453160  -0.060741   0.000128
    28  H    0.013256   0.003341  -0.012769  -0.020743   0.432489  -0.000697
    29  H   -0.001016   0.012954   0.023797  -0.131491   0.500223  -0.003360
    30  H    0.003077   0.000996  -0.008703  -0.000258   0.001705   0.522776
    31  H   -0.000676  -0.000276   0.001147  -0.000056  -0.000297   0.401009
              13         14         15         16         17         18
     1  C   -0.027901   0.531898   0.048967  -0.017680   0.019596  -0.081564
     2  C    0.059918   0.005383   0.507959   0.414943   0.023313   0.026594
     3  O    0.001083  -0.000835   0.000024  -0.000012   0.002939   0.000767
     4  C    0.130863  -0.118280  -0.036154   0.028772   0.381002   0.423614
     5  C   -0.046561  -0.093893  -0.031718  -0.017591  -0.022151   0.035255
     6  O    0.025822  -0.018325   0.000868   0.000142  -0.008002   0.010708
     7  C    0.012495  -0.029276   0.001300  -0.000936   0.018919  -0.015987
     8  C    0.002099   0.040577  -0.000534   0.000554  -0.011686   0.009184
     9  C   -0.044427  -0.018735  -0.002865   0.001585   0.005122   0.002219
    10  C   -0.000134   0.003039   0.000020   0.000089  -0.000302   0.000747
    11  C    0.001547  -0.027095  -0.000273   0.000061   0.005474   0.000154
    12  C    0.056218   0.026312  -0.085595   0.010862  -0.012178  -0.026735
    13  O    8.371900   0.014388  -0.067619  -0.078039  -0.064175  -0.035309
    14  H    0.014388   0.534515   0.005670   0.000273   0.003483  -0.010761
    15  H   -0.067619   0.005670   0.527047  -0.026413  -0.000581   0.006695
    16  H   -0.078039   0.000273  -0.026413   0.508803   0.000598  -0.004897
    17  H   -0.064175   0.003483  -0.000581   0.000598   0.484415  -0.006786
    18  H   -0.035309  -0.010761   0.006695  -0.004897  -0.006786   0.479664
    19  H    0.002525   0.003192  -0.003470   0.006864   0.001198   0.000977
    20  H   -0.001260  -0.018276   0.000603  -0.001450   0.000106  -0.000889
    21  H    0.001329  -0.029007  -0.001121   0.000437  -0.006658  -0.009340
    22  H    0.000139   0.000070  -0.000024   0.000015   0.000313   0.000390
    23  H   -0.000554  -0.006375  -0.000249  -0.000007  -0.001467   0.002392
    24  H    0.000084   0.003768   0.000043  -0.000007   0.000439  -0.000361
    25  H   -0.001410  -0.001688   0.000131  -0.000267  -0.016957   0.000924
    26  H   -0.000007   0.002396   0.000006   0.000004  -0.000132  -0.000034
    27  H   -0.000020   0.000546  -0.000005   0.000002  -0.000394  -0.000011
    28  H    0.000051  -0.001874  -0.000018   0.000004   0.000166   0.000033
    29  H   -0.000242   0.004256   0.000111  -0.000149   0.000605  -0.000236
    30  H    0.002531  -0.017702  -0.017655   0.008539  -0.001414  -0.005152
    31  H    0.009836   0.001743   0.002411  -0.009279   0.000992   0.000226
              19         20         21         22         23         24
     1  C   -0.087868  -0.061519  -0.025803  -0.007879  -0.005056  -0.000033
     2  C   -0.035616  -0.011220  -0.008631   0.000147   0.001626   0.000268
     3  O    0.002580  -0.000203   0.005149  -0.005949   0.002483  -0.001134
     4  C   -0.016186   0.036184   0.025006   0.004507   0.001368  -0.000153
     5  C    0.492433   0.436560   0.026888   0.001208   0.003323  -0.002561
     6  O   -0.005087   0.005527  -0.005436   0.003029  -0.002675   0.001090
     7  C    0.009817   0.005154   0.463946   0.467862  -0.041519  -0.040942
     8  C    0.000824  -0.004645  -0.044971   0.012234   0.526019   0.421814
     9  C   -0.030745   0.000581  -0.073894  -0.094815  -0.022536   0.011567
    10  C   -0.000169   0.005975  -0.013699  -0.038463  -0.100516  -0.025934
    11  C    0.005832  -0.002022   0.010272   0.017566   0.011857   0.009548
    12  C    0.003208  -0.015599   0.007584  -0.001393  -0.003137  -0.000761
    13  O    0.002525  -0.001260   0.001329   0.000139  -0.000554   0.000084
    14  H    0.003192  -0.018276  -0.029007   0.000070  -0.006375   0.003768
    15  H   -0.003470   0.000603  -0.001121  -0.000024  -0.000249   0.000043
    16  H    0.006864  -0.001450   0.000437   0.000015  -0.000007  -0.000007
    17  H    0.001198   0.000106  -0.006658   0.000313  -0.001467   0.000439
    18  H    0.000977  -0.000889  -0.009340   0.000390   0.002392  -0.000361
    19  H    0.462319  -0.017744   0.000488   0.000128   0.000001   0.000197
    20  H   -0.017744   0.495331  -0.000140   0.000035  -0.004838  -0.000046
    21  H    0.000488  -0.000140   0.498873  -0.004656   0.000624  -0.008843
    22  H    0.000128   0.000035  -0.004656   0.429562   0.004391  -0.005312
    23  H    0.000001  -0.004838   0.000624   0.004391   0.486740  -0.009992
    24  H    0.000197  -0.000046  -0.008843  -0.005312  -0.009992   0.466288
    25  H   -0.003034   0.000939  -0.007218  -0.008077  -0.000675   0.001005
    26  H    0.000030  -0.000283   0.000607  -0.002105  -0.005833  -0.008347
    27  H   -0.000137   0.000172  -0.001267  -0.000432  -0.000063   0.000018
    28  H    0.000155   0.000504   0.001173  -0.000283  -0.002279   0.001214
    29  H   -0.001090  -0.005665  -0.000868   0.000339  -0.000348  -0.000186
    30  H    0.005911  -0.001229   0.003137   0.000007   0.000876  -0.000090
    31  H   -0.000887  -0.012003  -0.000276   0.000006   0.000307  -0.000021
              25         26         27         28         29         30
     1  C   -0.026752   0.000400  -0.006411  -0.001971   0.005277  -0.064450
     2  C    0.000398  -0.000020  -0.000003  -0.000278   0.002198  -0.089137
     3  O   -0.079152   0.009030  -0.011961  -0.064500  -0.038471   0.000153
     4  C   -0.005019  -0.002100   0.000693   0.000516  -0.003389   0.006691
     5  C    0.009815  -0.000447   0.000474   0.005272  -0.008159   0.000903
     6  O   -0.055875  -0.000134  -0.000115  -0.002095  -0.009548  -0.000727
     7  C   -0.074546   0.001981  -0.045029   0.013256  -0.001016   0.003077
     8  C   -0.023433  -0.047928   0.002942   0.003341   0.012954   0.000996
     9  C    0.554337   0.016293   0.031354  -0.012769   0.023797  -0.008703
    10  C    0.001237   0.428756   0.453160  -0.020743  -0.131491  -0.000258
    11  C   -0.020589  -0.036781  -0.060741   0.432489   0.500223   0.001705
    12  C    0.003322   0.000386   0.000128  -0.000697  -0.003360   0.522776
    13  O   -0.001410  -0.000007  -0.000020   0.000051  -0.000242   0.002531
    14  H   -0.001688   0.002396   0.000546  -0.001874   0.004256  -0.017702
    15  H    0.000131   0.000006  -0.000005  -0.000018   0.000111  -0.017655
    16  H   -0.000267   0.000004   0.000002   0.000004  -0.000149   0.008539
    17  H   -0.016957  -0.000132  -0.000394   0.000166   0.000605  -0.001414
    18  H    0.000924  -0.000034  -0.000011   0.000033  -0.000236  -0.005152
    19  H   -0.003034   0.000030  -0.000137   0.000155  -0.001090   0.005911
    20  H    0.000939  -0.000283   0.000172   0.000504  -0.005665  -0.001229
    21  H   -0.007218   0.000607  -0.001267   0.001173  -0.000868   0.003137
    22  H   -0.008077  -0.002105  -0.000432  -0.000283   0.000339   0.000007
    23  H   -0.000675  -0.005833  -0.000063  -0.002279  -0.000348   0.000876
    24  H    0.001005  -0.008347   0.000018   0.001214  -0.000186  -0.000090
    25  H    0.469508   0.001476   0.001936   0.000136   0.000026  -0.000802
    26  H    0.001476   0.484910  -0.003509  -0.012508   0.004540  -0.000062
    27  H    0.001936  -0.003509   0.467785  -0.002584   0.000651   0.000004
    28  H    0.000136  -0.012508  -0.002584   0.462447  -0.013419   0.000068
    29  H    0.000026   0.004540   0.000651  -0.013419   0.507267  -0.000458
    30  H   -0.000802  -0.000062   0.000004   0.000068  -0.000458   0.476096
    31  H    0.000308   0.000000  -0.000004  -0.000006   0.000328  -0.010255
              31
     1  C    0.040663
     2  C   -0.012475
     3  O    0.000028
     4  C   -0.021870
     5  C   -0.047543
     6  O   -0.001222
     7  C   -0.000676
     8  C   -0.000276
     9  C    0.001147
    10  C   -0.000056
    11  C   -0.000297
    12  C    0.401009
    13  O    0.009836
    14  H    0.001743
    15  H    0.002411
    16  H   -0.009279
    17  H    0.000992
    18  H    0.000226
    19  H   -0.000887
    20  H   -0.012003
    21  H   -0.000276
    22  H    0.000006
    23  H    0.000307
    24  H   -0.000021
    25  H    0.000308
    26  H    0.000000
    27  H   -0.000004
    28  H   -0.000006
    29  H    0.000328
    30  H   -0.010255
    31  H    0.479462
 Mulliken charges:
               1
     1  C   -0.089486
     2  C   -0.225603
     3  O   -0.257565
     4  C   -0.384980
     5  C   -0.194767
     6  O   -0.326331
     7  C   -0.331243
     8  C   -0.280986
     9  C   -0.098132
    10  C   -0.336074
    11  C   -0.241963
    12  C   -0.374865
    13  O   -0.325170
    14  H    0.210609
    15  H    0.172436
    16  H    0.174179
    17  H    0.204201
    18  H    0.197521
    19  H    0.203353
    20  H    0.171359
    21  H    0.196318
    22  H    0.227438
    23  H    0.166110
    24  H    0.187381
    25  H    0.279999
    26  H    0.169414
    27  H    0.172819
    28  H    0.215199
    29  H    0.155524
    30  H    0.184625
    31  H    0.178680
 Sum of Mulliken charges =  -0.00000
 Mulliken charges with hydrogens summed into heavy atoms:
               1
     1  C    0.121123
     2  C    0.121012
     3  O   -0.257565
     4  C    0.016742
     5  C    0.179945
     6  O   -0.326331
     7  C    0.092514
     8  C    0.072505
     9  C    0.181867
    10  C    0.006158
    11  C    0.128761
    12  C   -0.011560
    13  O   -0.325170
 Electronic spatial extent (au):  <R**2>=           2978.1140
 Charge=             -0.0000 electrons
 Dipole moment (field-independent basis, Debye):
    X=              0.0962    Y=              1.8123    Z=              4.7670  Tot=              5.1007
 Quadrupole moment (field-independent basis, Debye-Ang):
   XX=            -75.1913   YY=            -77.7752   ZZ=            -84.0332
   XY=             -3.4004   XZ=              0.5765   YZ=             -3.4332
 Traceless Quadrupole moment (field-independent basis, Debye-Ang):
   XX=              3.8086   YY=              1.2247   ZZ=             -5.0333
   XY=             -3.4004   XZ=              0.5765   YZ=             -3.4332
 Octapole moment (field-independent basis, Debye-Ang**2):
  XXX=             -5.2314  YYY=             -3.7808  ZZZ=              3.0323  XYY=              7.0638
  XXY=             28.4273  XXZ=             13.3389  XZZ=             -5.4520  YZZ=              1.5534
  YYZ=             -1.0354  XYZ=              0.7316
 Hexadecapole moment (field-independent basis, Debye-Ang**3):
 XXXX=          -2884.8215 YYYY=           -502.4382 ZZZZ=           -438.4679 XXXY=            -27.5487
 XXXZ=             -7.8742 YYYX=             -7.5890 YYYZ=              3.8079 ZZZX=              5.1066
 ZZZY=             -5.7111 XXYY=           -594.6764 XXZZ=           -576.3491 YYZZ=           -159.0246
 XXYZ=            -36.6013 YYXZ=             -6.0814 ZZXY=              7.3044
 N-N= 8.979063475032D+02 E-N=-3.237579716081D+03  KE= 6.153209538259D+02
 D1PCM: PCM CHGder 1st derivatives, ID1Alg=3 FixD1E=F DoIter=F DoCFld=F I1PDM=0.
 Calling FoFJK, ICntrl=      2127 FMM=F ISym2X=0 I1Cent= 0 IOpClX= 0 NMat=1 NMatS=1 NMatT=0.
 ***** Axes restored to original set *****
 -------------------------------------------------------------------
 Center     Atomic                   Forces (Hartrees/Bohr)
 Number     Number              X              Y              Z
 -------------------------------------------------------------------
      1        6           0.000710124   -0.004948815    0.004324622
      2        6          -0.005551975    0.001792002   -0.002937494
      3        8          -0.001515534   -0.007848820    0.009162072
      4        6           0.003520903    0.006657248    0.000682144
      5        6           0.001819067   -0.001985046   -0.003097110
      6        8           0.001485544    0.010616008    0.004846198
      7        6           0.000623375    0.003143978    0.001013376
      8        6          -0.000366557   -0.002277775    0.003767084
      9        6          -0.004553700    0.006818758   -0.008855199
     10        6           0.002634562    0.000915457    0.000289635
     11        6           0.001286327   -0.003718145   -0.005791860
     12        6          -0.000600216   -0.001058486    0.001679677
     13        8          -0.000753868   -0.005432649    0.007941289
     14        1          -0.003145838    0.001819766   -0.007456433
     15        1           0.003543792   -0.000935680   -0.004099717
     16        1           0.001963206    0.001261437    0.004122430
     17        1          -0.003554419   -0.004151438    0.001524762
     18        1           0.001102236   -0.000283781   -0.006415554
     19        1          -0.000184918   -0.001631683    0.003676208
     20        1          -0.001658658    0.002204799   -0.000862396
     21        1           0.003848649   -0.001059873   -0.002545914
     22        1          -0.002414004   -0.002437458    0.000187795
     23        1           0.003311005    0.002992907    0.000208381
     24        1          -0.000921059   -0.000397471   -0.002325501
     25        1           0.000366173   -0.007097950    0.002850581
     26        1          -0.001033011    0.002331337   -0.001204893
     27        1          -0.001976866   -0.002558617    0.000340897
     28        1          -0.003182667    0.000862467    0.002959424
     29        1           0.004639217    0.004351034   -0.000938508
     30        1          -0.000630985   -0.000363388   -0.003421062
     31        1           0.001190094    0.002419878    0.000375064
 -------------------------------------------------------------------
 Cartesian Forces:  Max     0.010616008 RMS     0.003616712

 GradGradGradGradGradGradGradGradGradGradGradGradGradGradGradGradGradGrad
 Berny optimization.
 FormGI is forming the generalized inverse of G from B-inverse, IUseBI=4.
 Internal  Forces:  Max     0.016517321 RMS     0.002374081
 Search for a local minimum.
 Step number   1 out of a maximum of  186
 All quantities printed in internal units (Hartrees-Bohrs-Radians)
 Mixed Optimization -- RFO/linear search
 Second derivative matrix not updated -- first step.
 ITU=  0
     Eigenvalues ---    0.00417   0.00590   0.00618   0.00718   0.01411
     Eigenvalues ---    0.01432   0.01458   0.02640   0.02817   0.03071
     Eigenvalues ---    0.03379   0.03948   0.04312   0.04662   0.04755
     Eigenvalues ---    0.04811   0.04817   0.04947   0.04998   0.05124
     Eigenvalues ---    0.05180   0.05607   0.05653   0.05977   0.06111
     Eigenvalues ---    0.06387   0.06401   0.06734   0.07460   0.07828
     Eigenvalues ---    0.07848   0.07878   0.07905   0.08089   0.08324
     Eigenvalues ---    0.08505   0.09213   0.10170   0.11250   0.11626
     Eigenvalues ---    0.11676   0.11779   0.11790   0.12404   0.12646
     Eigenvalues ---    0.14687   0.14688   0.16149   0.18597   0.19258
     Eigenvalues ---    0.19935   0.21571   0.22519   0.25000   0.27181
     Eigenvalues ---    0.27887   0.28331   0.28611   0.28736   0.28958
     Eigenvalues ---    0.29290   0.30195   0.35111   0.35211   0.35250
     Eigenvalues ---    0.35250   0.35250   0.35252   0.35283   0.35319
     Eigenvalues ---    0.35341   0.35450   0.35456   0.35464   0.35591
     Eigenvalues ---    0.35775   0.35866   0.35936   0.35944   0.36022
     Eigenvalues ---    0.40290   0.40829   0.41584   0.42811   0.43816
     Eigenvalues ---    0.440491000.000001000.000001000.000001000.00000
     Eigenvalues --- 1000.000001000.000001000.000001000.000001000.00000
     Eigenvalues --- 1000.000001000.000001000.000001000.000001000.00000
     Eigenvalues --- 1000.000001000.000001000.000001000.000001000.00000
     Eigenvalues --- 1000.000001000.000001000.000001000.000001000.00000
     Eigenvalues --- 1000.000001000.000001000.000001000.000001000.00000
     Eigenvalues --- 1000.000001000.000001000.000001000.000001000.00000
     Eigenvalues --- 1000.000001000.000001000.000001000.000001000.00000
     Eigenvalues --- 1000.000001000.000001000.000001000.000001000.00000
     Eigenvalues --- 1000.000001000.000001000.000001000.000001000.00000
     Eigenvalues --- 1000.000001000.000001000.000001000.000001000.00000
     Eigenvalues --- 1000.000001000.000001000.000001000.000001000.00000
     Eigenvalues --- 1000.000001000.000001000.000001000.000001000.00000
     Eigenvalues --- 1000.000001000.000001000.000001000.000001000.00000
     Eigenvalues --- 1000.000001000.000001000.000001000.000001000.00000
     Eigenvalues --- 1000.000001000.000001000.000001000.000001000.00000
     Eigenvalues --- 1000.000001000.000001000.000001000.000001000.00000
     Eigenvalues --- 1000.000001000.000001000.000001000.000001000.00000
     Eigenvalues --- 1000.000001000.000001000.000001000.000001000.00000
     Eigenvalues --- 1000.000001000.000001000.000001000.000001000.00000
 RFO step:  Lambda=-4.46618150D-03 EMin= 4.17137992D-03
 Linear search not attempted -- first point.
 Iteration  1 RMS(Cart)=  0.07897479 RMS(Int)=  0.00146754
 Iteration  2 RMS(Cart)=  0.00329264 RMS(Int)=  0.00007865
 Iteration  3 RMS(Cart)=  0.00000584 RMS(Int)=  0.00007860
 Iteration  4 RMS(Cart)=  0.00000000 RMS(Int)=  0.00007860
 Iteration  1 RMS(Cart)=  0.00001937 RMS(Int)=  0.00000422
 Iteration  2 RMS(Cart)=  0.00001036 RMS(Int)=  0.00000472
 Iteration  3 RMS(Cart)=  0.00000555 RMS(Int)=  0.00000532
 Iteration  4 RMS(Cart)=  0.00000297 RMS(Int)=  0.00000571
 Iteration  5 RMS(Cart)=  0.00000159 RMS(Int)=  0.00000593
 Iteration  6 RMS(Cart)=  0.00000085 RMS(Int)=  0.00000605
 Variable       Old X    -DE/DX   Delta X   Delta X   Delta X     New X
                                 (Linear)    (Quad)   (Total)
    R1        2.89808   0.00067   0.00000   0.00185   0.00185   2.89993
    R2        2.89125  -0.00172   0.00000  -0.00700  -0.00701   2.88425
    R3        2.67903   0.00053   0.00000   0.00124   0.00124   2.68027
    R4        2.04047   0.00828   0.00000   0.02270   0.02270   2.06317
    R5        2.89652   0.00064   0.00000   0.00326   0.00325   2.89977
    R6        2.68361   0.00342   0.00000   0.00928   0.00928   2.69289
    R7        2.05217   0.00540   0.00000   0.01511   0.01511   2.06729
    R8        2.04435   0.00471   0.00000   0.01300   0.01300   2.05735
    R9        2.64782   0.00068   0.00000   0.00122   0.00126   2.64908
   R10        2.68603   0.00286   0.00000   0.00660   0.00660   2.69264
   R11        2.66619   0.00245   0.00000   0.00559   0.00560   2.67179
   R12        2.04182   0.00556   0.00000   0.01529   0.01529   2.05711
   R13        2.05271   0.00644   0.00000   0.01804   0.01804   2.07075
   R14        2.88541  -0.00032   0.00000  -0.00226  -0.00226   2.88315
   R15        2.05125   0.00367   0.00000   0.01025   0.01025   2.06150
   R16        2.04928   0.00286   0.00000   0.00797   0.00797   2.05725
   R17        2.66396   0.00301   0.00000   0.00677   0.00677   2.67073
   R18        2.89244  -0.00183   0.00000  -0.00607  -0.00607   2.88637
   R19        2.88700  -0.00136   0.00000  -0.00528  -0.00533   2.88167
   R20        2.04727   0.00469   0.00000   0.01302   0.01302   2.06029
   R21        2.05333   0.00343   0.00000   0.00962   0.00962   2.06295
   R22        2.88715  -0.00057   0.00000  -0.00144  -0.00149   2.88566
   R23        2.05268   0.00437   0.00000   0.01225   0.01225   2.06493
   R24        2.05160   0.00253   0.00000   0.00706   0.00706   2.05866
   R25        2.04170   0.00757   0.00000   0.02079   0.02079   2.06249
   R26        2.86843   0.00041   0.00000   0.00205   0.00210   2.87053
   R27        2.05271   0.00278   0.00000   0.00780   0.00780   2.06051
   R28        2.05495   0.00317   0.00000   0.00892   0.00892   2.06387
   R29        2.04292   0.00443   0.00000   0.01220   0.01220   2.05512
   R30        2.04942   0.00633   0.00000   0.01764   0.01764   2.06706
   R31        2.05271   0.00346   0.00000   0.00970   0.00970   2.06241
   R32        2.04951   0.00269   0.00000   0.00750   0.00750   2.05701
    A1        1.91587   0.00060   0.00000  -0.00458  -0.00469   1.91118
    A2        1.96004  -0.00101   0.00000  -0.00319  -0.00317   1.95687
    A3        1.89497   0.00020   0.00000   0.00065   0.00069   1.89566
    A4        1.86244   0.00061   0.00000   0.00090   0.00093   1.86337
    A5        1.91218  -0.00086   0.00000   0.00016   0.00018   1.91236
    A6        1.91801   0.00045   0.00000   0.00608   0.00606   1.92406
    A7        1.95026   0.00186   0.00000   0.00594   0.00585   1.95611
    A8        1.93918  -0.00114   0.00000  -0.00659  -0.00661   1.93257
    A9        1.93248  -0.00084   0.00000  -0.00527  -0.00524   1.92725
   A10        1.90412   0.00041   0.00000   0.00661   0.00667   1.91079
   A11        1.84324  -0.00088   0.00000  -0.00233  -0.00231   1.84093
   A12        1.89123   0.00060   0.00000   0.00196   0.00192   1.89315
   A13        2.03286  -0.00685   0.00000  -0.04236  -0.04217   1.99069
   A14        1.93892   0.00072   0.00000   0.00041   0.00025   1.93916
   A15        1.93999  -0.00136   0.00000  -0.01452  -0.01451   1.92548
   A16        1.92001  -0.00054   0.00000   0.00108   0.00105   1.92106
   A17        1.86503  -0.00056   0.00000  -0.00193  -0.00195   1.86308
   A18        1.91228   0.00132   0.00000   0.01407   0.01410   1.92637
   A19        1.88609   0.00046   0.00000   0.00118   0.00115   1.88723
   A20        1.91629  -0.00091   0.00000  -0.00748  -0.00763   1.90866
   A21        1.89775  -0.00032   0.00000  -0.00977  -0.00975   1.88800
   A22        1.92086  -0.00014   0.00000  -0.00037  -0.00029   1.92057
   A23        1.90996   0.00106   0.00000   0.00475   0.00472   1.91468
   A24        1.94339   0.00014   0.00000   0.00557   0.00557   1.94896
   A25        1.87462   0.00021   0.00000   0.00729   0.00723   1.88185
   A26        2.14517  -0.01652   0.00000  -0.06491  -0.06491   2.08026
   A27        1.97534  -0.00241   0.00000  -0.02040  -0.02056   1.95478
   A28        1.95115  -0.00010   0.00000  -0.00331  -0.00360   1.94755
   A29        1.89989   0.00155   0.00000   0.01306   0.01324   1.91313
   A30        1.93426   0.00094   0.00000  -0.00397  -0.00403   1.93023
   A31        1.83855   0.00040   0.00000   0.01067   0.01067   1.84922
   A32        1.85693  -0.00018   0.00000   0.00712   0.00711   1.86404
   A33        1.91654   0.00154   0.00000  -0.00403  -0.00405   1.91249
   A34        1.93221  -0.00067   0.00000  -0.00400  -0.00396   1.92825
   A35        1.91012  -0.00047   0.00000   0.00263   0.00258   1.91270
   A36        1.90734  -0.00098   0.00000  -0.00175  -0.00190   1.90544
   A37        1.93124   0.00009   0.00000   0.00341   0.00355   1.93479
   A38        1.86595   0.00045   0.00000   0.00395   0.00395   1.86991
   A39        1.85799   0.00174   0.00000   0.00592   0.00622   1.86421
   A40        1.92404   0.00538   0.00000   0.02007   0.01986   1.94390
   A41        1.83255  -0.00321   0.00000  -0.00596  -0.00609   1.82645
   A42        2.03640  -0.00730   0.00000  -0.03999  -0.03985   1.99654
   A43        1.88705   0.00354   0.00000   0.02178   0.02166   1.90871
   A44        1.91426   0.00019   0.00000   0.00141   0.00146   1.91573
   A45        1.91626  -0.00135   0.00000  -0.00353  -0.00384   1.91242
   A46        1.93826  -0.00060   0.00000  -0.00266  -0.00258   1.93567
   A47        1.91947   0.00106   0.00000   0.00014   0.00025   1.91972
   A48        1.90604   0.00069   0.00000   0.00355   0.00359   1.90963
   A49        1.90631   0.00028   0.00000  -0.00067  -0.00053   1.90578
   A50        1.87687  -0.00004   0.00000   0.00335   0.00330   1.88016
   A51        1.93958   0.00298   0.00000   0.00907   0.00913   1.94871
   A52        1.83962  -0.00168   0.00000  -0.00201  -0.00205   1.83757
   A53        1.91102   0.00002   0.00000  -0.00041  -0.00038   1.91063
   A54        1.94867  -0.00000   0.00000  -0.00171  -0.00165   1.94702
   A55        1.93340  -0.00213   0.00000  -0.00849  -0.00858   1.92482
   A56        1.88857   0.00081   0.00000   0.00385   0.00384   1.89242
   A57        1.91136  -0.00017   0.00000  -0.00678  -0.00683   1.90453
   A58        1.92868   0.00050   0.00000   0.00266   0.00264   1.93132
   A59        1.90697  -0.00013   0.00000   0.00348   0.00351   1.91047
   A60        1.91476  -0.00045   0.00000  -0.00145  -0.00145   1.91332
   A61        1.93625   0.00024   0.00000   0.00054   0.00058   1.93684
   A62        1.86553   0.00002   0.00000   0.00184   0.00182   1.86735
   A63        1.97826  -0.00487   0.00000  -0.02925  -0.02928   1.94898
    D1        0.51208   0.00189   0.00000   0.02006   0.02007   0.53215
    D2        2.58642   0.00076   0.00000   0.00842   0.00844   2.59485
    D3       -1.60842   0.00011   0.00000   0.00132   0.00136  -1.60706
    D4       -1.55673   0.00136   0.00000   0.02399   0.02398  -1.53275
    D5        0.51761   0.00024   0.00000   0.01234   0.01235   0.52996
    D6        2.60596  -0.00041   0.00000   0.00524   0.00526   2.61123
    D7        2.60198   0.00132   0.00000   0.01795   0.01793   2.61991
[...]
 707,-0.00003251,-0.00001739,-0.00001073,-0.00017573,-0.00014088,0.0000
 0343,-0.00032772,-0.00016669,0.00022392,-0.00000605,-0.00000326,0.0000
 1004,-0.00001934,-0.00001628,0.00000102,0.00048500,-0.00015954,-0.0001
 0377,-0.00007101,-0.00016338,0.00003658,0.00000513,0.00002501,-0.00000
 478,-0.00000917,-0.00002026,-0.00001892,0.00082822,-0.00030227,0.00058
 522,-0.00009113,-0.00026083,0.00113776,0.00017352,0.00007645,0.0000626
 2,-0.00104028,0.00171289,-0.00075253,0.02379267,-0.09513119,0.10530028
 ,0.00017831,0.00003425,-0.00008155,0.00003084,0.00002092,-0.00001728,-
 0.00036077,0.00050543,-0.00296982,0.00006935,0.00001393,0.00000844,-0.
 00001879,0.00003669,0.00001250,-0.00031885,-0.00016959,-0.00004707,-0.
 00287453,0.00027736,0.00421300,-0.01011070,0.02086886,-0.00804434,0.00
 098850,-0.00025998,0.00036416,-0.08386147,0.08450664,-0.03138536,-0.00
 537943,0.01054048,-0.00173336,-0.00000234,-0.00002245,-0.00001320,-0.0
 0009780,-0.00002169,-0.00001608,0.00003100,0.00004517,0.00000474,-0.00
 000662,0.00000102,0.00000572,-0.00000839,-0.00000589,-0.00000071,0.000
 02620,-0.00003934,0.00001009,-0.00001350,0.00000619,0.00000947,-0.0000
 0698,-0.00000668,-0.00000580,-0.00000251,-0.00001296,0.00000048,-0.000
 50224,0.00121923,-0.00060724,0.00007455,0.00025038,-0.00003374,0.00073
 716,-0.00037100,-0.00074096,0.00089715,-0.00049960,-0.00007984,-0.0000
 3280,-0.00000893,-0.00005307,0.09024634,-0.00012935,-0.00001954,0.0000
 3101,-0.00002799,-0.00001697,0.00001409,-0.00002121,0.00162554,-0.0008
 3549,-0.00006167,-0.00000266,-0.00000481,0.00001174,-0.00003469,0.0000
 0240,0.00029321,0.00007379,0.00004422,0.00171560,0.00094421,-0.0019353
 9,0.00209865,-0.00743568,0.00276408,-0.00062111,-0.00002611,-0.0005820
 9,0.08667316,-0.25407222,0.07201278,-0.00223786,0.00277251,-0.00127776
 ,-0.00000062,0.00001707,0.00001070,0.00008350,0.00001218,0.00001466,-0
 .00002552,-0.00002818,0.00002007,0.00000594,-0.00000119,-0.00000490,0.
 00000719,0.00000437,0.00000074,-0.00001204,0.00002914,-0.00000779,0.00
 001226,-0.00000703,-0.00000803,0.00000825,0.00001037,0.00000638,-0.000
 00094,0.00000960,-0.00000065,0.00047456,-0.00043516,0.00054673,-0.0002
 0444,0.00036107,-0.00010057,0.00010973,0.00076360,-0.00014287,-0.00025
 330,-0.00003460,-0.00015627,-0.00005230,-0.00001510,0.00012845,-0.0961
 5892,0.27294161,0.00003938,0.00005065,-0.00023783,0.00000518,-0.000004
 65,0.00000577,-0.00573596,0.00226860,-0.00762995,-0.00003013,-0.000034
 29,0.00005700,-0.00002861,0.00000249,0.00004746,-0.00055523,-0.0001746
 7,0.00039102,0.00374595,-0.00102186,-0.00276499,0.00799723,-0.02007920
 ,0.00783221,0.00209025,-0.00085085,-0.00200134,-0.03210440,0.07102099,
 -0.07332366,-0.00860099,0.02826141,-0.00447231,-0.00000544,-0.00001640
 ,-0.00000570,0.00001341,0.00001646,-0.00000246,-0.00003055,-0.00003564
 ,0.00004801,-0.00000038,0.00000154,-0.00000013,0.00000115,0.00000167,-
 0.00000134,0.00000180,0.00001809,-0.00002023,-0.00001983,0.00001110,0.
 00000481,0.00000910,0.00000617,0.00000407,0.00000042,-0.00000116,0.000
 00142,0.00087722,-0.00109354,0.00062774,-0.00014559,0.00019397,-0.0001
 4461,-0.00071309,0.00052774,0.00078366,-0.00105432,0.00018945,0.000692
 85,-0.00019066,0.00017509,0.00034188,0.03285376,-0.07809858,0.07846073
 ,0.00003813,0.00001774,0.00016881,0.00002961,0.00001460,-0.00000724,0.
 00080565,0.00046376,0.00104616,0.00002949,-0.00005834,-0.00004118,0.00
 000205,0.00005517,-0.00001897,0.00002167,0.00016006,0.00001429,0.00074
 161,-0.00118516,-0.00042685,-0.01870704,-0.01611310,0.00134321,-0.0003
 8497,0.00001044,0.00005711,-0.19038559,-0.12786974,0.00153150,-0.00957
 269,-0.00869849,-0.00098577,0.00000352,-0.00001172,-0.00001088,-0.0000
 8967,0.00002797,-0.00002442,0.00009365,0.00001608,-0.00010020,-0.00000
 578,0.00000151,0.00000413,-0.00000481,-0.00000230,-0.00000195,0.000009
 17,0.00000888,0.00000042,-0.00001466,0.00000509,0.00000098,-0.00001475
 ,-0.00001508,-0.00001276,0.00000833,-0.00000680,0.00000439,0.00027862,
 0.00021595,0.00010272,-0.00014699,0.00068687,-0.00018193,-0.00274333,0
 .00190128,0.00295412,0.00112085,0.00018708,-0.00012753,-0.00005942,0.0
 0000904,-0.00009494,0.00993410,0.00787077,0.00054998,0.20796145,0.0001
 6150,0.00003413,-0.00016538,0.00000572,0.00000179,-0.00000333,0.000161
 63,0.00202322,0.00004557,0.00000320,0.00001118,0.00003513,-0.00001590,
 -0.00000804,0.00003827,-0.00027322,-0.00004007,0.00002213,0.00026432,0
 .00118749,0.00006810,0.00818543,0.00669504,0.00041184,0.00043440,-0.00
 009371,-0.00021679,-0.12941302,-0.16792225,0.00211884,-0.00237686,-0.0
 0502747,0.00028314,-0.00000576,-0.00001129,-0.00000498,-0.00001097,-0.
 00001277,-0.00000118,0.00004132,0.00000082,0.00007174,-0.00000169,0.00
 000094,0.00000133,-0.00000189,-0.00000118,-0.00000017,0.00000833,-0.00
 001517,0.00000005,-0.00000721,0.00000537,0.00000436,0.00000855,0.00001
 166,0.00000203,-0.00000585,0.00000245,-0.00000271,-0.00018341,0.000122
 10,-0.00004611,-0.00029866,0.00001068,-0.00015985,0.00198173,0.0004412
 6,-0.00111030,-0.00053704,0.00044643,0.00049244,-0.00009073,0.00001508
 ,0.00001856,-0.02035286,-0.01786340,-0.00053097,0.14204693,0.17872613,
 0.00014765,0.00004239,-0.00029643,-0.00001802,-0.00001131,0.00000540,0
 .00238800,0.00018374,0.00250600,-0.00003303,0.00004620,0.00008473,-0.0
 0000203,-0.00004192,0.00003037,-0.00020214,0.00020557,0.00012468,-0.00
 105114,0.00072125,0.00040203,0.01731668,0.01519724,-0.00182307,-0.0000
 1409,-0.00016098,-0.00026472,0.00215462,0.00394828,-0.04682187,-0.0258
 3497,-0.02468436,-0.00210391,-0.00000407,0.00000417,0.00000487,0.00006
 425,-0.00002637,0.00001808,-0.00007930,-0.00002095,0.00011680,0.000002
 86,0.00000054,-0.00000230,0.00000243,0.00000146,0.00000083,-0.00000215
 ,-0.00001439,-0.00000277,-0.00000271,0.00000612,0.00000615,0.00001924,
 0.00001538,0.00001154,-0.00000603,0.00000590,-0.00000837,-0.00021535,-
 0.00006164,-0.00011927,-0.00022040,-0.00042592,0.00018590,0.00366150,-
 0.00194140,-0.00196023,-0.00078164,0.00044339,0.00065622,-0.00003267,0
 .00003888,0.00010825,0.00789777,0.00641834,-0.00066892,-0.00340532,-0.
 00010608,0.05397390,0.00046212,0.00005468,-0.00045821,0.00004384,0.000
 01743,-0.00001085,-0.01298417,0.00992203,0.00741563,0.00003874,-0.0000
 1773,0.00010676,-0.00003774,0.00003619,0.00007408,-0.00052099,0.000637
 97,0.00028807,-0.00025598,-0.00003952,-0.00004471,-0.00074626,-0.00020
 278,-0.00255797,0.00147858,0.00087178,-0.00269288,0.01169195,-0.004427
 02,-0.00985186,-0.18831359,0.04007021,0.12822992,-0.00000952,-0.000040
 21,-0.00002350,-0.00010013,-0.00000729,-0.00002331,-0.00001635,-0.0000
 2507,0.00005551,-0.00000947,0.00000425,0.00000649,-0.00000937,-0.00000
 492,-0.00000299,0.00002346,-0.00003478,-0.00000926,-0.00005332,0.00002
 017,0.00002059,0.00000622,0.00000110,-0.00000369,0.00000257,-0.0000095
 8,-0.00000211,0.00003125,-0.00004733,0.00015122,0.00002813,-0.00002288
 ,0.00003259,0.00015676,0.00008790,-0.00016143,0.00059164,-0.00017098,-
 0.00061650,-0.00059731,0.00036969,0.00043738,0.00025803,0.00025105,0.0
 0109814,0.00073031,0.00011231,0.00077322,0.20312024,0.00005880,-0.0000
 8462,0.00021763,-0.00002631,-0.00001195,0.00001360,0.03267836,-0.01846
 409,-0.01987325,-0.00007218,-0.00001113,-0.00002431,0.00006167,-0.0000
 2672,-0.00006046,0.00011892,0.00158955,-0.00036745,0.00032870,-0.00013
 764,0.00021943,-0.00015793,0.00089812,0.00008687,-0.00176805,-0.004968
 81,0.00380710,0.00108721,0.00001507,-0.00368598,0.03193260,-0.05905852
 ,-0.03438165,0.00000946,0.00003311,0.00001182,0.00006687,0.00001796,0.
 00001275,0.00002803,-0.00003072,-0.00003628,0.00000501,-0.00000091,-0.
 00000401,0.00000648,0.00000347,0.00000091,-0.00003992,0.00003041,0.000
 01122,0.00001215,-0.00000067,-0.00000955,-0.00000268,-0.00000194,-0.00
 000011,0.00000660,0.00001312,-0.00000297,-0.00007035,0.00009181,-0.000
 22097,-0.00000333,0.00000648,0.00000750,0.00033812,0.00004231,-0.00025
 572,0.00010811,0.00027041,0.00010669,0.00120047,-0.00073465,-0.0008177
 0,-0.00012923,0.00013682,-0.00018377,0.00052964,0.00008276,0.00021720,
 -0.05147213,0.07322249,-0.00004457,0.00001987,-0.00013575,-0.00000861,
 -0.00000476,0.00000307,-0.01125206,0.00525000,0.00996322,-0.00001889,0
 .00001172,0.00002856,-0.00000628,-0.00001756,0.00002232,0.00010772,-0.
 00005397,0.00015150,-0.00042113,0.00058468,0.00012708,-0.00461392,-0.0
 0030904,-0.00511599,-0.00161741,0.00230131,-0.00024380,0.02277360,-0.0
 0606388,-0.01905148,0.13308357,-0.04225282,-0.17251693,-0.00000382,-0.
 00000028,0.00000327,0.00003070,-0.00000578,0.00000714,-0.00003913,-0.0
 0001319,0.00003739,0.00000158,-0.00000026,-0.00000145,0.00000197,0.000
 00087,0.00000034,0.00000647,-0.00000242,-0.00000808,-0.00000125,-0.000
 00318,0.00000119,0.00000905,0.00000609,0.00000521,0.00000092,0.0000008
 0,-0.00000267,0.00014359,-0.00008548,0.00015586,0.00001268,-0.00009367
 ,0.00004431,-0.00010062,0.00019114,0.00021264,0.00153051,-0.00086295,-
 0.00126756,-0.00033874,0.00029458,0.00031692,-0.00009378,0.00051647,0.
 00075691,-0.00014951,-0.00021788,0.00150355,-0.13762909,0.04028586,0.1
 8330605,0.00027392,-0.00032361,-0.00013700,-0.00000797,-0.00000248,-0.
 00000511,0.01307595,0.01367825,-0.00117564,0.00002137,0.00005562,-0.00
 002290,0.00013194,0.00000603,-0.00008885,-0.00190113,0.00235824,-0.000
 80177,-0.00004107,0.00015356,-0.00005931,0.00085178,0.00072643,0.00075
 485,0.00075723,0.00027473,0.00059029,-0.00949674,-0.00841216,-0.000473
 45,-0.18749770,-0.13104665,-0.00255195,-0.00000551,-0.00001601,0.00003
 548,0.00005442,-0.00001314,0.00001660,0.00002808,-0.00003521,0.0000350
 3,0.00000486,-0.00000487,-0.00000037,0.00000348,-0.00000024,0.00000157
 ,0.00000592,-0.00000174,-0.00000165,0.00001291,-0.00001378,-0.00000499
 ,0.00000206,0.00000182,-0.00000890,0.00007552,-0.00007892,-0.00000438,
 0.00004375,-0.00005823,0.00004876,-0.00004653,0.00001571,-0.00001855,0
 .00050931,-0.00020363,-0.00032528,0.00005553,0.00019469,-0.00001395,-0
 .00013188,-0.00019212,-0.00000102,0.00013922,0.00018109,-0.00006049,0.
 00032981,0.00016507,-0.00252419,-0.01498388,-0.01484910,-0.00136438,0.
 19772786,0.00056440,0.00026806,-0.00013699,0.00001323,0.00000908,-0.00
 000066,-0.00959414,-0.03984073,0.00614583,-0.00008544,-0.00005247,0.00
 010154,0.00014139,0.00002516,-0.00007026,0.00092022,0.00271873,-0.0002
 7342,0.00070741,-0.00014130,-0.00025932,0.00003942,-0.00011311,0.00043
 009,-0.00681955,-0.00058254,0.00277061,-0.00358955,-0.00017933,-0.0007
 5340,-0.12414514,-0.16579412,-0.00892208,0.00001195,0.00001686,0.00001
 306,-0.00002503,0.00001968,-0.00001045,0.00002292,-0.00006364,-0.00000
 897,-0.00000251,0.00000042,0.00000264,-0.00000098,-0.00000072,-0.00000
 105,-0.00001457,0.00000148,-0.00000241,-0.00003727,0.00002373,0.000015
 52,0.00000695,-0.00000628,-0.00000871,0.00005730,-0.00003747,-0.000008
 61,-0.00000121,0.00000806,-0.00026403,0.00001085,0.00007092,0.00010222
 ,0.00017476,-0.00014935,-0.00031369,0.00013592,0.00013775,-0.00003851,
 0.00054063,0.00000938,-0.00020950,-0.00026798,0.00029105,-0.00062108,-
 0.00026897,0.00117659,-0.00000028,0.00406374,0.00707904,0.00052459,0.1
 3744043,0.19510444,0.00018925,-0.00012445,-0.00029341,0.00002837,0.000
 00613,-0.00000439,0.00564519,0.01465796,0.00112707,0.00003854,-0.00001
 577,0.00002498,-0.00005711,0.00001552,0.00009213,-0.00083138,-0.000144
 20,0.00009566,-0.00006819,-0.00010930,-0.00007274,-0.00099852,-0.00015
 540,0.00201737,0.00119828,-0.00154080,-0.00070553,-0.02403673,-0.02239
 174,-0.00199271,-0.00343179,-0.00742842,-0.05368591,-0.00001311,-0.000
 03031,-0.00002601,-0.00005770,0.00000270,-0.00001513,-0.00000332,-0.00
 000173,-0.00000645,-0.00000574,0.00000376,0.00000273,-0.00000632,-0.00
 000152,-0.00000138,0.00000962,-0.00000652,-0.00000413,-0.00002115,0.00
 000899,0.00001033,-0.00000026,0.00000412,-0.00000956,-0.00002346,0.000
 01056,-0.00000164,0.00004852,-0.00004450,0.00012127,-0.00000242,0.0001
 0657,-0.00000609,0.00051821,0.00040793,-0.00030007,0.00013577,0.000412
 91,0.00017494,-0.00013304,0.00004722,-0.00000320,0.00053579,0.00063018
 ,0.00121507,-0.00219346,-0.00105040,-0.00566609,0.01538637,0.01493243,
 0.00169821,0.00816746,0.00179761,0.05620613,0.00128708,-0.00000968,0.0
 0121716,-0.00607764,-0.00038766,-0.01652189,0.00006153,0.00000627,-0.0
 0000674,-0.00016317,-0.00042126,-0.00029814,0.00360511,0.00068700,0.03
 281632,0.00018135,0.00008999,-0.00040680,-0.00003971,-0.00002629,0.000
 02239,-0.00000112,-0.00000897,0.00000121,-0.00006798,-0.00006925,-0.00
 018906,0.00000134,0.00000164,0.00000476,-0.00000151,0.00001412,0.00000
 005,-0.05312705,-0.00284338,-0.03572320,0.00060513,0.00061963,0.000080
 74,-0.00011750,0.00010587,-0.00041125,0.00080964,-0.00041940,-0.000068
 52,-0.00077912,0.00347979,-0.00109529,0.00002306,0.00008523,-0.0000086
 6,0.00003432,-0.00048898,0.00024069,-0.00553109,0.00019167,0.00270136,
 0.00114549,0.00027906,-0.00089077,0.00000089,-0.00001152,-0.00000949,0
 .00000435,-0.00000109,-0.00001776,-0.00000455,0.00001657,-0.00000706,0
 .00000842,0.00000196,0.00000056,0.00000246,0.00000712,0.00000690,0.000
 00152,-0.00000187,-0.00000013,0.00000301,-0.00000012,-0.00000333,0.000
 00032,-0.00000152,-0.00000152,-0.00000110,-0.00000193,0.00000229,0.060
 59402,-0.00033629,0.00003916,0.00091004,0.00564982,0.00112287,0.028200
 20,0.00007771,-0.00001275,-0.00002240,0.00010308,-0.00039363,0.0005332
 4,-0.00078534,-0.00045348,-0.00269816,0.00019946,0.00012621,-0.0001714
 4,0.00000762,0.00001921,0.00000207,-0.00000361,0.00000079,0.00000150,-
 0.00015977,-0.00009012,0.00000391,0.00000072,0.00000090,0.00000426,-0.
 00001518,0.00001820,-0.00000816,-0.00258658,-0.05024547,-0.00860705,-0
 .00002087,-0.00107042,-0.00016678,0.00002240,0.00011592,-0.00015745,-0
 .00082663,0.00141709,-0.00030280,0.00202926,-0.00346254,0.00165027,-0.
 00003095,0.00009174,-0.00008191,-0.00041270,-0.00074673,-0.00002911,0.
 00072002,0.00077504,0.00013240,-0.00027851,-0.00003403,-0.00007359,0.0
 0000127,-0.00001371,-0.00001310,0.00001671,0.00000063,0.00000442,-0.00
 000374,0.00001426,-0.00000769,0.00000811,0.00000059,0.00000403,0.00001
 781,0.00001926,-0.00000120,0.00000347,-0.00000304,0.00000058,0.0000030
 3,0.00000053,-0.00000173,0.00000480,-0.00000190,-0.00000171,-0.0000014
 7,0.00000225,0.00000263,-0.00083666,0.05322440,-0.00037108,-0.00077269
 ,0.00036073,-0.00150904,-0.00212625,-0.00791974,0.00007265,-0.00001708
 ,-0.00002680,-0.00057477,-0.00067993,-0.00135681,-0.00034996,-0.000227
 50,-0.01560669,0.00016432,0.00011685,0.00021180,0.00003074,0.00003960,
 -0.00000650,-0.00000284,0.00000793,-0.00000224,-0.00011839,-0.00003879
 ,0.00007505,-0.00000020,-0.00000187,0.00000222,-0.00001858,0.00001898,
 -0.00001101,-0.03693416,-0.00576997,-0.30485434,0.00051474,0.00146351,
 0.00037845,0.00059821,0.00051999,-0.00011513,0.00019702,0.00018627,0.0
 0146355,-0.00041386,0.00155390,0.00077179,0.00004059,0.00007450,0.0003
 4866,-0.00030049,-0.00004322,0.00066809,0.00297221,-0.00040462,0.00007
 662,0.00015061,-0.00021561,0.00041221,0.00001152,-0.00000696,-0.000010
 71,0.00001754,0.00000053,0.00001219,-0.00000307,0.00000539,-0.00000826
 ,0.00000662,-0.00000080,0.00000436,0.00002756,0.00002096,-0.00000597,0
 .00000287,-0.00000255,0.00000087,0.00000184,0.00000086,0.00000015,0.00
 000484,-0.00000176,-0.00000033,-0.00000389,0.00000179,0.00000201,0.037
 04453,0.00706071,0.33173440,-0.00229943,0.00291696,0.00404823,0.009117
 70,0.01192744,0.00309873,-0.00055283,0.00005176,0.00014468,-0.00105371
 ,0.00062599,-0.00014228,-0.01697695,-0.02419542,-0.00844281,-0.0026845
 2,-0.00225237,-0.00019986,-0.00005188,-0.00006072,0.00003254,0.0000158
 0,-0.00001064,-0.00000626,0.00081507,0.00042603,0.00037571,0.00000580,
 0.00001016,-0.00001313,0.00009642,-0.00013258,0.00006368,-0.13165746,-
 0.12233735,-0.03298233,0.00043407,0.00363997,-0.00114288,0.00001383,0.
 00002828,-0.00025666,-0.00103751,-0.00035306,0.00063292,0.00147767,-0.
 00001228,-0.00001200,0.00012608,-0.00009488,0.00012303,0.00014492,-0.0
 0000651,0.00006922,0.00127835,0.00015107,0.00007102,0.00114908,0.00038
 352,-0.00078010,0.00000169,0.00003793,0.00002144,-0.00005266,-0.000009
 84,-0.00003961,0.00001369,-0.00003595,0.00002604,-0.00002906,0.0000062
 9,-0.00002049,-0.00012772,-0.00016781,-0.00001087,-0.00001454,0.000012
 45,-0.00000717,-0.00001132,-0.00000525,0.00000435,-0.00002609,0.000015
 53,0.00000235,0.00000860,0.00000274,-0.00001997,-0.00245750,-0.0025670
 0,-0.00125806,0.14433442,0.00144838,0.00055381,-0.00074315,-0.01587889
 ,-0.01797270,-0.00588459,-0.00001151,0.00001973,0.00000719,0.00154740,
 0.00050360,0.00070860,0.00350125,0.00433189,0.00191329,0.00014063,0.00
 022092,0.00000256,0.00000462,-0.00000786,-0.00001465,-0.00000304,0.000
 00065,0.00000461,0.00018042,0.00006121,-0.00007397,-0.00000144,0.00000
 110,-0.00000515,0.00000481,-0.00000954,0.00000479,-0.12305133,-0.22192
 369,-0.04705804,0.00074456,-0.00569622,0.00155796,-0.00010552,0.000027
 13,0.00008485,0.00118835,-0.00062394,0.00003994,-0.00054335,0.00153991
 ,0.00042788,-0.00013400,-0.00002599,-0.00002398,-0.00013224,0.00000797
 ,-0.00002070,-0.00038219,-0.00000242,0.00015107,-0.00044957,0.00051426
 ,0.00035061,0.00001110,0.00001241,0.00001977,-0.00001319,0.00000064,-0
 .00000139,0.00000351,-0.00001038,0.00000536,-0.00000618,-0.00000083,-0
 .00000276,-0.00000530,0.00000391,-0.00000587,-0.00000291,0.00000264,0.
 00000068,-0.00000219,-0.00000029,0.00000128,-0.00000306,0.00000134,0.0
 0000083,0.00000169,-0.00000161,-0.00000218,-0.00005635,-0.00046122,-0.
 00076217,0.13200552,0.23893356,0.00180907,-0.00116491,-0.00107337,0.00
 654069,0.00869221,0.00045436,0.00017542,-0.00001792,-0.00005650,-0.000
 53216,-0.00055919,-0.00107158,0.00925628,0.01394215,0.00363288,0.00096
 851,0.00075261,0.00014091,0.00000946,0.00001891,-0.00001813,-0.0000037
 3,0.00000311,-0.00000157,-0.00015261,-0.00004958,-0.00009861,-0.000001
 79,-0.00000387,0.00000362,-0.00003167,0.00003994,-0.00001912,-0.035077
 89,-0.04956049,-0.06021848,-0.00022288,0.00405978,-0.00077190,0.000276
 58,0.00020720,0.00012668,-0.00007885,0.00020066,0.00026031,0.00057149,
 0.00020578,0.00073124,0.00004053,0.00002446,0.00021204,-0.00015125,0.0
 0003138,0.00044190,-0.00083632,0.00023010,0.00052022,-0.00078581,-0.00
 024267,0.00046810,0.00000048,-0.00000993,-0.00000754,0.00001462,0.0000
 0319,0.00001298,-0.00000207,0.00000826,-0.00000686,0.00000743,-0.00000
 197,0.00000654,0.00005209,0.00004836,-0.00000086,0.00000440,-0.0000035
 4,0.00000199,0.00000325,0.00000174,-0.00000150,0.00000756,-0.00000504,
 -0.00000067,-0.00000203,-0.00000207,0.00000653,-0.01847933,-0.02616599
 ,-0.00659864,0.03662052,0.04931731,0.06292503\\-0.00198879,0.00282302,
 -0.00137118,-0.00000348,0.00001046,-0.00000194,-0.00100804,0.00192965,
 -0.00261544,0.00000013,0.00000624,0.00001664,0.00000267,0.00000003,0.0
 0000309,0.00268978,-0.00369661,0.00131112,0.00000415,-0.00000984,0.000
 00631,-0.00000261,0.00000462,0.00000432,0.00030578,-0.00106851,0.00267
 405,-0.00000081,0.00000391,-0.00000243,0.00000173,0.00000607,-0.000005
 36,0.00000896,-0.00000604,0.00000393,-0.00000831,-0.00000526,-0.000013
 23,0.00000333,0.00000037,-0.00000188,0.00000289,0.00000373,0.00000196,
 -0.00000160,0.00000673,0.00000248,-0.00000142,-0.00000066,0.00000504,-
 0.00000341,-0.00000055,-0.00000348,0.00000220,0.00000242,-0.00000038,-
 0.00000159,0.00000035,-0.00000236,-0.00000052,0.00000211,-0.00000279,-
 0.00000018,-0.00000202,0.00000151,0.00000015,-0.00000113,-0.00000202,-
 0.00000263,-0.00000302,-0.00000039,-0.00000119,-0.00000144,0.00000259,
 0.00000033,-0.00000334,-0.00000490,-0.00000046,-0.00000276,0.00000039,
 0.00000057,-0.00000106,-0.00000069,0.00000036,0.00000182,0.00000054,0.
 00000034,-0.00000174,-0.00000243,0.00000167,0.00000244,-0.00000307\\\@


 Just remember, when you're over the hill, you begin to pick up speed.
 -- Charles Schulz
 Job cpu time:       0 days 14 hours 49 minutes 25.1 seconds.
 Elapsed time:       0 days  0 hours 55 minutes 36.6 seconds.
 File lengths (MBytes):  RWF=    685 Int=      0 D2E=      0 Chk=     33 Scr=      1
 Normal termination of Gaussian 16 at Sun Nov  4 22:58:03 2018.
