 Entering Gaussian System, Link 0=g16
 Initial command:
 /apps/gaussian/g16a03/g16/l1.exe "/jobfs/local/2011994.r-man2/Gau-13377.inp" -scrdir="/jobfs/local/2011994.r-man2/"
 Entering Link 1 = /apps/gaussian/g16a03/g16/l1.exe PID=     13378.
  
 Copyright (c) 1988,1990,1992,1993,1995,1998,2003,2009,2016,
            Gaussian, Inc.  All Rights Reserved.
  
 This is part of the Gaussian(R) 16 program.  It is based on
 the Gaussian(R) 09 system (copyright 2009, Gaussian, Inc.),
 the Gaussian(R) 03 system (copyright 2003, Gaussian, Inc.),
 the Gaussian(R) 98 system (copyright 1998, Gaussian, Inc.),
 the Gaussian(R) 94 system (copyright 1995, Gaussian, Inc.),
 the Gaussian 92(TM) system (copyright 1992, Gaussian, Inc.),
 the Gaussian 90(TM) system (copyright 1990, Gaussian, Inc.),
 the Gaussian 88(TM) system (copyright 1988, Gaussian, Inc.),
 the Gaussian 86(TM) system (copyright 1986, Carnegie Mellon
 University), and the Gaussian 82(TM) system (copyright 1983,
 Carnegie Mellon University). Gaussian is a federally registered
 trademark of Gaussian, Inc.
  
 This software contains proprietary and confidential information,
 including trade secrets, belonging to Gaussian, Inc.
  
 This software is provided under written license and may be
 used, copied, transmitted, or stored only in accord with that
 written license.
  
 The following legend is applicable only to US Government
 contracts under FAR:
  
                    RESTRICTED RIGHTS LEGEND
  
 Use, reproduction and disclosure by the US Government is
 subject to restrictions as set forth in subparagraphs (a)
 and (c) of the Commercial Computer Software - Restricted
 Rights clause in FAR 52.227-19.
  
 Gaussian, Inc.
 340 Quinnipiac St., Bldg. 40, Wallingford CT 06492
  
  
 ---------------------------------------------------------------
 Warning -- This program may not be used in any manner that
 competes with the business of Gaussian, Inc. or will provide
 assistance to any competitor of Gaussian, Inc.  The licensee
 of this program is prohibited from giving any competitor of
 Gaussian, Inc. access to this program.  By using this program,
 the user acknowledges that Gaussian, Inc. is engaged in the
 business of creating and licensing software in the field of
 computational chemistry and represents and warrants to the
 licensee that it is not a competitor of Gaussian, Inc. and that
 it will not use this program in any manner prohibited above.
 ---------------------------------------------------------------
  

 Cite this work as:
 Gaussian 16, Revision A.03,
 M. J. Frisch, G. W. Trucks, H. B. Schlegel, G. E. Scuseria, 
 M. A. Robb, J. R. Cheeseman, G. Scalmani, V. Barone, 
 G. A. Petersson, H. Nakatsuji, X. Li, M. Caricato, A. V. Marenich, 
 J. Bloino, B. G. Janesko, R. Gomperts, B. Mennucci, H. P. Hratchian, 
 J. V. Ortiz, A. F. Izmaylov, J. L. Sonnenberg, D. Williams-Young, 
 F. Ding, F. Lipparini, F. Egidi, J. Goings, B. Peng, A. Petrone, 
 T. Henderson, D. Ranasinghe, V. G. Zakrzewski, J. Gao, N. Rega, 
 G. Zheng, W. Liang, M. Hada, M. Ehara, K. Toyota, R. Fukuda, 
 J. Hasegawa, M. Ishida, T. Nakajima, Y. Honda, O. Kitao, H. Nakai, 
 T. Vreven, K. Throssell, J. A. Montgomery, Jr., J. E. Peralta, 
 F. Ogliaro, M. J. Bearpark, J. J. Heyd, E. N. Brothers, K. N. Kudin, 
 V. N. Staroverov, T. A. Keith, R. Kobayashi, J. Normand, 
 K. Raghavachari, A. P. Rendell, J. C. Burant, S. S. Iyengar, 
 J. Tomasi, M. Cossi, J. M. Millam, M. Klene, C. Adamo, R. Cammi, 
 J. W. Ochterski, R. L. Martin, K. Morokuma, O. Farkas, 
 J. B. Foresman, and D. J. Fox, Gaussian, Inc., Wallingford CT, 2016.
 
 ******************************************
 Gaussian 16:  ES64L-G16RevA.03 25-Dec-2016
                 4-Nov-2018 
 ******************************************
 %mem=6000mb
 %nproc=24
 Will use up to   24 processors via shared memory.
 %chk=D_a1-4_2SO_PHI.inp_extract_19.chk
 ----------------------------------------------------------------------
 #M062X/6-311++G(2d,2p) opt=ModRedundant freq=noraman SCRF=(Solvent=Wat
 er)
 ----------------------------------------------------------------------
 1/18=120,19=15,26=3,38=1/1,3;
 2/9=110,12=2,17=6,18=5,40=1/2;
 3/5=4,6=6,7=1212,11=2,25=1,30=1,70=2201,71=1,72=1,74=-55/1,2,3;
 4//1;
 5/5=2,38=5,53=1/2;
 6/7=2,8=2,9=2,10=2,28=1/1;
 7//1,2,3,16;
 1/18=20,19=15,26=3/3(2);
 2/9=110/2;
 99//99;
 2/9=110/2;
 3/5=4,6=6,7=1212,11=2,25=1,30=1,70=2205,71=1,72=1,74=-55/1,2,3;
 4/5=5,16=3,69=1/1;
 5/5=2,38=5,53=1/2;
 7//1,2,3,16;
 1/18=20,19=15,26=3/3(-5);
 2/9=110/2;
 6/7=2,8=2,9=2,10=2,19=2,28=1/1;
 99/9=1/99;
 -----------------------------
 D_a1-4_2SO_PHI.inp_extract_19
 -----------------------------
 Symbolic Z-matrix:
 Charge =  0 Multiplicity = 1
 C                     0.88192   0.44618  -0.17625 
 C                     3.56936  -0.79728   0.02813 
 O                    -1.75783   1.19839  -0.70463 
 C                     1.23857  -1.0393   -0.30592 
 C                     2.14272   1.24745   0.16242 
 O                    -0.06722   0.66522   0.85561 
 C                    -2.35869   0.09869   1.38876 
 C                    -2.69214  -1.17535   0.61709 
 C                    -1.41943   1.03559   0.63963 
 C                    -3.17071  -0.7968   -0.78204 
 C                    -2.11747   0.05043  -1.47118 
 C                     3.35561   0.61841  -0.51925 
 O                     2.35568  -1.37018   0.49096 
 H                     0.48008   0.79196  -1.11522 
 H                     4.00465  -1.4472   -0.72535 
 H                     4.22885  -0.78097   0.88559 
 H                     0.42228  -1.66135   0.02667 
 H                     1.45259  -1.2823   -1.34298 
 H                     2.28643   1.23464   1.23857 
 H                     2.01472   2.28299  -0.13464 
 H                    -1.923    -0.11831   2.35772 
 H                    -3.27827   0.6506    1.56649 
 H                    -1.82029  -1.81932   0.54597 
 H                    -3.45693  -1.73366   1.14799 
 H                    -1.51116   2.02899   1.05482 
 H                    -3.35725  -1.6783   -1.38856 
 H                    -4.10276  -0.24055  -0.71692 
 H                    -2.47565   0.44423  -2.41194 
 H                    -1.23537  -0.54606  -1.67168 
 H                     3.19819   0.59107  -1.59387 
 H                     4.24948   1.20811  -0.34659 
 
 The following ModRedundant input section has been read:
 D       1       6       9       3 F                                           
 

 GradGradGradGradGradGradGradGradGradGradGradGradGradGradGradGradGradGrad
 Berny optimization.
 Initialization pass.
                           ----------------------------
                           !    Initial Parameters    !
                           ! (Angstroms and Degrees)  !
 --------------------------                            --------------------------
 ! Name  Definition              Value          Derivative Info.                !
 --------------------------------------------------------------------------------
 ! R1    R(1,4)                  1.5332         estimate D2E/DX2                !
 ! R2    R(1,5)                  1.5318         estimate D2E/DX2                !
 ! R3    R(1,6)                  1.419          estimate D2E/DX2                !
 ! R4    R(1,14)                 1.0783         estimate D2E/DX2                !
 ! R5    R(2,12)                 1.5328         estimate D2E/DX2                !
 ! R6    R(2,13)                 1.4197         estimate D2E/DX2                !
 ! R7    R(2,15)                 1.0861         estimate D2E/DX2                !
 ! R8    R(2,16)                 1.0819         estimate D2E/DX2                !
 ! R9    R(3,9)                  1.3957         estimate D2E/DX2                !
 ! R10   R(3,11)                 1.4264         estimate D2E/DX2                !
 ! R11   R(4,13)                 1.4115         estimate D2E/DX2                !
 ! R12   R(4,17)                 1.0788         estimate D2E/DX2                !
 ! R13   R(4,18)                 1.0864         estimate D2E/DX2                !
 ! R14   R(5,12)                 1.5269         estimate D2E/DX2                !
 ! R15   R(5,19)                 1.0858         estimate D2E/DX2                !
 ! R16   R(5,20)                 1.0849         estimate D2E/DX2                !
 ! R17   R(6,9)                  1.4186         estimate D2E/DX2                !
 ! R18   R(7,8)                  1.5264         estimate D2E/DX2                !
 ! R19   R(7,9)                  1.5236         estimate D2E/DX2                !
 ! R20   R(7,21)                 1.0843         estimate D2E/DX2                !
 ! R21   R(7,22)                 1.0871         estimate D2E/DX2                !
 ! R22   R(8,10)                 1.5264         estimate D2E/DX2                !
 ! R23   R(8,23)                 1.0862         estimate D2E/DX2                !
 ! R24   R(8,24)                 1.0856         estimate D2E/DX2                !
 ! R25   R(9,25)                 1.0806         estimate D2E/DX2                !
 ! R26   R(10,11)                1.5172         estimate D2E/DX2                !
 ! R27   R(10,26)                1.0861         estimate D2E/DX2                !
 ! R28   R(10,27)                1.0874         estimate D2E/DX2                !
 ! R29   R(11,28)                1.0809         estimate D2E/DX2                !
 ! R30   R(11,29)                1.0836         estimate D2E/DX2                !
 ! R31   R(12,30)                1.0864         estimate D2E/DX2                !
 ! R32   R(12,31)                1.0847         estimate D2E/DX2                !
 ! A1    A(4,1,5)              109.5148         estimate D2E/DX2                !
 ! A2    A(4,1,6)              111.5095         estimate D2E/DX2                !
 ! A3    A(4,1,14)             108.8895         estimate D2E/DX2                !
 ! A4    A(5,1,6)              108.0004         estimate D2E/DX2                !
 ! A5    A(5,1,14)             109.3609         estimate D2E/DX2                !
 ! A6    A(6,1,14)             109.5394         estimate D2E/DX2                !
 ! A7    A(12,2,13)            111.7106         estimate D2E/DX2                !
 ! A8    A(12,2,15)            111.1509         estimate D2E/DX2                !
 ! A9    A(12,2,16)            110.7392         estimate D2E/DX2                !
 ! A10   A(13,2,15)            109.1067         estimate D2E/DX2                !
 ! A11   A(13,2,16)            105.5947         estimate D2E/DX2                !
 ! A12   A(15,2,16)            108.3341         estimate D2E/DX2                !
 ! A13   A(9,3,11)             119.0013         estimate D2E/DX2                !
 ! A14   A(1,4,13)             111.3134         estimate D2E/DX2                !
 ! A15   A(1,4,17)             110.8891         estimate D2E/DX2                !
 ! A16   A(1,4,18)             110.0754         estimate D2E/DX2                !
 ! A17   A(13,4,17)            106.8347         estimate D2E/DX2                !
 ! A18   A(13,4,18)            109.3031         estimate D2E/DX2                !
 ! A19   A(17,4,18)            108.3227         estimate D2E/DX2                !
 ! A20   A(1,5,12)             109.853          estimate D2E/DX2                !
 ! A21   A(1,5,19)             108.7784         estimate D2E/DX2                !
 ! A22   A(1,5,20)             109.9782         estimate D2E/DX2                !
 ! A23   A(12,5,19)            109.4195         estimate D2E/DX2                !
 ! A24   A(12,5,20)            111.3895         estimate D2E/DX2                !
 ! A25   A(19,5,20)            107.3531         estimate D2E/DX2                !
 ! A26   A(1,6,9)              124.5537         estimate D2E/DX2                !
 ! A27   A(8,7,9)              113.5394         estimate D2E/DX2                !
 ! A28   A(8,7,21)             111.87           estimate D2E/DX2                !
 ! A29   A(8,7,22)             108.761          estimate D2E/DX2                !
 ! A30   A(9,7,21)             108.3447         estimate D2E/DX2                !
 ! A31   A(9,7,22)             106.8381         estimate D2E/DX2                !
 ! A32   A(21,7,22)            107.1809         estimate D2E/DX2                !
 ! A33   A(7,8,10)             108.959          estimate D2E/DX2                !
 ! A34   A(7,8,23)             110.6471         estimate D2E/DX2                !
 ! A35   A(7,8,24)             109.6292         estimate D2E/DX2                !
 ! A36   A(10,8,23)            109.7954         estimate D2E/DX2                !
 ! A37   A(10,8,24)            110.7896         estimate D2E/DX2                !
 ! A38   A(23,8,24)            107.0126         estimate D2E/DX2                !
 ! A39   A(3,9,6)              114.0925         estimate D2E/DX2                !
 ! A40   A(3,9,7)              113.3175         estimate D2E/DX2                !
 ! A41   A(3,9,25)             104.0196         estimate D2E/DX2                !
 ! A42   A(6,9,7)              110.6241         estimate D2E/DX2                !
 ! A43   A(6,9,25)             105.2152         estimate D2E/DX2                !
 ! A44   A(7,9,25)             108.9098         estimate D2E/DX2                !
 ! A45   A(8,10,11)            109.7045         estimate D2E/DX2                !
 ! A46   A(8,10,26)            111.3723         estimate D2E/DX2                !
 ! A47   A(8,10,27)            109.9204         estimate D2E/DX2                !
 ! A48   A(11,10,26)           108.5891         estimate D2E/DX2                !
 ! A49   A(11,10,27)           109.6684         estimate D2E/DX2                !
 ! A50   A(26,10,27)           107.5418         estimate D2E/DX2                !
 ! A51   A(3,11,10)            112.3533         estimate D2E/DX2                !
 ! A52   A(3,11,28)            104.9546         estimate D2E/DX2                !
 ! A53   A(3,11,29)            109.7074         estimate D2E/DX2                !
 ! A54   A(10,11,28)           111.6364         estimate D2E/DX2                !
 ! A55   A(10,11,29)           109.9845         estimate D2E/DX2                !
 ! A56   A(28,11,29)           108.0145         estimate D2E/DX2                !
 ! A57   A(2,12,5)             109.3804         estimate D2E/DX2                !
 ! A58   A(2,12,30)            110.4992         estimate D2E/DX2                !
 ! A59   A(2,12,31)            109.2905         estimate D2E/DX2                !
 ! A60   A(5,12,30)            109.685          estimate D2E/DX2                !
 ! A61   A(5,12,31)            111.0728         estimate D2E/DX2                !
 ! A62   A(30,12,31)           106.8903         estimate D2E/DX2                !
 ! A63   A(2,13,4)             113.4492         estimate D2E/DX2                !
 ! D1    D(5,1,4,13)            28.0393         estimate D2E/DX2                !
 ! D2    D(5,1,4,17)           146.8321         estimate D2E/DX2                !
 ! D3    D(5,1,4,18)           -93.3181         estimate D2E/DX2                !
 ! D4    D(6,1,4,13)           -91.4377         estimate D2E/DX2                !
 ! D5    D(6,1,4,17)            27.3551         estimate D2E/DX2                !
 ! D6    D(6,1,4,18)           147.205          estimate D2E/DX2                !
 ! D7    D(14,1,4,13)          147.578          estimate D2E/DX2                !
 ! D8    D(14,1,4,17)          -93.6292         estimate D2E/DX2                !
 ! D9    D(14,1,4,18)           26.2206         estimate D2E/DX2                !
 ! D10   D(4,1,5,12)            33.981          estimate D2E/DX2                !
 ! D11   D(4,1,5,19)           -85.7634         estimate D2E/DX2                !
 ! D12   D(4,1,5,20)           156.9266         estimate D2E/DX2                !
 ! D13   D(6,1,5,12)           155.594          estimate D2E/DX2                !
 ! D14   D(6,1,5,19)            35.8496         estimate D2E/DX2                !
 ! D15   D(6,1,5,20)           -81.4604         estimate D2E/DX2                !
 ! D16   D(14,1,5,12)          -85.2675         estimate D2E/DX2                !
 ! D17   D(14,1,5,19)          154.9881         estimate D2E/DX2                !
 ! D18   D(14,1,5,20)           37.6781         estimate D2E/DX2                !
 ! D19   D(4,1,6,9)           -109.3495         estimate D2E/DX2                !
 ! D20   D(5,1,6,9)            130.2799         estimate D2E/DX2                !
 ! D21   D(14,1,6,9)            11.2548         estimate D2E/DX2                !
 ! D22   D(13,2,12,5)           26.9654         estimate D2E/DX2                !
 ! D23   D(13,2,12,30)         -93.881          estimate D2E/DX2                !
 ! D24   D(13,2,12,31)         148.7648         estimate D2E/DX2                !
 ! D25   D(15,2,12,5)          149.0936         estimate D2E/DX2                !
 ! D26   D(15,2,12,30)          28.2472         estimate D2E/DX2                !
 ! D27   D(15,2,12,31)         -89.107          estimate D2E/DX2                !
 ! D28   D(16,2,12,5)          -90.4326         estimate D2E/DX2                !
 ! D29   D(16,2,12,30)         148.721          estimate D2E/DX2                !
 ! D30   D(16,2,12,31)          31.3668         estimate D2E/DX2                !
 ! D31   D(12,2,13,4)           37.5586         estimate D2E/DX2                !
 ! D32   D(15,2,13,4)          -85.7362         estimate D2E/DX2                !
 ! D33   D(16,2,13,4)          158.0128         estimate D2E/DX2                !
 ! D34   D(11,3,9,6)            83.8247         estimate D2E/DX2                !
 ! D35   D(11,3,9,7)           -43.9753         estimate D2E/DX2                !
 ! D36   D(11,3,9,25)         -162.0981         estimate D2E/DX2                !
 ! D37   D(9,3,11,10)           50.1178         estimate D2E/DX2                !
 ! D38   D(9,3,11,28)          171.617          estimate D2E/DX2                !
 ! D39   D(9,3,11,29)          -72.5538         estimate D2E/DX2                !
 ! D40   D(1,4,13,2)           -68.792          estimate D2E/DX2                !
 ! D41   D(17,4,13,2)          170.0148         estimate D2E/DX2                !
 ! D42   D(18,4,13,2)           53.0149         estimate D2E/DX2                !
 ! D43   D(1,5,12,2)           -63.0524         estimate D2E/DX2                !
 ! D44   D(1,5,12,30)           58.2879         estimate D2E/DX2                !
 ! D45   D(1,5,12,31)          176.2274         estimate D2E/DX2                !
 ! D46   D(19,5,12,2)           56.3004         estimate D2E/DX2                !
 ! D47   D(19,5,12,30)         177.6406         estimate D2E/DX2                !
 ! D48   D(19,5,12,31)         -64.4198         estimate D2E/DX2                !
 ! D49   D(20,5,12,2)          174.8375         estimate D2E/DX2                !
 ! D50   D(20,5,12,30)         -63.8222         estimate D2E/DX2                !
 ! D51   D(20,5,12,31)          54.1174         estimate D2E/DX2                !
 ! D52   D(1,6,9,3)             -1.1062         Frozen                          !
 ! D53   D(1,6,9,7)            128.0608         estimate D2E/DX2                !
 ! D54   D(1,6,9,25)          -114.4739         estimate D2E/DX2                !
 ! D55   D(9,7,8,10)           -51.5062         estimate D2E/DX2                !
 ! D56   D(9,7,8,23)            69.2985         estimate D2E/DX2                !
 ! D57   D(9,7,8,24)          -172.9038         estimate D2E/DX2                !
 ! D58   D(21,7,8,10)         -174.5158         estimate D2E/DX2                !
 ! D59   D(21,7,8,23)          -53.7111         estimate D2E/DX2                !
 ! D60   D(21,7,8,24)           64.0866         estimate D2E/DX2                !
 ! D61   D(22,7,8,10)           67.2877         estimate D2E/DX2                !
 ! D62   D(22,7,8,23)         -171.9076         estimate D2E/DX2                !
 ! D63   D(22,7,8,24)          -54.1099         estimate D2E/DX2                !
 ! D64   D(8,7,9,3)             44.4888         estimate D2E/DX2                !
 ! D65   D(8,7,9,6)            -85.0929         estimate D2E/DX2                !
 ! D66   D(8,7,9,25)           159.7348         estimate D2E/DX2                !
 ! D67   D(21,7,9,3)           169.4145         estimate D2E/DX2                !
 ! D68   D(21,7,9,6)            39.8329         estimate D2E/DX2                !
 ! D69   D(21,7,9,25)          -75.3394         estimate D2E/DX2                !
 ! D70   D(22,7,9,3)           -75.4034         estimate D2E/DX2                !
 ! D71   D(22,7,9,6)           155.015          estimate D2E/DX2                !
 ! D72   D(22,7,9,25)           39.8427         estimate D2E/DX2                !
 ! D73   D(7,8,10,11)           56.0185         estimate D2E/DX2                !
 ! D74   D(7,8,10,26)          176.2679         estimate D2E/DX2                !
 ! D75   D(7,8,10,27)          -64.6489         estimate D2E/DX2                !
 ! D76   D(23,8,10,11)         -65.307          estimate D2E/DX2                !
 ! D77   D(23,8,10,26)          54.9424         estimate D2E/DX2                !
 ! D78   D(23,8,10,27)         174.0256         estimate D2E/DX2                !
 ! D79   D(24,8,10,11)         176.7064         estimate D2E/DX2                !
 ! D80   D(24,8,10,26)         -63.0442         estimate D2E/DX2                !
 ! D81   D(24,8,10,27)          56.039          estimate D2E/DX2                !
 ! D82   D(8,10,11,3)          -54.9309         estimate D2E/DX2                !
 ! D83   D(8,10,11,28)        -172.5302         estimate D2E/DX2                !
 ! D84   D(8,10,11,29)          67.5843         estimate D2E/DX2                !
 ! D85   D(26,10,11,3)        -176.8589         estimate D2E/DX2                !
 ! D86   D(26,10,11,28)         65.5419         estimate D2E/DX2                !
 ! D87   D(26,10,11,29)        -54.3437         estimate D2E/DX2                !
 ! D88   D(27,10,11,3)          65.889          estimate D2E/DX2                !
 ! D89   D(27,10,11,28)        -51.7103         estimate D2E/DX2                !
 ! D90   D(27,10,11,29)       -171.5958         estimate D2E/DX2                !
 --------------------------------------------------------------------------------
 Trust Radius=3.00D-01 FncErr=1.00D-07 GrdErr=1.00D-06 EigMax=2.50D+02 EigMin=1.00D-04
 Number of steps in this run=    186 maximum allowed number of steps=    186.
 GradGradGradGradGradGradGradGradGradGradGradGradGradGradGradGradGradGrad

                          Input orientation:                          
 ---------------------------------------------------------------------
 Center     Atomic      Atomic             Coordinates (Angstroms)
 Number     Number       Type             X           Y           Z
 ---------------------------------------------------------------------
      1          6           0        0.881916    0.446175   -0.176251
      2          6           0        3.569359   -0.797282    0.028126
      3          8           0       -1.757833    1.198389   -0.704625
      4          6           0        1.238572   -1.039304   -0.305921
      5          6           0        2.142716    1.247450    0.162421
      6          8           0       -0.067221    0.665216    0.855611
      7          6           0       -2.358694    0.098686    1.388761
      8          6           0       -2.692135   -1.175352    0.617093
      9          6           0       -1.419434    1.035594    0.639627
     10          6           0       -3.170708   -0.796801   -0.782039
     11          6           0       -2.117465    0.050431   -1.471176
     12          6           0        3.355608    0.618405   -0.519252
     13          8           0        2.355679   -1.370181    0.490962
     14          1           0        0.480080    0.791961   -1.115220
     15          1           0        4.004652   -1.447199   -0.725347
     16          1           0        4.228849   -0.780966    0.885588
     17          1           0        0.422280   -1.661349    0.026674
     18          1           0        1.452588   -1.282296   -1.342982
     19          1           0        2.286426    1.234644    1.238566
     20          1           0        2.014724    2.282994   -0.134636
     21          1           0       -1.922999   -0.118309    2.357721
     22          1           0       -3.278274    0.650603    1.566489
     23          1           0       -1.820294   -1.819324    0.545969
     24          1           0       -3.456929   -1.733659    1.147994
     25          1           0       -1.511159    2.028987    1.054816
     26          1           0       -3.357246   -1.678301   -1.388558
     27          1           0       -4.102762   -0.240553   -0.716915
     28          1           0       -2.475645    0.444233   -2.411942
     29          1           0       -1.235369   -0.546060   -1.671682
     30          1           0        3.198186    0.591069   -1.593866
     31          1           0        4.249476    1.208113   -0.346585
 ---------------------------------------------------------------------
                    Distance matrix (angstroms):
                    1          2          3          4          5
     1  C    0.000000
     2  C    2.968216   0.000000
     3  O    2.795224   5.735730   0.000000
     4  C    1.533188   2.367009   3.760941   0.000000
     5  C    1.531782   2.496853   3.996055   2.503211   0.000000
     6  O    1.419006   4.006039   2.361520   2.441237   2.388165
     7  C    3.615462   6.147837   2.439804   4.136096   4.804816
     8  C    4.004071   6.300486   2.873065   4.039916   5.427014
     9  C    2.511829   5.349899   1.395718   3.502036   3.600211
    10  C    4.282024   6.788584   2.446016   4.441536   5.770913
    11  C    3.290856   5.941927   1.426444   3.715956   4.717058
    12  C    2.503291   1.532802   5.149565   2.697286   1.526919
    13  O    2.432344   1.419665   4.994793   1.411535   2.646750
    14  H    1.078287   3.657400   2.311282   2.140983   2.145739
    15  H    3.692946   1.086091   6.340804   2.827277   3.393534
    16  H    3.719588   1.081866   6.502844   3.229271   2.998232
    17  H    2.166587   3.263544   3.669577   1.078838   3.382224
    18  H    2.162068   2.568247   4.107079   1.086436   3.023595
    19  H    2.143837   2.690689   4.487019   2.941815   1.085774
    20  H    2.158446   3.454198   3.966540   3.416052   1.084885
    21  H    3.821937   6.004499   3.337505   4.235416   4.818161
    22  H    4.515098   7.166101   2.787431   5.173355   5.631586
    23  H    3.599448   5.510090   3.267182   3.269680   5.025700
    24  H    5.032979   7.176324   3.862128   4.964245   6.419843
    25  H    3.122119   5.903690   1.961217   4.339013   3.841611
    26  H    4.894240   7.124679   3.361730   4.764658   6.419902
    27  H    5.060724   7.728290   2.751254   5.416343   6.480230
    28  H    4.033799   6.636065   1.999734   4.520134   5.348061
    29  H    2.775561   5.102732   2.061861   2.868619   4.241706
    30  H    2.719510   2.167059   5.071658   2.856047   2.151603
    31  H    3.456881   2.150483   6.017977   3.757403   2.167734
                    6          7          8          9         10
     6  O    0.000000
     7  C    2.419928   0.000000
     8  C    3.214771   1.526377   0.000000
     9  C    1.418559   1.523551   2.551188   0.000000
    10  C    3.801450   2.484680   1.526402   2.906160   0.000000
    11  C    3.161550   2.870498   2.488706   2.431724   1.517245
    12  C    3.688929   6.046806   6.409683   4.931336   6.683163
    13  O    3.185319   5.018857   5.053147   4.478988   5.700022
    14  H    2.049336   3.848271   4.115116   2.597499   3.995426
    15  H    4.851997   6.881234   6.835423   6.119487   7.205000
    16  H    4.533052   6.665035   6.937409   5.938307   7.585161
    17  H    2.517867   3.561856   3.206925   3.322819   3.782991
    18  H    3.307028   4.888292   4.586072   4.189494   4.682438
    19  H    2.451644   4.784360   5.566002   3.759222   6.163597
    20  H    2.816432   5.120422   5.888954   3.734827   6.065721
    21  H    2.512799   1.084343   2.176855   2.130004   3.446044
    22  H    3.288833   1.087119   2.139865   2.112481   2.760821
    23  H    3.056482   2.163085   1.086216   2.884444   2.152389
    24  H    4.162957   2.149785   1.085575   3.475426   2.164406
    25  H    1.996124   2.134455   3.442978   1.080567   3.756756
    26  H    4.620891   3.445038   2.172088   3.903060   1.086142
    27  H    4.424799   2.755128   2.154831   3.266345   1.087372
    28  H    4.065248   3.818170   3.441653   3.282889   2.163299
    29  H    3.036276   3.323232   2.785079   2.806717   2.144731
    30  H    4.082685   6.325932   6.534865   5.148641   6.568718
    31  H    4.513744   6.921717   7.402401   5.756641   7.698599
                   11         12         13         14         15
    11  C    0.000000
    12  C    5.584199   0.000000
    13  O    5.086958   2.444354   0.000000
    14  H    2.724667   2.941762   3.282156   0.000000
    15  H    6.346611   2.174960   2.050476   4.193858   0.000000
    16  H    6.820649   2.166648   2.002915   4.531071   1.757624
    17  H    3.409406   3.754960   2.009571   2.706657   3.666713
    18  H    3.812856   2.812949   2.046130   2.302214   2.630912
    19  H    5.304651   2.147749   2.710871   2.999860   3.741863
    20  H    4.883202   2.171809   3.722004   2.353690   4.268851
    21  H    3.837544   6.056683   4.833121   4.320266   6.812364
    22  H    3.306825   6.954117   6.081262   4.619174   7.917973
    23  H    2.766436   5.819552   4.200417   3.856174   5.973669
    24  H    3.440522   7.397471   5.860906   5.196242   7.698484
    25  H    3.265414   5.305926   5.179258   3.194420   6.758478
    26  H    2.128943   7.147934   6.022047   4.571868   7.395323
    27  H    2.143592   7.510270   6.666820   4.714570   8.196721
    28  H    1.080932   6.133198   5.921203   3.246338   6.958187
    29  H    1.083558   4.874540   4.272216   2.245599   5.400502
    30  H    5.344482   1.086427   2.983761   2.767230   2.357806
    31  H    6.568323   1.084698   3.306895   3.869409   2.693340
                   16         17         18         19         20
    16  H    0.000000
    17  H    4.000347   0.000000
    18  H    3.595203   1.755327   0.000000
    19  H    2.821398   3.651095   3.700630   0.000000
    20  H    3.915489   4.256729   3.806230   1.748869   0.000000
    21  H    6.360151   3.648984   5.142437   4.560948   5.242496
    22  H    7.672673   4.627121   5.880661   5.604866   5.794338
    23  H    6.147004   2.307328   3.816843   5.164452   5.656819
    24  H    7.749043   4.038669   5.523771   6.465690   6.907795
    25  H    6.393134   4.291135   5.049537   3.884121   3.729768
    26  H    7.970307   4.035838   4.826324   6.872995   6.791336
    27  H    8.501518   4.800791   5.686748   6.842648   6.643115
    28  H    7.571331   4.333393   4.422057   6.052130   5.360091
    29  H    6.037590   2.622229   2.806279   4.903416   4.574840
    30  H    3.015367   3.924945   2.572849   3.044366   2.528348
    31  H    2.339896   4.797975   3.875245   2.523286   2.488857
                   21         22         23         24         25
    21  H    0.000000
    22  H    1.747582   0.000000
    23  H    2.487257   3.044291   0.000000
    24  H    2.534904   2.427295   1.745952   0.000000
    25  H    2.545202   2.298793   3.894096   4.237005   0.000000
    26  H    4.304096   3.763288   2.474773   2.539113   4.808544
    27  H    3.770901   2.586092   3.049107   2.474743   3.873790
    28  H    4.834414   4.063830   3.781853   4.287106   3.931932
    29  H    4.109975   4.011386   2.623226   3.781044   3.760415
    30  H    6.507288   7.206658   5.964397   7.563909   5.591159
    31  H    6.868196   7.787021   6.841355   8.383106   5.985205
                   26         27         28         29         30
    26  H    0.000000
    27  H    1.753288   0.000000
    28  H    2.515887   2.447357   0.000000
    29  H    2.421671   3.037574   1.751271   0.000000
    30  H    6.940164   7.400303   5.734385   4.577721   0.000000
    31  H    8.202397   8.485025   7.076473   5.909021   1.744037
                   31
    31  H    0.000000
 Stoichiometry    C10H18O3
 Framework group  C1[X(C10H18O3)]
 Deg. of freedom    87
 Full point group                 C1      NOp   1
 Largest Abelian subgroup         C1      NOp   1
 Largest concise Abelian subgroup C1      NOp   1
                         Standard orientation:                         
 ---------------------------------------------------------------------
 Center     Atomic      Atomic             Coordinates (Angstroms)
 Number     Number       Type             X           Y           Z
 ---------------------------------------------------------------------
      1          6           0        0.881916   -0.446175    0.176251
      2          6           0        3.569359    0.797282   -0.028126
      3          8           0       -1.757833   -1.198389    0.704625
      4          6           0        1.238572    1.039304    0.305921
      5          6           0        2.142716   -1.247450   -0.162421
      6          8           0       -0.067221   -0.665216   -0.855611
      7          6           0       -2.358694   -0.098686   -1.388761
      8          6           0       -2.692135    1.175352   -0.617093
      9          6           0       -1.419434   -1.035594   -0.639627
     10          6           0       -3.170708    0.796801    0.782039
     11          6           0       -2.117465   -0.050431    1.471176
     12          6           0        3.355608   -0.618405    0.519252
     13          8           0        2.355679    1.370181   -0.490962
     14          1           0        0.480080   -0.791961    1.115220
     15          1           0        4.004652    1.447199    0.725347
     16          1           0        4.228849    0.780966   -0.885588
     17          1           0        0.422280    1.661349   -0.026674
     18          1           0        1.452588    1.282296    1.342982
     19          1           0        2.286426   -1.234644   -1.238566
     20          1           0        2.014724   -2.282994    0.134636
     21          1           0       -1.922999    0.118309   -2.357721
     22          1           0       -3.278274   -0.650603   -1.566489
     23          1           0       -1.820294    1.819324   -0.545969
     24          1           0       -3.456929    1.733659   -1.147994
     25          1           0       -1.511159   -2.028987   -1.054816
     26          1           0       -3.357246    1.678301    1.388558
     27          1           0       -4.102762    0.240553    0.716915
     28          1           0       -2.475645   -0.444233    2.411942
     29          1           0       -1.235369    0.546060    1.671682
     30          1           0        3.198186   -0.591069    1.593866
     31          1           0        4.249476   -1.208113    0.346585
 ---------------------------------------------------------------------
 Rotational constants (GHZ):           1.6898409           0.4474729           0.4287103
 Standard basis: 6-311++G(2d,2p) (5D, 7F)
 There are   557 symmetry adapted cartesian basis functions of A   symmetry.
 There are   531 symmetry adapted basis functions of A   symmetry.
   531 basis functions,   762 primitive gaussians,   557 cartesian basis functions
    51 alpha electrons       51 beta electrons
       nuclear repulsion energy       902.1023967762 Hartrees.
 NAtoms=   31 NActive=   31 NUniq=   31 SFac= 1.00D+00 NAtFMM=   60 NAOKFM=F Big=F
 Integral buffers will be    131072 words long.
 Raffenetti 2 integral format.
 Two-electron integral symmetry is turned on.
 ------------------------------------------------------------------------------
 Polarizable Continuum Model (PCM)
 =================================
 Model                : PCM.
 Atomic radii         : UFF (Universal Force Field).
 Polarization charges : Total charges.
 Charge compensation  : None.
 Solution method      : On-the-fly selection.
 Cavity type          : Scaled VdW (van der Waals Surface) (Alpha=1.100).
 Cavity algorithm     : GePol (No added spheres)
                        Default sphere list used, NSphG=   31.
                        Lebedev-Laikov grids with approx.  5.0 points / Ang**2.
                        Smoothing algorithm: York/Karplus (Gamma=1.0000).
                        Polarization charges: spherical gaussians, with
                                              point-specific exponents (IZeta= 3).
                        Self-potential: point-specific (ISelfS= 7).
                        Self-field    : sphere-specific E.n sum rule (ISelfD= 2).
 1st derivatives      : Analytical E(r).r(x)/FMM algorithm (CHGder, D1EAlg=3).
                        Cavity 1st derivative terms included.
 Solvent              : Water, Eps=  78.355300 Eps(inf)=   1.777849
 ------------------------------------------------------------------------------
 One-electron integrals computed using PRISM.
 NBasis=   531 RedAO= T EigKep=  4.52D-06  NBF=   531
 NBsUse=   531 1.00D-06 EigRej= -1.00D+00 NBFU=   531
 ExpMin= 3.60D-02 ExpMax= 8.59D+03 ExpMxC= 1.30D+03 IAcc=3 IRadAn=         5 AccDes= 0.00D+00
 Harris functional with IExCor= 1009 and IRadAn=       5 diagonalized for initial guess.
 HarFok:  IExCor= 1009 AccDes= 0.00D+00 IRadAn=         5 IDoV= 1 UseB2=F ITyADJ=14
 ICtDFT=  3500011 ScaDFX=  1.000000  1.000000  1.000000  1.000000
 FoFCou: FMM=F IPFlag=           0 FMFlag=      100000 FMFlg1=           0
         NFxFlg=           0 DoJE=T BraDBF=F KetDBF=T FulRan=T
         wScrn=  0.000000 ICntrl=       500 IOpCl=  0 I1Cent=   200000004 NGrid=           0
         NMat0=    1 NMatS0=      1 NMatT0=    0 NMatD0=    1 NMtDS0=    0 NMtDT0=    0
 Petite list used in FoFCou.
 Requested convergence on RMS density matrix=1.00D-08 within 128 cycles.
 Requested convergence on MAX density matrix=1.00D-06.
 Requested convergence on             energy=1.00D-06.
 No special actions if energy rises.
 Inv3:  Mode=1 IEnd=    12216972.
 Iteration    1 A*A^-1 deviation from unit magnitude is 5.22D-15 for   2013.
 Iteration    1 A*A^-1 deviation from orthogonality  is 2.55D-15 for   1970   1233.
 Iteration    1 A^-1*A deviation from unit magnitude is 5.22D-15 for   2013.
 Iteration    1 A^-1*A deviation from orthogonality  is 2.13D-15 for   1691    750.
 Error on total polarization charges =  0.01475
 SCF Done:  E(RM062X) =  -617.482424642     A.U. after   12 cycles
            NFock= 12  Conv=0.63D-08     -V/T= 2.0035

 **********************************************************************

            Population analysis using the SCF density.

 **********************************************************************

 Orbital symmetries:
       Occupied  (A) (A) (A) (A) (A) (A) (A) (A) (A) (A) (A) (A)
                 (A) (A) (A) (A) (A) (A) (A) (A) (A) (A) (A) (A)
                 (A) (A) (A) (A) (A) (A) (A) (A) (A) (A) (A) (A)
                 (A) (A) (A) (A) (A) (A) (A) (A) (A) (A) (A) (A)
                 (A) (A) (A)
       Virtual   (A) (A) (A) (A) (A) (A) (A) (A) (A) (A) (A) (A)
                 (A) (A) (A) (A) (A) (A) (A) (A) (A) (A) (A) (A)
                 (A) (A) (A) (A) (A) (A) (A) (A) (A) (A) (A) (A)
                 (A) (A) (A) (A) (A) (A) (A) (A) (A) (A) (A) (A)
                 (A) (A) (A) (A) (A) (A) (A) (A) (A) (A) (A) (A)
                 (A) (A) (A) (A) (A) (A) (A) (A) (A) (A) (A) (A)
                 (A) (A) (A) (A) (A) (A) (A) (A) (A) (A) (A) (A)
                 (A) (A) (A) (A) (A) (A) (A) (A) (A) (A) (A) (A)
                 (A) (A) (A) (A) (A) (A) (A) (A) (A) (A) (A) (A)
                 (A) (A) (A) (A) (A) (A) (A) (A) (A) (A) (A) (A)
                 (A) (A) (A) (A) (A) (A) (A) (A) (A) (A) (A) (A)
                 (A) (A) (A) (A) (A) (A) (A) (A) (A) (A) (A) (A)
                 (A) (A) (A) (A) (A) (A) (A) (A) (A) (A) (A) (A)
                 (A) (A) (A) (A) (A) (A) (A) (A) (A) (A) (A) (A)
                 (A) (A) (A) (A) (A) (A) (A) (A) (A) (A) (A) (A)
                 (A) (A) (A) (A) (A) (A) (A) (A) (A) (A) (A) (A)
                 (A) (A) (A) (A) (A) (A) (A) (A) (A) (A) (A) (A)
                 (A) (A) (A) (A) (A) (A) (A) (A) (A) (A) (A) (A)
                 (A) (A) (A) (A) (A) (A) (A) (A) (A) (A) (A) (A)
                 (A) (A) (A) (A) (A) (A) (A) (A) (A) (A) (A) (A)
                 (A) (A) (A) (A) (A) (A) (A) (A) (A) (A) (A) (A)
                 (A) (A) (A) (A) (A) (A) (A) (A) (A) (A) (A) (A)
                 (A) (A) (A) (A) (A) (A) (A) (A) (A) (A) (A) (A)
                 (A) (A) (A) (A) (A) (A) (A) (A) (A) (A) (A) (A)
                 (A) (A) (A) (A) (A) (A) (A) (A) (A) (A) (A) (A)
                 (A) (A) (A) (A) (A) (A) (A) (A) (A) (A) (A) (A)
                 (A) (A) (A) (A) (A) (A) (A) (A) (A) (A) (A) (A)
                 (A) (A) (A) (A) (A) (A) (A) (A) (A) (A) (A) (A)
                 (A) (A) (A) (A) (A) (A) (A) (A) (A) (A) (A) (A)
                 (A) (A) (A) (A) (A) (A) (A) (A) (A) (A) (A) (A)
                 (A) (A) (A) (A) (A) (A) (A) (A) (A) (A) (A) (A)
                 (A) (A) (A) (A) (A) (A) (A) (A) (A) (A) (A) (A)
                 (A) (A) (A) (A) (A) (A) (A) (A) (A) (A) (A) (A)
                 (A) (A) (A) (A) (A) (A) (A) (A) (A) (A) (A) (A)
                 (A) (A) (A) (A) (A) (A) (A) (A) (A) (A) (A) (A)
                 (A) (A) (A) (A) (A) (A) (A) (A) (A) (A) (A) (A)
                 (A) (A) (A) (A) (A) (A) (A) (A) (A) (A) (A) (A)
                 (A) (A) (A) (A) (A) (A) (A) (A) (A) (A) (A) (A)
                 (A) (A) (A) (A) (A) (A) (A) (A) (A) (A) (A) (A)
                 (A) (A) (A) (A) (A) (A) (A) (A) (A) (A) (A) (A)
 The electronic state is 1-A.
 Alpha  occ. eigenvalues --  -19.63585 -19.62509 -19.62079 -10.63674 -10.58598
 Alpha  occ. eigenvalues --  -10.58256 -10.57763 -10.57696 -10.53204 -10.53105
 Alpha  occ. eigenvalues --  -10.53056 -10.52954 -10.52935  -1.19719  -1.16429
 Alpha  occ. eigenvalues --   -1.13194  -0.90941  -0.90101  -0.87514  -0.84538
 Alpha  occ. eigenvalues --   -0.75345  -0.74542  -0.73914  -0.70832  -0.64970
 Alpha  occ. eigenvalues --   -0.62684  -0.60050  -0.59015  -0.58266  -0.56679
 Alpha  occ. eigenvalues --   -0.54524  -0.53337  -0.52883  -0.51042  -0.49527
 Alpha  occ. eigenvalues --   -0.48227  -0.46331  -0.45842  -0.45531  -0.45026
 Alpha  occ. eigenvalues --   -0.43827  -0.42380  -0.41727  -0.40483  -0.39670
 Alpha  occ. eigenvalues --   -0.38938  -0.36929  -0.36239  -0.35078  -0.33627
 Alpha  occ. eigenvalues --   -0.30605
 Alpha virt. eigenvalues --   -0.00201   0.00696   0.00907   0.01109   0.02255
 Alpha virt. eigenvalues --    0.02513   0.02581   0.03334   0.03586   0.04470
 Alpha virt. eigenvalues --    0.04671   0.04814   0.05542   0.05753   0.07182
 Alpha virt. eigenvalues --    0.07711   0.08021   0.08254   0.09236   0.09372
 Alpha virt. eigenvalues --    0.10001   0.10598   0.10982   0.11497   0.11581
 Alpha virt. eigenvalues --    0.12235   0.12487   0.12979   0.13163   0.13563
 Alpha virt. eigenvalues --    0.13699   0.13900   0.14284   0.14495   0.14969
 Alpha virt. eigenvalues --    0.15134   0.15390   0.15698   0.15848   0.16161
 Alpha virt. eigenvalues --    0.16296   0.16683   0.17071   0.17503   0.17655
 Alpha virt. eigenvalues --    0.18039   0.18669   0.19046   0.19292   0.19502
 Alpha virt. eigenvalues --    0.19691   0.19915   0.20545   0.20929   0.21417
 Alpha virt. eigenvalues --    0.21767   0.22302   0.22695   0.23372   0.23477
 Alpha virt. eigenvalues --    0.24504   0.25021   0.25977   0.26126   0.26643
 Alpha virt. eigenvalues --    0.27273   0.28221   0.28341   0.29285   0.29595
 Alpha virt. eigenvalues --    0.30324   0.30834   0.31493   0.31883   0.32313
 Alpha virt. eigenvalues --    0.32861   0.33745   0.34020   0.34322   0.34632
 Alpha virt. eigenvalues --    0.35366   0.35612   0.35866   0.36327   0.36532
 Alpha virt. eigenvalues --    0.37385   0.37447   0.37722   0.38121   0.38746
 Alpha virt. eigenvalues --    0.39165   0.39238   0.39709   0.39945   0.40193
 Alpha virt. eigenvalues --    0.41691   0.42682   0.43378   0.44321   0.46158
 Alpha virt. eigenvalues --    0.47465   0.48319   0.49518   0.50055   0.51083
 Alpha virt. eigenvalues --    0.52267   0.52883   0.53698   0.54461   0.54790
 Alpha virt. eigenvalues --    0.55650   0.56129   0.57438   0.58006   0.59165
 Alpha virt. eigenvalues --    0.59514   0.60209   0.60331   0.60847   0.61289
 Alpha virt. eigenvalues --    0.61467   0.62255   0.63202   0.63445   0.64215
 Alpha virt. eigenvalues --    0.64477   0.64734   0.65754   0.66403   0.66565
 Alpha virt. eigenvalues --    0.67722   0.68643   0.70114   0.70410   0.70777
 Alpha virt. eigenvalues --    0.70824   0.71366   0.71920   0.72655   0.73114
 Alpha virt. eigenvalues --    0.73504   0.74130   0.74292   0.75143   0.75487
 Alpha virt. eigenvalues --    0.76636   0.76951   0.77423   0.78545   0.79145
 Alpha virt. eigenvalues --    0.79637   0.81287   0.83699   0.85430   0.85582
 Alpha virt. eigenvalues --    0.86869   0.87829   0.88476   0.89787   0.89844
 Alpha virt. eigenvalues --    0.91119   0.92342   0.92875   0.94708   0.96244
 Alpha virt. eigenvalues --    0.96823   0.97226   0.99138   1.00661   1.02003
 Alpha virt. eigenvalues --    1.02790   1.03366   1.04711   1.06338   1.06679
 Alpha virt. eigenvalues --    1.07720   1.08643   1.09197   1.10634   1.11022
 Alpha virt. eigenvalues --    1.13173   1.13551   1.15019   1.16501   1.17145
 Alpha virt. eigenvalues --    1.17617   1.18149   1.19008   1.20698   1.21357
 Alpha virt. eigenvalues --    1.21737   1.22604   1.22986   1.23953   1.24061
 Alpha virt. eigenvalues --    1.25463   1.26046   1.26863   1.27457   1.27565
 Alpha virt. eigenvalues --    1.28776   1.28920   1.30207   1.30318   1.30672
 Alpha virt. eigenvalues --    1.31893   1.32071   1.33738   1.34273   1.34983
 Alpha virt. eigenvalues --    1.35891   1.36557   1.37551   1.38192   1.38295
 Alpha virt. eigenvalues --    1.39650   1.40205   1.40295   1.41236   1.41811
 Alpha virt. eigenvalues --    1.43149   1.43602   1.43774   1.44869   1.45132
 Alpha virt. eigenvalues --    1.46075   1.46553   1.47467   1.47758   1.48374
 Alpha virt. eigenvalues --    1.48718   1.49772   1.50601   1.51474   1.52268
 Alpha virt. eigenvalues --    1.52690   1.53550   1.54468   1.55351   1.55500
 Alpha virt. eigenvalues --    1.56415   1.57821   1.58466   1.58640   1.59538
 Alpha virt. eigenvalues --    1.59839   1.60764   1.60926   1.61919   1.62194
 Alpha virt. eigenvalues --    1.62446   1.64466   1.64561   1.65461   1.65985
 Alpha virt. eigenvalues --    1.67275   1.68064   1.69125   1.69809   1.71287
 Alpha virt. eigenvalues --    1.73108   1.73904   1.75333   1.75905   1.76147
 Alpha virt. eigenvalues --    1.77794   1.78387   1.80936   1.82412   1.84837
 Alpha virt. eigenvalues --    1.85756   1.87497   1.88939   1.96377   1.98104
 Alpha virt. eigenvalues --    2.00451   2.05897   2.08843   2.14697   2.19176
 Alpha virt. eigenvalues --    2.22341   2.25022   2.26555   2.31473   2.36894
 Alpha virt. eigenvalues --    2.41415   2.44134   2.44903   2.49926   2.50851
 Alpha virt. eigenvalues --    2.56430   2.76515   2.77478   2.83710   2.84082
 Alpha virt. eigenvalues --    2.84549   2.87953   2.90809   2.92518   2.93234
 Alpha virt. eigenvalues --    2.94589   2.95546   2.98965   3.02084   3.03501
 Alpha virt. eigenvalues --    3.05575   3.07200   3.08398   3.09430   3.11288
 Alpha virt. eigenvalues --    3.12180   3.14391   3.15138   3.17540   3.19513
 Alpha virt. eigenvalues --    3.23386   3.29493   3.30698   3.32011   3.34786
 Alpha virt. eigenvalues --    3.35229   3.35964   3.36414   3.37624   3.40038
 Alpha virt. eigenvalues --    3.40405   3.41698   3.43509   3.45126   3.45996
 Alpha virt. eigenvalues --    3.48138   3.48983   3.50203   3.50858   3.51534
 Alpha virt. eigenvalues --    3.52783   3.52992   3.54053   3.54613   3.56319
 Alpha virt. eigenvalues --    3.56885   3.57105   3.57429   3.59397   3.59747
 Alpha virt. eigenvalues --    3.61789   3.62318   3.63093   3.63424   3.64404
 Alpha virt. eigenvalues --    3.65203   3.67037   3.68085   3.68617   3.69727
 Alpha virt. eigenvalues --    3.70110   3.70894   3.72360   3.73520   3.74425
 Alpha virt. eigenvalues --    3.74816   3.75688   3.76853   3.78241   3.79146
 Alpha virt. eigenvalues --    3.80058   3.81205   3.82231   3.83471   3.83873
 Alpha virt. eigenvalues --    3.86776   3.88256   3.89248   3.89644   3.91227
 Alpha virt. eigenvalues --    3.94178   3.94978   3.95622   3.97347   3.98597
 Alpha virt. eigenvalues --    3.99367   4.00908   4.02518   4.02964   4.03905
 Alpha virt. eigenvalues --    4.05428   4.05923   4.07179   4.07945   4.08736
 Alpha virt. eigenvalues --    4.09129   4.09920   4.10474   4.10828   4.12117
 Alpha virt. eigenvalues --    4.12563   4.13679   4.13822   4.14558   4.16528
 Alpha virt. eigenvalues --    4.16859   4.17591   4.18385   4.19570   4.20193
 Alpha virt. eigenvalues --    4.22079   4.23795   4.25242   4.26174   4.27024
 Alpha virt. eigenvalues --    4.27585   4.29215   4.30465   4.31754   4.32850
 Alpha virt. eigenvalues --    4.35366   4.35466   4.36307   4.37273   4.39477
 Alpha virt. eigenvalues --    4.42095   4.43501   4.45126   4.46527   4.50494
 Alpha virt. eigenvalues --    4.59143   4.61764   4.73528   4.75980   4.82206
 Alpha virt. eigenvalues --    4.86121   4.93423   4.94630   4.99629   5.01534
 Alpha virt. eigenvalues --    5.04676   5.07697   5.08071   5.12094   5.13368
 Alpha virt. eigenvalues --    5.14237   5.15164   5.16645   5.33519   5.39028
 Alpha virt. eigenvalues --    5.45696   5.56279   5.59789   5.62385   5.84817
 Alpha virt. eigenvalues --    5.87551   6.05492   6.98313   7.05141   7.06874
 Alpha virt. eigenvalues --    7.09089   7.10064   7.11051   7.13123   7.19779
 Alpha virt. eigenvalues --    7.27380   7.36410   7.41453   7.45198   7.51618
 Alpha virt. eigenvalues --    7.54466   7.59837  23.96383  23.98270  24.05804
 Alpha virt. eigenvalues --   24.07477  24.10051  24.12035  24.14031  24.14518
 Alpha virt. eigenvalues --   24.16191  24.18202  50.16717  50.18922  50.21678
          Condensed to atoms (all electrons):
               1          2          3          4          5          6
     1  C    8.056732  -0.038886   0.083144  -0.581119  -1.205695   0.050246
     2  C   -0.038886   5.599346  -0.001942  -0.137003   0.043230   0.020085
     3  O    0.083144  -0.001942   8.132023  -0.011274  -0.017257  -0.037311
     4  C   -0.581119  -0.137003  -0.011274   6.657875  -0.392213  -0.083287
     5  C   -1.205695   0.043230  -0.017257  -0.392213   7.307169  -0.185454
     6  O    0.050246   0.020085  -0.037311  -0.083287  -0.185454   8.291587
     7  C    0.016577  -0.008639  -0.065606   0.049975   0.015551  -0.018445
     8  C    0.131306  -0.016209  -0.031279  -0.110856   0.020974  -0.045330
     9  C   -0.844138   0.045425   0.317795   0.142185   0.157610   0.263726
    10  C    0.068706   0.007387  -0.070964   0.088062  -0.025313  -0.052359
    11  C    0.002350  -0.002496   0.144883  -0.034862  -0.029430   0.053026
    12  C    0.348278  -0.242279   0.007015  -0.019117  -0.227494  -0.005841
    13  O   -0.040266   0.057554   0.000175   0.165927  -0.057536   0.026859
    14  H    0.542348   0.019850  -0.003489  -0.149997  -0.025275  -0.017308
    15  H    0.036028   0.530065   0.000070  -0.039053  -0.019621  -0.000535
    16  H   -0.005185   0.403105  -0.000143   0.033097  -0.030972   0.002329
    17  H    0.004187   0.046194   0.001750   0.301980  -0.006007  -0.014195
    18  H   -0.124179   0.039169   0.000263   0.439430   0.028567   0.012133
    19  H   -0.102659  -0.031672   0.000704  -0.000478   0.494310  -0.003874
    20  H   -0.034154  -0.004900  -0.000490   0.028031   0.410718   0.004157
    21  H   -0.024873   0.001939   0.010169   0.008657   0.003068  -0.004243
    22  H    0.006024  -0.000329  -0.010521  -0.001593  -0.002166   0.005283
    23  H   -0.004837  -0.005519   0.001788  -0.000777   0.012007   0.002375
    24  H    0.007294  -0.000650  -0.005103  -0.006824   0.001684  -0.000290
    25  H   -0.026966  -0.000254  -0.063412  -0.013768   0.046101  -0.066353
    26  H    0.001000   0.000392   0.008858   0.000642  -0.002542  -0.000195
    27  H    0.004530   0.000068  -0.005573  -0.001669   0.001365  -0.001066
    28  H    0.009550   0.000406  -0.056883  -0.003997   0.000816   0.000869
    29  H   -0.034977  -0.015831  -0.037092   0.029790   0.012216   0.005213
    30  H   -0.056468  -0.094397  -0.000344   0.018126  -0.021732   0.002450
    31  H    0.034139  -0.011000   0.000330  -0.022423  -0.027033  -0.003438
               7          8          9         10         11         12
     1  C    0.016577   0.131306  -0.844138   0.068706   0.002350   0.348278
     2  C   -0.008639  -0.016209   0.045425   0.007387  -0.002496  -0.242279
     3  O   -0.065606  -0.031279   0.317795  -0.070964   0.144883   0.007015
     4  C    0.049975  -0.110856   0.142185   0.088062  -0.034862  -0.019117
     5  C    0.015551   0.020974   0.157610  -0.025313  -0.029430  -0.227494
     6  O   -0.018445  -0.045330   0.263726  -0.052359   0.053026  -0.005841
     7  C    6.868765  -0.417467  -1.153662   0.027180   0.155748   0.004277
     8  C   -0.417467   5.933016   0.093326  -0.372233   0.160171   0.007817
     9  C   -1.153662   0.093326   7.192912   0.064134  -0.320705  -0.098298
    10  C    0.027180  -0.372233   0.064134   6.550313  -0.394673  -0.001349
    11  C    0.155748   0.160171  -0.320705  -0.394673   5.554860  -0.001944
    12  C    0.004277   0.007817  -0.098298  -0.001349  -0.001944   5.838169
    13  O    0.009142  -0.006223  -0.017229   0.003013  -0.000626   0.046221
    14  H    0.007031  -0.016481  -0.027707  -0.004815  -0.008009  -0.001874
    15  H   -0.001427   0.000400   0.000057   0.000191   0.000067  -0.104600
    16  H    0.001371  -0.000692  -0.000725  -0.000110   0.000308   0.021739
    17  H    0.026767  -0.031314  -0.019965   0.035583   0.004851  -0.034457
    18  H   -0.003487  -0.007141   0.012518   0.013395  -0.004942  -0.048422
    19  H    0.013444  -0.001415  -0.010674   0.000370  -0.001096  -0.010226
    20  H    0.000514  -0.000003  -0.002789   0.001759   0.001199  -0.012956
    21  H    0.421162  -0.044782  -0.004753   0.012510  -0.003826  -0.001650
    22  H    0.505300  -0.000821  -0.107000  -0.048906   0.030490   0.000602
    23  H   -0.129965   0.596587   0.045125  -0.172166   0.029853   0.003933
    24  H   -0.020190   0.419769  -0.007194  -0.039137   0.016334   0.000014
    25  H   -0.020453   0.007122   0.421172  -0.021724   0.004119  -0.007748
    26  H    0.017924  -0.055248  -0.012046   0.442553  -0.027426  -0.000271
    27  H   -0.058117   0.000907   0.038565   0.463137  -0.078877  -0.000144
    28  H    0.004195   0.015293  -0.020559  -0.028328   0.437205  -0.000572
    29  H   -0.012442   0.043589   0.005034  -0.175860   0.492712   0.015212
    30  H    0.003027  -0.000188  -0.001773  -0.000353   0.000667   0.528842
    31  H   -0.001006   0.000431   0.000634  -0.000056  -0.000306   0.382213
              13         14         15         16         17         18
     1  C   -0.040266   0.542348   0.036028  -0.005185   0.004187  -0.124179
     2  C    0.057554   0.019850   0.530065   0.403105   0.046194   0.039169
     3  O    0.000175  -0.003489   0.000070  -0.000143   0.001750   0.000263
     4  C    0.165927  -0.149997  -0.039053   0.033097   0.301980   0.439430
     5  C   -0.057536  -0.025275  -0.019621  -0.030972  -0.006007   0.028567
     6  O    0.026859  -0.017308  -0.000535   0.002329  -0.014195   0.012133
     7  C    0.009142   0.007031  -0.001427   0.001371   0.026767  -0.003487
     8  C   -0.006223  -0.016481   0.000400  -0.000692  -0.031314  -0.007141
     9  C   -0.017229  -0.027707   0.000057  -0.000725  -0.019965   0.012518
    10  C    0.003013  -0.004815   0.000191  -0.000110   0.035583   0.013395
    11  C   -0.000626  -0.008009   0.000067   0.000308   0.004851  -0.004942
    12  C    0.046221  -0.001874  -0.104600   0.021739  -0.034457  -0.048422
    13  O    8.352126   0.005279  -0.059117  -0.081732  -0.080020  -0.022182
    14  H    0.005279   0.459632   0.002951  -0.000528   0.007781  -0.002233
    15  H   -0.059117   0.002951   0.521268  -0.026667   0.001245   0.009494
    16  H   -0.081732  -0.000528  -0.026667   0.513744  -0.001878  -0.005373
    17  H   -0.080020   0.007781   0.001245  -0.001878   0.551346  -0.002545
    18  H   -0.022182  -0.002233   0.009494  -0.005373  -0.002545   0.482369
    19  H    0.001801  -0.000724  -0.003933   0.006438   0.004062   0.000525
    20  H   -0.000306  -0.019038   0.001073  -0.001638   0.000107  -0.001003
    21  H    0.000814  -0.001093   0.000055  -0.000012  -0.001410   0.000303
    22  H    0.000025  -0.000439  -0.000040   0.000047   0.000304  -0.000139
    23  H    0.001019  -0.003619  -0.000583   0.000335  -0.038858  -0.001671
    24  H   -0.000237   0.000325  -0.000016  -0.000009   0.003041  -0.000271
    25  H   -0.001104  -0.000987  -0.000070  -0.000090   0.002240  -0.000615
    26  H   -0.000198   0.000164   0.000072  -0.000011   0.001892   0.001058
    27  H    0.000034   0.000610   0.000003  -0.000011  -0.000708  -0.000002
    28  H    0.000048  -0.001898  -0.000003  -0.000009   0.003141  -0.000115
    29  H    0.001774  -0.024187  -0.001465   0.000688  -0.037650  -0.018164
    30  H   -0.000527  -0.014029  -0.015917   0.009607  -0.001700  -0.008232
    31  H    0.010445   0.003274   0.003298  -0.012505   0.003069  -0.000653
              19         20         21         22         23         24
     1  C   -0.102659  -0.034154  -0.024873   0.006024  -0.004837   0.007294
     2  C   -0.031672  -0.004900   0.001939  -0.000329  -0.005519  -0.000650
     3  O    0.000704  -0.000490   0.010169  -0.010521   0.001788  -0.005103
     4  C   -0.000478   0.028031   0.008657  -0.001593  -0.000777  -0.006824
     5  C    0.494310   0.410718   0.003068  -0.002166   0.012007   0.001684
     6  O   -0.003874   0.004157  -0.004243   0.005283   0.002375  -0.000290
     7  C    0.013444   0.000514   0.421162   0.505300  -0.129965  -0.020190
     8  C   -0.001415  -0.000003  -0.044782  -0.000821   0.596587   0.419769
     9  C   -0.010674  -0.002789  -0.004753  -0.107000   0.045125  -0.007194
    10  C    0.000370   0.001759   0.012510  -0.048906  -0.172166  -0.039137
    11  C   -0.001096   0.001199  -0.003826   0.030490   0.029853   0.016334
    12  C   -0.010226  -0.012956  -0.001650   0.000602   0.003933   0.000014
    13  O    0.001801  -0.000306   0.000814   0.000025   0.001019  -0.000237
    14  H   -0.000724  -0.019038  -0.001093  -0.000439  -0.003619   0.000325
    15  H   -0.003933   0.001073   0.000055  -0.000040  -0.000583  -0.000016
    16  H    0.006438  -0.001638  -0.000012   0.000047   0.000335  -0.000009
    17  H    0.004062   0.000107  -0.001410   0.000304  -0.038858   0.003041
    18  H    0.000525  -0.001003   0.000303  -0.000139  -0.001671  -0.000271
    19  H    0.461954  -0.013864  -0.000972   0.000201  -0.000558   0.000137
    20  H   -0.013864   0.482521   0.000062   0.000215   0.000108  -0.000007
    21  H   -0.000972   0.000062   0.475876  -0.003675  -0.000319  -0.011425
    22  H    0.000201   0.000215  -0.003675   0.441715   0.001364  -0.001684
    23  H   -0.000558   0.000108  -0.000319   0.001364   0.519163  -0.007254
    24  H    0.000137  -0.000007  -0.011425  -0.001684  -0.007254   0.456609
    25  H    0.001149  -0.002574  -0.016103  -0.004604   0.000006   0.003589
    26  H   -0.000103   0.000046   0.000999  -0.001656  -0.006321  -0.006582
    27  H    0.000041  -0.000135  -0.000728  -0.006801   0.001503  -0.001051
    28  H   -0.000107   0.000180   0.000550   0.000909  -0.002413   0.002312
    29  H   -0.000551   0.000810   0.000713   0.000910   0.019452  -0.002289
    30  H    0.005458  -0.000709  -0.000039   0.000087   0.000332   0.000009
    31  H   -0.000571  -0.012897  -0.000018  -0.000031  -0.000090   0.000005
              25         26         27         28         29         30
     1  C   -0.026966   0.001000   0.004530   0.009550  -0.034977  -0.056468
     2  C   -0.000254   0.000392   0.000068   0.000406  -0.015831  -0.094397
     3  O   -0.063412   0.008858  -0.005573  -0.056883  -0.037092  -0.000344
     4  C   -0.013768   0.000642  -0.001669  -0.003997   0.029790   0.018126
     5  C    0.046101  -0.002542   0.001365   0.000816   0.012216  -0.021732
     6  O   -0.066353  -0.000195  -0.001066   0.000869   0.005213   0.002450
     7  C   -0.020453   0.017924  -0.058117   0.004195  -0.012442   0.003027
     8  C    0.007122  -0.055248   0.000907   0.015293   0.043589  -0.000188
     9  C    0.421172  -0.012046   0.038565  -0.020559   0.005034  -0.001773
    10  C   -0.021724   0.442553   0.463137  -0.028328  -0.175860  -0.000353
    11  C    0.004119  -0.027426  -0.078877   0.437205   0.492712   0.000667
    12  C   -0.007748  -0.000271  -0.000144  -0.000572   0.015212   0.528842
    13  O   -0.001104  -0.000198   0.000034   0.000048   0.001774  -0.000527
    14  H   -0.000987   0.000164   0.000610  -0.001898  -0.024187  -0.014029
    15  H   -0.000070   0.000072   0.000003  -0.000003  -0.001465  -0.015917
    16  H   -0.000090  -0.000011  -0.000011  -0.000009   0.000688   0.009607
    17  H    0.002240   0.001892  -0.000708   0.003141  -0.037650  -0.001700
    18  H   -0.000615   0.001058  -0.000002  -0.000115  -0.018164  -0.008232
    19  H    0.001149  -0.000103   0.000041  -0.000107  -0.000551   0.005458
    20  H   -0.002574   0.000046  -0.000135   0.000180   0.000810  -0.000709
    21  H   -0.016103   0.000999  -0.000728   0.000550   0.000713  -0.000039
    22  H   -0.004604  -0.001656  -0.006801   0.000909   0.000910   0.000087
    23  H    0.000006  -0.006321   0.001503  -0.002413   0.019452   0.000332
    24  H    0.003589  -0.006582  -0.001051   0.002312  -0.002289   0.000009
    25  H    0.514207   0.000233   0.001822   0.001679  -0.002972  -0.000000
    26  H    0.000233   0.480274  -0.009568  -0.009257  -0.006293  -0.000096
    27  H    0.001822  -0.009568   0.477457  -0.003060   0.004715  -0.000025
    28  H    0.001679  -0.009257  -0.003060   0.461377  -0.022162  -0.000096
    29  H   -0.002972  -0.006293   0.004715  -0.022162   0.601642   0.003227
    30  H   -0.000000  -0.000096  -0.000025  -0.000096   0.003227   0.475878
    31  H    0.000393  -0.000005   0.000007   0.000040  -0.000542  -0.010518
              31
     1  C    0.034139
     2  C   -0.011000
     3  O    0.000330
     4  C   -0.022423
     5  C   -0.027033
     6  O   -0.003438
     7  C   -0.001006
     8  C    0.000431
     9  C    0.000634
    10  C   -0.000056
    11  C   -0.000306
    12  C    0.382213
    13  O    0.010445
    14  H    0.003274
    15  H    0.003298
    16  H   -0.012505
    17  H    0.003069
    18  H   -0.000653
    19  H   -0.000571
    20  H   -0.012897
    21  H   -0.000018
    22  H   -0.000031
    23  H   -0.000090
    24  H    0.000005
    25  H    0.000393
    26  H   -0.000005
    27  H    0.000007
    28  H    0.000040
    29  H   -0.000542
    30  H   -0.010518
    31  H    0.483128
 Mulliken charges:
               1
     1  C   -0.278040
     2  C   -0.202208
     3  O   -0.290281
     4  C   -0.353467
     5  C   -0.279644
     6  O   -0.200814
     7  C   -0.237045
     8  C   -0.273026
     9  C   -0.151001
    10  C   -0.369949
    11  C   -0.179621
    12  C   -0.385088
    13  O   -0.314952
    14  H    0.274487
    15  H    0.166707
    16  H    0.175481
    17  H    0.271166
    18  H    0.212146
    19  H    0.192887
    20  H    0.175965
    21  H    0.183045
    22  H    0.196929
    23  H    0.140002
    24  H    0.199090
    25  H    0.245964
    26  H    0.181711
    27  H    0.172773
    28  H    0.210885
    29  H    0.154781
    30  H    0.179433
    31  H    0.181683
 Sum of Mulliken charges =  -0.00000
 Mulliken charges with hydrogens summed into heavy atoms:
               1
     1  C   -0.003553
     2  C    0.139980
     3  O   -0.290281
     4  C    0.129844
     5  C    0.089207
     6  O   -0.200814
     7  C    0.142930
     8  C    0.066067
     9  C    0.094964
    10  C   -0.015464
    11  C    0.186045
    12  C   -0.023972
    13  O   -0.314952
 Electronic spatial extent (au):  <R**2>=           2860.4316
 Charge=              0.0000 electrons
 Dipole moment (field-independent basis, Debye):
    X=             -0.8233    Y=              0.3547    Z=              2.4419  Tot=              2.6012
 Quadrupole moment (field-independent basis, Debye-Ang):
   XX=            -69.6571   YY=            -84.0045   ZZ=            -79.6554
   XY=             -6.8110   XZ=              4.0902   YZ=              3.7246
 Traceless Quadrupole moment (field-independent basis, Debye-Ang):
   XX=              8.1152   YY=             -6.2321   ZZ=             -1.8831
   XY=             -6.8110   XZ=              4.0902   YZ=              3.7246
 Octapole moment (field-independent basis, Debye-Ang**2):
  XXX=             14.6082  YYY=             -5.2579  ZZZ=              5.9503  XYY=             -3.6221
  XXY=             -2.1635  XXZ=              2.5195  XZZ=             -7.1234  YZZ=              0.0460
  YYZ=              0.0646  XYZ=              0.4954
 Hexadecapole moment (field-independent basis, Debye-Ang**3):
 XXXX=          -2639.1429 YYYY=           -568.0042 ZZZZ=           -435.3906 XXXY=             -9.7625
 XXXZ=             -6.3097 YYYX=             -9.0478 YYYZ=             11.1732 ZZZX=            -14.8741
 ZZZY=             -3.1535 XXYY=           -578.3683 XXZZ=           -526.7951 YYZZ=           -170.3152
 XXYZ=             17.4872 YYXZ=             14.0806 ZZXY=              4.4201
 N-N= 9.021023967762D+02 E-N=-3.246100158927D+03  KE= 6.153240784313D+02
 D1PCM: PCM CHGder 1st derivatives, ID1Alg=3 FixD1E=F DoIter=F DoCFld=F I1PDM=0.
 Calling FoFJK, ICntrl=      2127 FMM=F ISym2X=0 I1Cent= 0 IOpClX= 0 NMat=1 NMatS=1 NMatT=0.
 ***** Axes restored to original set *****
 -------------------------------------------------------------------
 Center     Atomic                   Forces (Hartrees/Bohr)
 Number     Number              X              Y              Z
 -------------------------------------------------------------------
      1        6          -0.001125954    0.002757000    0.003199886
      2        6          -0.004522776    0.003705957   -0.002839551
      3        8          -0.000965771    0.005652221   -0.003445943
      4        6           0.006498631    0.005113192   -0.000236396
      5        6           0.001144024   -0.002522800   -0.003091915
      6        8           0.004347956   -0.011181350    0.008524040
      7        6           0.000939677   -0.001584995   -0.001774812
      8        6          -0.000230662    0.004717235   -0.001501122
      9        6          -0.001754859   -0.001086656   -0.005622180
     10        6           0.002859705   -0.000879390    0.000424150
     11        6          -0.002732510   -0.000604622    0.007863058
     12        6          -0.000734456   -0.000570713    0.001782941
     13        8          -0.002276176   -0.004415788    0.008509502
     14        1          -0.002994974    0.002805472   -0.006978687
     15        1           0.002530757   -0.002412878   -0.004264118
     16        1           0.002620110    0.000459660    0.003914301
     17        1          -0.005342535   -0.002340504    0.002252217
     18        1           0.000465224   -0.000996361   -0.006542206
     19        1          -0.000520797   -0.001422793    0.003664730
     20        1          -0.000631858    0.002441511   -0.000855307
     21        1           0.001832362   -0.000571467    0.002599050
     22        1          -0.003112197    0.001754627    0.000150319
     23        1           0.003698472   -0.001939100   -0.000474351
     24        1          -0.001515910   -0.001481025    0.001188818
     25        1          -0.001424809    0.006726526    0.002351240
     26        1          -0.000655025   -0.002387877   -0.001321258
     27        1          -0.002338461    0.002237215    0.000447825
     28        1          -0.001392156    0.001422327   -0.004004242
     29        1           0.006212883   -0.004962657   -0.000757057
     30        1          -0.000960511   -0.000181393   -0.003332953
     31        1           0.002082596    0.001749427    0.000170018
 -------------------------------------------------------------------
 Cartesian Forces:  Max     0.011181350 RMS     0.003440704

 GradGradGradGradGradGradGradGradGradGradGradGradGradGradGradGradGradGrad
 Berny optimization.
 FormGI is forming the generalized inverse of G from B-inverse, IUseBI=4.
 Internal  Forces:  Max     0.018015953 RMS     0.002370223
 Search for a local minimum.
 Step number   1 out of a maximum of  186
 All quantities printed in internal units (Hartrees-Bohrs-Radians)
 Mixed Optimization -- RFO/linear search
 Second derivative matrix not updated -- first step.
 ITU=  0
     Eigenvalues ---    0.00411   0.00616   0.00637   0.00742   0.01323
     Eigenvalues ---    0.01431   0.01440   0.02647   0.02815   0.03066
     Eigenvalues ---    0.03374   0.04061   0.04307   0.04668   0.04669
     Eigenvalues ---    0.04763   0.04817   0.04943   0.05048   0.05178
     Eigenvalues ---    0.05208   0.05654   0.05726   0.05977   0.06027
     Eigenvalues ---    0.06222   0.06389   0.06688   0.07404   0.07760
     Eigenvalues ---    0.07807   0.07853   0.07899   0.08089   0.08317
     Eigenvalues ---    0.08498   0.09075   0.10169   0.11252   0.11692
     Eigenvalues ---    0.11717   0.11782   0.11811   0.12521   0.12650
     Eigenvalues ---    0.14687   0.15183   0.16596   0.18547   0.19548
     Eigenvalues ---    0.19955   0.21842   0.22550   0.25000   0.27188
     Eigenvalues ---    0.27772   0.28606   0.28623   0.29040   0.29176
     Eigenvalues ---    0.29282   0.30354   0.35118   0.35148   0.35228
     Eigenvalues ---    0.35229   0.35254   0.35262   0.35268   0.35306
     Eigenvalues ---    0.35329   0.35410   0.35433   0.35475   0.35568
     Eigenvalues ---    0.35770   0.35882   0.35926   0.36135   0.36202
     Eigenvalues ---    0.40279   0.40305   0.41531   0.42610   0.42678
     Eigenvalues ---    0.448541000.000001000.000001000.000001000.00000
     Eigenvalues --- 1000.000001000.000001000.000001000.000001000.00000
     Eigenvalues --- 1000.000001000.000001000.000001000.000001000.00000
     Eigenvalues --- 1000.000001000.000001000.000001000.000001000.00000
     Eigenvalues --- 1000.000001000.000001000.000001000.000001000.00000
     Eigenvalues --- 1000.000001000.000001000.000001000.000001000.00000
     Eigenvalues --- 1000.000001000.000001000.000001000.000001000.00000
     Eigenvalues --- 1000.000001000.000001000.000001000.000001000.00000
     Eigenvalues --- 1000.000001000.000001000.000001000.000001000.00000
     Eigenvalues --- 1000.000001000.000001000.000001000.000001000.00000
     Eigenvalues --- 1000.000001000.000001000.000001000.000001000.00000
     Eigenvalues --- 1000.000001000.000001000.000001000.000001000.00000
     Eigenvalues --- 1000.000001000.000001000.000001000.000001000.00000
     Eigenvalues --- 1000.000001000.000001000.000001000.000001000.00000
     Eigenvalues --- 1000.000001000.000001000.000001000.000001000.00000
     Eigenvalues --- 1000.000001000.000001000.000001000.000001000.00000
     Eigenvalues --- 1000.000001000.000001000.000001000.000001000.00000
     Eigenvalues --- 1000.000001000.000001000.000001000.000001000.00000
     Eigenvalues --- 1000.000001000.000001000.000001000.000001000.00000
     Eigenvalues --- 1000.000001000.000001000.000001000.000001000.00000
 RFO step:  Lambda=-5.03401109D-03 EMin= 4.11217408D-03
 Linear search not attempted -- first point.
 Iteration  1 RMS(Cart)=  0.12757208 RMS(Int)=  0.00320862
 Iteration  2 RMS(Cart)=  0.00842336 RMS(Int)=  0.00009694
 Iteration  3 RMS(Cart)=  0.00002339 RMS(Int)=  0.00009626
 Iteration  4 RMS(Cart)=  0.00000000 RMS(Int)=  0.00009626
 Iteration  1 RMS(Cart)=  0.00012329 RMS(Int)=  0.00002659
 Iteration  2 RMS(Cart)=  0.00006460 RMS(Int)=  0.00002973
 Iteration  3 RMS(Cart)=  0.00003385 RMS(Int)=  0.00003342
 Iteration  4 RMS(Cart)=  0.00001774 RMS(Int)=  0.00003575
 Iteration  5 RMS(Cart)=  0.00000929 RMS(Int)=  0.00003705
 Iteration  6 RMS(Cart)=  0.00000487 RMS(Int)=  0.00003775
 Iteration  7 RMS(Cart)=  0.00000255 RMS(Int)=  0.00003813
 Iteration  8 RMS(Cart)=  0.00000134 RMS(Int)=  0.00003833
 Iteration  9 RMS(Cart)=  0.00000070 RMS(Int)=  0.00003843
 Variable       Old X    -DE/DX   Delta X   Delta X   Delta X     New X
                                 (Linear)    (Quad)   (Total)
    R1        2.89731   0.00046   0.00000   0.00096   0.00096   2.89827
    R2        2.89465  -0.00118   0.00000  -0.00529  -0.00530   2.88935
    R3        2.68153   0.00022   0.00000   0.00052   0.00052   2.68205
    R4        2.03767   0.00809   0.00000   0.02205   0.02205   2.05972
    R5        2.89658   0.00070   0.00000   0.00350   0.00349   2.90007
    R6        2.68278   0.00351   0.00000   0.00942   0.00941   2.69219
    R7        2.05241   0.00542   0.00000   0.01514   0.01514   2.06756
    R8        2.04443   0.00471   0.00000   0.01297   0.01297   2.05740
    R9        2.63753   0.00203   0.00000   0.00347   0.00354   2.64106
   R10        2.69559   0.00262   0.00000   0.00590   0.00586   2.70145
   R11        2.66741   0.00244   0.00000   0.00562   0.00563   2.67304
   R12        2.03871   0.00609   0.00000   0.01661   0.01661   2.05532
   R13        2.05307   0.00656   0.00000   0.01836   0.01836   2.07143
   R14        2.88546  -0.00025   0.00000  -0.00187  -0.00187   2.88359
   R15        2.05182   0.00358   0.00000   0.00999   0.00999   2.06181
   R16        2.05014   0.00264   0.00000   0.00735   0.00735   2.05749
   R17        2.68069   0.00297   0.00000   0.00687   0.00687   2.68756
   R18        2.88443  -0.00141   0.00000  -0.00428  -0.00424   2.88019
   R19        2.87909  -0.00069   0.00000  -0.00233  -0.00226   2.87684
   R20        2.04911   0.00317   0.00000   0.00882   0.00882   2.05793
   R21        2.05436   0.00355   0.00000   0.00995   0.00995   2.06431
   R22        2.88448  -0.00150   0.00000  -0.00351  -0.00358   2.88090
   R23        2.05265   0.00415   0.00000   0.01161   0.01161   2.06426
   R24        2.05144   0.00241   0.00000   0.00673   0.00673   2.05817
   R25        2.04198   0.00721   0.00000   0.01979   0.01979   2.06176
   R26        2.86718  -0.00017   0.00000  -0.00066  -0.00072   2.86645
   R27        2.05251   0.00279   0.00000   0.00780   0.00780   2.06031
   R28        2.05484   0.00318   0.00000   0.00891   0.00891   2.06375
   R29        2.04267   0.00446   0.00000   0.01227   0.01227   2.05493
   R30        2.04763   0.00793   0.00000   0.02198   0.02198   2.06961
   R31        2.05305   0.00344   0.00000   0.00963   0.00963   2.06268
   R32        2.04978   0.00269   0.00000   0.00750   0.00750   2.05728
    A1        1.91139   0.00024   0.00000  -0.00587  -0.00598   1.90542
    A2        1.94621  -0.00123   0.00000  -0.00470  -0.00466   1.94154
    A3        1.90048   0.00038   0.00000   0.00115   0.00120   1.90168
    A4        1.88496   0.00124   0.00000   0.00534   0.00537   1.89033
    A5        1.90871  -0.00072   0.00000   0.00281   0.00282   1.91153
    A6        1.91182   0.00009   0.00000   0.00138   0.00135   1.91317
    A7        1.94972   0.00184   0.00000   0.00568   0.00559   1.95530
    A8        1.93995  -0.00111   0.00000  -0.00612  -0.00615   1.93380
    A9        1.93276  -0.00082   0.00000  -0.00532  -0.00528   1.92748
   A10        1.90427   0.00045   0.00000   0.00679   0.00685   1.91112
   A11        1.84297  -0.00094   0.00000  -0.00272  -0.00270   1.84027
   A12        1.89079   0.00059   0.00000   0.00199   0.00195   1.89274
   A13        2.07697  -0.00541   0.00000  -0.03782  -0.03760   2.03936
   A14        1.94279   0.00099   0.00000   0.00106   0.00087   1.94365
   A15        1.93538  -0.00181   0.00000  -0.01761  -0.01760   1.91778
   A16        1.92118  -0.00048   0.00000   0.00181   0.00177   1.92295
   A17        1.86462  -0.00046   0.00000  -0.00128  -0.00131   1.86331
   A18        1.90770   0.00121   0.00000   0.01433   0.01435   1.92205
   A19        1.89059   0.00060   0.00000   0.00202   0.00197   1.89256
   A20        1.91730  -0.00078   0.00000  -0.00668  -0.00683   1.91047
   A21        1.89854  -0.00032   0.00000  -0.00986  -0.00984   1.88870
   A22        1.91948  -0.00018   0.00000  -0.00014  -0.00006   1.91942
   A23        1.90973   0.00095   0.00000   0.00392   0.00390   1.91363
   A24        1.94411   0.00009   0.00000   0.00508   0.00510   1.94921
   A25        1.87366   0.00026   0.00000   0.00766   0.00760   1.88127
   A26        2.17387  -0.01802   0.00000  -0.07064  -0.07064   2.10323
   A27        1.98164  -0.00156   0.00000  -0.01405  -0.01412   1.96752
   A28        1.95250  -0.00062   0.00000  -0.00555  -0.00582   1.94668
   A29        1.89824   0.00155   0.00000   0.01207   0.01221   1.91045
   A30        1.89097   0.00067   0.00000  -0.00578  -0.00590   1.88507
   A31        1.86468   0.00008   0.00000   0.00858   0.00859   1.87326
   A32        1.87066  -0.00000   0.00000   0.00659   0.00662   1.87728
   A33        1.90169   0.00215   0.00000   0.00104   0.00114   1.90283
   A34        1.93116  -0.00079   0.00000  -0.00497  -0.00503   1.92613
   A35        1.91339  -0.00062   0.00000   0.00293   0.00291   1.91630
   A36        1.91629  -0.00124   0.00000  -0.00352  -0.00361   1.91268
   A37        1.93364  -0.00002   0.00000   0.00307   0.00309   1.93673
   A38        1.86772   0.00045   0.00000   0.00142   0.00145   1.86917
   A39        1.99129  -0.00205   0.00000  -0.02873  -0.02874   1.96255
   A40        1.97776   0.00343   0.00000   0.01024   0.00943   1.98720
   A41        1.81548  -0.00031   0.00000   0.00503   0.00520   1.82068
   A42        1.93076  -0.00379   0.00000  -0.02261  -0.02294   1.90782
   A43        1.83635   0.00378   0.00000   0.03318   0.03347   1.86982
   A44        1.90084  -0.00068   0.00000   0.00910   0.00913   1.90997
   A45        1.91471  -0.00157   0.00000  -0.00615  -0.00644   1.90827
   A46        1.94381  -0.00032   0.00000  -0.00099  -0.00094   1.94287
   A47        1.91847   0.00107   0.00000   0.00156   0.00167   1.92014
   A48        1.89524   0.00073   0.00000   0.00430   0.00441   1.89965
   A49        1.91408   0.00022   0.00000  -0.00226  -0.00221   1.91187
   A50        1.87696  -0.00008   0.00000   0.00372   0.00368   1.88063
   A51        1.96094   0.00263   0.00000   0.00737   0.00712   1.96805
   A52        1.83180  -0.00131   0.00000  -0.00160  -0.00155   1.83026
   A53        1.91476   0.00000   0.00000   0.00189   0.00203   1.91678
   A54        1.94842  -0.00051   0.00000  -0.00312  -0.00304   1.94538
   A55        1.91959  -0.00141   0.00000  -0.00586  -0.00584   1.91376
   A56        1.88521   0.00057   0.00000   0.00147   0.00143   1.88664
   A57        1.90905  -0.00025   0.00000  -0.00681  -0.00686   1.90219
   A58        1.92857   0.00055   0.00000   0.00258   0.00256   1.93113
   A59        1.90748  -0.00015   0.00000   0.00339   0.00341   1.91089
   A60        1.91437  -0.00046   0.00000  -0.00139  -0.00139   1.91297
   A61        1.93859   0.00031   0.00000   0.00076   0.00080   1.93939
   A62        1.86559   0.00001   0.00000   0.00176   0.00174   1.86733
   A63        1.98006  -0.00496   0.00000  -0.02985  -0.02988   1.95018
    D1        0.48938   0.00203   0.00000   0.02199   0.02200   0.51138
    D2        2.56270   0.00090   0.00000   0.00954   0.00956   2.57226
    D3       -1.62871   0.00018   0.00000   0.00195   0.00199  -1.62672
    D4       -1.59589   0.00111   0.00000   0.02213   0.02212  -1.57377
    D5        0.47744  -0.00002   0.00000   0.00968   0.00968   0.48711
[...]
 .00000292,0.00002099,-0.00001508,-0.00011421,-0.00000719,-0.00002675,0
 .00000348,-0.00000039,0.00000143,0.00000192,0.00000003,-0.00000098,0.0
 0000914,0.00000253,-0.00002535,-0.00003980,0.00011185,0.00005165,0.000
 01050,-0.00000825,-0.00000386,-0.00000316,0.00000836,-0.00000536,-0.00
 074373,-0.00091960,0.00035479,-0.00036212,-0.00054581,0.00058152,-0.00
 011958,0.00000875,-0.00005284,0.00031280,0.00103120,0.00060887,-0.0063
 7500,0.09122539,0.10306552,0.00019306,-0.00000985,-0.00013680,0.000014
 51,-0.00000291,-0.00000273,-0.00371356,-0.00507778,0.00120862,-0.00001
 805,-0.00003036,0.00002612,-0.00000874,0.00003076,0.00001804,-0.000406
 96,0.00009713,-0.00013251,0.00034997,0.00120349,-0.00131539,-0.0023939
 0,-0.00749906,-0.00517107,0.00061861,0.00004445,0.00164851,-0.05263192
 ,-0.02471315,-0.01476086,-0.00200207,-0.01792299,-0.01457999,-0.000009
 47,-0.00001401,-0.00000789,-0.00002538,0.00002839,-0.00000742,0.000056
 30,-0.00001064,0.00000880,-0.00000231,0.00000242,0.00000178,-0.0000026
 5,0.00000062,-0.00000104,0.00001621,-0.00000116,-0.00001028,-0.0000157
 0,0.00001399,0.00000431,-0.00000196,-0.00000289,-0.00000008,0.00000081
 ,-0.00000412,0.00000220,0.00027094,-0.00038227,-0.00017955,0.00010514,
 -0.00040500,-0.00021816,0.00020693,-0.00032944,0.00038863,0.00019470,0
 .00037543,0.00034293,0.00000697,0.00003486,-0.00014044,0.05347293,0.00
 017613,-0.00001869,-0.00010380,0.00003457,0.00000145,-0.00001783,-0.00
 469329,-0.00299296,0.00070999,0.00005529,-0.00002984,0.00000357,-0.000
 00331,0.00003710,0.00000500,-0.00050702,0.00009353,-0.00021450,0.00047
 060,0.00047287,0.00181758,0.00148953,0.00901309,0.00517949,0.00091668,
 0.00000396,0.00199665,-0.02699368,-0.23652641,-0.11977735,0.00118341,-
 0.01484367,-0.01141709,-0.00001033,-0.00001739,-0.00001121,-0.00008557
 ,0.00003024,-0.00001745,0.00006525,0.00000845,-0.00002707,-0.00000453,
 0.00000415,0.00000572,-0.00000839,-0.00000101,-0.00000044,-0.00002711,
 -0.00003117,-0.00000108,-0.00001686,0.00001659,0.00000445,-0.00001329,
 -0.00000563,-0.00000295,-0.00000229,-0.00000905,0.00000213,0.00005218,
 0.00035463,0.00038503,-0.00002722,0.00009024,0.00010757,-0.00027278,0.
 00042264,-0.00064799,-0.00018676,0.00036690,-0.00075937,0.00004677,-0.
 00000465,-0.00016374,0.02999892,0.25495306,0.00004813,-0.00006551,-0.0
 0009665,0.00001141,-0.00000073,-0.00000890,0.00349838,0.00395143,0.000
 53646,0.00003489,0.00000888,0.00001426,-0.00001755,0.00001566,0.000033
 15,-0.00015404,-0.00007179,0.00034440,-0.00241186,0.00331801,-0.005867
 44,-0.00334464,-0.02725675,-0.01566499,0.00059251,0.00083868,-0.001622
 26,-0.01575245,-0.11976668,-0.12249864,-0.00025772,0.01180340,0.008469
 39,-0.00001213,-0.00001126,-0.00000636,-0.00003523,-0.00000233,-0.0000
 0047,-0.00003408,0.00000545,0.00003938,-0.00000169,0.00000210,0.000002
 14,-0.00000410,-0.00000088,-0.00000017,0.00000115,-0.00003410,-0.00001
 438,-0.00001170,0.00000297,0.00001050,0.00000544,0.00000270,-0.0000006
 8,-0.00000232,-0.00000283,-0.00000111,-0.00056673,-0.00189922,-0.00087
 426,0.00018534,0.00022927,0.00017026,-0.00005053,0.00022862,0.00133439
 ,0.00080747,-0.00000899,0.00120269,-0.00006018,-0.00014562,0.00029752,
 0.01827149,0.12971749,0.13410825,0.00002575,-0.00005303,0.00018000,0.0
 0006155,0.00001761,-0.00004749,0.00211868,0.00025720,-0.00100333,0.000
 18575,0.00000697,0.00001861,0.00002865,0.00004758,-0.00005680,0.000032
 21,-0.00001956,-0.00010566,0.00011945,0.00013267,0.00060267,-0.0076800
 8,0.00468789,-0.00056220,-0.00020993,-0.00017663,0.00005226,-0.2445764
 9,0.11021924,0.00212115,-0.02276525,0.01247965,0.00234767,-0.00000554,
 -0.00001332,-0.00001443,-0.00020035,-0.00001537,-0.00003864,0.00003133
 ,0.00008268,-0.00009404,-0.00000812,0.00000447,0.00001175,-0.00002230,
 -0.00000505,0.00000275,0.00000249,-0.00008915,0.00005502,0.00002645,-0
 .00000534,-0.00001170,-0.00003406,-0.00001116,-0.00001529,-0.00000907,
 -0.00001455,-0.00000145,0.00023911,-0.00013182,-0.00007953,-0.00010536
 ,-0.00044051,-0.00034779,0.00073544,0.00026607,-0.00160336,0.00061216,
 -0.00010737,-0.00025759,-0.00008501,-0.00006015,-0.00007891,0.00455470
 ,-0.00192201,0.00047781,0.26792814,-0.00012295,-0.00011482,0.00022619,
 0.00000660,0.00000095,-0.00000351,0.00170766,0.00204198,0.00041743,0.0
 0002255,-0.00003210,-0.00000699,0.00001829,0.00001784,-0.00007311,0.00
 025165,-0.00003460,-0.00001422,-0.00095164,0.00042060,-0.00068397,0.00
 706194,-0.00521240,0.00067890,-0.00031298,0.00000825,-0.00016582,0.112
 70839,-0.11333312,-0.00348661,-0.01926284,0.00912758,0.00076507,0.0000
 0880,0.00000067,-0.00000221,-0.00002289,0.00000155,-0.00002496,-0.0000
 6757,0.00007167,-0.00009702,0.00000014,0.00000085,0.00000136,-0.000002
 11,-0.00000002,0.00000133,-0.00007941,-0.00000032,0.00003058,0.0000451
 8,-0.00000421,-0.00001309,-0.00002615,-0.00000816,-0.00000904,-0.00000
 078,-0.00000020,0.00000135,-0.00015223,0.00005487,0.00009841,-0.000001
 61,0.00041377,-0.00001501,0.00007534,0.00073550,0.00183065,-0.00009950
 ,0.00003975,-0.00013804,0.00006904,0.00004430,-0.00002719,0.02332191,-
 0.01246642,0.00019469,-0.12188668,0.11890064,0.00007150,0.00013198,-0.
 00013559,-0.00001539,0.00000112,-0.00000313,-0.00163043,0.00031178,0.0
 0079497,0.00000389,0.00010548,-0.00003880,-0.00000349,-0.00005326,0.00
 006137,0.00002306,-0.00015439,0.00002781,-0.00022374,0.00089911,0.0018
 2184,-0.02888650,0.01645930,-0.00109733,-0.00012825,0.00011440,-0.0005
 1370,0.00255800,-0.00274596,-0.04825742,0.01530975,-0.00969017,-0.0022
 5466,0.00000205,0.00000752,0.00000845,0.00001807,-0.00002146,0.0000364
 9,-0.00003473,-0.00008230,0.00007774,0.00000174,-0.00000236,-0.0000021
 9,0.00000141,-0.00000043,-0.00000050,0.00005804,-0.00002455,-0.0000503
 9,-0.00005163,-0.00001009,0.00003264,0.00002784,0.00001120,0.00001161,
 -0.00000080,0.00000299,-0.00000230,0.00041687,0.00009187,0.00010156,0.
 00035451,-0.00048023,-0.00032872,-0.00204735,0.00095554,-0.00578370,0.
 00075745,-0.00015228,0.00134725,-0.00001938,-0.00006335,0.00013209,0.0
 1500727,-0.00711609,-0.00060884,-0.00360553,-0.00042342,0.05459143,0.0
 0013351,0.00007130,0.00021939,0.00010450,0.00004855,-0.00010426,-0.000
 57637,-0.00170491,-0.00803985,0.00038778,0.00012846,-0.00015405,0.0000
 7068,0.00004150,-0.00010332,-0.00001869,0.00004329,-0.00001974,-0.0001
 1010,-0.00005139,-0.00028175,-0.00367523,-0.00291919,0.00125151,0.0000
 7518,-0.00097002,0.00152851,0.00812681,-0.00764813,0.02379376,-0.07561
 798,0.02731167,-0.07193172,-0.00000041,-0.00001796,-0.00002544,-0.0004
 0643,-0.00006841,-0.00001307,-0.00010200,0.00006674,-0.00008185,-0.000
 01853,0.00000734,0.00002205,-0.00004706,-0.00001106,0.00000961,-0.0001
 6000,-0.00021806,0.00012507,0.00007022,-0.00000056,0.00001268,-0.00005
 606,-0.00002407,-0.00002704,-0.00002186,-0.00003183,-0.00000713,0.0000
 6077,0.00010552,-0.00001159,0.00001515,0.00005619,0.00000641,0.0001907
 5,-0.00021754,0.00011376,0.00046679,-0.00038496,0.00141729,0.00002095,
 0.00000279,-0.00040423,0.00069772,0.00048479,-0.00090148,0.00119053,0.
 00086173,-0.00041232,0.07640822,0.00033605,-0.00003206,-0.00042164,-0.
 00003521,-0.00003002,0.00005980,-0.01242615,0.00242189,-0.03990996,-0.
 00031182,-0.00013502,0.00011298,-0.00005385,0.00001445,0.00009527,-0.0
 0095067,0.00054218,-0.00033572,-0.00020180,-0.00042030,-0.00042756,-0.
 00424669,-0.00189433,0.00096550,-0.00032540,-0.00520207,-0.00025831,0.
 00723833,-0.00448958,0.01635455,0.03086551,-0.07749426,0.08943754,-0.0
 0001957,-0.00001376,0.00000094,0.00018523,0.00008838,-0.00000237,0.000
 14009,-0.00009673,0.00021506,0.00000607,0.00000123,-0.00000941,0.00002
 282,0.00000693,-0.00000715,0.00001776,0.00013707,-0.00009817,-0.000047
 90,0.00004222,0.00000707,0.00003432,0.00001128,0.00001446,0.00001057,0
 .00000977,0.00000787,0.00014755,0.00023682,0.00000844,0.00000702,0.000
 08893,0.00001094,-0.00008580,0.00016123,-0.00046048,0.00016691,-0.0000
 6047,0.00154056,-0.00005862,-0.00005937,-0.00135633,0.00033010,0.00025
 924,-0.00050726,-0.00015913,0.00077335,-0.00069338,-0.02445352,0.08879
 763,0.00033504,-0.00015442,-0.00019889,0.00004251,-0.00001023,-0.00000
 586,-0.00776307,-0.00288808,-0.02375625,-0.00000874,-0.00008589,0.0001
 0385,-0.00001675,0.00008105,0.00002980,-0.00089324,0.00035073,-0.00030
 585,-0.00021913,0.00008498,0.00031308,0.00260004,0.00159063,0.00045604
 ,0.00077755,-0.00348902,0.00315219,-0.00367180,0.00526286,-0.01066704,
 -0.06980234,0.07790954,-0.26691618,-0.00002497,-0.00003287,-0.00001933
 ,-0.00004383,0.00005816,-0.00002571,-0.00005432,0.00002915,-0.00012920
 ,-0.00000383,0.00000699,0.00000500,-0.00000458,0.00000082,-0.00000288,
 0.00005802,0.00000341,-0.00000811,-0.00003335,0.00002842,0.00001150,-0
 .00000682,-0.00000521,-0.00000467,-0.00000102,-0.00001090,0.00000371,0
 .00000279,0.00006398,-0.00006701,0.00004075,-0.00003252,-0.00001602,-0
 .00010444,0.00002040,0.00008076,-0.00034338,0.00003222,-0.00077375,-0.
 00013634,-0.00003668,-0.00094907,0.00021022,0.00031566,0.00014858,-0.0
 0011916,-0.00059343,0.00041443,0.07882975,-0.07878586,0.29495140,-0.00
 124420,-0.00206020,0.00004053,-0.00018924,-0.00004296,-0.00006819,0.01
 057778,-0.00382917,0.00199824,-0.00139549,0.00109843,-0.00216430,-0.00
 002074,0.00021646,-0.00014713,0.00061323,0.00029006,0.00032364,0.00006
 777,-0.00004068,0.00016168,0.00097124,0.00081634,-0.00118725,0.0002196
 8,0.00055411,-0.00092106,-0.02253484,0.01097382,0.00138677,-0.23901010
 ,0.11247128,0.01671844,0.00000685,0.00001148,-0.00002494,-0.00002763,-
 0.00035915,0.00034566,-0.00127663,-0.00142933,-0.00113806,0.00000684,0
 .00000123,-0.00001499,-0.00002036,-0.00000087,0.00002323,-0.00068771,0
 .00004870,-0.00026635,-0.00036783,0.00023924,0.00026686,-0.00003200,-0
 .00000046,-0.00004577,0.00004396,0.00002087,0.00001191,0.00003077,0.00
 004814,0.00007428,-0.00001743,-0.00005735,-0.00006909,0.00048101,-0.00
 032664,0.00071006,0.00030060,-0.00024973,-0.00015648,-0.00004705,0.000
 05965,0.00002443,0.00048109,-0.00018920,-0.00030906,-0.00218117,-0.003
 17149,0.00244335,-0.00719430,0.00387311,0.00037343,0.26244173,-0.00011
 418,0.00010912,-0.00165744,-0.00004836,-0.00002986,0.00007921,0.018840
 85,-0.02963308,-0.01488468,0.00032512,0.00019945,0.00066681,-0.0001016
 1,-0.00015460,0.00044691,-0.00204014,0.00087973,-0.00040756,-0.0003558
 5,-0.00001184,-0.00032315,-0.00018507,0.00064537,-0.00102102,0.0030499
 4,-0.00113034,0.00501267,-0.01752471,0.01036630,0.00286232,0.10926334,
 -0.11013033,-0.00826398,-0.00005580,-0.00000460,0.00002365,0.00037003,
 0.00002285,0.00002579,-0.00071107,-0.00119272,-0.00006193,0.00001610,-
 0.00000575,-0.00001308,0.00003888,0.00000820,-0.00001011,0.00058339,-0
 .00000402,0.00033805,-0.00005652,0.00001492,-0.00005899,0.00017135,0.0
 0006097,0.00006233,0.00000682,0.00001352,-0.00000318,0.00011277,0.0001
 8833,-0.00011943,0.00003212,-0.00005585,0.00000515,0.00036683,-0.00013
 034,-0.00013988,0.00010671,0.00000199,-0.00020990,-0.00043571,0.000071
 07,-0.00070048,0.00091836,0.00081378,-0.00054824,-0.00309330,-0.001447
 69,0.00262513,0.00949261,-0.00367288,0.00027457,-0.11897228,0.13420977
 ,-0.00056893,-0.00077841,-0.00068860,-0.00016988,-0.00005796,0.0001409
 0,0.01315476,-0.01932917,-0.00504227,-0.00158492,0.00020827,-0.0003068
 8,-0.00009968,0.00002467,0.00013396,-0.00094807,0.00094022,0.00067450,
 -0.00024375,-0.00013646,-0.00037941,0.00065575,-0.00125748,0.00091153,
 0.00340066,-0.00146522,0.00199066,0.01437944,-0.00614869,-0.00074478,0
 .01421938,-0.00492125,-0.05579035,-0.00000969,0.00001536,0.00002234,0.
 00052531,0.00001735,0.00002854,-0.00012099,-0.00036805,0.00021138,0.00
 002088,-0.00000693,-0.00002848,0.00005738,0.00001662,-0.00000726,-0.00
 062042,0.00051008,-0.00072671,0.00004608,-0.00000527,-0.00005426,0.000
 06266,0.00002677,0.00002822,0.00004525,0.00004207,0.00001994,0.0000428
 6,0.00009373,-0.00005429,-0.00006188,0.00004326,0.00006408,-0.00013272
 ,0.00026893,-0.00019708,-0.00024752,0.00011849,0.00016474,-0.00027122,
 0.00014396,-0.00039487,-0.00048025,0.00002046,0.00055024,0.00216733,0.
 00153198,-0.00037848,-0.02482309,0.01444019,0.00416237,-0.01840725,0.0
 1600799,0.05570365,0.00114603,-0.00043502,0.00140607,-0.00338999,0.001
 26190,-0.00436823,0.00005401,0.00001280,-0.00001400,-0.00029531,-0.000
 40340,-0.00012661,0.00465022,-0.00029091,0.02780052,0.00026182,-0.0000
 4664,-0.00047709,0.00002861,-0.00001417,0.00001022,-0.00000187,0.00000
 768,-0.00000536,-0.00013087,0.00001811,-0.00012113,0.00000212,-0.00000
 619,0.00000010,-0.00003803,-0.00000396,-0.00000846,-0.05975324,-0.0014
 1589,-0.05146218,0.00061501,-0.00003537,-0.00001398,-0.00008324,0.0002
 1057,-0.00051577,0.00047355,-0.00000347,-0.00011113,0.00077322,0.00175
 631,-0.00038823,0.00004456,0.00010189,-0.00002608,-0.00037586,-0.00061
 042,0.00022236,-0.00390306,0.00224422,0.00278943,0.00089245,-0.0001579
 6,-0.00085736,-0.00000138,-0.00000065,0.00000121,0.00001273,0.00000670
 ,-0.00000352,-0.00000068,-0.00000773,0.00000383,0.00000642,0.00000171,
 -0.00000042,0.00002505,-0.00001027,-0.00000081,0.00000141,0.00000321,0
 .00000068,0.00000559,0.00000150,-0.00000225,0.00000942,-0.00000227,0.0
 0000332,-0.00000182,-0.00001540,-0.00001168,0.06390345,-0.00076223,0.0
 0041251,0.00047890,0.00943750,-0.00131501,0.03176586,0.00006774,-0.000
 00112,0.00004721,0.00015883,-0.00022175,0.00058500,-0.00316686,0.00002
 720,-0.01547468,0.00013973,-0.00000715,-0.00000375,0.00001054,-0.00000
 488,0.00000244,0.00000336,-0.00000532,-0.00000224,-0.00013759,0.000053
 03,0.00001310,0.00000065,-0.00000207,0.00000225,-0.00001397,-0.0000134
 2,-0.00001726,-0.00139342,-0.04851948,0.00143293,-0.00070701,-0.001115
 38,-0.00006581,0.00011184,0.00004066,0.00001393,-0.00042415,0.00182539
 ,-0.00023526,0.00034225,-0.00493917,0.00204926,-0.00000554,0.00006222,
 -0.00008390,-0.00059882,-0.00036062,-0.00011908,0.00283831,-0.00057138
 ,-0.00112291,-0.00068338,0.00014093,0.00033645,-0.00000057,-0.00000027
 ,0.00000060,0.00000756,0.00000310,-0.00000224,-0.00000218,-0.00000084,
 0.00000014,0.00000147,0.00000261,0.00000024,0.00001518,-0.00001091,-0.
 00000026,0.00000140,0.00000217,0.00000062,0.00000235,0.00000085,-0.000
 00160,0.00000308,0.00000002,0.00000341,-0.00000131,-0.00000633,-0.0000
 0503,-0.00267792,0.05469101,-0.00069256,-0.00045303,0.00046829,-0.0026
 7366,-0.00165084,-0.00803803,0.00007804,0.00000105,0.00005327,-0.00086
 099,-0.00040279,-0.00131200,-0.00168522,-0.00033352,-0.01712967,0.0001
 9981,-0.00002707,0.00027541,0.00002402,-0.00001513,0.00000163,0.000002
 42,-0.00001104,-0.00000261,-0.00010255,0.00010242,-0.00000817,-0.00000
 038,0.00000217,0.00000214,-0.00000740,-0.00002776,-0.00001814,-0.05153
 705,0.00462726,-0.29930045,0.00108826,0.00121613,0.00028916,0.00070346
 ,0.00024531,-0.00012599,0.00032803,0.00008386,0.00145959,0.00023320,0.
 00158476,0.00069969,0.00010302,0.00005813,0.00033648,-0.00022364,0.000
 14751,0.00065897,0.00278393,-0.00168627,-0.00022418,0.00004239,-0.0002
 5717,0.00044146,-0.00000157,0.00000043,-0.00000033,0.00001129,0.000006
 57,-0.00000550,-0.00000387,0.00000179,-0.00000024,-0.00000040,0.000004
 05,0.00000050,0.00001060,-0.00001414,-0.00000101,0.00000206,0.00000240
 ,0.00000067,0.00000114,0.00000010,-0.00000105,0.00000486,0.00000140,0.
 00000448,0.00001436,-0.00000408,-0.00000574,0.05368866,-0.00283052,0.3
 2593199,0.00030125,0.00323489,0.00320218,0.00411179,0.00319759,0.00023
 772,-0.00027044,-0.00001997,-0.00026960,-0.00003159,0.00078905,-0.0000
 3077,-0.02069337,-0.01291310,-0.00535405,-0.00308211,-0.00008111,0.000
 32433,-0.00023835,0.00014683,-0.00006576,-0.00000898,0.00000221,0.0000
 3226,0.00082445,-0.00068788,0.00058329,0.00000382,-0.00000015,-0.00000
 299,0.00009490,0.00009747,0.00007744,-0.23932346,-0.11937263,-0.035388
 70,0.00107524,0.00091188,-0.00054008,0.00005896,0.00004437,-0.00015365
 ,-0.00062835,-0.00028558,0.00066492,0.00134253,0.00011276,0.00011140,0
 .00004388,-0.00009625,0.00011094,0.00006348,-0.00005718,0.00008483,0.0
 0096617,-0.00022714,0.00011126,0.00095475,0.00019268,-0.00060000,0.000
 01557,0.00000597,-0.00001177,-0.00009657,-0.00006004,0.00003638,0.0000
 0953,0.00002208,-0.00001233,-0.00001948,-0.00002108,-0.00000370,-0.000
 09986,0.00007592,0.00000872,-0.00000933,-0.00001368,-0.00000722,-0.000
 01525,0.00000010,0.00000698,-0.00002399,-0.00000303,-0.00002232,0.0000
 0598,0.00001477,0.00002417,-0.00493035,-0.00256683,-0.00153023,0.25959
 917,0.00152188,-0.00151107,-0.00232127,-0.02514641,-0.01236319,-0.0048
 4269,0.00005435,0.00002146,0.00011561,0.00179852,-0.00047244,0.0006235
 5,0.01494940,0.00891615,0.00413735,0.00164780,0.00012791,-0.00018783,0
 .00011418,-0.00006576,0.00002504,0.00001251,-0.00002308,-0.00000709,-0
 .00017261,0.00027956,-0.00031634,-0.00000368,0.00000989,0.00000273,0.0
 0000020,-0.00005740,-0.00004640,-0.11977221,-0.12002327,-0.02167470,-0
 .00202656,-0.00623253,0.00216846,-0.00009081,0.00004471,0.00016442,0.0
 0118376,-0.00103267,-0.00025866,-0.00040592,0.00174318,0.00039109,-0.0
 0015688,0.00006956,-0.00006425,-0.00016816,0.00009159,-0.00003967,-0.0
 0082186,0.00028437,0.00016332,-0.00065035,0.00064470,0.00066337,-0.000
 00473,-0.00000253,0.00000585,0.00004230,0.00002975,-0.00001574,-0.0000
 0449,0.00000921,-0.00000119,-0.00000307,0.00001269,0.00000310,0.000027
 59,-0.00002028,-0.00000474,0.00000340,0.00000282,0.00000222,-0.0000002
 5,-0.00000087,-0.00000209,-0.00000394,0.00000823,0.00000815,0.00000791
 ,0.00000486,0.00000951,0.00051105,-0.00016658,-0.00037199,0.12755707,0
 .12967105,0.00089168,-0.00191466,-0.00122102,0.00964391,0.00544121,-0.
 00011834,0.00007752,0.00001534,0.00009149,-0.00079830,-0.00040121,-0.0
 0099661,0.01524947,0.00999555,0.00295059,0.00146025,0.00000336,-0.0000
 9046,0.00010276,-0.00005665,0.00002450,0.00000804,-0.00001028,-0.00001
 310,-0.00018472,0.00028450,-0.00022613,-0.00000243,0.00000142,0.000001
 26,-0.00002951,-0.00003750,-0.00002990,-0.03815530,-0.02313436,-0.0540
 0927,0.00132987,0.00387768,-0.00100655,0.00031221,0.00006375,0.0001237
 7,0.00004916,0.00026100,0.00023489,0.00058637,-0.00004941,0.00070945,0
 .00007510,0.00002897,0.00018694,-0.00010128,0.00011006,0.00043705,-0.0
 0071234,0.00055596,0.00054310,-0.00084690,0.00006007,0.00054258,-0.000
 00539,-0.00000161,0.00000208,0.00003954,0.00002538,-0.00001595,-0.0000
 0828,-0.00000462,0.00000437,0.00000468,0.00000889,0.00000146,0.0000311
 3,-0.00002792,-0.00000361,0.00000346,0.00000478,0.00000287,0.00000476,
 -0.00000036,-0.00000288,0.00000729,0.00000102,0.00000864,0.00000305,-0
 .00000344,-0.00000760,-0.02741212,-0.01676780,-0.00445065,0.03837635,0
 .02167088,0.05632703\\-0.00116625,-0.00446289,-0.00012911,0.00001312,0
 .00001193,-0.00001363,0.00110879,0.00423082,0.00021856,-0.00000287,0.0
 0000969,0.00000811,0.00000678,0.00000317,0.00000021,0.00224573,0.00848
 012,0.00028064,0.00000671,0.00000188,-0.00000128,-0.00000472,0.0000036
 0,-0.00000224,-0.00219023,-0.00824733,-0.00037008,0.00000525,-0.000001
 11,-0.00000324,-0.00000249,-0.00001012,-0.00000395,0.00000118,-0.00000
 488,0.00001186,-0.00001608,-0.00001407,-0.00000065,0.00000350,-0.00000
 119,0.00000027,0.00000126,-0.00000180,0.00000504,-0.00000519,0.0000018
 0,0.00000554,-0.00000130,-0.00000223,0.00000184,-0.00000262,-0.0000020
 8,-0.00000051,0.00000121,-0.00000159,0.00000125,-0.00000232,-0.0000012
 7,0.00000179,-0.00000310,-0.00000070,-0.00000031,-0.00000345,0.0000020
 6,0.00000111,0.00000060,0.00000172,-0.00000123,-0.00000115,0.00000225,
 -0.00000183,0.00000573,-0.00000145,-0.00000321,-0.00000215,0.00000206,
 0.00000058,-0.00000179,0.00000362,-0.00000330,0.00000039,0.00000358,-0
 .00000020,0.00000041,0.00000098,-0.00000013,0.00000091,-0.00000217,-0.
 00000040,0.00000413,-0.00000439,-0.00000150\\\@


 HEAVEN'S NET CASTS WIDE.
 THOUGH ITS MESHES ARE COARSE, NOTHING SLIPS THROUGH.

                                          -- LAO-TSU
 Job cpu time:       0 days 14 hours 19 minutes 47.8 seconds.
 Elapsed time:       0 days  0 hours 53 minutes 45.4 seconds.
 File lengths (MBytes):  RWF=    687 Int=      0 D2E=      0 Chk=     33 Scr=      1
 Normal termination of Gaussian 16 at Sun Nov  4 22:57:45 2018.
