 Entering Gaussian System, Link 0=g16
 Initial command:
 /apps/gaussian/g16a03/g16/l1.exe "/jobfs/local/2012003.r-man2/Gau-27483.inp" -scrdir="/jobfs/local/2012003.r-man2/"
 Entering Link 1 = /apps/gaussian/g16a03/g16/l1.exe PID=     27484.
  
 Copyright (c) 1988,1990,1992,1993,1995,1998,2003,2009,2016,
            Gaussian, Inc.  All Rights Reserved.
  
 This is part of the Gaussian(R) 16 program.  It is based on
 the Gaussian(R) 09 system (copyright 2009, Gaussian, Inc.),
 the Gaussian(R) 03 system (copyright 2003, Gaussian, Inc.),
 the Gaussian(R) 98 system (copyright 1998, Gaussian, Inc.),
 the Gaussian(R) 94 system (copyright 1995, Gaussian, Inc.),
 the Gaussian 92(TM) system (copyright 1992, Gaussian, Inc.),
 the Gaussian 90(TM) system (copyright 1990, Gaussian, Inc.),
 the Gaussian 88(TM) system (copyright 1988, Gaussian, Inc.),
 the Gaussian 86(TM) system (copyright 1986, Carnegie Mellon
 University), and the Gaussian 82(TM) system (copyright 1983,
 Carnegie Mellon University). Gaussian is a federally registered
 trademark of Gaussian, Inc.
  
 This software contains proprietary and confidential information,
 including trade secrets, belonging to Gaussian, Inc.
  
 This software is provided under written license and may be
 used, copied, transmitted, or stored only in accord with that
 written license.
  
 The following legend is applicable only to US Government
 contracts under FAR:
  
                    RESTRICTED RIGHTS LEGEND
  
 Use, reproduction and disclosure by the US Government is
 subject to restrictions as set forth in subparagraphs (a)
 and (c) of the Commercial Computer Software - Restricted
 Rights clause in FAR 52.227-19.
  
 Gaussian, Inc.
 340 Quinnipiac St., Bldg. 40, Wallingford CT 06492
  
  
 ---------------------------------------------------------------
 Warning -- This program may not be used in any manner that
 competes with the business of Gaussian, Inc. or will provide
 assistance to any competitor of Gaussian, Inc.  The licensee
 of this program is prohibited from giving any competitor of
 Gaussian, Inc. access to this program.  By using this program,
 the user acknowledges that Gaussian, Inc. is engaged in the
 business of creating and licensing software in the field of
 computational chemistry and represents and warrants to the
 licensee that it is not a competitor of Gaussian, Inc. and that
 it will not use this program in any manner prohibited above.
 ---------------------------------------------------------------
  

 Cite this work as:
 Gaussian 16, Revision A.03,
 M. J. Frisch, G. W. Trucks, H. B. Schlegel, G. E. Scuseria, 
 M. A. Robb, J. R. Cheeseman, G. Scalmani, V. Barone, 
 G. A. Petersson, H. Nakatsuji, X. Li, M. Caricato, A. V. Marenich, 
 J. Bloino, B. G. Janesko, R. Gomperts, B. Mennucci, H. P. Hratchian, 
 J. V. Ortiz, A. F. Izmaylov, J. L. Sonnenberg, D. Williams-Young, 
 F. Ding, F. Lipparini, F. Egidi, J. Goings, B. Peng, A. Petrone, 
 T. Henderson, D. Ranasinghe, V. G. Zakrzewski, J. Gao, N. Rega, 
 G. Zheng, W. Liang, M. Hada, M. Ehara, K. Toyota, R. Fukuda, 
 J. Hasegawa, M. Ishida, T. Nakajima, Y. Honda, O. Kitao, H. Nakai, 
 T. Vreven, K. Throssell, J. A. Montgomery, Jr., J. E. Peralta, 
 F. Ogliaro, M. J. Bearpark, J. J. Heyd, E. N. Brothers, K. N. Kudin, 
 V. N. Staroverov, T. A. Keith, R. Kobayashi, J. Normand, 
 K. Raghavachari, A. P. Rendell, J. C. Burant, S. S. Iyengar, 
 J. Tomasi, M. Cossi, J. M. Millam, M. Klene, C. Adamo, R. Cammi, 
 J. W. Ochterski, R. L. Martin, K. Morokuma, O. Farkas, 
 J. B. Foresman, and D. J. Fox, Gaussian, Inc., Wallingford CT, 2016.
 
 ******************************************
 Gaussian 16:  ES64L-G16RevA.03 25-Dec-2016
                 4-Nov-2018 
 ******************************************
 %mem=6000mb
 %nproc=24
 Will use up to   24 processors via shared memory.
 %chk=D_a1-4_2SO_PHI.inp_extract_3.chk
 ----------------------------------------------------------------------
 #M062X/6-311++G(2d,2p) opt=ModRedundant freq=noraman SCRF=(Solvent=Wat
 er)
 ----------------------------------------------------------------------
 1/18=120,19=15,26=3,38=1/1,3;
 2/9=110,12=2,17=6,18=5,40=1/2;
 3/5=4,6=6,7=1212,11=2,25=1,30=1,70=2201,71=1,72=1,74=-55/1,2,3;
 4//1;
 5/5=2,38=5,53=1/2;
 6/7=2,8=2,9=2,10=2,28=1/1;
 7//1,2,3,16;
 1/18=20,19=15,26=3/3(2);
 2/9=110/2;
 99//99;
 2/9=110/2;
 3/5=4,6=6,7=1212,11=2,25=1,30=1,70=2205,71=1,72=1,74=-55/1,2,3;
 4/5=5,16=3,69=1/1;
 5/5=2,38=5,53=1/2;
 7//1,2,3,16;
 1/18=20,19=15,26=3/3(-5);
 2/9=110/2;
 6/7=2,8=2,9=2,10=2,19=2,28=1/1;
 99/9=1/99;
 ----------------------------
 D_a1-4_2SO_PHI.inp_extract_3
 ----------------------------
 Symbolic Z-matrix:
 Charge =  0 Multiplicity = 1
 C                     1.11258  -0.27268  -0.65714 
 C                     3.72624   0.02485   0.70717 
 O                    -2.18811  -0.64843  -1.16358 
 C                     1.95673  -1.37076  -0.00885 
 C                     1.77837   1.09058  -0.44105 
 O                    -0.19134  -0.31773  -0.09595 
 C                    -1.84166   1.44145  -0.01086 
 C                    -2.64019   0.92208   1.1854 
 C                    -1.22044   0.3072   -0.81536 
 C                    -3.6426   -0.13115   0.71463 
 C                    -2.93015  -1.20745  -0.08664 
 C                     3.29693   0.92334  -0.45841 
 O                     2.69446  -0.87473   1.08581 
 H                     1.03216  -0.48918  -1.71762 
 H                     4.61756  -0.54241   0.45606 
 H                     3.9351    0.61498   1.58936 
 H                     1.32356  -2.16215   0.36497 
 H                     2.63725  -1.79547  -0.74046 
 H                     1.46861   1.4809    0.52325 
 H                     1.45428   1.79765  -1.19692 
 H                    -1.05727   2.12174   0.30132 
 H                    -2.50342   1.9892   -0.67693 
 H                    -1.96903   0.48541   1.92049 
 H                    -3.15141   1.74634   1.67315 
 H                    -0.83519   0.67284  -1.75532 
 H                    -4.14989  -0.59389   1.55643 
 H                    -4.40214   0.3355    0.09157 
 H                    -3.63138  -1.89194  -0.54339 
 H                    -2.26421  -1.78098   0.54917 
 H                     3.60589   0.49079  -1.40584 
 H                     3.79459   1.88311  -0.37287 
 
 The following ModRedundant input section has been read:
 D       1       6       9       3 F                                           
 

 GradGradGradGradGradGradGradGradGradGradGradGradGradGradGradGradGradGrad
 Berny optimization.
 Initialization pass.
                           ----------------------------
                           !    Initial Parameters    !
                           ! (Angstroms and Degrees)  !
 --------------------------                            --------------------------
 ! Name  Definition              Value          Derivative Info.                !
 --------------------------------------------------------------------------------
 ! R1    R(1,4)                  1.5293         estimate D2E/DX2                !
 ! R2    R(1,5)                  1.5325         estimate D2E/DX2                !
 ! R3    R(1,6)                  1.4203         estimate D2E/DX2                !
 ! R4    R(1,14)                 1.0853         estimate D2E/DX2                !
 ! R5    R(2,12)                 1.533          estimate D2E/DX2                !
 ! R6    R(2,13)                 1.4203         estimate D2E/DX2                !
 ! R7    R(2,15)                 1.086          estimate D2E/DX2                !
 ! R8    R(2,16)                 1.0817         estimate D2E/DX2                !
 ! R9    R(3,9)                  1.4039         estimate D2E/DX2                !
 ! R10   R(3,11)                 1.4223         estimate D2E/DX2                !
 ! R11   R(4,13)                 1.4102         estimate D2E/DX2                !
 ! R12   R(4,17)                 1.0803         estimate D2E/DX2                !
 ! R13   R(4,18)                 1.0857         estimate D2E/DX2                !
 ! R14   R(5,12)                 1.5278         estimate D2E/DX2                !
 ! R15   R(5,19)                 1.0854         estimate D2E/DX2                !
 ! R16   R(5,20)                 1.0846         estimate D2E/DX2                !
 ! R17   R(6,9)                  1.4025         estimate D2E/DX2                !
 ! R18   R(7,8)                  1.5292         estimate D2E/DX2                !
 ! R19   R(7,9)                  1.523          estimate D2E/DX2                !
 ! R20   R(7,21)                 1.0842         estimate D2E/DX2                !
 ! R21   R(7,22)                 1.087          estimate D2E/DX2                !
 ! R22   R(8,10)                 1.5283         estimate D2E/DX2                !
 ! R23   R(8,23)                 1.087          estimate D2E/DX2                !
 ! R24   R(8,24)                 1.0857         estimate D2E/DX2                !
 ! R25   R(9,25)                 1.0796         estimate D2E/DX2                !
 ! R26   R(10,11)                1.5192         estimate D2E/DX2                !
 ! R27   R(10,26)                1.0863         estimate D2E/DX2                !
 ! R28   R(10,27)                1.0876         estimate D2E/DX2                !
 ! R29   R(11,28)                1.0811         estimate D2E/DX2                !
 ! R30   R(11,29)                1.0847         estimate D2E/DX2                !
 ! R31   R(12,30)                1.0864         estimate D2E/DX2                !
 ! R32   R(12,31)                1.0845         estimate D2E/DX2                !
 ! A1    A(4,1,5)              109.8265         estimate D2E/DX2                !
 ! A2    A(4,1,6)              108.4514         estimate D2E/DX2                !
 ! A3    A(4,1,14)             108.1729         estimate D2E/DX2                !
 ! A4    A(5,1,6)              111.7999         estimate D2E/DX2                !
 ! A5    A(5,1,14)             110.3295         estimate D2E/DX2                !
 ! A6    A(6,1,14)             108.1627         estimate D2E/DX2                !
 ! A7    A(12,2,13)            111.745          estimate D2E/DX2                !
 ! A8    A(12,2,15)            111.1123         estimate D2E/DX2                !
 ! A9    A(12,2,16)            110.7567         estimate D2E/DX2                !
 ! A10   A(13,2,15)            109.0896         estimate D2E/DX2                !
 ! A11   A(13,2,16)            105.5678         estimate D2E/DX2                !
 ! A12   A(15,2,16)            108.3656         estimate D2E/DX2                !
 ! A13   A(9,3,11)             116.0621         estimate D2E/DX2                !
 ! A14   A(1,4,13)             111.4246         estimate D2E/DX2                !
 ! A15   A(1,4,17)             110.438          estimate D2E/DX2                !
 ! A16   A(1,4,18)             109.9512         estimate D2E/DX2                !
 ! A17   A(13,4,17)            107.1996         estimate D2E/DX2                !
 ! A18   A(13,4,18)            109.4376         estimate D2E/DX2                !
 ! A19   A(17,4,18)            108.3005         estimate D2E/DX2                !
 ! A20   A(1,5,12)             109.4411         estimate D2E/DX2                !
 ! A21   A(1,5,19)             108.734          estimate D2E/DX2                !
 ! A22   A(1,5,20)             110.6008         estimate D2E/DX2                !
 ! A23   A(12,5,19)            109.4576         estimate D2E/DX2                !
 ! A24   A(12,5,20)            111.1274         estimate D2E/DX2                !
 ! A25   A(19,5,20)            107.4234         estimate D2E/DX2                !
 ! A26   A(1,6,9)              117.1825         estimate D2E/DX2                !
 ! A27   A(8,7,9)              111.9175         estimate D2E/DX2                !
 ! A28   A(8,7,21)             111.4471         estimate D2E/DX2                !
 ! A29   A(8,7,22)             109.4254         estimate D2E/DX2                !
 ! A30   A(9,7,21)             108.9224         estimate D2E/DX2                !
 ! A31   A(9,7,22)             107.4527         estimate D2E/DX2                !
 ! A32   A(21,7,22)            107.4993         estimate D2E/DX2                !
 ! A33   A(7,8,10)             109.6082         estimate D2E/DX2                !
 ! A34   A(7,8,23)             110.0627         estimate D2E/DX2                !
 ! A35   A(7,8,24)             109.8456         estimate D2E/DX2                !
 ! A36   A(10,8,23)            109.6609         estimate D2E/DX2                !
 ! A37   A(10,8,24)            110.6562         estimate D2E/DX2                !
 ! A38   A(23,8,24)            106.9735         estimate D2E/DX2                !
 ! A39   A(3,9,6)              109.2492         estimate D2E/DX2                !
 ! A40   A(3,9,7)              110.9051         estimate D2E/DX2                !
 ! A41   A(3,9,25)             105.1021         estimate D2E/DX2                !
 ! A42   A(6,9,7)              111.1104         estimate D2E/DX2                !
 ! A43   A(6,9,25)             109.6114         estimate D2E/DX2                !
 ! A44   A(7,9,25)             110.6838         estimate D2E/DX2                !
 ! A45   A(8,10,11)            110.066          estimate D2E/DX2                !
 ! A46   A(8,10,26)            111.1699         estimate D2E/DX2                !
 ! A47   A(8,10,27)            109.8052         estimate D2E/DX2                !
 ! A48   A(11,10,26)           109.0214         estimate D2E/DX2                !
 ! A49   A(11,10,27)           109.2283         estimate D2E/DX2                !
 ! A50   A(26,10,27)           107.4927         estimate D2E/DX2                !
 ! A51   A(3,11,10)            111.4427         estimate D2E/DX2                !
 ! A52   A(3,11,28)            105.5066         estimate D2E/DX2                !
 ! A53   A(3,11,29)            109.3502         estimate D2E/DX2                !
 ! A54   A(10,11,28)           111.5416         estimate D2E/DX2                !
 ! A55   A(10,11,29)           110.6913         estimate D2E/DX2                !
 ! A56   A(28,11,29)           108.1233         estimate D2E/DX2                !
 ! A57   A(2,12,5)             109.5031         estimate D2E/DX2                !
 ! A58   A(2,12,30)            110.492          estimate D2E/DX2                !
 ! A59   A(2,12,31)            109.2813         estimate D2E/DX2                !
 ! A60   A(5,12,30)            109.6436         estimate D2E/DX2                !
 ! A61   A(5,12,31)            110.9974         estimate D2E/DX2                !
 ! A62   A(30,12,31)           106.8968         estimate D2E/DX2                !
 ! A63   A(2,13,4)             113.3215         estimate D2E/DX2                !
 ! D1    D(5,1,4,13)            27.9535         estimate D2E/DX2                !
 ! D2    D(5,1,4,17)           146.9801         estimate D2E/DX2                !
 ! D3    D(5,1,4,18)           -93.5633         estimate D2E/DX2                !
 ! D4    D(6,1,4,13)           -94.4893         estimate D2E/DX2                !
 ! D5    D(6,1,4,17)            24.5373         estimate D2E/DX2                !
 ! D6    D(6,1,4,18)           143.994          estimate D2E/DX2                !
 ! D7    D(14,1,4,13)          148.421          estimate D2E/DX2                !
 ! D8    D(14,1,4,17)          -92.5524         estimate D2E/DX2                !
 ! D9    D(14,1,4,18)           26.9043         estimate D2E/DX2                !
 ! D10   D(4,1,5,12)            34.0132         estimate D2E/DX2                !
 ! D11   D(4,1,5,19)           -85.5062         estimate D2E/DX2                !
 ! D12   D(4,1,5,20)           156.7666         estimate D2E/DX2                !
 ! D13   D(6,1,5,12)           154.4483         estimate D2E/DX2                !
 ! D14   D(6,1,5,19)            34.929          estimate D2E/DX2                !
 ! D15   D(6,1,5,20)           -82.7983         estimate D2E/DX2                !
 ! D16   D(14,1,5,12)          -85.1397         estimate D2E/DX2                !
 ! D17   D(14,1,5,19)          155.3409         estimate D2E/DX2                !
 ! D18   D(14,1,5,20)           37.6137         estimate D2E/DX2                !
 ! D19   D(4,1,6,9)           -160.9923         estimate D2E/DX2                !
 ! D20   D(5,1,6,9)             77.7731         estimate D2E/DX2                !
 ! D21   D(14,1,6,9)           -43.896          estimate D2E/DX2                !
 ! D22   D(13,2,12,5)           27.0986         estimate D2E/DX2                !
 ! D23   D(13,2,12,30)         -93.7711         estimate D2E/DX2                !
 ! D24   D(13,2,12,31)         148.8765         estimate D2E/DX2                !
 ! D25   D(15,2,12,5)          149.2015         estimate D2E/DX2                !
 ! D26   D(15,2,12,30)          28.3318         estimate D2E/DX2                !
 ! D27   D(15,2,12,31)         -89.0206         estimate D2E/DX2                !
 ! D28   D(16,2,12,5)          -90.299          estimate D2E/DX2                !
 ! D29   D(16,2,12,30)         148.8313         estimate D2E/DX2                !
 ! D30   D(16,2,12,31)          31.4789         estimate D2E/DX2                !
 ! D31   D(12,2,13,4)           37.4418         estimate D2E/DX2                !
 ! D32   D(15,2,13,4)          -85.8151         estimate D2E/DX2                !
 ! D33   D(16,2,13,4)          157.9195         estimate D2E/DX2                !
 ! D34   D(11,3,9,6)            67.4274         estimate D2E/DX2                !
 ! D35   D(11,3,9,7)           -55.376          estimate D2E/DX2                !
 ! D36   D(11,3,9,25)         -175.0262         estimate D2E/DX2                !
 ! D37   D(9,3,11,10)           57.4041         estimate D2E/DX2                !
 ! D38   D(9,3,11,28)          178.6259         estimate D2E/DX2                !
 ! D39   D(9,3,11,29)          -65.2974         estimate D2E/DX2                !
 ! D40   D(1,4,13,2)           -68.6352         estimate D2E/DX2                !
 ! D41   D(17,4,13,2)          170.425          estimate D2E/DX2                !
 ! D42   D(18,4,13,2)           53.1795         estimate D2E/DX2                !
 ! D43   D(1,5,12,2)           -62.9944         estimate D2E/DX2                !
 ! D44   D(1,5,12,30)           58.3886         estimate D2E/DX2                !
 ! D45   D(1,5,12,31)          176.2645         estimate D2E/DX2                !
 ! D46   D(19,5,12,2)           56.0785         estimate D2E/DX2                !
 ! D47   D(19,5,12,30)         177.4615         estimate D2E/DX2                !
 ! D48   D(19,5,12,31)         -64.6626         estimate D2E/DX2                !
 ! D49   D(20,5,12,2)          174.5661         estimate D2E/DX2                !
 ! D50   D(20,5,12,30)         -64.0509         estimate D2E/DX2                !
 ! D51   D(20,5,12,31)          53.825          estimate D2E/DX2                !
 ! D52   D(1,6,9,3)            118.8938         Frozen                          !
 ! D53   D(1,6,9,7)           -118.4254         estimate D2E/DX2                !
 ! D54   D(1,6,9,25)             4.2242         estimate D2E/DX2                !
 ! D55   D(9,7,8,10)           -52.3622         estimate D2E/DX2                !
 ! D56   D(9,7,8,23)            68.3246         estimate D2E/DX2                !
 ! D57   D(9,7,8,24)          -174.1447         estimate D2E/DX2                !
 ! D58   D(21,7,8,10)         -174.6125         estimate D2E/DX2                !
 ! D59   D(21,7,8,23)          -53.9258         estimate D2E/DX2                !
 ! D60   D(21,7,8,24)           63.605          estimate D2E/DX2                !
 ! D61   D(22,7,8,10)           66.63           estimate D2E/DX2                !
 ! D62   D(22,7,8,23)         -172.6833         estimate D2E/DX2                !
 ! D63   D(22,7,8,24)          -55.1526         estimate D2E/DX2                !
 ! D64   D(8,7,9,3)             52.2751         estimate D2E/DX2                !
 ! D65   D(8,7,9,6)            -69.4446         estimate D2E/DX2                !
 ! D66   D(8,7,9,25)           168.5273         estimate D2E/DX2                !
 ! D67   D(21,7,9,3)           175.9567         estimate D2E/DX2                !
 ! D68   D(21,7,9,6)            54.237          estimate D2E/DX2                !
 ! D69   D(21,7,9,25)          -67.7911         estimate D2E/DX2                !
 ! D70   D(22,7,9,3)           -67.8763         estimate D2E/DX2                !
 ! D71   D(22,7,9,6)           170.404          estimate D2E/DX2                !
 ! D72   D(22,7,9,25)           48.3759         estimate D2E/DX2                !
 ! D73   D(7,8,10,11)           53.0403         estimate D2E/DX2                !
 ! D74   D(7,8,10,26)          173.9412         estimate D2E/DX2                !
 ! D75   D(7,8,10,27)          -67.2382         estimate D2E/DX2                !
 ! D76   D(23,8,10,11)         -67.8899         estimate D2E/DX2                !
 ! D77   D(23,8,10,26)          53.0111         estimate D2E/DX2                !
 ! D78   D(23,8,10,27)         171.8316         estimate D2E/DX2                !
 ! D79   D(24,8,10,11)         174.3355         estimate D2E/DX2                !
 ! D80   D(24,8,10,26)         -64.7635         estimate D2E/DX2                !
 ! D81   D(24,8,10,27)          54.057          estimate D2E/DX2                !
 ! D82   D(8,10,11,3)          -54.6975         estimate D2E/DX2                !
 ! D83   D(8,10,11,28)        -172.3326         estimate D2E/DX2                !
 ! D84   D(8,10,11,29)          67.2315         estimate D2E/DX2                !
 ! D85   D(26,10,11,3)        -176.8792         estimate D2E/DX2                !
 ! D86   D(26,10,11,28)         65.4857         estimate D2E/DX2                !
 ! D87   D(26,10,11,29)        -54.9502         estimate D2E/DX2                !
 ! D88   D(27,10,11,3)          65.9288         estimate D2E/DX2                !
 ! D89   D(27,10,11,28)        -51.7063         estimate D2E/DX2                !
 ! D90   D(27,10,11,29)       -172.1422         estimate D2E/DX2                !
 --------------------------------------------------------------------------------
 Trust Radius=3.00D-01 FncErr=1.00D-07 GrdErr=1.00D-06 EigMax=2.50D+02 EigMin=1.00D-04
 Number of steps in this run=    186 maximum allowed number of steps=    186.
 GradGradGradGradGradGradGradGradGradGradGradGradGradGradGradGradGradGrad

                          Input orientation:                          
 ---------------------------------------------------------------------
 Center     Atomic      Atomic             Coordinates (Angstroms)
 Number     Number       Type             X           Y           Z
 ---------------------------------------------------------------------
      1          6           0        1.112584   -0.272683   -0.657136
      2          6           0        3.726240    0.024854    0.707167
      3          8           0       -2.188106   -0.648427   -1.163581
      4          6           0        1.956729   -1.370763   -0.008852
      5          6           0        1.778372    1.090578   -0.441049
      6          8           0       -0.191341   -0.317732   -0.095951
      7          6           0       -1.841659    1.441449   -0.010862
      8          6           0       -2.640192    0.922080    1.185404
      9          6           0       -1.220444    0.307201   -0.815359
     10          6           0       -3.642603   -0.131154    0.714627
     11          6           0       -2.930145   -1.207449   -0.086644
     12          6           0        3.296927    0.923337   -0.458410
     13          8           0        2.694458   -0.874733    1.085814
     14          1           0        1.032157   -0.489178   -1.717619
     15          1           0        4.617565   -0.542414    0.456061
     16          1           0        3.935095    0.614984    1.589361
     17          1           0        1.323558   -2.162152    0.364967
     18          1           0        2.637250   -1.795468   -0.740459
     19          1           0        1.468605    1.480898    0.523245
     20          1           0        1.454280    1.797651   -1.196921
     21          1           0       -1.057272    2.121737    0.301321
     22          1           0       -2.503422    1.989199   -0.676927
     23          1           0       -1.969034    0.485412    1.920491
     24          1           0       -3.151408    1.746336    1.673154
     25          1           0       -0.835187    0.672838   -1.755321
     26          1           0       -4.149885   -0.593890    1.556430
     27          1           0       -4.402135    0.335500    0.091571
     28          1           0       -3.631379   -1.891937   -0.543387
     29          1           0       -2.264212   -1.780983    0.549171
     30          1           0        3.605889    0.490788   -1.405838
     31          1           0        3.794585    1.883109   -0.372874
 ---------------------------------------------------------------------
                    Distance matrix (angstroms):
                    1          2          3          4          5
     1  C    0.000000
     2  C    2.963283   0.000000
     3  O    3.360391   6.239591   0.000000
     4  C    1.529259   2.364656   4.362892   0.000000
     5  C    1.532465   2.499671   4.390802   2.505355   0.000000
     6  O    1.420274   4.013702   2.288288   2.393881   2.445853
     7  C    3.476129   5.789975   2.411715   4.726129   3.662348
     8  C    4.348073   6.447106   2.861574   5.273998   4.711417
     9  C    2.409216   5.183386   1.403871   3.682451   3.121968
    10  C    4.951118   7.370498   2.431213   5.780361   5.675842
    11  C    4.188425   6.815876   1.422294   4.890221   5.251349
    12  C    2.498261   1.533020   5.749200   2.694648   1.527835
    13  O    2.429540   1.420283   5.380560   1.410171   2.651975
    14  H    1.085340   3.660860   3.271454   2.133521   2.163815
    15  H    3.687391   1.085959   6.996545   2.825306   3.395951
    16  H    3.715006   1.081730   6.831434   3.226671   3.000035
    17  H    2.158541   3.266952   4.118204   1.080251   3.381829
    18  H    2.156484   2.568091   4.977830   1.085694   3.025984
    19  H    2.143618   2.692732   4.555320   2.941660   1.085435
    20  H    2.166658   3.454007   4.387640   3.420937   1.084588
    21  H    3.370484   5.238666   3.331446   4.623631   3.107294
    22  H    4.265208   6.677054   2.700616   5.623932   4.381429
    23  H    4.088427   5.841268   3.293187   4.751775   4.470587
    24  H    5.261969   7.155325   3.835350   6.215989   5.403943
    25  H    2.427722   5.224016   1.981486   3.875726   2.955082
    26  H    5.718097   7.945907   3.354104   6.351722   6.478548
    27  H    5.598444   8.157569   2.728634   6.584571   6.249199
    28  H    5.013991   7.705357   2.003496   5.637757   6.178291
    29  H    3.890102   6.258716   2.054749   4.277384   5.056568
    30  H    2.712934   2.167111   5.909897   2.852485   2.151833
    31  H    3.452734   2.150412   6.544195   3.754718   2.167457
                    6          7          8          9         10
     6  O    0.000000
     7  C    2.413609   0.000000
     8  C    3.029171   1.529200   0.000000
     9  C    1.402548   1.523037   2.529192   0.000000
    10  C    3.550079   2.498562   1.528320   2.898252   0.000000
    11  C    2.879710   2.864822   2.497413   2.397555   1.519224
    12  C    3.720167   5.183995   6.160480   4.573147   7.116533
    13  O    3.167752   5.209967   5.630004   4.509754   6.391325
    14  H    2.038663   3.859943   4.889309   2.553919   5.281797
    15  H    4.845697   6.773131   7.439874   6.034957   8.274441
    16  H    4.553868   6.051004   6.594838   5.697104   7.664424
    17  H    2.430895   4.811007   5.088901   3.736686   5.376799
    18  H    3.255767   5.574098   6.240626   4.394159   6.657610
    19  H    2.524657   3.353308   4.199160   3.224967   5.362815
    20  H    2.897421   3.520913   4.817343   3.085641   5.775164
    21  H    2.618906   1.084211   2.174032   2.136853   3.454023
    22  H    3.317406   1.087016   2.150750   2.119980   2.780297
    23  H    2.805579   2.158786   1.086961   2.842010   2.152927
    24  H    4.018968   2.155066   1.085652   3.463009   2.164490
    25  H    2.036977   2.155664   3.459484   1.079649   3.824739
    26  H    4.298453   3.453537   2.171405   3.875432   1.086320
    27  H    4.265286   2.790995   2.155224   3.308547   1.087591
    28  H    3.809486   3.820752   3.448168   3.274566   2.164043
    29  H    2.618030   3.297917   2.802267   2.704054   2.156217
    30  H    4.097373   5.703113   6.775993   4.865785   7.577851
    31  H    4.561578   5.665100   6.690154   5.275395   7.781496
                   11         12         13         14         15
    11  C    0.000000
    12  C    6.592032   0.000000
    13  O    5.755130   2.445537   0.000000
    14  H    4.344632   2.951269   3.281941   0.000000
    15  H    7.596363   2.174573   2.050699   4.193193   0.000000
    16  H    7.298067   2.166958   2.002997   4.536776   1.757755
    17  H    4.382853   3.753982   2.014059   2.687177   3.671829
    18  H    5.636411   2.811872   2.046045   2.288571   2.631245
    19  H    5.191163   2.148786   2.714442   3.015486   3.743562
    20  H    5.430150   2.169141   3.727004   2.383045   4.267860
    21  H    3.839486   4.579564   4.865156   3.906240   6.270998
    22  H    3.278580   5.901513   6.190906   4.441364   7.642067
    23  H    2.796087   5.794937   4.928979   4.815892   6.825267
    24  H    3.445387   6.841193   6.433438   5.830702   8.190033
    25  H    3.272432   4.338098   4.788049   2.199699   6.008290
    26  H    2.136332   7.862351   6.866250   6.130573   8.836382
    27  H    2.139908   7.741033   7.267380   5.786605   9.069651
    28  H    1.081142   7.478931   6.610992   5.009503   8.418146
    29  H    1.084744   6.265368   5.069288   4.203944   6.992966
    30  H    6.880699   1.086359   2.983904   2.771577   2.357470
    31  H    7.406448   1.084501   3.308133   3.881635   2.692135
                   16         17         18         19         20
    16  H    0.000000
    17  H    4.003967   0.000000
    18  H    3.594822   1.755623   0.000000
    19  H    2.823116   3.649370   3.700980   0.000000
    20  H    3.913632   4.258711   3.810286   1.749145   0.000000
    21  H    5.371506   4.901439   5.484459   2.615335   2.942389
    22  H    6.962688   5.741518   6.383905   4.180404   3.996309
    23  H    5.914827   4.502267   5.787998   3.841959   4.812412
    24  H    7.176733   6.083827   7.202671   4.768361   5.427000
    25  H    5.826305   4.146441   4.379532   3.339503   2.611259
    26  H    8.174923   5.817010   7.265307   6.077799   6.686335
    27  H    8.475311   6.252725   7.401773   5.996988   6.172171
    28  H    8.251351   5.044752   6.272468   6.206735   6.316969
    29  H    6.727114   3.612660   5.068302   4.957264   5.448178
    30  H    3.015795   3.922101   2.570595   3.044612   2.526056
    31  H    2.340566   4.797345   3.873819   2.524873   2.482616
                   21         22         23         24         25
    21  H    0.000000
    22  H    1.750967   0.000000
    23  H    2.476001   3.048529   0.000000
    24  H    2.531454   2.449847   1.746171   0.000000
    25  H    2.525551   2.383012   3.851277   4.274543   0.000000
    26  H    4.302811   3.790920   2.460395   2.547006   4.853815
    27  H    3.797729   2.632569   3.047524   2.460931   4.030871
    28  H    4.842431   4.043926   3.806031   4.287243   3.983158
    29  H    4.092598   3.971752   2.665370   3.806893   3.657053
    30  H    5.226802   6.332474   6.491861   7.531112   4.458524
    31  H    4.904284   6.306235   6.358646   7.242358   4.981034
                   26         27         28         29         30
    26  H    0.000000
    27  H    1.753057   0.000000
    28  H    2.522500   2.441047   0.000000
    29  H    2.445306   3.042961   1.753608   0.000000
    30  H    8.372789   8.148300   7.668067   6.590985   0.000000
    31  H    8.542385   8.354461   8.332166   7.140361   1.743898
                   31
    31  H    0.000000
 Stoichiometry    C10H18O3
 Framework group  C1[X(C10H18O3)]
 Deg. of freedom    87
 Full point group                 C1      NOp   1
 Largest Abelian subgroup         C1      NOp   1
 Largest concise Abelian subgroup C1      NOp   1
                         Standard orientation:                         
 ---------------------------------------------------------------------
 Center     Atomic      Atomic             Coordinates (Angstroms)
 Number     Number       Type             X           Y           Z
 ---------------------------------------------------------------------
      1          6           0        1.112584   -0.272683   -0.657136
      2          6           0        3.726240    0.024854    0.707167
      3          8           0       -2.188106   -0.648427   -1.163581
      4          6           0        1.956729   -1.370763   -0.008852
      5          6           0        1.778372    1.090578   -0.441049
      6          8           0       -0.191341   -0.317732   -0.095951
      7          6           0       -1.841659    1.441449   -0.010862
      8          6           0       -2.640192    0.922080    1.185404
      9          6           0       -1.220444    0.307201   -0.815359
     10          6           0       -3.642603   -0.131154    0.714627
     11          6           0       -2.930145   -1.207449   -0.086644
     12          6           0        3.296927    0.923337   -0.458410
     13          8           0        2.694458   -0.874733    1.085814
     14          1           0        1.032157   -0.489178   -1.717619
     15          1           0        4.617565   -0.542414    0.456061
     16          1           0        3.935095    0.614984    1.589361
     17          1           0        1.323558   -2.162152    0.364967
     18          1           0        2.637250   -1.795468   -0.740459
     19          1           0        1.468605    1.480898    0.523245
     20          1           0        1.454280    1.797651   -1.196921
     21          1           0       -1.057272    2.121737    0.301321
     22          1           0       -2.503422    1.989199   -0.676927
     23          1           0       -1.969034    0.485412    1.920491
     24          1           0       -3.151408    1.746336    1.673154
     25          1           0       -0.835187    0.672838   -1.755321
     26          1           0       -4.149885   -0.593890    1.556430
     27          1           0       -4.402135    0.335500    0.091571
     28          1           0       -3.631379   -1.891937   -0.543387
     29          1           0       -2.264212   -1.780983    0.549171
     30          1           0        3.605889    0.490788   -1.405838
     31          1           0        3.794585    1.883109   -0.372874
 ---------------------------------------------------------------------
 Rotational constants (GHZ):           1.8635744           0.4007379           0.3857340
 Standard basis: 6-311++G(2d,2p) (5D, 7F)
 There are   557 symmetry adapted cartesian basis functions of A   symmetry.
 There are   531 symmetry adapted basis functions of A   symmetry.
   531 basis functions,   762 primitive gaussians,   557 cartesian basis functions
    51 alpha electrons       51 beta electrons
       nuclear repulsion energy       890.7775454444 Hartrees.
 NAtoms=   31 NActive=   31 NUniq=   31 SFac= 1.00D+00 NAtFMM=   60 NAOKFM=F Big=F
 Integral buffers will be    131072 words long.
 Raffenetti 2 integral format.
 Two-electron integral symmetry is turned on.
 ------------------------------------------------------------------------------
 Polarizable Continuum Model (PCM)
 =================================
 Model                : PCM.
 Atomic radii         : UFF (Universal Force Field).
 Polarization charges : Total charges.
 Charge compensation  : None.
 Solution method      : On-the-fly selection.
 Cavity type          : Scaled VdW (van der Waals Surface) (Alpha=1.100).
 Cavity algorithm     : GePol (No added spheres)
                        Default sphere list used, NSphG=   31.
                        Lebedev-Laikov grids with approx.  5.0 points / Ang**2.
                        Smoothing algorithm: York/Karplus (Gamma=1.0000).
                        Polarization charges: spherical gaussians, with
                                              point-specific exponents (IZeta= 3).
                        Self-potential: point-specific (ISelfS= 7).
                        Self-field    : sphere-specific E.n sum rule (ISelfD= 2).
 1st derivatives      : Analytical E(r).r(x)/FMM algorithm (CHGder, D1EAlg=3).
                        Cavity 1st derivative terms included.
 Solvent              : Water, Eps=  78.355300 Eps(inf)=   1.777849
 ------------------------------------------------------------------------------
 One-electron integrals computed using PRISM.
 NBasis=   531 RedAO= T EigKep=  4.58D-06  NBF=   531
 NBsUse=   531 1.00D-06 EigRej= -1.00D+00 NBFU=   531
 ExpMin= 3.60D-02 ExpMax= 8.59D+03 ExpMxC= 1.30D+03 IAcc=3 IRadAn=         5 AccDes= 0.00D+00
 Harris functional with IExCor= 1009 and IRadAn=       5 diagonalized for initial guess.
 HarFok:  IExCor= 1009 AccDes= 0.00D+00 IRadAn=         5 IDoV= 1 UseB2=F ITyADJ=14
 ICtDFT=  3500011 ScaDFX=  1.000000  1.000000  1.000000  1.000000
 FoFCou: FMM=F IPFlag=           0 FMFlag=      100000 FMFlg1=           0
         NFxFlg=           0 DoJE=T BraDBF=F KetDBF=T FulRan=T
         wScrn=  0.000000 ICntrl=       500 IOpCl=  0 I1Cent=   200000004 NGrid=           0
         NMat0=    1 NMatS0=      1 NMatT0=    0 NMatD0=    1 NMtDS0=    0 NMtDT0=    0
 Petite list used in FoFCou.
 Requested convergence on RMS density matrix=1.00D-08 within 128 cycles.
 Requested convergence on MAX density matrix=1.00D-06.
 Requested convergence on             energy=1.00D-06.
 No special actions if energy rises.
 Inv3:  Mode=1 IEnd=    12644427.
 Iteration    1 A*A^-1 deviation from unit magnitude is 4.11D-15 for   2043.
 Iteration    1 A*A^-1 deviation from orthogonality  is 2.13D-15 for   1790    127.
 Iteration    1 A^-1*A deviation from unit magnitude is 4.11D-15 for   2043.
 Iteration    1 A^-1*A deviation from orthogonality  is 1.47D-15 for   2047   1402.
 Error on total polarization charges =  0.01482
 SCF Done:  E(RM062X) =  -617.491139118     A.U. after   12 cycles
            NFock= 12  Conv=0.49D-08     -V/T= 2.0035

 **********************************************************************

            Population analysis using the SCF density.

 **********************************************************************

 Orbital symmetries:
       Occupied  (A) (A) (A) (A) (A) (A) (A) (A) (A) (A) (A) (A)
                 (A) (A) (A) (A) (A) (A) (A) (A) (A) (A) (A) (A)
                 (A) (A) (A) (A) (A) (A) (A) (A) (A) (A) (A) (A)
                 (A) (A) (A) (A) (A) (A) (A) (A) (A) (A) (A) (A)
                 (A) (A) (A)
       Virtual   (A) (A) (A) (A) (A) (A) (A) (A) (A) (A) (A) (A)
                 (A) (A) (A) (A) (A) (A) (A) (A) (A) (A) (A) (A)
                 (A) (A) (A) (A) (A) (A) (A) (A) (A) (A) (A) (A)
                 (A) (A) (A) (A) (A) (A) (A) (A) (A) (A) (A) (A)
                 (A) (A) (A) (A) (A) (A) (A) (A) (A) (A) (A) (A)
                 (A) (A) (A) (A) (A) (A) (A) (A) (A) (A) (A) (A)
                 (A) (A) (A) (A) (A) (A) (A) (A) (A) (A) (A) (A)
                 (A) (A) (A) (A) (A) (A) (A) (A) (A) (A) (A) (A)
                 (A) (A) (A) (A) (A) (A) (A) (A) (A) (A) (A) (A)
                 (A) (A) (A) (A) (A) (A) (A) (A) (A) (A) (A) (A)
                 (A) (A) (A) (A) (A) (A) (A) (A) (A) (A) (A) (A)
                 (A) (A) (A) (A) (A) (A) (A) (A) (A) (A) (A) (A)
                 (A) (A) (A) (A) (A) (A) (A) (A) (A) (A) (A) (A)
                 (A) (A) (A) (A) (A) (A) (A) (A) (A) (A) (A) (A)
                 (A) (A) (A) (A) (A) (A) (A) (A) (A) (A) (A) (A)
                 (A) (A) (A) (A) (A) (A) (A) (A) (A) (A) (A) (A)
                 (A) (A) (A) (A) (A) (A) (A) (A) (A) (A) (A) (A)
                 (A) (A) (A) (A) (A) (A) (A) (A) (A) (A) (A) (A)
                 (A) (A) (A) (A) (A) (A) (A) (A) (A) (A) (A) (A)
                 (A) (A) (A) (A) (A) (A) (A) (A) (A) (A) (A) (A)
                 (A) (A) (A) (A) (A) (A) (A) (A) (A) (A) (A) (A)
                 (A) (A) (A) (A) (A) (A) (A) (A) (A) (A) (A) (A)
                 (A) (A) (A) (A) (A) (A) (A) (A) (A) (A) (A) (A)
                 (A) (A) (A) (A) (A) (A) (A) (A) (A) (A) (A) (A)
                 (A) (A) (A) (A) (A) (A) (A) (A) (A) (A) (A) (A)
                 (A) (A) (A) (A) (A) (A) (A) (A) (A) (A) (A) (A)
                 (A) (A) (A) (A) (A) (A) (A) (A) (A) (A) (A) (A)
                 (A) (A) (A) (A) (A) (A) (A) (A) (A) (A) (A) (A)
                 (A) (A) (A) (A) (A) (A) (A) (A) (A) (A) (A) (A)
                 (A) (A) (A) (A) (A) (A) (A) (A) (A) (A) (A) (A)
                 (A) (A) (A) (A) (A) (A) (A) (A) (A) (A) (A) (A)
                 (A) (A) (A) (A) (A) (A) (A) (A) (A) (A) (A) (A)
                 (A) (A) (A) (A) (A) (A) (A) (A) (A) (A) (A) (A)
                 (A) (A) (A) (A) (A) (A) (A) (A) (A) (A) (A) (A)
                 (A) (A) (A) (A) (A) (A) (A) (A) (A) (A) (A) (A)
                 (A) (A) (A) (A) (A) (A) (A) (A) (A) (A) (A) (A)
                 (A) (A) (A) (A) (A) (A) (A) (A) (A) (A) (A) (A)
                 (A) (A) (A) (A) (A) (A) (A) (A) (A) (A) (A) (A)
                 (A) (A) (A) (A) (A) (A) (A) (A) (A) (A) (A) (A)
                 (A) (A) (A) (A) (A) (A) (A) (A) (A) (A) (A) (A)
 The electronic state is 1-A.
 Alpha  occ. eigenvalues --  -19.62678 -19.62645 -19.62618 -10.63401 -10.58991
 Alpha  occ. eigenvalues --  -10.57940 -10.57853 -10.57572 -10.53306 -10.53208
 Alpha  occ. eigenvalues --  -10.52933 -10.52835 -10.52713  -1.19954  -1.16558
 Alpha  occ. eigenvalues --   -1.13428  -0.90523  -0.89796  -0.87452  -0.84649
 Alpha  occ. eigenvalues --   -0.75104  -0.74132  -0.73357  -0.71686  -0.65006
 Alpha  occ. eigenvalues --   -0.63048  -0.60097  -0.59285  -0.57422  -0.56027
 Alpha  occ. eigenvalues --   -0.55423  -0.53386  -0.52668  -0.50705  -0.49552
 Alpha  occ. eigenvalues --   -0.47230  -0.46665  -0.46242  -0.45105  -0.44929
 Alpha  occ. eigenvalues --   -0.44033  -0.42673  -0.41682  -0.41120  -0.39993
 Alpha  occ. eigenvalues --   -0.38349  -0.37222  -0.36580  -0.33544  -0.33445
 Alpha  occ. eigenvalues --   -0.31864
 Alpha virt. eigenvalues --   -0.00124   0.00757   0.00881   0.01052   0.02222
 Alpha virt. eigenvalues --    0.02455   0.02608   0.03439   0.03583   0.04399
 Alpha virt. eigenvalues --    0.04476   0.04659   0.05492   0.05743   0.06950
 Alpha virt. eigenvalues --    0.07324   0.07811   0.08278   0.08752   0.09163
 Alpha virt. eigenvalues --    0.09527   0.10243   0.11288   0.11750   0.12027
 Alpha virt. eigenvalues --    0.12266   0.12563   0.12591   0.13364   0.13507
 Alpha virt. eigenvalues --    0.13568   0.13951   0.14127   0.14296   0.14581
 Alpha virt. eigenvalues --    0.15070   0.15312   0.15500   0.15662   0.16152
 Alpha virt. eigenvalues --    0.16674   0.16834   0.16941   0.17345   0.17637
 Alpha virt. eigenvalues --    0.18196   0.18415   0.18719   0.19099   0.19393
 Alpha virt. eigenvalues --    0.19847   0.20158   0.20613   0.20937   0.21158
 Alpha virt. eigenvalues --    0.21484   0.22251   0.22671   0.22862   0.23719
 Alpha virt. eigenvalues --    0.24550   0.24900   0.25824   0.26429   0.26877
 Alpha virt. eigenvalues --    0.27421   0.28219   0.28490   0.28896   0.29364
 Alpha virt. eigenvalues --    0.29902   0.30072   0.31700   0.31919   0.32154
 Alpha virt. eigenvalues --    0.32766   0.32859   0.33262   0.33624   0.34172
 Alpha virt. eigenvalues --    0.35002   0.35601   0.35705   0.36149   0.36441
 Alpha virt. eigenvalues --    0.36770   0.37228   0.37803   0.38073   0.38528
 Alpha virt. eigenvalues --    0.38699   0.38929   0.39303   0.39710   0.40591
 Alpha virt. eigenvalues --    0.41904   0.42133   0.43721   0.44412   0.45609
 Alpha virt. eigenvalues --    0.47625   0.48089   0.49227   0.50113   0.51254
 Alpha virt. eigenvalues --    0.51452   0.53231   0.53656   0.54068   0.54904
 Alpha virt. eigenvalues --    0.55577   0.56611   0.57143   0.58722   0.58849
 Alpha virt. eigenvalues --    0.59268   0.59877   0.60170   0.60471   0.61420
 Alpha virt. eigenvalues --    0.61502   0.61995   0.62685   0.62950   0.63391
 Alpha virt. eigenvalues --    0.64580   0.65184   0.65695   0.66401   0.66550
 Alpha virt. eigenvalues --    0.67019   0.68182   0.69005   0.69322   0.69910
 Alpha virt. eigenvalues --    0.70483   0.70836   0.71746   0.72561   0.73335
 Alpha virt. eigenvalues --    0.73686   0.73822   0.75064   0.75103   0.75888
 Alpha virt. eigenvalues --    0.76237   0.76604   0.77240   0.78216   0.79915
 Alpha virt. eigenvalues --    0.80381   0.81484   0.83522   0.85173   0.86224
 Alpha virt. eigenvalues --    0.86384   0.86973   0.87554   0.88355   0.90368
 Alpha virt. eigenvalues --    0.91060   0.92387   0.92775   0.93540   0.94263
 Alpha virt. eigenvalues --    0.96698   0.98809   0.99521   1.01564   1.02206
 Alpha virt. eigenvalues --    1.02972   1.04151   1.05111   1.05830   1.06289
 Alpha virt. eigenvalues --    1.06506   1.08978   1.09550   1.10632   1.11269
 Alpha virt. eigenvalues --    1.13134   1.14548   1.14764   1.16747   1.17087
 Alpha virt. eigenvalues --    1.17806   1.18056   1.18863   1.20357   1.21114
 Alpha virt. eigenvalues --    1.21698   1.22312   1.22668   1.23689   1.24097
 Alpha virt. eigenvalues --    1.25078   1.25664   1.26124   1.26805   1.26883
 Alpha virt. eigenvalues --    1.27907   1.28270   1.29139   1.29560   1.30859
 Alpha virt. eigenvalues --    1.32008   1.33114   1.33219   1.34511   1.35077
 Alpha virt. eigenvalues --    1.35350   1.36931   1.37174   1.38028   1.38500
 Alpha virt. eigenvalues --    1.39214   1.39717   1.40217   1.40620   1.41718
 Alpha virt. eigenvalues --    1.42082   1.42792   1.43402   1.44044   1.44811
 Alpha virt. eigenvalues --    1.45630   1.45815   1.46845   1.47125   1.47787
 Alpha virt. eigenvalues --    1.48803   1.49186   1.51219   1.51940   1.52254
 Alpha virt. eigenvalues --    1.53164   1.53180   1.54037   1.54622   1.55254
 Alpha virt. eigenvalues --    1.56154   1.56747   1.56987   1.58588   1.58798
 Alpha virt. eigenvalues --    1.59374   1.60135   1.60571   1.61317   1.61761
 Alpha virt. eigenvalues --    1.63089   1.64333   1.64888   1.65553   1.66032
 Alpha virt. eigenvalues --    1.66369   1.67425   1.68102   1.68684   1.70032
 Alpha virt. eigenvalues --    1.72896   1.73278   1.74263   1.76430   1.77574
 Alpha virt. eigenvalues --    1.77979   1.79485   1.81020   1.82115   1.84004
 Alpha virt. eigenvalues --    1.85096   1.87202   1.88100   1.94322   1.98828
 Alpha virt. eigenvalues --    2.04249   2.06903   2.10246   2.13119   2.18580
 Alpha virt. eigenvalues --    2.22427   2.25021   2.27749   2.31384   2.40613
 Alpha virt. eigenvalues --    2.42406   2.43297   2.44225   2.46401   2.51312
 Alpha virt. eigenvalues --    2.54845   2.76400   2.77717   2.80148   2.82380
 Alpha virt. eigenvalues --    2.83283   2.87278   2.89715   2.91538   2.93716
 Alpha virt. eigenvalues --    2.94136   2.96983   2.98102   3.03174   3.03556
 Alpha virt. eigenvalues --    3.04175   3.06213   3.08558   3.08900   3.10959
 Alpha virt. eigenvalues --    3.12809   3.15334   3.16535   3.18038   3.22468
 Alpha virt. eigenvalues --    3.24330   3.29810   3.31851   3.32000   3.33750
 Alpha virt. eigenvalues --    3.34596   3.36018   3.36806   3.37674   3.40173
 Alpha virt. eigenvalues --    3.40778   3.42031   3.43773   3.45078   3.45290
 Alpha virt. eigenvalues --    3.45925   3.48411   3.48740   3.50669   3.51707
 Alpha virt. eigenvalues --    3.52334   3.52772   3.53922   3.54735   3.55680
 Alpha virt. eigenvalues --    3.56423   3.57332   3.57856   3.58649   3.59773
 Alpha virt. eigenvalues --    3.60043   3.61250   3.64444   3.64542   3.64950
 Alpha virt. eigenvalues --    3.66100   3.66772   3.67857   3.68580   3.69089
 Alpha virt. eigenvalues --    3.70804   3.71254   3.72323   3.72528   3.74230
 Alpha virt. eigenvalues --    3.74498   3.75768   3.77022   3.79019   3.79381
 Alpha virt. eigenvalues --    3.79770   3.80418   3.82310   3.82670   3.84082
 Alpha virt. eigenvalues --    3.86400   3.88218   3.89335   3.90248   3.92256
 Alpha virt. eigenvalues --    3.92915   3.94011   3.95961   3.97390   4.00071
 Alpha virt. eigenvalues --    4.00863   4.01186   4.01774   4.02688   4.03188
 Alpha virt. eigenvalues --    4.04776   4.05374   4.06282   4.07350   4.08026
 Alpha virt. eigenvalues --    4.08095   4.09209   4.09795   4.11336   4.11616
 Alpha virt. eigenvalues --    4.11838   4.12871   4.13293   4.14881   4.14923
 Alpha virt. eigenvalues --    4.15995   4.16601   4.18099   4.18864   4.20370
 Alpha virt. eigenvalues --    4.21935   4.22610   4.24039   4.25658   4.26729
 Alpha virt. eigenvalues --    4.27072   4.30861   4.31432   4.31619   4.32369
 Alpha virt. eigenvalues --    4.33352   4.33756   4.34761   4.37943   4.39632
 Alpha virt. eigenvalues --    4.41821   4.42082   4.45378   4.46293   4.48544
 Alpha virt. eigenvalues --    4.58914   4.59442   4.72695   4.75631   4.81963
 Alpha virt. eigenvalues --    4.85856   4.92972   4.95547   4.99707   5.01558
 Alpha virt. eigenvalues --    5.04954   5.06939   5.08010   5.11808   5.12295
 Alpha virt. eigenvalues --    5.13786   5.14882   5.16226   5.32163   5.36492
 Alpha virt. eigenvalues --    5.42248   5.57429   5.60298   5.65151   5.84968
 Alpha virt. eigenvalues --    5.88054   6.05281   7.01488   7.05035   7.07184
 Alpha virt. eigenvalues --    7.09653   7.10911   7.11018   7.13977   7.14634
 Alpha virt. eigenvalues --    7.25669   7.35223   7.39416   7.44252   7.53203
 Alpha virt. eigenvalues --    7.56780   7.62420  23.95126  23.99237  24.05834
 Alpha virt. eigenvalues --   24.06338  24.10647  24.11614  24.13084  24.15385
 Alpha virt. eigenvalues --   24.16771  24.21362  50.17390  50.18122  50.25235
          Condensed to atoms (all electrons):
               1          2          3          4          5          6
     1  C    8.380927   0.091741   0.014574  -0.698521  -1.439476  -0.029834
     2  C    0.091741   5.567279   0.000375  -0.206176   0.030985   0.012217
     3  O    0.014574   0.000375   8.306123  -0.012955  -0.013291  -0.057162
     4  C   -0.698521  -0.206176  -0.012955   6.132726   0.228624  -0.080619
     5  C   -1.439476   0.030985  -0.013291   0.228624   6.864579  -0.059256
     6  O   -0.029834   0.012217  -0.057162  -0.080619  -0.059256   8.308602
     7  C    0.317656   0.005503   0.059950  -0.131717  -0.060069   0.030776
     8  C   -0.038773   0.000953   0.035970   0.022907   0.018839  -0.050311
     9  C   -1.082593   0.029065   0.105687   0.103440   0.305775   0.242920
    10  C    0.042161   0.000044  -0.077680   0.006030  -0.028058  -0.031905
    11  C    0.085827  -0.001312   0.107172  -0.025442  -0.002221   0.018357
    12  C    0.110087  -0.221764   0.001517   0.174251  -0.428492  -0.021104
    13  O   -0.013014   0.098655   0.000137   0.102724  -0.033317   0.023006
    14  H    0.561280  -0.008807   0.010109  -0.057741  -0.111970  -0.033091
    15  H    0.047696   0.503660   0.000135  -0.022621  -0.038285  -0.000701
    16  H   -0.017136   0.425534  -0.000031   0.012864   0.002247   0.002309
    17  H    0.017745   0.011118  -0.003115   0.400631  -0.020432  -0.009410
    18  H   -0.073267   0.033552   0.000519   0.445981   0.024278   0.011427
    19  H   -0.092302  -0.033775  -0.002549  -0.016745   0.480343  -0.000321
    20  H   -0.020945  -0.002978   0.003985   0.003738   0.386346   0.003150
    21  H   -0.024997   0.001258   0.011620  -0.002909   0.042655   0.001354
    22  H   -0.002428   0.000183  -0.011607  -0.003705  -0.003340   0.012292
    23  H    0.000139   0.001000   0.000390  -0.004391  -0.001228   0.005983
    24  H    0.003746  -0.000057   0.001184  -0.000317  -0.000410  -0.000327
    25  H    0.047629   0.002504  -0.082088  -0.001144  -0.010572  -0.027848
    26  H    0.002496  -0.000064   0.009375   0.000462   0.000162  -0.000194
    27  H   -0.005610   0.000032  -0.007033   0.000040   0.000286  -0.000503
    28  H    0.006753   0.000016  -0.074065  -0.002197  -0.001340  -0.000329
    29  H   -0.022554   0.000593  -0.036901   0.001501   0.005963  -0.002833
    30  H   -0.060316  -0.074314  -0.000234  -0.010573   0.023321   0.002953
    31  H   -0.008841  -0.016975   0.000078   0.016294  -0.023488  -0.002572
               7          8          9         10         11         12
     1  C    0.317656  -0.038773  -1.082593   0.042161   0.085827   0.110087
     2  C    0.005503   0.000953   0.029065   0.000044  -0.001312  -0.221764
     3  O    0.059950   0.035970   0.105687  -0.077680   0.107172   0.001517
     4  C   -0.131717   0.022907   0.103440   0.006030  -0.025442   0.174251
     5  C   -0.060069   0.018839   0.305775  -0.028058  -0.002221  -0.428492
     6  O    0.030776  -0.050311   0.242920  -0.031905   0.018357  -0.021104
     7  C    7.131718  -0.198564  -1.709946  -0.286184   0.273312  -0.036116
     8  C   -0.198564   5.629818   0.097186   0.032854  -0.004183   0.001233
     9  C   -1.709946   0.097186   8.116635   0.322912  -0.507603  -0.119782
    10  C   -0.286184   0.032854   0.322912   5.792192  -0.084381  -0.002413
    11  C    0.273312  -0.004183  -0.507603  -0.084381   5.496076   0.008050
    12  C   -0.036116   0.001233  -0.119782  -0.002413   0.008050   6.160143
    13  O    0.007042   0.001701  -0.018230  -0.000167   0.000072   0.027135
    14  H   -0.000685  -0.001190  -0.037714   0.006627  -0.005037   0.030602
    15  H   -0.000246   0.000062  -0.005218   0.000176   0.000041  -0.083291
    16  H    0.002080   0.000053   0.002542  -0.000340  -0.000077  -0.007900
    17  H   -0.009826   0.002121  -0.013027  -0.000706   0.001954   0.011006
    18  H    0.007300   0.000060   0.002716  -0.000545   0.001032  -0.052275
    19  H   -0.036304   0.009964   0.034547   0.002540  -0.003447   0.011823
    20  H    0.012399   0.001567  -0.001267  -0.001406   0.001463   0.007422
    21  H    0.479562  -0.031564  -0.097388  -0.027393   0.011283  -0.011111
    22  H    0.566340  -0.033805  -0.140819  -0.026439   0.017332   0.000628
    23  H   -0.024875   0.511864  -0.039905  -0.081369   0.003351  -0.000340
    24  H   -0.032861   0.418060  -0.004277  -0.015948   0.008480   0.000083
    25  H   -0.114049  -0.016431   0.486688   0.013688  -0.015578  -0.006490
    26  H   -0.009802  -0.045130   0.016901   0.435539  -0.036695   0.000156
    27  H   -0.017503  -0.018758   0.007514   0.485975  -0.079905  -0.000471
    28  H    0.005646  -0.000159  -0.004662  -0.029382   0.433315   0.000394
    29  H    0.021559  -0.000859   0.002471  -0.086582   0.485369  -0.001862
    30  H    0.003031   0.000094   0.002862  -0.000391   0.000046   0.481799
    31  H    0.000527  -0.000288  -0.006254  -0.000112   0.000327   0.402314
              13         14         15         16         17         18
     1  C   -0.013014   0.561280   0.047696  -0.017136   0.017745  -0.073267
     2  C    0.098655  -0.008807   0.503660   0.425534   0.011118   0.033552
     3  O    0.000137   0.010109   0.000135  -0.000031  -0.003115   0.000519
     4  C    0.102724  -0.057741  -0.022621   0.012864   0.400631   0.445981
     5  C   -0.033317  -0.111970  -0.038285   0.002247  -0.020432   0.024278
     6  O    0.023006  -0.033091  -0.000701   0.002309  -0.009410   0.011427
     7  C    0.007042  -0.000685  -0.000246   0.002080  -0.009826   0.007300
     8  C    0.001701  -0.001190   0.000062   0.000053   0.002121   0.000060
     9  C   -0.018230  -0.037714  -0.005218   0.002542  -0.013027   0.002716
    10  C   -0.000167   0.006627   0.000176  -0.000340  -0.000706  -0.000545
    11  C    0.000072  -0.005037   0.000041  -0.000077   0.001954   0.001032
    12  C    0.027135   0.030602  -0.083291  -0.007900   0.011006  -0.052275
    13  O    8.365392   0.004067  -0.070632  -0.077052  -0.070633  -0.043567
    14  H    0.004067   0.437930   0.000655   0.001386  -0.003524  -0.007249
    15  H   -0.070632   0.000655   0.526735  -0.027616  -0.001357   0.009376
    16  H   -0.077052   0.001386  -0.027616   0.508901   0.000121  -0.003710
    17  H   -0.070633  -0.003524  -0.001357   0.000121   0.484975  -0.007385
    18  H   -0.043567  -0.007249   0.009376  -0.003710  -0.007385   0.473043
    19  H   -0.007279   0.001724  -0.004885   0.004559   0.003043  -0.001529
    20  H    0.002527   0.000123   0.002561  -0.002730  -0.000869   0.002063
    21  H    0.001027  -0.002453  -0.000124   0.000528  -0.001569   0.001062
    22  H   -0.000024   0.000823  -0.000036   0.000118  -0.000621   0.000082
    23  H    0.000786  -0.000170   0.000076  -0.000059  -0.000357   0.000352
    24  H    0.000046  -0.000070  -0.000009   0.000064   0.000122  -0.000028
    25  H   -0.001495  -0.007584  -0.000435  -0.000295   0.003525  -0.001869
    26  H    0.000000  -0.000180   0.000003  -0.000021   0.000494  -0.000037
    27  H    0.000001  -0.000111  -0.000002   0.000003  -0.000120   0.000016
    28  H   -0.000001  -0.000193   0.000013  -0.000014   0.000272   0.000158
    29  H    0.000312  -0.001281  -0.000086   0.000115  -0.002992   0.000652
    30  H    0.002055  -0.004272  -0.015125   0.008231  -0.001207  -0.006481
    31  H    0.009520  -0.002497   0.003153  -0.012512   0.001864  -0.000193
              19         20         21         22         23         24
     1  C   -0.092302  -0.020945  -0.024997  -0.002428   0.000139   0.003746
     2  C   -0.033775  -0.002978   0.001258   0.000183   0.001000  -0.000057
     3  O   -0.002549   0.003985   0.011620  -0.011607   0.000390   0.001184
     4  C   -0.016745   0.003738  -0.002909  -0.003705  -0.004391  -0.000317
     5  C    0.480343   0.386346   0.042655  -0.003340  -0.001228  -0.000410
     6  O   -0.000321   0.003150   0.001354   0.012292   0.005983  -0.000327
     7  C   -0.036304   0.012399   0.479562   0.566340  -0.024875  -0.032861
     8  C    0.009964   0.001567  -0.031564  -0.033805   0.511864   0.418060
     9  C    0.034547  -0.001267  -0.097388  -0.140819  -0.039905  -0.004277
    10  C    0.002540  -0.001406  -0.027393  -0.026439  -0.081369  -0.015948
    11  C   -0.003447   0.001463   0.011283   0.017332   0.003351   0.008480
    12  C    0.011823   0.007422  -0.011111   0.000628  -0.000340   0.000083
    13  O   -0.007279   0.002527   0.001027  -0.000024   0.000786   0.000046
    14  H    0.001724   0.000123  -0.002453   0.000823  -0.000170  -0.000070
    15  H   -0.004885   0.002561  -0.000124  -0.000036   0.000076  -0.000009
    16  H    0.004559  -0.002730   0.000528   0.000118  -0.000059   0.000064
    17  H    0.003043  -0.000869  -0.001569  -0.000621  -0.000357   0.000122
    18  H   -0.001529   0.002063   0.001062   0.000082   0.000352  -0.000028
    19  H    0.475366  -0.019982  -0.011480  -0.000353  -0.001572  -0.000452
    20  H   -0.019982   0.487795  -0.003061  -0.000403  -0.000063   0.000318
    21  H   -0.011480  -0.003061   0.511532  -0.005624   0.000348  -0.010573
    22  H   -0.000353  -0.000403  -0.005624   0.462372   0.004441  -0.004884
    23  H   -0.001572  -0.000063   0.000348   0.004441   0.456289  -0.007266
    24  H   -0.000452   0.000318  -0.010573  -0.004884  -0.007266   0.484729
    25  H    0.003700  -0.017417  -0.005621  -0.009201  -0.000277  -0.000329
    26  H    0.000219  -0.000135   0.000800  -0.003338  -0.003415  -0.009374
    27  H    0.000037   0.000020  -0.000546  -0.001287   0.000966  -0.002746
    28  H   -0.000007  -0.000090   0.001403   0.000438  -0.000832  -0.000192
    29  H   -0.000191   0.000222   0.000843  -0.001267  -0.002712  -0.000578
    30  H    0.000358  -0.005532   0.000502   0.000075  -0.000092   0.000062
    31  H   -0.000689  -0.010440   0.000978  -0.000121   0.000122  -0.000050
              25         26         27         28         29         30
     1  C    0.047629   0.002496  -0.005610   0.006753  -0.022554  -0.060316
     2  C    0.002504  -0.000064   0.000032   0.000016   0.000593  -0.074314
     3  O   -0.082088   0.009375  -0.007033  -0.074065  -0.036901  -0.000234
     4  C   -0.001144   0.000462   0.000040  -0.002197   0.001501  -0.010573
     5  C   -0.010572   0.000162   0.000286  -0.001340   0.005963   0.023321
     6  O   -0.027848  -0.000194  -0.000503  -0.000329  -0.002833   0.002953
     7  C   -0.114049  -0.009802  -0.017503   0.005646   0.021559   0.003031
     8  C   -0.016431  -0.045130  -0.018758  -0.000159  -0.000859   0.000094
     9  C    0.486688   0.016901   0.007514  -0.004662   0.002471   0.002862
    10  C    0.013688   0.435539   0.485975  -0.029382  -0.086582  -0.000391
    11  C   -0.015578  -0.036695  -0.079905   0.433315   0.485369   0.000046
    12  C   -0.006490   0.000156  -0.000471   0.000394  -0.001862   0.481799
    13  O   -0.001495   0.000000   0.000001  -0.000001   0.000312   0.002055
    14  H   -0.007584  -0.000180  -0.000111  -0.000193  -0.001281  -0.004272
    15  H   -0.000435   0.000003  -0.000002   0.000013  -0.000086  -0.015125
    16  H   -0.000295  -0.000021   0.000003  -0.000014   0.000115   0.008231
    17  H    0.003525   0.000494  -0.000120   0.000272  -0.002992  -0.001207
    18  H   -0.001869  -0.000037   0.000016   0.000158   0.000652  -0.006481
    19  H    0.003700   0.000219   0.000037  -0.000007  -0.000191   0.000358
    20  H   -0.017417  -0.000135   0.000020  -0.000090   0.000222  -0.005532
    21  H   -0.005621   0.000800  -0.000546   0.001403   0.000843   0.000502
    22  H   -0.009201  -0.003338  -0.001287   0.000438  -0.001267   0.000075
    23  H   -0.000277  -0.003415   0.000966  -0.000832  -0.002712  -0.000092
    24  H   -0.000329  -0.009374  -0.002746  -0.000192  -0.000578   0.000062
    25  H    0.470614   0.002553   0.000281   0.002223  -0.000741   0.000456
    26  H    0.002553   0.486610  -0.006363  -0.009874   0.001521  -0.000003
    27  H    0.000281  -0.006363   0.477682  -0.004603   0.003101   0.000000
    28  H    0.002223  -0.009874  -0.004603   0.480902  -0.013213  -0.000036
    29  H   -0.000741   0.001521   0.003101  -0.013213   0.494268   0.000063
    30  H    0.000456  -0.000003   0.000000  -0.000036   0.000063   0.468953
    31  H    0.000713   0.000010  -0.000005   0.000021  -0.000076  -0.008783
              31
     1  C   -0.008841
     2  C   -0.016975
     3  O    0.000078
     4  C    0.016294
     5  C   -0.023488
     6  O   -0.002572
     7  C    0.000527
     8  C   -0.000288
     9  C   -0.006254
    10  C   -0.000112
    11  C    0.000327
    12  C    0.402314
    13  O    0.009520
    14  H   -0.002497
    15  H    0.003153
    16  H   -0.012512
    17  H    0.001864
    18  H   -0.000193
    19  H   -0.000689
    20  H   -0.010440
    21  H    0.000978
    22  H   -0.000121
    23  H    0.000122
    24  H   -0.000050
    25  H    0.000713
    26  H    0.000010
    27  H   -0.000005
    28  H    0.000021
    29  H   -0.000076
    30  H   -0.008783
    31  H    0.497973
 Mulliken charges:
               1
     1  C   -0.099849
     2  C   -0.250043
     3  O   -0.290191
     4  C   -0.374441
     5  C   -0.139157
     6  O   -0.267026
     7  C   -0.255654
     8  C   -0.345291
     9  C   -0.091177
    10  C   -0.359338
    11  C   -0.186975
    12  C   -0.435232
    13  O   -0.310796
    14  H    0.230493
    15  H    0.176326
    16  H    0.177835
    17  H    0.208161
    18  H    0.184464
    19  H    0.205637
    20  H    0.171618
    21  H    0.169657
    22  H    0.184180
    23  H    0.182816
    24  H    0.173854
    25  H    0.284889
    26  H    0.167323
    27  H    0.169609
    28  H    0.209634
    29  H    0.156173
    30  H    0.192501
    31  H    0.160000
 Sum of Mulliken charges =  -0.00000
 Mulliken charges with hydrogens summed into heavy atoms:
               1
     1  C    0.130644
     2  C    0.104118
     3  O   -0.290191
     4  C    0.018183
     5  C    0.238097
     6  O   -0.267026
     7  C    0.098183
     8  C    0.011380
     9  C    0.193712
    10  C   -0.022406
    11  C    0.178833
    12  C   -0.082731
    13  O   -0.310796
 Electronic spatial extent (au):  <R**2>=           3093.3996
 Charge=              0.0000 electrons
 Dipole moment (field-independent basis, Debye):
    X=              0.9264    Y=              2.2172    Z=             -1.2105  Tot=              2.6907
 Quadrupole moment (field-independent basis, Debye-Ang):
   XX=            -71.2972   YY=            -77.6758   ZZ=            -83.7864
   XY=              2.3359   XZ=             -9.0719   YZ=              0.4448
 Traceless Quadrupole moment (field-independent basis, Debye-Ang):
   XX=              6.2893   YY=             -0.0893   ZZ=             -6.2000
   XY=              2.3359   XZ=             -9.0719   YZ=              0.4448
 Octapole moment (field-independent basis, Debye-Ang**2):
  XXX=             12.3199  YYY=             -6.6005  ZZZ=             -2.8734  XYY=             -2.1366
  XXY=              6.4172  XXZ=              2.0567  XZZ=              1.9254  YZZ=              5.1159
  YYZ=             -1.2288  XYZ=             11.6116
 Hexadecapole moment (field-independent basis, Debye-Ang**3):
 XXXX=          -3020.0259 YYYY=           -541.8200 ZZZZ=           -401.0102 XXXY=             46.4929
 XXXZ=            -20.1680 YYYX=              6.5101 YYYZ=              0.5894 ZZZX=             -6.1005
 ZZZY=             -0.5991 XXYY=           -601.3978 XXZZ=           -620.1198 YYZZ=           -159.8336
 XXYZ=             19.0419 YYXZ=             -2.4367 ZZXY=              4.4676
 N-N= 8.907775454444D+02 E-N=-3.223566893490D+03  KE= 6.153349791561D+02
 D1PCM: PCM CHGder 1st derivatives, ID1Alg=3 FixD1E=F DoIter=F DoCFld=F I1PDM=0.
 Calling FoFJK, ICntrl=      2127 FMM=F ISym2X=0 I1Cent= 0 IOpClX= 0 NMat=1 NMatS=1 NMatT=0.
 ***** Axes restored to original set *****
 -------------------------------------------------------------------
 Center     Atomic                   Forces (Hartrees/Bohr)
 Number     Number              X              Y              Z
 -------------------------------------------------------------------
      1        6          -0.001597544    0.000684242    0.002339803
      2        6          -0.004153132    0.000015931   -0.004924887
      3        8          -0.001155134   -0.001508131   -0.010689500
      4        6           0.002795168    0.006384511   -0.000173151
      5        6           0.002743538   -0.003160611   -0.001256220
      6        8           0.001506449   -0.002518286    0.010092059
      7        6          -0.000333968   -0.001945471    0.001453538
      8        6          -0.000008622   -0.001435310   -0.003619491
      9        6          -0.005258394   -0.001403814    0.007707209
     10        6           0.002560987   -0.000530906    0.000654423
     11        6           0.001018187    0.006756906    0.001649719
     12        6          -0.001051626    0.000085067    0.001584900
     13        8          -0.003539505   -0.001608678    0.008537065
     14        1           0.000375158   -0.000561451   -0.006677302
     15        1           0.004693391   -0.002087521   -0.002052662
     16        1           0.000565880    0.002916104    0.003726865
     17        1          -0.003927496   -0.002746186    0.001437294
     18        1           0.003172796   -0.002271258   -0.004965153
     19        1          -0.001590926   -0.000012722    0.004081085
     20        1          -0.001247751    0.002084985   -0.002479379
     21        1           0.003178003    0.002053176    0.001174232
     22        1          -0.002388223    0.001447733   -0.002119919
     23        1           0.002757472   -0.001923801    0.001501304
     24        1          -0.001229629    0.001971245    0.001077322
     25        1           0.002747647    0.002827812   -0.007256434
     26        1          -0.001371182   -0.000854871    0.002376970
     27        1          -0.001799798    0.001488800   -0.002354900
     28        1          -0.003025962   -0.002684092   -0.001913391
     29        1           0.003843464   -0.002354326    0.004271442
     30        1           0.000478358   -0.001589191   -0.003000562
     31        1           0.001242392    0.002480113   -0.000182283
 -------------------------------------------------------------------
 Cartesian Forces:  Max     0.010689500 RMS     0.003299838

 GradGradGradGradGradGradGradGradGradGradGradGradGradGradGradGradGradGrad
 Berny optimization.
 FormGI is forming the generalized inverse of G from B-inverse, IUseBI=4.
 Internal  Forces:  Max     0.009298068 RMS     0.001949936
 Search for a local minimum.
 Step number   1 out of a maximum of  186
 All quantities printed in internal units (Hartrees-Bohrs-Radians)
 Mixed Optimization -- RFO/linear search
 Second derivative matrix not updated -- first step.
 ITU=  0
     Eigenvalues ---    0.00428   0.00610   0.00628   0.00723   0.01408
     Eigenvalues ---    0.01424   0.01450   0.02703   0.02794   0.03074
     Eigenvalues ---    0.03371   0.04096   0.04294   0.04653   0.04746
     Eigenvalues ---    0.04809   0.04860   0.04938   0.05103   0.05158
     Eigenvalues ---    0.05168   0.05643   0.05674   0.06011   0.06162
     Eigenvalues ---    0.06352   0.06767   0.06809   0.07360   0.07784
     Eigenvalues ---    0.07822   0.07848   0.07942   0.08131   0.08194
     Eigenvalues ---    0.08230   0.08931   0.10208   0.11237   0.11584
     Eigenvalues ---    0.11679   0.11760   0.11782   0.12398   0.12686
     Eigenvalues ---    0.14512   0.14753   0.16034   0.18443   0.19052
     Eigenvalues ---    0.20082   0.21582   0.22561   0.25000   0.27292
     Eigenvalues ---    0.27731   0.28481   0.28576   0.28834   0.28953
     Eigenvalues ---    0.29439   0.30272   0.35093   0.35160   0.35166
     Eigenvalues ---    0.35237   0.35241   0.35284   0.35315   0.35320
     Eigenvalues ---    0.35346   0.35357   0.35427   0.35446   0.35456
     Eigenvalues ---    0.35490   0.35786   0.35857   0.35964   0.36037
     Eigenvalues ---    0.40288   0.40748   0.41655   0.42419   0.43392
     Eigenvalues ---    0.452011000.000001000.000001000.000001000.00000
     Eigenvalues --- 1000.000001000.000001000.000001000.000001000.00000
     Eigenvalues --- 1000.000001000.000001000.000001000.000001000.00000
     Eigenvalues --- 1000.000001000.000001000.000001000.000001000.00000
     Eigenvalues --- 1000.000001000.000001000.000001000.000001000.00000
     Eigenvalues --- 1000.000001000.000001000.000001000.000001000.00000
     Eigenvalues --- 1000.000001000.000001000.000001000.000001000.00000
     Eigenvalues --- 1000.000001000.000001000.000001000.000001000.00000
     Eigenvalues --- 1000.000001000.000001000.000001000.000001000.00000
     Eigenvalues --- 1000.000001000.000001000.000001000.000001000.00000
     Eigenvalues --- 1000.000001000.000001000.000001000.000001000.00000
     Eigenvalues --- 1000.000001000.000001000.000001000.000001000.00000
     Eigenvalues --- 1000.000001000.000001000.000001000.000001000.00000
     Eigenvalues --- 1000.000001000.000001000.000001000.000001000.00000
     Eigenvalues --- 1000.000001000.000001000.000001000.000001000.00000
     Eigenvalues --- 1000.000001000.000001000.000001000.000001000.00000
     Eigenvalues --- 1000.000001000.000001000.000001000.000001000.00000
     Eigenvalues --- 1000.000001000.000001000.000001000.000001000.00000
     Eigenvalues --- 1000.000001000.000001000.000001000.000001000.00000
     Eigenvalues --- 1000.000001000.000001000.000001000.000001000.00000
 RFO step:  Lambda=-2.98481932D-03 EMin= 4.28472183D-03
 Linear search not attempted -- first point.
 Iteration  1 RMS(Cart)=  0.04093610 RMS(Int)=  0.00048072
 Iteration  2 RMS(Cart)=  0.00088669 RMS(Int)=  0.00005701
 Iteration  3 RMS(Cart)=  0.00000024 RMS(Int)=  0.00005701
 Iteration  1 RMS(Cart)=  0.00002468 RMS(Int)=  0.00000543
 Iteration  2 RMS(Cart)=  0.00001304 RMS(Int)=  0.00000606
 Iteration  3 RMS(Cart)=  0.00000689 RMS(Int)=  0.00000682
 Iteration  4 RMS(Cart)=  0.00000364 RMS(Int)=  0.00000731
 Iteration  5 RMS(Cart)=  0.00000193 RMS(Int)=  0.00000758
 Iteration  6 RMS(Cart)=  0.00000102 RMS(Int)=  0.00000773
 Iteration  7 RMS(Cart)=  0.00000054 RMS(Int)=  0.00000781
 Variable       Old X    -DE/DX   Delta X   Delta X   Delta X     New X
                                 (Linear)    (Quad)   (Total)
    R1        2.88988  -0.00013   0.00000  -0.00059  -0.00057   2.88931
    R2        2.89594  -0.00095   0.00000  -0.00459  -0.00458   2.89135
    R3        2.68393   0.00064   0.00000   0.00150   0.00150   2.68543
    R4        2.05100   0.00661   0.00000   0.01853   0.01853   2.06953
    R5        2.89699   0.00053   0.00000   0.00263   0.00262   2.89961
    R6        2.68395   0.00352   0.00000   0.00963   0.00962   2.69357
    R7        2.05217   0.00541   0.00000   0.01522   0.01522   2.06738
    R8        2.04417   0.00474   0.00000   0.01314   0.01314   2.05732
    R9        2.65293   0.00217   0.00000   0.00437   0.00439   2.65732
   R10        2.68775   0.00279   0.00000   0.00658   0.00658   2.69433
   R11        2.66484   0.00289   0.00000   0.00679   0.00679   2.67162
   R12        2.04138   0.00481   0.00000   0.01326   0.01326   2.05464
   R13        2.05166   0.00622   0.00000   0.01747   0.01747   2.06914
   R14        2.88719  -0.00038   0.00000  -0.00279  -0.00280   2.88439
   R15        2.05117   0.00408   0.00000   0.01144   0.01144   2.06261
   R16        2.04957   0.00346   0.00000   0.00968   0.00968   2.05925
   R17        2.65043   0.00431   0.00000   0.00947   0.00947   2.65991
   R18        2.88977  -0.00168   0.00000  -0.00569  -0.00570   2.88407
   R19        2.87812  -0.00034   0.00000  -0.00166  -0.00171   2.87641
   R20        2.04886   0.00392   0.00000   0.01096   0.01096   2.05982
   R21        2.05416   0.00348   0.00000   0.00982   0.00982   2.06398
   R22        2.88811  -0.00092   0.00000  -0.00243  -0.00244   2.88566
   R23        2.05406   0.00349   0.00000   0.00984   0.00984   2.06390
   R24        2.05158   0.00256   0.00000   0.00718   0.00718   2.05876
   R25        2.04024   0.00826   0.00000   0.02272   0.02272   2.06296
   R26        2.87092   0.00013   0.00000   0.00093   0.00097   2.87189
   R27        2.05285   0.00285   0.00000   0.00801   0.00801   2.06086
   R28        2.05525   0.00324   0.00000   0.00917   0.00917   2.06442
   R29        2.04306   0.00447   0.00000   0.01237   0.01237   2.05543
   R30        2.04987   0.00611   0.00000   0.01710   0.01710   2.06697
   R31        2.05292   0.00338   0.00000   0.00952   0.00952   2.06244
   R32        2.04941   0.00275   0.00000   0.00770   0.00770   2.05711
    A1        1.91683   0.00045   0.00000  -0.00689  -0.00702   1.90982
    A2        1.89283  -0.00047   0.00000  -0.00027  -0.00032   1.89251
    A3        1.88797   0.00072   0.00000   0.00949   0.00949   1.89746
    A4        1.95128  -0.00023   0.00000  -0.00771  -0.00769   1.94359
    A5        1.92561  -0.00119   0.00000  -0.00531  -0.00525   1.92037
    A6        1.88779   0.00077   0.00000   0.01159   0.01153   1.89933
    A7        1.95032   0.00176   0.00000   0.00516   0.00505   1.95536
    A8        1.93928  -0.00116   0.00000  -0.00633  -0.00635   1.93292
    A9        1.93307  -0.00088   0.00000  -0.00627  -0.00623   1.92684
   A10        1.90397   0.00052   0.00000   0.00802   0.00810   1.91207
   A11        1.84251  -0.00083   0.00000  -0.00221  -0.00219   1.84031
   A12        1.89134   0.00061   0.00000   0.00200   0.00195   1.89329
   A13        2.02567  -0.00568   0.00000  -0.03684  -0.03676   1.98890
   A14        1.94473   0.00055   0.00000   0.00026   0.00010   1.94483
   A15        1.92751  -0.00148   0.00000  -0.01548  -0.01546   1.91204
   A16        1.91901  -0.00071   0.00000  -0.00094  -0.00097   1.91804
   A17        1.87099  -0.00036   0.00000  -0.00042  -0.00044   1.87054
   A18        1.91005   0.00137   0.00000   0.01318   0.01322   1.92327
   A19        1.89020   0.00067   0.00000   0.00373   0.00367   1.89388
   A20        1.91011  -0.00046   0.00000  -0.00557  -0.00574   1.90437
   A21        1.89777  -0.00041   0.00000  -0.00983  -0.00979   1.88798
   A22        1.93035  -0.00021   0.00000  -0.00000   0.00007   1.93042
   A23        1.91040   0.00094   0.00000   0.00404   0.00402   1.91442
   A24        1.93954  -0.00010   0.00000   0.00449   0.00452   1.94406
   A25        1.87489   0.00026   0.00000   0.00683   0.00677   1.88167
   A26        2.04522  -0.00930   0.00000  -0.03675  -0.03675   2.00847
   A27        1.95333  -0.00165   0.00000  -0.01570  -0.01588   1.93745
   A28        1.94512  -0.00015   0.00000  -0.00099  -0.00113   1.94399
   A29        1.90983   0.00109   0.00000   0.00749   0.00762   1.91745
   A30        1.90105   0.00047   0.00000  -0.00344  -0.00340   1.89765
   A31        1.87540   0.00035   0.00000   0.00715   0.00715   1.88255
   A32        1.87622  -0.00003   0.00000   0.00667   0.00665   1.88286
   A33        1.91302   0.00158   0.00000  -0.00374  -0.00375   1.90927
   A34        1.92096  -0.00087   0.00000  -0.00577  -0.00576   1.91519
   A35        1.91717  -0.00045   0.00000   0.00204   0.00202   1.91919
   A36        1.91394  -0.00072   0.00000  -0.00110  -0.00122   1.91273
   A37        1.93132  -0.00017   0.00000   0.00255   0.00263   1.93395
   A38        1.86704   0.00058   0.00000   0.00618   0.00619   1.87323
   A39        1.90676   0.00123   0.00000   0.00730   0.00748   1.91424
   A40        1.93566   0.00334   0.00000   0.01250   0.01235   1.94801
   A41        1.83438  -0.00212   0.00000  -0.00456  -0.00458   1.82980
   A42        1.93924  -0.00351   0.00000  -0.01718  -0.01713   1.92211
   A43        1.91308   0.00141   0.00000   0.00567   0.00557   1.91865
   A44        1.93180  -0.00019   0.00000  -0.00271  -0.00267   1.92913
   A45        1.92101  -0.00111   0.00000  -0.00594  -0.00615   1.91486
   A46        1.94028  -0.00048   0.00000  -0.00187  -0.00182   1.93846
   A47        1.91646   0.00090   0.00000   0.00147   0.00155   1.91801
   A48        1.90278   0.00063   0.00000   0.00382   0.00386   1.90664
   A49        1.90639   0.00012   0.00000  -0.00087  -0.00080   1.90559
   A50        1.87610  -0.00002   0.00000   0.00365   0.00361   1.87971
   A51        1.94504   0.00246   0.00000   0.00714   0.00711   1.95215
   A52        1.84144  -0.00134   0.00000  -0.00212  -0.00213   1.83930
   A53        1.90852   0.00011   0.00000   0.00141   0.00146   1.90998
   A54        1.94677  -0.00034   0.00000  -0.00217  -0.00211   1.94466
   A55        1.93193  -0.00165   0.00000  -0.00798  -0.00803   1.92390
   A56        1.88711   0.00076   0.00000   0.00408   0.00406   1.89117
   A57        1.91119  -0.00052   0.00000  -0.00987  -0.00996   1.90123
   A58        1.92845   0.00067   0.00000   0.00331   0.00329   1.93174
   A59        1.90732  -0.00009   0.00000   0.00431   0.00434   1.91166
   A60        1.91364  -0.00048   0.00000  -0.00243  -0.00243   1.91121
   A61        1.93727   0.00049   0.00000   0.00291   0.00298   1.94025
   A62        1.86570  -0.00005   0.00000   0.00219   0.00217   1.86787
   A63        1.97783  -0.00432   0.00000  -0.02690  -0.02693   1.95090
    D1        0.48788   0.00155   0.00000   0.01078   0.01079   0.49867
    D2        2.56529   0.00049   0.00000   0.00028   0.00030   2.56559
    D3       -1.63299  -0.00006   0.00000  -0.00541  -0.00536  -1.63835
    D4       -1.64915   0.00186   0.00000   0.02476   0.02477  -1.62438
    D5        0.42826   0.00079   0.00000   0.01426   0.01427   0.44253
    D6        2.51317   0.00024   0.00000   0.00858   0.00861   2.52178
    D7        2.59044   0.00081   0.00000   0.00604   0.00600   2.59644
[...]
 279,-0.00084384,0.00015452,0.00081202,0.00000817,-0.00002695,0.0000376
 4,-0.00000220,-0.00000883,0.00001278,0.00011058,-0.00019452,0.00005187
 ,-0.00011788,0.00007010,-0.00006650,0.00001917,0.00004361,0.00003729,-
 0.00045396,-0.00060017,0.00026054,-0.00038210,0.00007155,0.00025203,0.
 00014525,-0.00026888,0.00072101,-0.00021200,0.00004909,0.00012687,0.00
 060375,0.00053800,-0.00085143,-0.09033548,-0.08378170,0.25782110,0.000
 28177,0.00000736,-0.00014206,0.00001763,0.00000291,0.00000896,-0.00146
 319,0.00208063,0.00298644,0.00000060,-0.00001940,0.00005341,-0.0000584
 8,0.00000497,0.00000104,-0.00051362,0.00020380,-0.00006012,-0.00217185
 ,-0.00285462,-0.00316988,-0.01124796,-0.00916982,0.01696467,0.00137648
 ,0.00013269,-0.00018293,-0.10644727,-0.05369308,0.09482807,-0.00743634
 ,-0.00843262,0.00975372,0.00000718,-0.00000830,0.00000075,-0.00004119,
 -0.00000123,-0.00003328,-0.00001781,-0.00000706,0.00003039,-0.00000668
 ,0.00000552,-0.00000313,-0.00000329,-0.00000261,-0.00000345,0.00000166
 ,-0.00000303,-0.00000094,-0.00002349,0.00001334,-0.00000760,0.00001657
 ,0.00000046,0.00002747,0.00002101,0.00000964,-0.00001415,-0.00056046,-
 0.00048212,0.00113200,0.00006855,-0.00015277,0.00022141,0.00059923,0.0
 0075796,0.00025761,0.00087663,0.00039617,-0.00022626,-0.00005722,0.000
 02089,0.00000709,0.11475843,0.00004089,0.00002287,0.00001689,0.0000018
 4,-0.00000235,0.00000582,0.00466151,-0.00189029,-0.00537629,-0.0000002
 2,-0.00000417,0.00000488,-0.00002180,-0.00000473,-0.00002819,0.0001164
 3,0.00016265,0.00022509,-0.00352761,-0.00236639,-0.00301828,-0.0092416
 5,-0.00945433,0.01756728,-0.00073764,-0.00171872,-0.00100451,-0.054890
 08,-0.10165282,0.09144820,0.00967675,0.01275484,-0.01601909,0.00000671
 ,0.00001667,0.00001147,-0.00000841,0.00000387,-0.00000568,-0.00001971,
 0.00000098,0.00000453,-0.00000226,0.00000263,-0.00000236,-0.00000030,-
 0.00000040,-0.00000144,-0.00000087,0.00000019,-0.00000193,-0.00000418,
 0.00000194,-0.00000105,0.00001689,0.00000162,0.00003529,0.00001584,0.0
 0000213,-0.00001474,-0.00111428,-0.00026646,0.00122727,0.00029111,0.00
 017070,-0.00034869,0.00041154,0.00094521,-0.00028761,0.00089616,0.0003
 8354,0.00029556,0.00011410,0.00028442,0.00017985,0.06205079,0.10834012
 ,-0.00020634,0.00001316,0.00013381,-0.00001504,-0.00000445,-0.00000196
 ,0.00449098,-0.00280627,-0.00293253,0.00000100,0.00001010,-0.00004116,
 0.00003520,-0.00000415,-0.00001976,0.00057055,-0.00000223,0.00019224,-
 0.00190294,-0.00190250,-0.00021239,-0.00703788,-0.00589039,0.01129125,
 -0.00168693,-0.00115417,-0.00070887,0.09665460,0.09051127,-0.20241585,
 0.00584224,0.01133910,-0.01284152,-0.00000030,0.00002069,0.00000576,0.
 00002916,0.00000500,0.00002178,0.00000282,0.00000211,-0.00002370,0.000
 00394,-0.00000254,0.00000052,0.00000228,0.00000203,0.00000166,-0.00000
 270,0.00000471,0.00000077,0.00001709,-0.00000957,0.00000530,0.00000215
 ,-0.00000060,0.00000315,0.00000154,-0.00000452,-0.00000095,-0.00045141
 ,-0.00038893,0.00050273,-0.00002298,-0.00011497,0.00007919,0.00062112,
 0.00054643,0.00060316,0.00067198,0.00063043,0.00043604,0.00007797,0.00
 019253,0.00004448,-0.10509889,-0.09753263,0.21799263,0.00012311,-0.000
 02467,-0.00000235,0.00001040,0.00000438,0.00000037,0.00105829,-0.00110
 490,-0.00051181,0.00001355,-0.00000343,0.00001293,-0.00001560,0.000009
 92,0.00001280,-0.00005636,-0.00005655,0.00011948,0.00062855,0.00114702
 ,-0.00041467,-0.01616258,0.00992300,-0.01321347,-0.00032307,-0.0000386
 2,-0.00005842,-0.16777499,0.08291343,-0.09643625,-0.01109601,0.0086700
 2,-0.00813083,-0.00000035,-0.00001286,-0.00000415,-0.00001892,-0.00000
 384,-0.00000850,-0.00002234,-0.00000390,0.00001970,-0.00000269,0.00000
 099,-0.00000014,-0.00000136,-0.00000119,-0.00000065,0.00000273,-0.0000
 0283,-0.00000013,-0.00000778,0.00000362,-0.00000212,0.00000738,-0.0000
 0086,-0.00000578,0.00000075,0.00000152,0.00000059,0.00031968,-0.000223
 97,0.00011337,-0.00019122,-0.00037477,0.00053434,-0.00220185,-0.003301
 99,-0.00132331,0.00102288,-0.00007658,0.00032087,-0.00008175,0.0000523
 8,0.00004824,0.01149199,-0.00747191,0.00795274,0.18268556,-0.00014886,
 0.00006390,0.00009434,-0.00000922,-0.00000259,-0.00000147,-0.00162494,
 0.00238893,-0.00022145,-0.00000827,0.00000171,-0.00002492,0.00004336,-
 0.00000910,-0.00001636,0.00033650,0.00013193,0.00007200,0.00055284,0.0
 0120368,-0.00061714,-0.01665128,0.01039042,-0.01337998,-0.00031110,-0.
 00043604,-0.00021221,0.08362280,-0.10650431,0.06981782,0.01725305,-0.0
 1558360,0.01525675,0.00000200,0.00001208,0.00000139,0.00001771,0.00000
 609,0.00001288,0.00000092,0.00000173,-0.00001263,0.00000266,-0.0000015
 1,0.00000051,0.00000157,0.00000115,0.00000133,-0.00000501,0.00000250,-
 0.00000020,0.00001000,-0.00000524,0.00000287,-0.00000109,-0.00000354,-
 0.00000406,-0.00000377,-0.00000007,0.00000266,0.00031957,-0.00003294,-
 0.00007992,0.00034745,-0.00019358,0.00022568,-0.00372296,-0.00239565,-
 0.00141838,0.00090718,0.00100330,0.00029572,0.00007080,0.00007914,0.00
 004653,0.00913517,-0.00704581,0.00673315,-0.09167193,0.11863250,0.0001
 1284,0.00003557,-0.00003253,0.00000649,0.00000270,0.00000138,-0.001925
 11,0.00025274,0.00179702,-0.00000371,-0.00001006,0.00001740,0.00000110
 ,0.00000434,0.00000361,-0.00021660,0.00018029,-0.00000666,0.00107001,0
 .00017288,0.00050087,-0.00888308,0.00515426,-0.00847047,0.00026601,-0.
 00009222,0.00004775,-0.09787446,0.07154216,-0.12990041,0.01483359,-0.0
 1085450,0.01010704,0.00000142,-0.00000238,-0.00000334,-0.00001436,-0.0
 0000077,-0.00000824,-0.00001018,-0.00000616,0.00001662,-0.00000213,0.0
 0000150,-0.00000043,-0.00000079,-0.00000104,-0.00000063,0.00000120,-0.
 00000146,-0.00000186,-0.00000804,0.00000476,-0.00000208,0.00000852,-0.
 00000307,0.00000118,0.00000313,0.00000288,-0.00000300,0.00012260,-0.00
 017966,0.00007439,-0.00011604,-0.00008902,0.00048579,-0.00156770,-0.00
 227702,0.00029018,0.00035358,0.00010871,0.00015212,-0.00005596,0.00006
 097,0.00003574,-0.01666789,0.01107926,-0.01308160,0.10879792,-0.073294
 71,0.13853549,0.00056711,-0.00009746,-0.00018822,0.00003709,0.00001240
 ,0.00000704,-0.01726607,-0.01645268,-0.00183134,0.00002977,-0.00002112
 ,0.00009015,-0.00012138,0.00004342,0.00005948,-0.00069466,-0.00017662,
 0.00002043,-0.00036333,-0.00003796,0.00000551,-0.00152884,0.00224032,0
 .00191031,0.00106760,0.00119128,0.00381317,0.01298243,0.01150507,0.006
 97154,-0.16615192,-0.10505415,-0.08039920,0.00000570,-0.00004977,-0.00
 002254,-0.00008124,-0.00001300,-0.00005973,-0.00006671,-0.00001648,0.0
 0005485,-0.00001176,0.00000761,-0.00000278,-0.00000652,-0.00000522,-0.
 00000496,0.00000424,-0.00001197,-0.00000395,-0.00004468,0.00002096,-0.
 00001147,0.00001101,0.00000168,0.00000185,0.00001690,0.00002070,-0.000
 00703,0.00008453,-0.00008586,-0.00016600,0.00004232,-0.00001462,-0.000
 04940,0.00008642,0.00001736,0.00016414,0.00065865,0.00074300,0.0004404
 4,-0.00068225,-0.00072980,-0.00024967,0.00033004,-0.00101096,-0.000638
 16,0.00077922,-0.00065501,-0.00048288,0.18261296,0.00014734,0.00012451
 ,-0.00021084,0.00001282,0.00000509,0.00000498,-0.01631575,-0.01289116,
 -0.00164102,-0.00002410,-0.00002664,0.00004834,-0.00000127,-0.00001979
 ,0.00001192,-0.00032108,0.00058004,-0.00057056,0.00001315,0.00039899,-
 0.00001992,0.00364024,-0.00183366,-0.00240831,0.00172980,0.00049492,0.
 00385308,-0.01472634,-0.01358138,-0.01100947,-0.10358847,-0.14713829,-
 0.07124673,0.00000917,0.00000425,-0.00000613,-0.00003405,-0.00000054,-
 0.00002771,0.00001242,-0.00000858,-0.00000266,-0.00000540,0.00000409,-
 0.00000239,-0.00000250,-0.00000223,-0.00000230,0.00000036,-0.00000063,
 0.00000034,-0.00001961,0.00001316,-0.00000606,0.00000523,0.00000082,0.
 00001199,0.00001085,0.00001857,-0.00001394,-0.00003038,-0.00004289,-0.
 00004903,-0.00000594,-0.00002341,0.00006086,-0.00014374,0.00006370,-0.
 00014983,-0.00103410,-0.00085873,-0.00045577,-0.00058154,-0.00048828,-
 0.00019264,0.00017836,0.00053777,-0.00002337,-0.00044301,0.00075283,0.
 00089426,0.12035235,0.16160372,-0.00005775,-0.00009583,0.00019621,-0.0
 0000274,-0.00000343,-0.00000327,0.02706934,0.02411579,0.00874358,0.000
 02395,0.00001830,-0.00003132,-0.00002049,0.00002476,-0.00002695,0.0002
 1981,-0.00057428,0.00071935,0.00054711,0.00036404,-0.00031862,0.003450
 12,-0.00266137,-0.00146835,0.00093528,0.00165552,-0.00508584,-0.013340
 77,-0.00963069,-0.00684200,-0.08933747,-0.07940419,-0.10610312,-0.0000
 0833,-0.00000996,0.00001448,0.00001847,-0.00000068,0.00001969,-0.00002
 920,0.00000032,0.00001648,0.00000256,-0.00000252,0.00000203,0.00000188
 ,0.00000118,0.00000149,0.00000176,-0.00000171,-0.00000051,0.00001065,-
 0.00000827,0.00000368,0.00000490,-0.00000122,-0.00000052,-0.00000310,-
 0.00002344,0.00001336,-0.00018373,0.00007437,0.00022943,-0.00001973,-0
 .00002850,0.00007431,0.00027163,0.00031623,0.00020812,-0.00089936,-0.0
 0120453,-0.00023426,0.00082185,0.00091498,0.00027549,0.00000199,0.0005
 2954,0.00020234,0.00044946,0.00042631,0.00087808,0.08052987,0.07619578
 ,0.11489641,0.00020268,-0.00015093,0.00023895,-0.00000119,0.00000221,-
 0.00000104,0.01224756,-0.01380350,0.01686899,0.00003448,-0.00001885,-0
 .00000280,0.00004190,-0.00001515,-0.00001038,-0.00188813,-0.00047462,0
 .00040931,-0.00012837,-0.00016765,0.00006203,0.00066137,-0.00104791,0.
 00001531,0.00166079,0.00000766,0.00022272,-0.01049331,0.00837143,-0.00
 823386,-0.15988325,0.08944066,-0.09575786,0.00000469,0.00001102,0.0000
 0006,0.00000551,0.00000374,0.00000239,-0.00001656,-0.00002468,0.000010
 70,0.00000105,-0.00000013,-0.00000039,0.00000002,0.00000127,0.00000082
 ,0.00004685,0.00003656,-0.00001974,0.00000781,0.00000364,-0.00000127,-
 0.00000372,0.00000061,-0.00000783,0.00000091,0.00000357,-0.00000341,0.
 00005890,-0.00001976,-0.00010328,-0.00004861,0.00000599,0.00003450,0.0
 0051425,0.00035799,0.00015069,0.00002803,-0.00012913,0.00015476,-0.000
 14416,0.00012542,-0.00008961,0.00022525,-0.00023698,0.00007544,-0.0001
 8083,0.00218090,0.00225485,-0.01226239,0.01117887,-0.01046162,0.169304
 04,-0.00029876,0.00027507,0.00001182,-0.00002866,-0.00000706,-0.000001
 74,0.00035202,-0.01071245,0.01752725,-0.00005807,0.00001575,-0.0000528
 4,0.00014691,-0.00005766,-0.00003911,-0.00037997,0.00066297,-0.0013123
 8,-0.00042501,-0.00030705,-0.00011561,0.00033375,0.00097426,0.00140491
 ,0.00378796,0.00016188,0.00258899,0.01743928,-0.01259976,0.01163451,0.
 08532893,-0.12426745,0.06821605,0.00001010,0.00006378,0.00000322,0.000
 03978,0.00001757,0.00002958,0.00009632,0.00000730,-0.00004557,0.000006
 47,-0.00000208,-0.00000031,0.00000381,0.00000296,0.00000260,-0.0000423
 7,-0.00000636,0.00001228,0.00001590,-0.00001264,0.00000872,-0.00000740
 ,-0.00000688,0.00000486,-0.00000055,0.00001535,-0.00001134,-0.00002366
 ,-0.00009837,-0.00007503,-0.00000990,0.00012117,-0.00003874,-0.0004294
 5,-0.00012004,-0.00048369,-0.00017491,0.00032339,-0.00023200,-0.000251
 30,-0.00004764,-0.00015976,-0.00017629,0.00077364,-0.00016823,0.002090
 69,-0.00245729,-0.00268572,-0.01172697,0.01231275,-0.01098692,-0.09564
 164,0.13497792,-0.00012585,-0.00025713,0.00036488,-0.00000983,-0.00000
 445,-0.00000505,-0.00392792,0.02417792,-0.02687586,0.00007457,0.000023
 91,-0.00008327,-0.00004652,0.00002308,-0.00000144,0.00086172,-0.001301
 61,0.00164604,0.00055063,0.00012098,0.00016228,0.00069677,0.00070466,0
 .00096692,-0.00511415,-0.00242169,-0.00210720,0.01233739,-0.01175755,0
 .01125467,-0.09066947,0.07055401,-0.12283471,-0.00000878,-0.00001393,0
 .00000549,0.00002131,-0.00000578,0.00001857,-0.00005424,0.00001781,-0.
 00000718,0.00000387,-0.00000330,0.00000138,0.00000175,0.00000203,0.000
 00152,0.00001273,0.00000900,-0.00000503,0.00002936,-0.00001736,0.00000
 873,-0.00000200,0.00000325,-0.00000711,-0.00000607,-0.00001593,0.00001
 383,-0.00006063,0.00015713,0.00020081,-0.00000271,-0.00000377,-0.00005
 468,-0.00022582,0.00045539,-0.00014779,-0.00002652,0.00023746,-0.00002
 574,0.00037936,0.00009313,0.00008460,-0.00066588,0.00101093,0.00076384
 ,0.00172949,-0.00370619,-0.00143360,-0.00995261,0.00695505,-0.00637800
 ,0.09419318,-0.08503679,0.14447454,0.00095013,0.00094844,0.00114219,0.
 00001105,-0.00494874,-0.01139602,-0.00002738,-0.00005273,0.00000150,0.
 00001502,0.00001433,0.00024677,-0.01129187,0.01585835,0.03068865,0.000
 35655,-0.00036433,-0.00049366,0.00004862,0.00011224,0.00004607,-0.0000
 1794,-0.00000815,-0.00005021,0.00010931,0.00020207,0.00002415,-0.00000
 575,-0.00000603,0.00002869,0.00000016,0.00001480,-0.00001275,-0.065562
 17,0.02902295,0.05983178,0.00035391,-0.00001640,0.00005245,-0.00019675
 ,-0.00033540,-0.00037950,0.00084375,-0.00054628,-0.00012578,0.00007542
 ,0.00163869,-0.00232565,0.00003011,-0.00002482,-0.00014084,0.00017778,
 -0.00039745,0.00020478,-0.00673008,0.00036964,-0.00041477,0.00124887,0
 .00005936,-0.00055971,0.00001138,-0.00012344,-0.00004894,-0.00005075,-
 0.00002965,-0.00001578,0.00000425,-0.00000243,0.00000382,-0.00000455,0
 .00000111,0.00000686,-0.00001070,0.00001123,0.00002421,-0.00000907,-0.
 00001053,-0.00000099,0.00000030,0.00000097,-0.00000101,-0.00000189,-0.
 00000518,0.00000108,0.00000029,-0.00000322,0.00000405,0.07541295,-0.00
 086072,0.00014414,0.00104560,-0.00451088,0.00860311,0.01730910,0.00010
 979,0.00005028,0.00001741,-0.00008279,-0.00062217,0.00017482,0.0012725
 9,-0.00184000,-0.00292292,0.00039439,-0.00002755,-0.00010137,0.0000111
 1,-0.00002514,0.00000543,0.00000461,-0.00000887,0.00001378,-0.00024876
 ,0.00003923,-0.00015595,-0.00000235,0.00000403,-0.00001062,-0.00002247
 ,-0.00001286,0.00003186,0.02972382,-0.10345353,-0.10196353,0.00025706,
 -0.00028175,0.00031874,0.00033751,0.00025423,-0.00025052,-0.00060007,0
 .00122771,-0.00049518,0.00072833,-0.00081596,0.00272143,-0.00001045,0.
 00013095,-0.00002310,-0.00053289,-0.00075910,0.00030690,0.00069925,0.0
 0085187,0.00059825,0.00000084,-0.00007528,-0.00001451,0.00000026,0.000
 03394,0.00001741,0.00002706,-0.00000564,-0.00000202,-0.00000231,0.0000
 0129,0.00000472,0.00000686,-0.00000139,-0.00000622,-0.00000087,0.00000
 207,-0.00000993,0.00000568,0.00000273,-0.00000241,0.00000165,-0.000001
 70,0.00000168,0.00000778,0.00000385,-0.00000154,-0.00000071,-0.0000041
 1,-0.00000258,-0.03520189,0.10965632,0.00003372,-0.00045401,0.00074270
 ,0.00429423,-0.01315121,-0.02145013,0.00006045,0.00003109,0.00000853,0
 .00000121,-0.00116007,-0.00114837,0.00133636,0.00063355,0.00066315,0.0
 0018248,0.00001869,-0.00001078,-0.00001186,-0.00000753,0.00000361,0.00
 000098,-0.00000514,0.00000792,-0.00010636,0.00001234,-0.00004443,-0.00
 000109,0.00000272,-0.00000605,-0.00001130,-0.00000693,0.00001907,0.058
 05790,-0.09939011,-0.23880310,0.00049102,0.00201932,-0.00032578,0.0004
 2299,0.00036854,-0.00018764,0.00022145,0.00009445,0.00167105,-0.001108
 74,0.00319453,-0.00271975,-0.00006506,0.00019369,0.00026055,-0.0003403
 5,0.00029971,0.00042379,-0.00030161,-0.00015165,0.00111183,0.00060283,
 0.00007274,0.00029091,0.00000022,0.00001842,0.00001082,0.00001256,-0.0
 0000142,-0.00000150,-0.00000007,0.00000083,0.00000242,0.00000337,-0.00
 000014,-0.00000352,-0.00000122,-0.00000677,-0.00001978,0.00000288,0.00
 000124,-0.00000112,0.00000082,-0.00000083,0.00000074,0.00000408,0.0000
 0235,-0.00000147,-0.00000130,-0.00000167,-0.00000148,-0.06329897,0.108
 18532,0.26020820,-0.00386690,0.00438501,0.00087723,0.00414846,0.008312
 02,0.00084464,-0.00052628,-0.00013807,-0.00014941,-0.00077714,0.000726
 44,-0.00035006,-0.01496588,-0.03149137,-0.00261071,-0.00338057,-0.0017
 7302,0.00021448,-0.00006026,-0.00001474,-0.00006628,0.00000892,0.00003
 568,-0.00000992,0.00114859,-0.00059806,0.00078990,0.00001144,-0.000010
 45,0.00001508,0.00011673,0.00004283,-0.00013528,-0.09951729,-0.1077651
 1,-0.00329204,0.00072638,0.00119734,-0.00110891,0.00005761,-0.00030836
 ,-0.00033736,-0.00102953,-0.00028811,0.00023731,0.00112942,0.00000909,
 0.00018208,0.00008351,-0.00005341,0.00011300,0.00021622,-0.00002629,0.
 00000051,0.00141497,0.00022963,0.00041202,0.00163085,0.00024523,-0.000
 41248,0.00002669,-0.00001797,-0.00000640,-0.00005161,0.00004765,0.0000
 2203,0.00000333,-0.00000377,-0.00002284,-0.00002407,0.00000517,0.00002
 042,0.00002167,0.00005055,-0.00003301,-0.00001509,-0.00000117,0.000011
 74,-0.00000668,0.00000799,-0.00000331,-0.00003235,-0.00000850,0.000002
 57,0.00000414,0.00002624,0.00000283,0.00425907,0.00848858,-0.00048165,
 0.10924563,0.00161094,0.00045784,0.00008472,-0.00767706,-0.01308965,-0
 .00273301,-0.00004880,-0.00002921,0.00000862,0.00089504,0.00047661,0.0
 0039328,0.00330668,0.00680341,0.00061548,0.00033979,0.00028719,-0.0001
 6714,-0.00000431,0.00001593,0.00000249,-0.00000387,0.00000511,-0.00000
 905,0.00011536,0.00002817,0.00004271,0.00000089,-0.00000274,0.00000768
 ,0.00001470,0.00000695,-0.00001688,-0.11004806,-0.26730154,-0.00774375
 ,0.00013807,-0.00210729,0.00216820,-0.00001680,0.00015050,0.00002848,0
 .00069539,-0.00025632,0.00077462,-0.00026976,0.00155351,-0.00009145,-0
 .00008698,0.00000317,0.00004751,-0.00020624,0.00006619,0.00007156,-0.0
 0059077,0.00016785,0.00005616,-0.00064969,0.00048090,-0.00006912,0.000
 00040,-0.00002182,-0.00001218,-0.00001515,0.00000323,0.00000070,0.0000
 0042,-0.00000078,-0.00000159,-0.00000430,0.00000041,0.00000406,0.00000
 100,0.00000042,0.00001289,-0.00000339,-0.00000207,0.00000122,-0.000000
 78,0.00000107,-0.00000119,-0.00000427,-0.00000288,0.00000195,0.0000001
 1,0.00000106,0.00000233,-0.00617753,-0.01307072,-0.00081203,0.11868894
 ,0.28537551,-0.00038660,0.00019941,0.00087653,0.01303384,0.02141165,0.
 00053280,-0.00003438,-0.00000986,-0.00000792,-0.00093702,-0.00113492,-
 0.00135542,0.00035965,0.00037560,-0.00112061,-0.00022973,-0.00013123,0
 .00008995,0.00000134,0.00000583,-0.00000308,-0.00000118,0.00000184,-0.
 00000315,0.00010645,-0.00005689,0.00007676,0.00000164,-0.00000151,0.00
 000307,0.00000947,0.00000314,-0.00001110,-0.00456301,-0.00968704,-0.04
 709100,0.00059102,0.00563260,-0.00463115,0.00027377,0.00020669,-0.0000
 3548,-0.00106052,0.00034351,-0.00014654,0.00096954,-0.00007627,0.00101
 690,0.00005670,0.00012377,0.00023252,-0.00016507,0.00018196,0.00029741
 ,-0.00021636,0.00036537,0.00019468,-0.00003062,-0.00029579,0.00008027,
 -0.00000165,-0.00000546,-0.00000104,-0.00000614,0.00000106,0.00000031,
 0.00000128,0.00000068,-0.00000233,-0.00000227,0.00000073,0.00000131,0.
 00000375,0.00000018,-0.00000940,-0.00000146,-0.00000059,0.00000076,-0.
 00000052,0.00000049,-0.00000054,-0.00000293,-0.00000030,-0.00000031,-0
 .00000034,0.00000266,0.00000001,-0.01304247,-0.02479002,-0.00070038,0.
 00527382,0.00733272,0.05171615\\0.00011849,0.00053378,0.00032899,-0.00
 000010,0.00000511,0.00000019,-0.00030430,0.00010779,0.00050728,0.00000
 903,-0.00000383,0.00000846,-0.00001378,-0.00000529,0.00000070,-0.00026
 852,-0.00071278,-0.00029551,0.00000651,-0.00000923,-0.00000610,0.00000
 271,-0.00000528,-0.00000015,0.00045487,0.00009054,-0.00054209,0.000000
 06,-0.00000755,-0.00000161,-0.00000646,-0.00000668,0.00000811,0.000005
 87,-0.00000226,0.00000389,-0.00000269,-0.00000556,-0.00000704,-0.00000
 018,0.00000304,-0.00000058,0.00000057,0.00000470,-0.00000092,-0.000000
 20,0.00000346,0.00000034,-0.00000044,0.00000337,-0.00000121,0.00000302
 ,0.00000032,-0.00000090,0.00000032,0.00000220,-0.00000055,0.00000372,0
 .00000282,-0.00000034,-0.00000354,0.00000047,0.00000475,-0.00000205,0.
 00000113,-0.00000009,-0.00000107,-0.00000208,0.00000203,-0.00000110,-0
 .00000088,-0.00000154,-0.00000143,0.00000075,0.00000004,0.00000050,-0.
 00000071,0.00000137,-0.00000064,-0.00000462,-0.00000113,0.00000134,-0.
 00000155,-0.00000284,0.00000130,-0.00000017,-0.00000340,0.00000010,0.0
 0000370,-0.00000034,-0.00000193,0.00000528,0.00000018\\\@


 ERWIN WITH HIS PSI CAN DO
 CALCULATIONS QUITE A FEW.
 BUT ONE THING HAS NOT BEEN SEEN
 JUST WHAT DOES PSI REALLY MEAN.
 -- WALTER HUCKEL, TRANS. BY FELIX BLOCH
 Job cpu time:       0 days 14 hours 15 minutes 55.3 seconds.
 Elapsed time:       0 days  0 hours 53 minutes 31.5 seconds.
 File lengths (MBytes):  RWF=    686 Int=      0 D2E=      0 Chk=     33 Scr=      1
 Normal termination of Gaussian 16 at Sun Nov  4 22:50:29 2018.
