 Entering Gaussian System, Link 0=g16
 Initial command:
 /apps/gaussian/g16a03/g16/l1.exe "/jobfs/local/2012004.r-man2/Gau-27175.inp" -scrdir="/jobfs/local/2012004.r-man2/"
 Entering Link 1 = /apps/gaussian/g16a03/g16/l1.exe PID=     27176.
  
 Copyright (c) 1988,1990,1992,1993,1995,1998,2003,2009,2016,
            Gaussian, Inc.  All Rights Reserved.
  
 This is part of the Gaussian(R) 16 program.  It is based on
 the Gaussian(R) 09 system (copyright 2009, Gaussian, Inc.),
 the Gaussian(R) 03 system (copyright 2003, Gaussian, Inc.),
 the Gaussian(R) 98 system (copyright 1998, Gaussian, Inc.),
 the Gaussian(R) 94 system (copyright 1995, Gaussian, Inc.),
 the Gaussian 92(TM) system (copyright 1992, Gaussian, Inc.),
 the Gaussian 90(TM) system (copyright 1990, Gaussian, Inc.),
 the Gaussian 88(TM) system (copyright 1988, Gaussian, Inc.),
 the Gaussian 86(TM) system (copyright 1986, Carnegie Mellon
 University), and the Gaussian 82(TM) system (copyright 1983,
 Carnegie Mellon University). Gaussian is a federally registered
 trademark of Gaussian, Inc.
  
 This software contains proprietary and confidential information,
 including trade secrets, belonging to Gaussian, Inc.
  
 This software is provided under written license and may be
 used, copied, transmitted, or stored only in accord with that
 written license.
  
 The following legend is applicable only to US Government
 contracts under FAR:
  
                    RESTRICTED RIGHTS LEGEND
  
 Use, reproduction and disclosure by the US Government is
 subject to restrictions as set forth in subparagraphs (a)
 and (c) of the Commercial Computer Software - Restricted
 Rights clause in FAR 52.227-19.
  
 Gaussian, Inc.
 340 Quinnipiac St., Bldg. 40, Wallingford CT 06492
  
  
 ---------------------------------------------------------------
 Warning -- This program may not be used in any manner that
 competes with the business of Gaussian, Inc. or will provide
 assistance to any competitor of Gaussian, Inc.  The licensee
 of this program is prohibited from giving any competitor of
 Gaussian, Inc. access to this program.  By using this program,
 the user acknowledges that Gaussian, Inc. is engaged in the
 business of creating and licensing software in the field of
 computational chemistry and represents and warrants to the
 licensee that it is not a competitor of Gaussian, Inc. and that
 it will not use this program in any manner prohibited above.
 ---------------------------------------------------------------
  

 Cite this work as:
 Gaussian 16, Revision A.03,
 M. J. Frisch, G. W. Trucks, H. B. Schlegel, G. E. Scuseria, 
 M. A. Robb, J. R. Cheeseman, G. Scalmani, V. Barone, 
 G. A. Petersson, H. Nakatsuji, X. Li, M. Caricato, A. V. Marenich, 
 J. Bloino, B. G. Janesko, R. Gomperts, B. Mennucci, H. P. Hratchian, 
 J. V. Ortiz, A. F. Izmaylov, J. L. Sonnenberg, D. Williams-Young, 
 F. Ding, F. Lipparini, F. Egidi, J. Goings, B. Peng, A. Petrone, 
 T. Henderson, D. Ranasinghe, V. G. Zakrzewski, J. Gao, N. Rega, 
 G. Zheng, W. Liang, M. Hada, M. Ehara, K. Toyota, R. Fukuda, 
 J. Hasegawa, M. Ishida, T. Nakajima, Y. Honda, O. Kitao, H. Nakai, 
 T. Vreven, K. Throssell, J. A. Montgomery, Jr., J. E. Peralta, 
 F. Ogliaro, M. J. Bearpark, J. J. Heyd, E. N. Brothers, K. N. Kudin, 
 V. N. Staroverov, T. A. Keith, R. Kobayashi, J. Normand, 
 K. Raghavachari, A. P. Rendell, J. C. Burant, S. S. Iyengar, 
 J. Tomasi, M. Cossi, J. M. Millam, M. Klene, C. Adamo, R. Cammi, 
 J. W. Ochterski, R. L. Martin, K. Morokuma, O. Farkas, 
 J. B. Foresman, and D. J. Fox, Gaussian, Inc., Wallingford CT, 2016.
 
 ******************************************
 Gaussian 16:  ES64L-G16RevA.03 25-Dec-2016
                 4-Nov-2018 
 ******************************************
 %mem=6000mb
 %nproc=24
 Will use up to   24 processors via shared memory.
 %chk=D_a1-4_2SO_PHI.inp_extract_4.chk
 ----------------------------------------------------------------------
 #M062X/6-311++G(2d,2p) opt=ModRedundant freq=noraman SCRF=(Solvent=Wat
 er)
 ----------------------------------------------------------------------
 1/18=120,19=15,26=3,38=1/1,3;
 2/9=110,12=2,17=6,18=5,40=1/2;
 3/5=4,6=6,7=1212,11=2,25=1,30=1,70=2201,71=1,72=1,74=-55/1,2,3;
 4//1;
 5/5=2,38=5,53=1/2;
 6/7=2,8=2,9=2,10=2,28=1/1;
 7//1,2,3,16;
 1/18=20,19=15,26=3/3(2);
 2/9=110/2;
 99//99;
 2/9=110/2;
 3/5=4,6=6,7=1212,11=2,25=1,30=1,70=2205,71=1,72=1,74=-55/1,2,3;
 4/5=5,16=3,69=1/1;
 5/5=2,38=5,53=1/2;
 7//1,2,3,16;
 1/18=20,19=15,26=3/3(-5);
 2/9=110/2;
 6/7=2,8=2,9=2,10=2,19=2,28=1/1;
 99/9=1/99;
 ----------------------------
 D_a1-4_2SO_PHI.inp_extract_4
 ----------------------------
 Symbolic Z-matrix:
 Charge =  0 Multiplicity = 1
 C                     1.11824  -0.28854  -0.70003 
 C                     3.6711    0.0821    0.76205 
 O                    -2.27753  -0.86222  -1.00236 
 C                     2.0084   -1.3694   -0.08357 
 C                     1.70133   1.09649  -0.39764 
 O                    -0.19514  -0.44954  -0.18469 
 C                    -1.7849    1.38825  -0.30497 
 C                    -2.49383   1.13868   1.02671 
 C                    -1.25828   0.09719  -0.92098 
 C                    -3.55835   0.05706   0.84787 
 C                    -2.94267  -1.17869   0.21462 
 C                     3.22676   1.01127  -0.37287 
 O                     2.68184  -0.89238   1.05979 
 H                     1.08092  -0.45263  -1.77223 
 H                     4.6017   -0.42026   0.5152 
 H                     3.81656   0.63822   1.67844 
 H                     1.41318  -2.21591   0.22608 
 H                     2.73481  -1.7124   -0.81386 
 H                     1.34168   1.42467   0.57248 
 H                     1.36468   1.82043  -1.13127 
 H                    -0.96866   2.09104  -0.19071 
 H                    -2.48745   1.82     -1.01345 
 H                    -1.77466   0.82332   1.77831 
 H                    -2.94151   2.06101   1.3839 
 H                    -0.93775   0.26148  -1.93986 
 H                    -4.00358  -0.21716   1.80006 
 H                    -4.35622   0.42763   0.20843 
 H                    -3.69659  -1.90689  -0.05016 
 H                    -2.24206  -1.65029   0.89515 
 H                     3.58751   0.64304  -1.32913 
 H                     3.66731   1.99143  -0.22651 
 
 The following ModRedundant input section has been read:
 D       1       6       9       3 F                                           
 

 GradGradGradGradGradGradGradGradGradGradGradGradGradGradGradGradGradGrad
 Berny optimization.
 Initialization pass.
                           ----------------------------
                           !    Initial Parameters    !
                           ! (Angstroms and Degrees)  !
 --------------------------                            --------------------------
 ! Name  Definition              Value          Derivative Info.                !
 --------------------------------------------------------------------------------
 ! R1    R(1,4)                  1.5299         estimate D2E/DX2                !
 ! R2    R(1,5)                  1.5329         estimate D2E/DX2                !
 ! R3    R(1,6)                  1.42           estimate D2E/DX2                !
 ! R4    R(1,14)                 1.0853         estimate D2E/DX2                !
 ! R5    R(2,12)                 1.5326         estimate D2E/DX2                !
 ! R6    R(2,13)                 1.4202         estimate D2E/DX2                !
 ! R7    R(2,15)                 1.086          estimate D2E/DX2                !
 ! R8    R(2,16)                 1.0818         estimate D2E/DX2                !
 ! R9    R(3,9)                  1.4021         estimate D2E/DX2                !
 ! R10   R(3,11)                 1.4225         estimate D2E/DX2                !
 ! R11   R(4,13)                 1.4101         estimate D2E/DX2                !
 ! R12   R(4,17)                 1.0802         estimate D2E/DX2                !
 ! R13   R(4,18)                 1.0857         estimate D2E/DX2                !
 ! R14   R(5,12)                 1.528          estimate D2E/DX2                !
 ! R15   R(5,19)                 1.0854         estimate D2E/DX2                !
 ! R16   R(5,20)                 1.0843         estimate D2E/DX2                !
 ! R17   R(6,9)                  1.404          estimate D2E/DX2                !
 ! R18   R(7,8)                  1.5291         estimate D2E/DX2                !
 ! R19   R(7,9)                  1.5243         estimate D2E/DX2                !
 ! R20   R(7,21)                 1.0831         estimate D2E/DX2                !
 ! R21   R(7,22)                 1.0872         estimate D2E/DX2                !
 ! R22   R(8,10)                 1.5281         estimate D2E/DX2                !
 ! R23   R(8,23)                 1.087          estimate D2E/DX2                !
 ! R24   R(8,24)                 1.0857         estimate D2E/DX2                !
 ! R25   R(9,25)                 1.0807         estimate D2E/DX2                !
 ! R26   R(10,11)                1.5189         estimate D2E/DX2                !
 ! R27   R(10,26)                1.0863         estimate D2E/DX2                !
 ! R28   R(10,27)                1.0876         estimate D2E/DX2                !
 ! R29   R(11,28)                1.0811         estimate D2E/DX2                !
 ! R30   R(11,29)                1.0846         estimate D2E/DX2                !
 ! R31   R(12,30)                1.0864         estimate D2E/DX2                !
 ! R32   R(12,31)                1.0845         estimate D2E/DX2                !
 ! A1    A(4,1,5)              109.7264         estimate D2E/DX2                !
 ! A2    A(4,1,6)              108.1681         estimate D2E/DX2                !
 ! A3    A(4,1,14)             108.1346         estimate D2E/DX2                !
 ! A4    A(5,1,6)              112.4994         estimate D2E/DX2                !
 ! A5    A(5,1,14)             110.1555         estimate D2E/DX2                !
 ! A6    A(6,1,14)             108.0339         estimate D2E/DX2                !
 ! A7    A(12,2,13)            111.6729         estimate D2E/DX2                !
 ! A8    A(12,2,15)            111.1356         estimate D2E/DX2                !
 ! A9    A(12,2,16)            110.7704         estimate D2E/DX2                !
 ! A10   A(13,2,15)            109.0966         estimate D2E/DX2                !
 ! A11   A(13,2,16)            105.594          estimate D2E/DX2                !
 ! A12   A(15,2,16)            108.3693         estimate D2E/DX2                !
 ! A13   A(9,3,11)             116.261          estimate D2E/DX2                !
 ! A14   A(1,4,13)             111.4443         estimate D2E/DX2                !
 ! A15   A(1,4,17)             110.3987         estimate D2E/DX2                !
 ! A16   A(1,4,18)             109.9663         estimate D2E/DX2                !
 ! A17   A(13,4,17)            107.2084         estimate D2E/DX2                !
 ! A18   A(13,4,18)            109.436          estimate D2E/DX2                !
 ! A19   A(17,4,18)            108.297          estimate D2E/DX2                !
 ! A20   A(1,5,12)             109.4234         estimate D2E/DX2                !
 ! A21   A(1,5,19)             108.872          estimate D2E/DX2                !
 ! A22   A(1,5,20)             110.5906         estimate D2E/DX2                !
 ! A23   A(12,5,19)            109.4603         estimate D2E/DX2                !
 ! A24   A(12,5,20)            110.9882         estimate D2E/DX2                !
 ! A25   A(19,5,20)            107.4569         estimate D2E/DX2                !
 ! A26   A(1,6,9)              117.7669         estimate D2E/DX2                !
 ! A27   A(8,7,9)              111.9538         estimate D2E/DX2                !
 ! A28   A(8,7,21)             111.3089         estimate D2E/DX2                !
 ! A29   A(8,7,22)             109.4352         estimate D2E/DX2                !
 ! A30   A(9,7,21)             109.3805         estimate D2E/DX2                !
 ! A31   A(9,7,22)             107.2327         estimate D2E/DX2                !
 ! A32   A(21,7,22)            107.341          estimate D2E/DX2                !
 ! A33   A(7,8,10)             109.6683         estimate D2E/DX2                !
 ! A34   A(7,8,23)             110.0464         estimate D2E/DX2                !
 ! A35   A(7,8,24)             109.8182         estimate D2E/DX2                !
 ! A36   A(10,8,23)            109.6618         estimate D2E/DX2                !
 ! A37   A(10,8,24)            110.6447         estimate D2E/DX2                !
 ! A38   A(23,8,24)            106.9656         estimate D2E/DX2                !
 ! A39   A(3,9,6)              108.3265         estimate D2E/DX2                !
 ! A40   A(3,9,7)              110.6011         estimate D2E/DX2                !
 ! A41   A(3,9,25)             105.3616         estimate D2E/DX2                !
 ! A42   A(6,9,7)              112.3011         estimate D2E/DX2                !
 ! A43   A(6,9,25)             109.2105         estimate D2E/DX2                !
 ! A44   A(7,9,25)             110.7756         estimate D2E/DX2                !
 ! A45   A(8,10,11)            110.0159         estimate D2E/DX2                !
 ! A46   A(8,10,26)            111.1991         estimate D2E/DX2                !
 ! A47   A(8,10,27)            109.7974         estimate D2E/DX2                !
 ! A48   A(11,10,26)           109.038          estimate D2E/DX2                !
 ! A49   A(11,10,27)           109.2359         estimate D2E/DX2                !
 ! A50   A(26,10,27)           107.4986         estimate D2E/DX2                !
 ! A51   A(3,11,10)            111.4195         estimate D2E/DX2                !
 ! A52   A(3,11,28)            105.4493         estimate D2E/DX2                !
 ! A53   A(3,11,29)            109.3585         estimate D2E/DX2                !
 ! A54   A(10,11,28)           111.5574         estimate D2E/DX2                !
 ! A55   A(10,11,29)           110.7317         estimate D2E/DX2                !
 ! A56   A(28,11,29)           108.1357         estimate D2E/DX2                !
 ! A57   A(2,12,5)             109.588          estimate D2E/DX2                !
 ! A58   A(2,12,30)            110.492          estimate D2E/DX2                !
 ! A59   A(2,12,31)            109.2825         estimate D2E/DX2                !
 ! A60   A(5,12,30)            109.6422         estimate D2E/DX2                !
 ! A61   A(5,12,31)            110.9343         estimate D2E/DX2                !
 ! A62   A(30,12,31)           106.8718         estimate D2E/DX2                !
 ! A63   A(2,13,4)             113.254          estimate D2E/DX2                !
 ! D1    D(5,1,4,13)            28.4028         estimate D2E/DX2                !
 ! D2    D(5,1,4,17)           147.4274         estimate D2E/DX2                !
 ! D3    D(5,1,4,18)           -93.1353         estimate D2E/DX2                !
 ! D4    D(6,1,4,13)           -94.6583         estimate D2E/DX2                !
 ! D5    D(6,1,4,17)            24.3663         estimate D2E/DX2                !
 ! D6    D(6,1,4,18)           143.8036         estimate D2E/DX2                !
 ! D7    D(14,1,4,13)          148.5766         estimate D2E/DX2                !
 ! D8    D(14,1,4,17)          -92.3988         estimate D2E/DX2                !
 ! D9    D(14,1,4,18)           27.0384         estimate D2E/DX2                !
 ! D10   D(4,1,5,12)            33.6454         estimate D2E/DX2                !
 ! D11   D(4,1,5,19)           -85.9493         estimate D2E/DX2                !
 ! D12   D(4,1,5,20)           156.2053         estimate D2E/DX2                !
 ! D13   D(6,1,5,12)           154.1134         estimate D2E/DX2                !
 ! D14   D(6,1,5,19)            34.5187         estimate D2E/DX2                !
 ! D15   D(6,1,5,20)           -83.3268         estimate D2E/DX2                !
 ! D16   D(14,1,5,12)          -85.291          estimate D2E/DX2                !
 ! D17   D(14,1,5,19)          155.1143         estimate D2E/DX2                !
 ! D18   D(14,1,5,20)           37.2689         estimate D2E/DX2                !
 ! D19   D(4,1,6,9)           -158.4022         estimate D2E/DX2                !
 ! D20   D(5,1,6,9)             80.2364         estimate D2E/DX2                !
 ! D21   D(14,1,6,9)           -41.572          estimate D2E/DX2                !
 ! D22   D(13,2,12,5)           27.3668         estimate D2E/DX2                !
 ! D23   D(13,2,12,30)         -93.5562         estimate D2E/DX2                !
 ! D24   D(13,2,12,31)         149.1211         estimate D2E/DX2                !
 ! D25   D(15,2,12,5)          149.4443         estimate D2E/DX2                !
 ! D26   D(15,2,12,30)          28.5213         estimate D2E/DX2                !
 ! D27   D(15,2,12,31)         -88.8013         estimate D2E/DX2                !
 ! D28   D(16,2,12,5)          -90.0267         estimate D2E/DX2                !
 ! D29   D(16,2,12,30)         149.0503         estimate D2E/DX2                !
 ! D30   D(16,2,12,31)          31.7277         estimate D2E/DX2                !
 ! D31   D(12,2,13,4)           37.2518         estimate D2E/DX2                !
 ! D32   D(15,2,13,4)          -85.9909         estimate D2E/DX2                !
 ! D33   D(16,2,13,4)          157.7223         estimate D2E/DX2                !
 ! D34   D(11,3,9,6)            67.8955         estimate D2E/DX2                !
 ! D35   D(11,3,9,7)           -55.5791         estimate D2E/DX2                !
 ! D36   D(11,3,9,25)         -175.3314         estimate D2E/DX2                !
 ! D37   D(9,3,11,10)           57.5611         estimate D2E/DX2                !
 ! D38   D(9,3,11,28)          178.7531         estimate D2E/DX2                !
 ! D39   D(9,3,11,29)          -65.1819         estimate D2E/DX2                !
 ! D40   D(1,4,13,2)           -68.8684         estimate D2E/DX2                !
 ! D41   D(17,4,13,2)          170.2226         estimate D2E/DX2                !
 ! D42   D(18,4,13,2)           52.9773         estimate D2E/DX2                !
 ! D43   D(1,5,12,2)           -63.0331         estimate D2E/DX2                !
 ! D44   D(1,5,12,30)           58.4028         estimate D2E/DX2                !
 ! D45   D(1,5,12,31)          176.2089         estimate D2E/DX2                !
 ! D46   D(19,5,12,2)           56.1988         estimate D2E/DX2                !
 ! D47   D(19,5,12,30)         177.6348         estimate D2E/DX2                !
 ! D48   D(19,5,12,31)         -64.5592         estimate D2E/DX2                !
 ! D49   D(20,5,12,2)          174.6444         estimate D2E/DX2                !
 ! D50   D(20,5,12,30)         -63.9196         estimate D2E/DX2                !
 ! D51   D(20,5,12,31)          53.8864         estimate D2E/DX2                !
 ! D52   D(1,6,9,3)            133.8938         Frozen                          !
 ! D53   D(1,6,9,7)           -103.6618         estimate D2E/DX2                !
 ! D54   D(1,6,9,25)            19.6302         estimate D2E/DX2                !
 ! D55   D(9,7,8,10)           -52.4763         estimate D2E/DX2                !
 ! D56   D(9,7,8,23)            68.2395         estimate D2E/DX2                !
 ! D57   D(9,7,8,24)          -174.2657         estimate D2E/DX2                !
 ! D58   D(21,7,8,10)         -175.2464         estimate D2E/DX2                !
 ! D59   D(21,7,8,23)          -54.5306         estimate D2E/DX2                !
 ! D60   D(21,7,8,24)           62.9642         estimate D2E/DX2                !
 ! D61   D(22,7,8,10)           66.2708         estimate D2E/DX2                !
 ! D62   D(22,7,8,23)         -173.0134         estimate D2E/DX2                !
 ! D63   D(22,7,8,24)          -55.5186         estimate D2E/DX2                !
 ! D64   D(8,7,9,3)             52.4015         estimate D2E/DX2                !
 ! D65   D(8,7,9,6)            -68.746          estimate D2E/DX2                !
 ! D66   D(8,7,9,25)           168.8439         estimate D2E/DX2                !
 ! D67   D(21,7,9,3)           176.2596         estimate D2E/DX2                !
 ! D68   D(21,7,9,6)            55.1121         estimate D2E/DX2                !
 ! D69   D(21,7,9,25)          -67.298          estimate D2E/DX2                !
 ! D70   D(22,7,9,3)           -67.6413         estimate D2E/DX2                !
 ! D71   D(22,7,9,6)           171.2112         estimate D2E/DX2                !
 ! D72   D(22,7,9,25)           48.8011         estimate D2E/DX2                !
 ! D73   D(7,8,10,11)           52.9237         estimate D2E/DX2                !
 ! D74   D(7,8,10,26)          173.8312         estimate D2E/DX2                !
 ! D75   D(7,8,10,27)          -67.3277         estimate D2E/DX2                !
 ! D76   D(23,8,10,11)         -68.0247         estimate D2E/DX2                !
 ! D77   D(23,8,10,26)          52.8828         estimate D2E/DX2                !
 ! D78   D(23,8,10,27)         171.7238         estimate D2E/DX2                !
 ! D79   D(24,8,10,11)         174.2168         estimate D2E/DX2                !
 ! D80   D(24,8,10,26)         -64.8757         estimate D2E/DX2                !
 ! D81   D(24,8,10,27)          53.9654         estimate D2E/DX2                !
 ! D82   D(8,10,11,3)          -54.4897         estimate D2E/DX2                !
 ! D83   D(8,10,11,28)        -172.048          estimate D2E/DX2                !
 ! D84   D(8,10,11,29)          67.4621         estimate D2E/DX2                !
 ! D85   D(26,10,11,3)        -176.6865         estimate D2E/DX2                !
 ! D86   D(26,10,11,28)         65.7552         estimate D2E/DX2                !
 ! D87   D(26,10,11,29)        -54.7346         estimate D2E/DX2                !
 ! D88   D(27,10,11,3)          66.1007         estimate D2E/DX2                !
 ! D89   D(27,10,11,28)        -51.4577         estimate D2E/DX2                !
 ! D90   D(27,10,11,29)       -171.9475         estimate D2E/DX2                !
 --------------------------------------------------------------------------------
 Trust Radius=3.00D-01 FncErr=1.00D-07 GrdErr=1.00D-06 EigMax=2.50D+02 EigMin=1.00D-04
 Number of steps in this run=    186 maximum allowed number of steps=    186.
 GradGradGradGradGradGradGradGradGradGradGradGradGradGradGradGradGradGrad

                          Input orientation:                          
 ---------------------------------------------------------------------
 Center     Atomic      Atomic             Coordinates (Angstroms)
 Number     Number       Type             X           Y           Z
 ---------------------------------------------------------------------
      1          6           0        1.118238   -0.288539   -0.700028
      2          6           0        3.671097    0.082098    0.762051
      3          8           0       -2.277534   -0.862219   -1.002364
      4          6           0        2.008395   -1.369402   -0.083570
      5          6           0        1.701329    1.096493   -0.397636
      6          8           0       -0.195143   -0.449542   -0.184688
      7          6           0       -1.784895    1.388252   -0.304973
      8          6           0       -2.493827    1.138679    1.026707
      9          6           0       -1.258284    0.097185   -0.920980
     10          6           0       -3.558347    0.057056    0.847871
     11          6           0       -2.942669   -1.178691    0.214622
     12          6           0        3.226765    1.011265   -0.372866
     13          8           0        2.681843   -0.892380    1.059794
     14          1           0        1.080924   -0.452631   -1.772225
     15          1           0        4.601703   -0.420259    0.515203
     16          1           0        3.816560    0.638223    1.678443
     17          1           0        1.413176   -2.215905    0.226075
     18          1           0        2.734805   -1.712403   -0.813856
     19          1           0        1.341683    1.424667    0.572483
     20          1           0        1.364675    1.820427   -1.131268
     21          1           0       -0.968659    2.091041   -0.190705
     22          1           0       -2.487449    1.819995   -1.013450
     23          1           0       -1.774661    0.823323    1.778307
     24          1           0       -2.941508    2.061008    1.383896
     25          1           0       -0.937754    0.261478   -1.939864
     26          1           0       -4.003584   -0.217158    1.800058
     27          1           0       -4.356218    0.427631    0.208433
     28          1           0       -3.696591   -1.906885   -0.050161
     29          1           0       -2.242061   -1.650285    0.895145
     30          1           0        3.587511    0.643044   -1.329133
     31          1           0        3.667308    1.991426   -0.226509
 ---------------------------------------------------------------------
                    Distance matrix (angstroms):
                    1          2          3          4          5
     1  C    0.000000
     2  C    2.965154   0.000000
     3  O    3.457135   6.276233   0.000000
     4  C    1.529923   2.363579   4.412551   0.000000
     5  C    1.532889   2.500771   4.475891   2.504709   0.000000
     6  O    1.420024   4.015815   2.274917   2.389968   2.456049
     7  C    3.375778   5.710729   2.407004   4.694968   3.499638
     8  C    4.250362   6.260407   2.857885   5.271925   4.430561
     9  C    2.417739   5.208802   1.402123   3.677407   3.167304
    10  C    4.938206   7.229997   2.430827   5.821596   5.504172
    11  C    4.256750   6.755085   1.422538   4.963701   5.207498
    12  C    2.498482   1.532586   5.848377   2.689924   1.528016
    13  O    2.430321   1.420170   5.371110   1.410093   2.653512
    14  H    1.085322   3.662989   3.469825   2.133595   2.161986
    15  H    3.691702   1.085967   7.058487   2.825712   3.397938
    16  H    3.714425   1.081762   6.824664   3.225633   2.999053
    17  H    2.158563   3.265929   4.118600   1.080154   3.382902
    18  H    2.157228   2.565221   5.087425   1.085651   3.021789
    19  H    2.145760   2.695292   4.561658   2.946478   1.085437
    20  H    2.166665   3.453408   4.525361   3.418634   1.084266
    21  H    3.205768   5.144991   3.330719   4.566070   2.856708
    22  H    4.188690   6.640812   2.690438   5.590129   4.295177
    23  H    3.968280   5.589139   3.290299   4.752488   4.109970
    24  H    5.132704   6.930319   3.831495   6.198605   5.065578
    25  H    2.463091   5.345468   1.984090   3.845178   3.168671
    26  H    5.699876   7.750338   3.353941   6.404656   6.253125
    27  H    5.595344   8.053799   2.729591   6.619886   6.124424
    28  H    5.120932   7.674540   2.002933   5.730346   6.186967
    29  H    3.961128   6.163141   2.054957   4.370716   4.976585
    30  H    2.713103   2.166725   6.063938   2.845167   2.151972
    31  H    3.452567   2.150069   6.639758   3.750678   2.166856
                    6          7          8          9         10
     6  O    0.000000
     7  C    2.432954   0.000000
     8  C    3.045303   1.529131   0.000000
     9  C    1.404032   1.524348   2.530763   0.000000
    10  C    3.554428   2.499253   1.528101   2.901850   0.000000
    11  C    2.870541   2.863497   2.496226   2.398876   1.518925
    12  C    3.725429   5.026277   5.890689   4.609950   6.959774
    13  O    3.165737   5.197655   5.560023   4.519658   6.315561
    14  H    2.036819   3.708719   4.810939   2.549276   5.352338
    15  H    4.847725   6.688201   7.282752   6.055561   8.180765
    16  H    4.555025   5.989389   6.363662   5.727457   7.444250
    17  H    2.423934   4.847640   5.211422   3.715215   5.501729
    18  H    3.251963   5.504608   6.233373   4.385299   6.745078
    19  H    2.539252   3.247575   3.872886   3.279096   5.094751
    20  H    2.912354   3.284712   4.473217   3.145425   5.591298
    21  H    2.655734   1.083149   2.171456   2.143046   3.452857
    22  H    3.330512   1.087163   2.150924   2.118365   2.778361
    23  H    2.822838   2.158542   1.086992   2.842547   2.152768
    24  H    4.038049   2.154677   1.085676   3.464433   2.164171
    25  H    2.034125   2.158735   3.462858   1.080674   3.831548
    26  H    4.300865   3.454139   2.171574   3.878083   1.086319
    27  H    4.270658   2.792504   2.154916   3.313905   1.087568
    28  H    3.795008   3.818041   3.446991   3.274136   2.163940
    29  H    2.607239   3.298786   2.803393   2.705509   2.156353
    30  H    4.100240   5.519691   6.540513   4.893494   7.493064
    31  H    4.569311   5.486027   6.344865   5.322771   7.556862
                   11         12         13         14         15
    11  C    0.000000
    12  C    6.572896   0.000000
    13  O    5.694860   2.444037   0.000000
    14  H    4.545770   2.950564   3.282781   0.000000
    15  H    7.588354   2.174484   2.050693   4.198721   0.000000
    16  H    7.150603   2.166769   2.003261   4.536604   1.757828
    17  H    4.477648   3.749995   2.014031   2.685653   3.670782
    18  H    5.794508   2.802653   2.045924   2.289284   2.630844
    19  H    5.026053   2.148981   2.720700   3.014946   3.746300
    20  H    5.418426   2.167325   3.727601   2.378683   4.267305
    21  H    3.840853   4.335975   4.877572   3.629361   6.150924
    22  H    3.272232   5.806603   6.194909   4.298122   7.590230
    23  H    2.795964   5.447672   4.829112   4.731670   6.618153
    24  H    3.444249   6.498905   6.360002   5.697319   7.988200
    25  H    3.276520   4.512303   4.840539   2.147816   6.097352
    26  H    2.136280   7.649089   6.760092   6.218430   8.703049
    27  H    2.139726   7.627593   7.211210   5.853237   9.003187
    28  H    1.081099   7.520146   6.553292   5.282519   8.449342
    29  H    1.084603   6.212870   4.984612   4.426225   6.963794
    30  H    6.953068   1.086357   2.980727   2.771247   2.358129
    31  H    7.344116   1.084534   3.307878   3.879695   2.690624
                   16         17         18         19         20
    16  H    0.000000
    17  H    4.003957   0.000000
    18  H    3.592658   1.755470   0.000000
    19  H    2.822527   3.657714   3.701882   0.000000
    20  H    3.912010   4.258721   3.802485   1.749263   0.000000
    21  H    5.338793   4.939294   5.345105   2.522735   2.530284
    22  H    6.955818   5.748025   6.307901   4.163378   3.853925
    23  H    5.595175   4.669972   5.786579   3.395177   4.394915
    24  H    6.912493   6.212552   7.161653   4.405570   4.992709
    25  H    5.986450   4.044205   4.318772   3.586186   2.895743
    26  H    7.867726   5.984455   7.380663   5.724894   6.446909
    27  H    8.306598   6.346219   7.477127   5.795920   6.038485
    28  H    8.118687   5.126550   6.479499   6.072160   6.377935
    29  H    6.523627   3.758768   5.262484   4.733145   5.400068
    30  H    3.016289   3.914076   2.557489   3.044802   2.523169
    31  H    2.341426   4.794536   3.864309   2.523517   2.479909
                   21         22         23         24         25
    21  H    0.000000
    22  H    1.748456   0.000000
    23  H    2.476642   3.048824   0.000000
    24  H    2.524362   2.451841   1.746126   0.000000
    25  H    2.531366   2.385115   3.852386   4.277934   0.000000
    26  H    4.301359   3.790051   2.459913   2.547791   4.859570
    27  H    3.794970   2.631344   3.047214   2.459886   4.040877
    28  H    4.841981   4.034797   3.806724   4.286122   3.985468
    29  H    4.098554   3.968097   2.667803   3.808123   3.659690
    30  H    4.914407   6.195967   6.200127   7.211050   4.582206
    31  H    4.637175   6.207230   5.915977   6.802551   5.209117
                   26         27         28         29         30
    26  H    0.000000
    27  H    1.753104   0.000000
    28  H    2.524427   2.439661   0.000000
    29  H    2.444521   3.042855   1.753598   0.000000
    30  H    8.255695   8.094031   7.822790   6.647607   0.000000
    31  H    8.235739   8.186061   8.333963   7.031416   1.743640
                   31
    31  H    0.000000
 Stoichiometry    C10H18O3
 Framework group  C1[X(C10H18O3)]
 Deg. of freedom    87
 Full point group                 C1      NOp   1
 Largest Abelian subgroup         C1      NOp   1
 Largest concise Abelian subgroup C1      NOp   1
                         Standard orientation:                         
 ---------------------------------------------------------------------
 Center     Atomic      Atomic             Coordinates (Angstroms)
 Number     Number       Type             X           Y           Z
 ---------------------------------------------------------------------
      1          6           0        1.118238   -0.288539   -0.700028
      2          6           0        3.671097    0.082098    0.762051
      3          8           0       -2.277534   -0.862219   -1.002364
      4          6           0        2.008395   -1.369402   -0.083570
      5          6           0        1.701329    1.096493   -0.397636
      6          8           0       -0.195143   -0.449542   -0.184688
      7          6           0       -1.784895    1.388252   -0.304973
      8          6           0       -2.493827    1.138679    1.026707
      9          6           0       -1.258284    0.097185   -0.920980
     10          6           0       -3.558347    0.057056    0.847871
     11          6           0       -2.942669   -1.178691    0.214622
     12          6           0        3.226765    1.011265   -0.372866
     13          8           0        2.681843   -0.892380    1.059794
     14          1           0        1.080924   -0.452631   -1.772225
     15          1           0        4.601703   -0.420259    0.515203
     16          1           0        3.816560    0.638223    1.678443
     17          1           0        1.413176   -2.215905    0.226075
     18          1           0        2.734805   -1.712403   -0.813856
     19          1           0        1.341683    1.424667    0.572483
     20          1           0        1.364675    1.820427   -1.131268
     21          1           0       -0.968659    2.091041   -0.190705
     22          1           0       -2.487449    1.819995   -1.013450
     23          1           0       -1.774661    0.823323    1.778307
     24          1           0       -2.941508    2.061008    1.383896
     25          1           0       -0.937754    0.261478   -1.939864
     26          1           0       -4.003584   -0.217158    1.800058
     27          1           0       -4.356218    0.427631    0.208433
     28          1           0       -3.696591   -1.906885   -0.050161
     29          1           0       -2.242061   -1.650285    0.895145
     30          1           0        3.587511    0.643044   -1.329133
     31          1           0        3.667308    1.991426   -0.226509
 ---------------------------------------------------------------------
 Rotational constants (GHZ):           1.8051359           0.4105653           0.3906181
 Standard basis: 6-311++G(2d,2p) (5D, 7F)
 There are   557 symmetry adapted cartesian basis functions of A   symmetry.
 There are   531 symmetry adapted basis functions of A   symmetry.
   531 basis functions,   762 primitive gaussians,   557 cartesian basis functions
    51 alpha electrons       51 beta electrons
       nuclear repulsion energy       892.2751241299 Hartrees.
 NAtoms=   31 NActive=   31 NUniq=   31 SFac= 1.00D+00 NAtFMM=   60 NAOKFM=F Big=F
 Integral buffers will be    131072 words long.
 Raffenetti 2 integral format.
 Two-electron integral symmetry is turned on.
 ------------------------------------------------------------------------------
 Polarizable Continuum Model (PCM)
 =================================
 Model                : PCM.
 Atomic radii         : UFF (Universal Force Field).
 Polarization charges : Total charges.
 Charge compensation  : None.
 Solution method      : On-the-fly selection.
 Cavity type          : Scaled VdW (van der Waals Surface) (Alpha=1.100).
 Cavity algorithm     : GePol (No added spheres)
                        Default sphere list used, NSphG=   31.
                        Lebedev-Laikov grids with approx.  5.0 points / Ang**2.
                        Smoothing algorithm: York/Karplus (Gamma=1.0000).
                        Polarization charges: spherical gaussians, with
                                              point-specific exponents (IZeta= 3).
                        Self-potential: point-specific (ISelfS= 7).
                        Self-field    : sphere-specific E.n sum rule (ISelfD= 2).
 1st derivatives      : Analytical E(r).r(x)/FMM algorithm (CHGder, D1EAlg=3).
                        Cavity 1st derivative terms included.
 Solvent              : Water, Eps=  78.355300 Eps(inf)=   1.777849
 ------------------------------------------------------------------------------
 One-electron integrals computed using PRISM.
 NBasis=   531 RedAO= T EigKep=  4.44D-06  NBF=   531
 NBsUse=   531 1.00D-06 EigRej= -1.00D+00 NBFU=   531
 ExpMin= 3.60D-02 ExpMax= 8.59D+03 ExpMxC= 1.30D+03 IAcc=3 IRadAn=         5 AccDes= 0.00D+00
 Harris functional with IExCor= 1009 and IRadAn=       5 diagonalized for initial guess.
 HarFok:  IExCor= 1009 AccDes= 0.00D+00 IRadAn=         5 IDoV= 1 UseB2=F ITyADJ=14
 ICtDFT=  3500011 ScaDFX=  1.000000  1.000000  1.000000  1.000000
 FoFCou: FMM=F IPFlag=           0 FMFlag=      100000 FMFlg1=           0
         NFxFlg=           0 DoJE=T BraDBF=F KetDBF=T FulRan=T
         wScrn=  0.000000 ICntrl=       500 IOpCl=  0 I1Cent=   200000004 NGrid=           0
         NMat0=    1 NMatS0=      1 NMatT0=    0 NMatD0=    1 NMtDS0=    0 NMtDT0=    0
 Petite list used in FoFCou.
 Requested convergence on RMS density matrix=1.00D-08 within 128 cycles.
 Requested convergence on MAX density matrix=1.00D-06.
 Requested convergence on             energy=1.00D-06.
 No special actions if energy rises.
 Inv3:  Mode=1 IEnd=    12755532.
 Iteration    1 A*A^-1 deviation from unit magnitude is 4.11D-15 for   2051.
 Iteration    1 A*A^-1 deviation from orthogonality  is 2.12D-15 for   1547    835.
 Iteration    1 A^-1*A deviation from unit magnitude is 4.11D-15 for   2051.
 Iteration    1 A^-1*A deviation from orthogonality  is 1.68D-15 for   2033    909.
 Error on total polarization charges =  0.01482
 SCF Done:  E(RM062X) =  -617.490531285     A.U. after   12 cycles
            NFock= 12  Conv=0.48D-08     -V/T= 2.0035

 **********************************************************************

            Population analysis using the SCF density.

 **********************************************************************

 Orbital symmetries:
       Occupied  (A) (A) (A) (A) (A) (A) (A) (A) (A) (A) (A) (A)
                 (A) (A) (A) (A) (A) (A) (A) (A) (A) (A) (A) (A)
                 (A) (A) (A) (A) (A) (A) (A) (A) (A) (A) (A) (A)
                 (A) (A) (A) (A) (A) (A) (A) (A) (A) (A) (A) (A)
                 (A) (A) (A)
       Virtual   (A) (A) (A) (A) (A) (A) (A) (A) (A) (A) (A) (A)
                 (A) (A) (A) (A) (A) (A) (A) (A) (A) (A) (A) (A)
                 (A) (A) (A) (A) (A) (A) (A) (A) (A) (A) (A) (A)
                 (A) (A) (A) (A) (A) (A) (A) (A) (A) (A) (A) (A)
                 (A) (A) (A) (A) (A) (A) (A) (A) (A) (A) (A) (A)
                 (A) (A) (A) (A) (A) (A) (A) (A) (A) (A) (A) (A)
                 (A) (A) (A) (A) (A) (A) (A) (A) (A) (A) (A) (A)
                 (A) (A) (A) (A) (A) (A) (A) (A) (A) (A) (A) (A)
                 (A) (A) (A) (A) (A) (A) (A) (A) (A) (A) (A) (A)
                 (A) (A) (A) (A) (A) (A) (A) (A) (A) (A) (A) (A)
                 (A) (A) (A) (A) (A) (A) (A) (A) (A) (A) (A) (A)
                 (A) (A) (A) (A) (A) (A) (A) (A) (A) (A) (A) (A)
                 (A) (A) (A) (A) (A) (A) (A) (A) (A) (A) (A) (A)
                 (A) (A) (A) (A) (A) (A) (A) (A) (A) (A) (A) (A)
                 (A) (A) (A) (A) (A) (A) (A) (A) (A) (A) (A) (A)
                 (A) (A) (A) (A) (A) (A) (A) (A) (A) (A) (A) (A)
                 (A) (A) (A) (A) (A) (A) (A) (A) (A) (A) (A) (A)
                 (A) (A) (A) (A) (A) (A) (A) (A) (A) (A) (A) (A)
                 (A) (A) (A) (A) (A) (A) (A) (A) (A) (A) (A) (A)
                 (A) (A) (A) (A) (A) (A) (A) (A) (A) (A) (A) (A)
                 (A) (A) (A) (A) (A) (A) (A) (A) (A) (A) (A) (A)
                 (A) (A) (A) (A) (A) (A) (A) (A) (A) (A) (A) (A)
                 (A) (A) (A) (A) (A) (A) (A) (A) (A) (A) (A) (A)
                 (A) (A) (A) (A) (A) (A) (A) (A) (A) (A) (A) (A)
                 (A) (A) (A) (A) (A) (A) (A) (A) (A) (A) (A) (A)
                 (A) (A) (A) (A) (A) (A) (A) (A) (A) (A) (A) (A)
                 (A) (A) (A) (A) (A) (A) (A) (A) (A) (A) (A) (A)
                 (A) (A) (A) (A) (A) (A) (A) (A) (A) (A) (A) (A)
                 (A) (A) (A) (A) (A) (A) (A) (A) (A) (A) (A) (A)
                 (A) (A) (A) (A) (A) (A) (A) (A) (A) (A) (A) (A)
                 (A) (A) (A) (A) (A) (A) (A) (A) (A) (A) (A) (A)
                 (A) (A) (A) (A) (A) (A) (A) (A) (A) (A) (A) (A)
                 (A) (A) (A) (A) (A) (A) (A) (A) (A) (A) (A) (A)
                 (A) (A) (A) (A) (A) (A) (A) (A) (A) (A) (A) (A)
                 (A) (A) (A) (A) (A) (A) (A) (A) (A) (A) (A) (A)
                 (A) (A) (A) (A) (A) (A) (A) (A) (A) (A) (A) (A)
                 (A) (A) (A) (A) (A) (A) (A) (A) (A) (A) (A) (A)
                 (A) (A) (A) (A) (A) (A) (A) (A) (A) (A) (A) (A)
                 (A) (A) (A) (A) (A) (A) (A) (A) (A) (A) (A) (A)
                 (A) (A) (A) (A) (A) (A) (A) (A) (A) (A) (A) (A)
 The electronic state is 1-A.
 Alpha  occ. eigenvalues --  -19.62718 -19.62692 -19.62604 -10.63471 -10.59027
 Alpha  occ. eigenvalues --  -10.57910 -10.57844 -10.57608 -10.53296 -10.53218
 Alpha  occ. eigenvalues --  -10.52928 -10.52798 -10.52716  -1.19989  -1.16561
 Alpha  occ. eigenvalues --   -1.13437  -0.90418  -0.89874  -0.87447  -0.84688
 Alpha  occ. eigenvalues --   -0.75065  -0.74177  -0.73351  -0.71704  -0.65044
 Alpha  occ. eigenvalues --   -0.63110  -0.60009  -0.59326  -0.57205  -0.56242
 Alpha  occ. eigenvalues --   -0.55488  -0.53435  -0.52592  -0.50704  -0.49468
 Alpha  occ. eigenvalues --   -0.47599  -0.46474  -0.46220  -0.45120  -0.44864
 Alpha  occ. eigenvalues --   -0.44261  -0.42576  -0.41621  -0.40944  -0.40031
 Alpha  occ. eigenvalues --   -0.38297  -0.37479  -0.36620  -0.33620  -0.33367
 Alpha  occ. eigenvalues --   -0.31711
 Alpha virt. eigenvalues --   -0.00132   0.00756   0.00848   0.01096   0.02242
 Alpha virt. eigenvalues --    0.02500   0.02602   0.03416   0.03594   0.04438
 Alpha virt. eigenvalues --    0.04533   0.04712   0.05571   0.05633   0.07038
 Alpha virt. eigenvalues --    0.07325   0.07721   0.08539   0.08844   0.08933
 Alpha virt. eigenvalues --    0.09411   0.10382   0.11402   0.11689   0.11921
 Alpha virt. eigenvalues --    0.12208   0.12506   0.12751   0.13055   0.13433
 Alpha virt. eigenvalues --    0.13684   0.14054   0.14222   0.14288   0.14916
 Alpha virt. eigenvalues --    0.15166   0.15301   0.15475   0.15749   0.16249
 Alpha virt. eigenvalues --    0.16625   0.16820   0.17104   0.17463   0.17710
 Alpha virt. eigenvalues --    0.17993   0.18258   0.18846   0.19113   0.19339
 Alpha virt. eigenvalues --    0.19828   0.20260   0.20740   0.20853   0.21023
 Alpha virt. eigenvalues --    0.21753   0.22239   0.22750   0.23344   0.23864
 Alpha virt. eigenvalues --    0.24626   0.25255   0.25395   0.26590   0.26869
 Alpha virt. eigenvalues --    0.27501   0.28256   0.28683   0.28986   0.29227
 Alpha virt. eigenvalues --    0.29859   0.30403   0.31552   0.31900   0.32096
 Alpha virt. eigenvalues --    0.32631   0.33037   0.33521   0.33682   0.34516
 Alpha virt. eigenvalues --    0.34654   0.35421   0.35467   0.35784   0.36503
 Alpha virt. eigenvalues --    0.36755   0.37418   0.37868   0.38140   0.38492
 Alpha virt. eigenvalues --    0.38785   0.39179   0.39445   0.39807   0.41060
 Alpha virt. eigenvalues --    0.41491   0.42252   0.43735   0.44192   0.45540
 Alpha virt. eigenvalues --    0.47164   0.48121   0.49353   0.50081   0.51458
 Alpha virt. eigenvalues --    0.51808   0.53008   0.53710   0.53991   0.55044
 Alpha virt. eigenvalues --    0.55232   0.57006   0.57666   0.58458   0.58839
 Alpha virt. eigenvalues --    0.59326   0.59527   0.60250   0.60424   0.61637
 Alpha virt. eigenvalues --    0.62080   0.62153   0.62599   0.62978   0.63730
 Alpha virt. eigenvalues --    0.64292   0.65282   0.65668   0.65878   0.66905
 Alpha virt. eigenvalues --    0.67275   0.68241   0.69196   0.69578   0.69974
 Alpha virt. eigenvalues --    0.70255   0.71407   0.71921   0.72771   0.73192
 Alpha virt. eigenvalues --    0.73810   0.74150   0.74685   0.75600   0.76262
 Alpha virt. eigenvalues --    0.76393   0.76525   0.77618   0.78303   0.79404
 Alpha virt. eigenvalues --    0.80530   0.81161   0.83652   0.84995   0.86025
 Alpha virt. eigenvalues --    0.86464   0.86952   0.87798   0.88914   0.91038
 Alpha virt. eigenvalues --    0.91890   0.92200   0.92842   0.93393   0.94356
 Alpha virt. eigenvalues --    0.96858   0.98381   0.99618   1.00917   1.02253
 Alpha virt. eigenvalues --    1.03315   1.04838   1.05046   1.06009   1.06468
 Alpha virt. eigenvalues --    1.07199   1.08280   1.09539   1.10191   1.11582
 Alpha virt. eigenvalues --    1.12705   1.14510   1.14840   1.16157   1.16920
 Alpha virt. eigenvalues --    1.17181   1.18511   1.19525   1.20404   1.20750
 Alpha virt. eigenvalues --    1.21629   1.22090   1.23751   1.24265   1.24520
 Alpha virt. eigenvalues --    1.25090   1.25637   1.26471   1.26871   1.27024
 Alpha virt. eigenvalues --    1.27541   1.28607   1.30049   1.30159   1.31085
 Alpha virt. eigenvalues --    1.31540   1.32359   1.34070   1.34501   1.34850
 Alpha virt. eigenvalues --    1.35318   1.36043   1.37451   1.37985   1.38347
 Alpha virt. eigenvalues --    1.38812   1.39740   1.40178   1.40882   1.41367
 Alpha virt. eigenvalues --    1.41814   1.43365   1.43525   1.43926   1.45224
 Alpha virt. eigenvalues --    1.45511   1.46212   1.47237   1.47637   1.48232
 Alpha virt. eigenvalues --    1.48957   1.49906   1.51424   1.51440   1.52600
 Alpha virt. eigenvalues --    1.53056   1.53617   1.53956   1.54409   1.55708
 Alpha virt. eigenvalues --    1.56116   1.56791   1.57121   1.58418   1.58938
 Alpha virt. eigenvalues --    1.59762   1.60226   1.61051   1.61272   1.62715
 Alpha virt. eigenvalues --    1.63491   1.63742   1.64764   1.65128   1.65793
 Alpha virt. eigenvalues --    1.66709   1.67566   1.68568   1.69243   1.70442
 Alpha virt. eigenvalues --    1.72097   1.73355   1.74926   1.76389   1.77398
 Alpha virt. eigenvalues --    1.77833   1.79363   1.81810   1.83392   1.83834
 Alpha virt. eigenvalues --    1.85551   1.86840   1.90080   1.93065   1.98568
 Alpha virt. eigenvalues --    2.03867   2.07574   2.10833   2.13391   2.17770
 Alpha virt. eigenvalues --    2.22433   2.25498   2.26349   2.31006   2.40294
 Alpha virt. eigenvalues --    2.42268   2.43056   2.43924   2.46889   2.52704
 Alpha virt. eigenvalues --    2.54696   2.76201   2.77673   2.79745   2.82044
 Alpha virt. eigenvalues --    2.84234   2.86981   2.89235   2.91920   2.93838
 Alpha virt. eigenvalues --    2.94074   2.97195   2.99002   3.02743   3.04036
 Alpha virt. eigenvalues --    3.04930   3.07178   3.08929   3.09342   3.11395
 Alpha virt. eigenvalues --    3.12709   3.15287   3.16502   3.17970   3.20925
 Alpha virt. eigenvalues --    3.25584   3.28920   3.31053   3.31936   3.34146
 Alpha virt. eigenvalues --    3.34672   3.36032   3.36405   3.37629   3.39700
 Alpha virt. eigenvalues --    3.40338   3.41532   3.43590   3.45140   3.45680
 Alpha virt. eigenvalues --    3.46439   3.48312   3.50289   3.51016   3.51725
 Alpha virt. eigenvalues --    3.52621   3.52904   3.53384   3.55017   3.55975
 Alpha virt. eigenvalues --    3.56217   3.57444   3.57772   3.59200   3.59468
 Alpha virt. eigenvalues --    3.60427   3.61434   3.64015   3.64423   3.65681
 Alpha virt. eigenvalues --    3.66343   3.66890   3.67817   3.68849   3.68878
 Alpha virt. eigenvalues --    3.70614   3.71608   3.72184   3.72614   3.73733
 Alpha virt. eigenvalues --    3.74658   3.75365   3.76709   3.79000   3.79266
 Alpha virt. eigenvalues --    3.80030   3.81243   3.82397   3.82948   3.84293
 Alpha virt. eigenvalues --    3.86245   3.88583   3.89722   3.90030   3.92010
 Alpha virt. eigenvalues --    3.92862   3.94873   3.96031   3.97619   3.99686
 Alpha virt. eigenvalues --    4.00103   4.00737   4.01912   4.02781   4.03322
 Alpha virt. eigenvalues --    4.05044   4.06236   4.06425   4.07810   4.08048
 Alpha virt. eigenvalues --    4.08541   4.09029   4.10249   4.11162   4.11747
 Alpha virt. eigenvalues --    4.12415   4.12930   4.14345   4.14992   4.15308
 Alpha virt. eigenvalues --    4.16459   4.16871   4.17909   4.18631   4.20096
 Alpha virt. eigenvalues --    4.21890   4.23544   4.23836   4.26061   4.26921
 Alpha virt. eigenvalues --    4.28376   4.30892   4.31300   4.32277   4.32545
 Alpha virt. eigenvalues --    4.33635   4.34490   4.35657   4.37920   4.39357
 Alpha virt. eigenvalues --    4.40941   4.42506   4.45619   4.48778   4.49072
 Alpha virt. eigenvalues --    4.58508   4.59774   4.72466   4.75496   4.82135
 Alpha virt. eigenvalues --    4.85872   4.92864   4.95680   4.99883   5.01247
 Alpha virt. eigenvalues --    5.04998   5.07125   5.08422   5.11960   5.12902
 Alpha virt. eigenvalues --    5.13720   5.15239   5.16401   5.32343   5.35932
 Alpha virt. eigenvalues --    5.42271   5.56514   5.60512   5.64103   5.84710
 Alpha virt. eigenvalues --    5.88019   6.04862   7.01452   7.04357   7.07232
 Alpha virt. eigenvalues --    7.09589   7.11075   7.11295   7.14505   7.14869
 Alpha virt. eigenvalues --    7.25161   7.35162   7.38524   7.45463   7.53191
 Alpha virt. eigenvalues --    7.56915   7.62126  23.95089  23.99467  24.05920
 Alpha virt. eigenvalues --   24.06256  24.10175  24.11945  24.12809  24.15560
 Alpha virt. eigenvalues --   24.17126  24.21001  50.16708  50.18061  50.25025
          Condensed to atoms (all electrons):
               1          2          3          4          5          6
     1  C    8.319484   0.104989   0.029711  -0.629389  -1.583906   0.032301
     2  C    0.104989   5.569973   0.000705  -0.202781  -0.015510   0.010518
     3  O    0.029711   0.000705   8.301343  -0.001997  -0.026570  -0.037708
     4  C   -0.629389  -0.202781  -0.001997   6.091047   0.248538  -0.090037
     5  C   -1.583906  -0.015510  -0.026570   0.248538   7.077618  -0.086720
     6  O    0.032301   0.010518  -0.037708  -0.090037  -0.086720   8.289837
     7  C    0.309441  -0.008086   0.048905  -0.086004  -0.040356   0.051581
     8  C   -0.025406   0.007496   0.034465   0.030138  -0.012146  -0.064252
     9  C   -0.987645   0.035259   0.089735   0.077618   0.297836   0.236157
    10  C    0.074687   0.000493  -0.072919   0.004898  -0.033479  -0.028317
    11  C    0.032595  -0.000777   0.124058  -0.025179   0.005329   0.017604
    12  C    0.116497  -0.184052  -0.000340   0.081351  -0.443597  -0.019401
    13  O   -0.014478   0.099840   0.000398   0.112098  -0.035027   0.023245
    14  H    0.587861  -0.003615   0.006521  -0.070528  -0.125208  -0.036809
    15  H    0.055375   0.503527   0.000164  -0.020840  -0.048675  -0.000489
    16  H   -0.020950   0.428992  -0.000095   0.011175   0.005754   0.001889
    17  H    0.017510   0.007646  -0.002402   0.399544  -0.013135  -0.005996
    18  H   -0.082502   0.029854   0.000244   0.462079   0.022593   0.012699
    19  H   -0.072453  -0.030429  -0.002261  -0.024584   0.480245  -0.000711
    20  H    0.001602  -0.003311   0.003681   0.006475   0.364651   0.004300
    21  H   -0.044438   0.000094   0.009009   0.000145   0.053956  -0.006945
    22  H   -0.009048   0.000268  -0.014067  -0.003702   0.001512   0.011804
    23  H   -0.006742   0.000247   0.000371  -0.003879   0.002989   0.010932
    24  H    0.003388   0.000076   0.001049   0.000595  -0.001007  -0.000102
    25  H   -0.023159   0.000284  -0.083295  -0.007641   0.034736  -0.030986
    26  H    0.000829  -0.000056   0.009592   0.000369   0.000693  -0.000566
    27  H   -0.004260   0.000037  -0.007888   0.000259   0.000009  -0.000700
    28  H    0.002868  -0.000010  -0.071685  -0.002033  -0.000299   0.000358
    29  H   -0.014058   0.000691  -0.040275  -0.000038   0.001680  -0.007966
    30  H   -0.072335  -0.076101  -0.000285  -0.004715   0.038260   0.002527
    31  H   -0.010210  -0.017360   0.000060   0.015463  -0.022721  -0.002249
               7          8          9         10         11         12
     1  C    0.309441  -0.025406  -0.987645   0.074687   0.032595   0.116497
     2  C   -0.008086   0.007496   0.035259   0.000493  -0.000777  -0.184052
     3  O    0.048905   0.034465   0.089735  -0.072919   0.124058  -0.000340
     4  C   -0.086004   0.030138   0.077618   0.004898  -0.025179   0.081351
     5  C   -0.040356  -0.012146   0.297836  -0.033479   0.005329  -0.443597
     6  O    0.051581  -0.064252   0.236157  -0.028317   0.017604  -0.019401
     7  C    7.353563  -0.353342  -1.892700  -0.338393   0.316521  -0.070437
     8  C   -0.353342   5.720707   0.204452   0.067964  -0.043254   0.002844
     9  C   -1.892700   0.204452   7.972490   0.292489  -0.441969  -0.025512
    10  C   -0.338393   0.067964   0.292489   5.830195  -0.077861   0.001134
    11  C    0.316521  -0.043254  -0.441969  -0.077861   5.480615   0.003359
    12  C   -0.070437   0.002844  -0.025512   0.001134   0.003359   6.215922
    13  O    0.004485   0.002987  -0.017186   0.000166  -0.000437   0.020139
    14  H    0.011278  -0.003194  -0.037211   0.006494  -0.001569   0.025770
    15  H   -0.001101   0.000480  -0.004442   0.000332  -0.000151  -0.081445
    16  H    0.003865  -0.001014   0.001974  -0.000733   0.000406  -0.008708
    17  H   -0.007654   0.001721  -0.016608  -0.000612   0.000235   0.011781
    18  H    0.007054   0.000089  -0.001899  -0.000553   0.000920  -0.051242
    19  H   -0.012338   0.007500   0.013331   0.001051  -0.005557  -0.005193
    20  H    0.002716   0.000728  -0.004559  -0.001659   0.002596   0.012470
    21  H    0.468356  -0.028555  -0.075429  -0.026710   0.010296  -0.012551
    22  H    0.591408  -0.042682  -0.156127  -0.036754   0.023152  -0.000665
    23  H    0.001745   0.500054  -0.054008  -0.094253   0.009585   0.000229
    24  H   -0.047825   0.424421   0.005234  -0.011050   0.006020  -0.000358
    25  H   -0.095872  -0.022842   0.513699   0.006888  -0.015916  -0.002768
    26  H   -0.007511  -0.047957   0.020163   0.435212  -0.037023   0.000119
    27  H   -0.031489  -0.012505   0.015901   0.483342  -0.079167  -0.000340
    28  H    0.020040  -0.005796  -0.009633  -0.035804   0.438387   0.000273
    29  H    0.000540   0.002495   0.016652  -0.081788   0.482509  -0.001105
    30  H    0.005153  -0.000727  -0.000430  -0.000589   0.000285   0.475059
    31  H   -0.000239   0.000065  -0.004278   0.000104   0.000031   0.404036
              13         14         15         16         17         18
     1  C   -0.014478   0.587861   0.055375  -0.020950   0.017510  -0.082502
     2  C    0.099840  -0.003615   0.503527   0.428992   0.007646   0.029854
     3  O    0.000398   0.006521   0.000164  -0.000095  -0.002402   0.000244
     4  C    0.112098  -0.070528  -0.020840   0.011175   0.399544   0.462079
     5  C   -0.035027  -0.125208  -0.048675   0.005754  -0.013135   0.022593
     6  O    0.023245  -0.036809  -0.000489   0.001889  -0.005996   0.012699
     7  C    0.004485   0.011278  -0.001101   0.003865  -0.007654   0.007054
     8  C    0.002987  -0.003194   0.000480  -0.001014   0.001721   0.000089
     9  C   -0.017186  -0.037211  -0.004442   0.001974  -0.016608  -0.001899
    10  C    0.000166   0.006494   0.000332  -0.000733  -0.000612  -0.000553
    11  C   -0.000437  -0.001569  -0.000151   0.000406   0.000235   0.000920
    12  C    0.020139   0.025770  -0.081445  -0.008708   0.011781  -0.051242
    13  O    8.364802   0.004896  -0.071862  -0.077600  -0.069015  -0.044622
    14  H    0.004896   0.438718   0.000864   0.001673  -0.003941  -0.008112
    15  H   -0.071862   0.000864   0.529590  -0.029470  -0.001555   0.009609
    16  H   -0.077600   0.001673  -0.029470   0.511025   0.000145  -0.004396
    17  H   -0.069015  -0.003941  -0.001555   0.000145   0.481105  -0.005120
    18  H   -0.044622  -0.008112   0.009609  -0.004396  -0.005120   0.472052
    19  H   -0.004870   0.000590  -0.005145   0.004823   0.001644  -0.000503
    20  H    0.001443  -0.001138   0.002443  -0.003193  -0.000364   0.001513
    21  H    0.000730  -0.003292  -0.000378   0.000702  -0.000908   0.001000
    22  H    0.000023   0.001336  -0.000049   0.000155  -0.000798   0.000140
    23  H    0.000884   0.000176   0.000043   0.000127  -0.000770   0.000393
    24  H    0.000038  -0.000160  -0.000010   0.000056   0.000164  -0.000034
    25  H   -0.001114  -0.003262  -0.000571  -0.000151   0.002411  -0.000686
    26  H   -0.000000  -0.000180   0.000004  -0.000034   0.000312  -0.000014
    27  H   -0.000000  -0.000183  -0.000000  -0.000000  -0.000123   0.000018
    28  H   -0.000036  -0.000061   0.000001   0.000009  -0.000173   0.000119
    29  H    0.000290  -0.001290  -0.000009   0.000006  -0.001175   0.000430
    30  H    0.002336  -0.004459  -0.016386   0.008792  -0.001229  -0.007016
    31  H    0.009608  -0.002756   0.003281  -0.012985   0.001847   0.000325
              19         20         21         22         23         24
     1  C   -0.072453   0.001602  -0.044438  -0.009048  -0.006742   0.003388
     2  C   -0.030429  -0.003311   0.000094   0.000268   0.000247   0.000076
     3  O   -0.002261   0.003681   0.009009  -0.014067   0.000371   0.001049
     4  C   -0.024584   0.006475   0.000145  -0.003702  -0.003879   0.000595
     5  C    0.480245   0.364651   0.053956   0.001512   0.002989  -0.001007
     6  O   -0.000711   0.004300  -0.006945   0.011804   0.010932  -0.000102
     7  C   -0.012338   0.002716   0.468356   0.591408   0.001745  -0.047825
     8  C    0.007500   0.000728  -0.028555  -0.042682   0.500054   0.424421
     9  C    0.013331  -0.004559  -0.075429  -0.156127  -0.054008   0.005234
    10  C    0.001051  -0.001659  -0.026710  -0.036754  -0.094253  -0.011050
    11  C   -0.005557   0.002596   0.010296   0.023152   0.009585   0.006020
    12  C   -0.005193   0.012470  -0.012551  -0.000665   0.000229  -0.000358
    13  O   -0.004870   0.001443   0.000730   0.000023   0.000884   0.000038
    14  H    0.000590  -0.001138  -0.003292   0.001336   0.000176  -0.000160
    15  H   -0.005145   0.002443  -0.000378  -0.000049   0.000043  -0.000010
    16  H    0.004823  -0.003193   0.000702   0.000155   0.000127   0.000056
    17  H    0.001644  -0.000364  -0.000908  -0.000798  -0.000770   0.000164
    18  H   -0.000503   0.001513   0.001000   0.000140   0.000393  -0.000034
    19  H    0.469147  -0.018718  -0.013312  -0.000695  -0.002931  -0.000447
    20  H   -0.018718   0.488086  -0.004729  -0.001221  -0.000138   0.000330
    21  H   -0.013312  -0.004729   0.509763  -0.007921   0.000511  -0.010659
    22  H   -0.000695  -0.001221  -0.007921   0.459655   0.005779  -0.004847
    23  H   -0.002931  -0.000138   0.000511   0.005779   0.463780  -0.008992
    24  H   -0.000447   0.000330  -0.010659  -0.004847  -0.008992   0.485757
    25  H    0.004475  -0.013688  -0.002637  -0.006793  -0.000265  -0.000078
    26  H    0.000268  -0.000179   0.000986  -0.003644  -0.004463  -0.008452
    27  H    0.000240  -0.000005  -0.001028  -0.000906   0.000880  -0.003761
    28  H   -0.000247   0.000016   0.001462   0.000517  -0.000551   0.000335
    29  H    0.000668   0.000227  -0.000264  -0.001133  -0.002754  -0.001171
    30  H    0.000314  -0.005717   0.000976   0.000145  -0.000037   0.000077
    31  H   -0.000968  -0.011235   0.000988  -0.000089   0.000167  -0.000092
              25         26         27         28         29         30
     1  C   -0.023159   0.000829  -0.004260   0.002868  -0.014058  -0.072335
     2  C    0.000284  -0.000056   0.000037  -0.000010   0.000691  -0.076101
     3  O   -0.083295   0.009592  -0.007888  -0.071685  -0.040275  -0.000285
     4  C   -0.007641   0.000369   0.000259  -0.002033  -0.000038  -0.004715
     5  C    0.034736   0.000693   0.000009  -0.000299   0.001680   0.038260
     6  O   -0.030986  -0.000566  -0.000700   0.000358  -0.007966   0.002527
     7  C   -0.095872  -0.007511  -0.031489   0.020040   0.000540   0.005153
     8  C   -0.022842  -0.047957  -0.012505  -0.005796   0.002495  -0.000727
     9  C    0.513699   0.020163   0.015901  -0.009633   0.016652  -0.000430
    10  C    0.006888   0.435212   0.483342  -0.035804  -0.081788  -0.000589
    11  C   -0.015916  -0.037023  -0.079167   0.438387   0.482509   0.000285
    12  C   -0.002768   0.000119  -0.000340   0.000273  -0.001105   0.475059
    13  O   -0.001114  -0.000000  -0.000000  -0.000036   0.000290   0.002336
    14  H   -0.003262  -0.000180  -0.000183  -0.000061  -0.001290  -0.004459
    15  H   -0.000571   0.000004  -0.000000   0.000001  -0.000009  -0.016386
    16  H   -0.000151  -0.000034  -0.000000   0.000009   0.000006   0.008792
    17  H    0.002411   0.000312  -0.000123  -0.000173  -0.001175  -0.001229
    18  H   -0.000686  -0.000014   0.000018   0.000119   0.000430  -0.007016
    19  H    0.004475   0.000268   0.000240  -0.000247   0.000668   0.000314
    20  H   -0.013688  -0.000179  -0.000005   0.000016   0.000227  -0.005717
    21  H   -0.002637   0.000986  -0.001028   0.001462  -0.000264   0.000976
    22  H   -0.006793  -0.003644  -0.000906   0.000517  -0.001133   0.000145
    23  H   -0.000265  -0.004463   0.000880  -0.000551  -0.002754  -0.000037
    24  H   -0.000078  -0.008452  -0.003761   0.000335  -0.001171   0.000077
    25  H    0.473570   0.002313   0.000568   0.002173  -0.000064   0.000885
    26  H    0.002313   0.487132  -0.005872  -0.011511   0.003177  -0.000004
    27  H    0.000568  -0.005872   0.477930  -0.003959   0.003143  -0.000005
    28  H    0.002173  -0.011511  -0.003959   0.472971  -0.011394  -0.000011
    29  H   -0.000064   0.003177   0.003143  -0.011394   0.489917  -0.000015
    30  H    0.000885  -0.000004  -0.000005  -0.000011  -0.000015   0.469662
    31  H    0.000787   0.000017  -0.000007   0.000010  -0.000049  -0.009641
              31
     1  C   -0.010210
     2  C   -0.017360
     3  O    0.000060
     4  C    0.015463
     5  C   -0.022721
     6  O   -0.002249
     7  C   -0.000239
     8  C    0.000065
     9  C   -0.004278
    10  C    0.000104
    11  C    0.000031
    12  C    0.404036
    13  O    0.009608
    14  H   -0.002756
    15  H    0.003281
    16  H   -0.012985
    17  H    0.001847
    18  H    0.000325
    19  H   -0.000968
    20  H   -0.011235
    21  H    0.000988
    22  H   -0.000089
    23  H    0.000167
    24  H   -0.000092
    25  H    0.000787
    26  H    0.000017
    27  H   -0.000007
    28  H    0.000010
    29  H   -0.000049
    30  H   -0.009641
    31  H    0.498616
 Mulliken charges:
               1
     1  C   -0.088159
     2  C   -0.258898
     3  O   -0.298223
     4  C   -0.368443
     5  C   -0.148041
     6  O   -0.285796
     7  C   -0.203303
     8  C   -0.344935
     9  C   -0.063354
    10  C   -0.363974
    11  C   -0.225644
    12  C   -0.463268
    13  O   -0.312160
    14  H    0.220789
    15  H    0.176864
    16  H    0.177758
    17  H    0.205512
    18  H    0.185567
    19  H    0.217066
    20  H    0.176578
    21  H    0.180781
    22  H    0.195247
    23  H    0.180891
    24  H    0.171503
    25  H    0.268998
    26  H    0.166282
    27  H    0.169873
    28  H    0.213662
    29  H    0.162125
    30  H    0.195229
    31  H    0.159475
 Sum of Mulliken charges =  -0.00000
 Mulliken charges with hydrogens summed into heavy atoms:
               1
     1  C    0.132630
     2  C    0.095724
     3  O   -0.298223
     4  C    0.022635
     5  C    0.245602
     6  O   -0.285796
     7  C    0.172725
     8  C    0.007460
     9  C    0.205644
    10  C   -0.027819
    11  C    0.150143
    12  C   -0.108564
    13  O   -0.312160
 Electronic spatial extent (au):  <R**2>=           3053.2324
 Charge=             -0.0000 electrons
 Dipole moment (field-independent basis, Debye):
    X=              1.0708    Y=              2.7428    Z=             -1.2877  Tot=              3.2137
 Quadrupole moment (field-independent basis, Debye-Ang):
   XX=            -72.1884   YY=            -79.0475   ZZ=            -82.2131
   XY=              1.5412   XZ=             -8.9298   YZ=              0.1853
 Traceless Quadrupole moment (field-independent basis, Debye-Ang):
   XX=              5.6280   YY=             -1.2312   ZZ=             -4.3968
   XY=              1.5412   XZ=             -8.9298   YZ=              0.1853
 Octapole moment (field-independent basis, Debye-Ang**2):
  XXX=             13.0543  YYY=             -6.0071  ZZZ=             -4.6098  XYY=             -0.3144
  XXY=              9.0729  XXZ=              4.2222  XZZ=              0.6699  YZZ=              4.4696
  YYZ=              0.1379  XYZ=             14.1173
 Hexadecapole moment (field-independent basis, Debye-Ang**3):
 XXXX=          -2953.5402 YYYY=           -567.3439 ZZZZ=           -389.6301 XXXY=             42.2375
 XXXZ=            -27.9530 YYYX=              6.3470 YYYZ=             -0.6025 ZZZX=             -1.9883
 ZZZY=              1.2730 XXYY=           -598.2974 XXZZ=           -601.1659 YYZZ=           -167.3352
 XXYZ=             12.5861 YYXZ=             -6.6789 ZZXY=              3.5411
 N-N= 8.922751241299D+02 E-N=-3.226535532416D+03  KE= 6.153327762135D+02
 D1PCM: PCM CHGder 1st derivatives, ID1Alg=3 FixD1E=F DoIter=F DoCFld=F I1PDM=0.
 Calling FoFJK, ICntrl=      2127 FMM=F ISym2X=0 I1Cent= 0 IOpClX= 0 NMat=1 NMatS=1 NMatT=0.
 ***** Axes restored to original set *****
 -------------------------------------------------------------------
 Center     Atomic                   Forces (Hartrees/Bohr)
 Number     Number              X              Y              Z
 -------------------------------------------------------------------
      1        6          -0.002081080    0.000399489    0.002685620
      2        6          -0.004023604    0.000100455   -0.004981651
      3        8          -0.001519679   -0.003233903   -0.010157186
      4        6           0.002506206    0.006410010    0.000312010
      5        6           0.002829924   -0.002965004   -0.001360107
      6        8           0.001931160   -0.002755053    0.009517375
      7        6          -0.000527908   -0.001750305    0.001834930
      8        6          -0.000409678   -0.002069917   -0.003240551
      9        6          -0.004839491    0.000815057    0.008501575
     10        6           0.002648255   -0.000525249    0.000520116
     11        6           0.001294172    0.007039896    0.000394313
     12        6          -0.001003443    0.000022950    0.001591256
     13        8          -0.003671103   -0.002295753    0.008277516
     14        1           0.000560366   -0.000185652   -0.006822062
     15        1           0.004875758   -0.001697706   -0.001994596
     16        1           0.000262768    0.002757077    0.003879179
     17        1          -0.003829457   -0.002990915    0.001169144
     18        1           0.003500236   -0.001811103   -0.005001102
     19        1          -0.001917361   -0.000229823    0.004121659
     20        1          -0.001307908    0.002219190   -0.002537437
     21        1           0.003796788    0.002343470    0.000558169
     22        1          -0.002495477    0.001211463   -0.002188826
     23        1           0.002907974   -0.001696081    0.001627279
     24        1          -0.001079426    0.002185782    0.000771425
     25        1           0.002139994    0.001394601   -0.007717655
     26        1          -0.001184550   -0.000328063    0.002587476
     27        1          -0.001964493    0.001088649   -0.002437535
     28        1          -0.003245611   -0.002879129   -0.001139489
     29        1           0.004109373   -0.001725132    0.004316984
     30        1           0.000633258   -0.001403525   -0.003064715
     31        1           0.001104037    0.002554223   -0.000023114
 -------------------------------------------------------------------
 Cartesian Forces:  Max     0.010157186 RMS     0.003312787

 GradGradGradGradGradGradGradGradGradGradGradGradGradGradGradGradGradGrad
 Berny optimization.
 FormGI is forming the generalized inverse of G from B-inverse, IUseBI=4.
 Internal  Forces:  Max     0.010018420 RMS     0.001996425
 Search for a local minimum.
 Step number   1 out of a maximum of  186
 All quantities printed in internal units (Hartrees-Bohrs-Radians)
 Mixed Optimization -- RFO/linear search
 Second derivative matrix not updated -- first step.
 ITU=  0
     Eigenvalues ---    0.00424   0.00611   0.00626   0.00721   0.01410
     Eigenvalues ---    0.01427   0.01449   0.02704   0.02787   0.03072
     Eigenvalues ---    0.03374   0.04083   0.04291   0.04667   0.04746
     Eigenvalues ---    0.04802   0.04851   0.04932   0.05085   0.05132
     Eigenvalues ---    0.05158   0.05635   0.05666   0.06009   0.06155
     Eigenvalues ---    0.06341   0.06726   0.06808   0.07379   0.07780
     Eigenvalues ---    0.07837   0.07859   0.07936   0.08138   0.08217
     Eigenvalues ---    0.08260   0.08974   0.10212   0.11231   0.11590
     Eigenvalues ---    0.11680   0.11763   0.11777   0.12400   0.12689
     Eigenvalues ---    0.14528   0.14750   0.16033   0.18433   0.19073
     Eigenvalues ---    0.20106   0.21566   0.22555   0.25000   0.27284
     Eigenvalues ---    0.27702   0.28444   0.28581   0.28829   0.28961
     Eigenvalues ---    0.29405   0.30241   0.35095   0.35143   0.35163
     Eigenvalues ---    0.35237   0.35241   0.35283   0.35317   0.35320
     Eigenvalues ---    0.35345   0.35359   0.35444   0.35452   0.35484
     Eigenvalues ---    0.35617   0.35782   0.35862   0.35913   0.35976
     Eigenvalues ---    0.40301   0.40711   0.41665   0.42457   0.43653
     Eigenvalues ---    0.449591000.000001000.000001000.000001000.00000
     Eigenvalues --- 1000.000001000.000001000.000001000.000001000.00000
     Eigenvalues --- 1000.000001000.000001000.000001000.000001000.00000
     Eigenvalues --- 1000.000001000.000001000.000001000.000001000.00000
     Eigenvalues --- 1000.000001000.000001000.000001000.000001000.00000
     Eigenvalues --- 1000.000001000.000001000.000001000.000001000.00000
     Eigenvalues --- 1000.000001000.000001000.000001000.000001000.00000
     Eigenvalues --- 1000.000001000.000001000.000001000.000001000.00000
     Eigenvalues --- 1000.000001000.000001000.000001000.000001000.00000
     Eigenvalues --- 1000.000001000.000001000.000001000.000001000.00000
     Eigenvalues --- 1000.000001000.000001000.000001000.000001000.00000
     Eigenvalues --- 1000.000001000.000001000.000001000.000001000.00000
     Eigenvalues --- 1000.000001000.000001000.000001000.000001000.00000
     Eigenvalues --- 1000.000001000.000001000.000001000.000001000.00000
     Eigenvalues --- 1000.000001000.000001000.000001000.000001000.00000
     Eigenvalues --- 1000.000001000.000001000.000001000.000001000.00000
     Eigenvalues --- 1000.000001000.000001000.000001000.000001000.00000
     Eigenvalues --- 1000.000001000.000001000.000001000.000001000.00000
     Eigenvalues --- 1000.000001000.000001000.000001000.000001000.00000
     Eigenvalues --- 1000.000001000.000001000.000001000.000001000.00000
 RFO step:  Lambda=-3.23739536D-03 EMin= 4.23571536D-03
 Linear search not attempted -- first point.
 Iteration  1 RMS(Cart)=  0.05785058 RMS(Int)=  0.00088438
 Iteration  2 RMS(Cart)=  0.00153450 RMS(Int)=  0.00005908
 Iteration  3 RMS(Cart)=  0.00000079 RMS(Int)=  0.00005908
 Iteration  1 RMS(Cart)=  0.00002323 RMS(Int)=  0.00000506
 Iteration  2 RMS(Cart)=  0.00001233 RMS(Int)=  0.00000566
 Iteration  3 RMS(Cart)=  0.00000655 RMS(Int)=  0.00000637
 Iteration  4 RMS(Cart)=  0.00000347 RMS(Int)=  0.00000682
 Iteration  5 RMS(Cart)=  0.00000184 RMS(Int)=  0.00000708
 Iteration  6 RMS(Cart)=  0.00000098 RMS(Int)=  0.00000723
 Variable       Old X    -DE/DX   Delta X   Delta X   Delta X     New X
                                 (Linear)    (Quad)   (Total)
    R1        2.89114  -0.00004   0.00000  -0.00027  -0.00025   2.89088
    R2        2.89674  -0.00095   0.00000  -0.00455  -0.00455   2.89220
    R3        2.68346   0.00002   0.00000   0.00005   0.00005   2.68351
    R4        2.05096   0.00675   0.00000   0.01891   0.01891   2.06987
    R5        2.89617   0.00053   0.00000   0.00266   0.00265   2.89881
    R6        2.68373   0.00358   0.00000   0.00979   0.00978   2.69351
    R7        2.05218   0.00542   0.00000   0.01521   0.01521   2.06739
    R8        2.04423   0.00474   0.00000   0.01312   0.01312   2.05736
    R9        2.64963   0.00158   0.00000   0.00291   0.00294   2.65257
   R10        2.68821   0.00295   0.00000   0.00700   0.00700   2.69521
   R11        2.66469   0.00296   0.00000   0.00689   0.00690   2.67159
   R12        2.04120   0.00479   0.00000   0.01319   0.01319   2.05439
   R13        2.05158   0.00628   0.00000   0.01761   0.01761   2.06919
   R14        2.88753  -0.00033   0.00000  -0.00267  -0.00268   2.88486
   R15        2.05118   0.00425   0.00000   0.01191   0.01191   2.06309
   R16        2.04897   0.00361   0.00000   0.01007   0.01007   2.05904
   R17        2.65324   0.00402   0.00000   0.00888   0.00888   2.66212
   R18        2.88964  -0.00176   0.00000  -0.00600  -0.00600   2.88364
   R19        2.88060  -0.00029   0.00000  -0.00165  -0.00169   2.87891
   R20        2.04685   0.00444   0.00000   0.01235   0.01235   2.05921
   R21        2.05444   0.00352   0.00000   0.00993   0.00993   2.06437
   R22        2.88769  -0.00095   0.00000  -0.00228  -0.00231   2.88538
   R23        2.05412   0.00354   0.00000   0.00998   0.00998   2.06409
   R24        2.05163   0.00256   0.00000   0.00717   0.00717   2.05880
   R25        2.04218   0.00812   0.00000   0.02241   0.02241   2.06459
   R26        2.87035   0.00020   0.00000   0.00129   0.00134   2.87169
   R27        2.05285   0.00284   0.00000   0.00798   0.00798   2.06082
   R28        2.05521   0.00324   0.00000   0.00916   0.00916   2.06436
   R29        2.04298   0.00448   0.00000   0.01238   0.01238   2.05536
   R30        2.04960   0.00612   0.00000   0.01710   0.01710   2.06670
   R31        2.05292   0.00339   0.00000   0.00952   0.00952   2.06244
   R32        2.04947   0.00275   0.00000   0.00770   0.00770   2.05717
    A1        1.91509   0.00056   0.00000  -0.00578  -0.00589   1.90920
    A2        1.88789  -0.00017   0.00000   0.00131   0.00122   1.88911
    A3        1.88730   0.00071   0.00000   0.01102   0.01101   1.89832
    A4        1.96348  -0.00071   0.00000  -0.01155  -0.01153   1.95196
    A5        1.92258  -0.00118   0.00000  -0.00592  -0.00586   1.91671
    A6        1.88555   0.00087   0.00000   0.01217   0.01208   1.89763
    A7        1.94906   0.00175   0.00000   0.00571   0.00561   1.95467
    A8        1.93968  -0.00116   0.00000  -0.00672  -0.00675   1.93293
    A9        1.93331  -0.00089   0.00000  -0.00629  -0.00626   1.92705
   A10        1.90409   0.00053   0.00000   0.00787   0.00794   1.91204
   A11        1.84296  -0.00082   0.00000  -0.00219  -0.00216   1.84080
   A12        1.89140   0.00062   0.00000   0.00198   0.00194   1.89334
   A13        2.02914  -0.00586   0.00000  -0.03838  -0.03826   1.99087
   A14        1.94507   0.00038   0.00000  -0.00031  -0.00045   1.94462
   A15        1.92682  -0.00144   0.00000  -0.01577  -0.01576   1.91106
   A16        1.91927  -0.00070   0.00000  -0.00060  -0.00062   1.91865
   A17        1.87114  -0.00033   0.00000  -0.00068  -0.00073   1.87041
   A18        1.91002   0.00145   0.00000   0.01355   0.01359   1.92361
   A19        1.89014   0.00068   0.00000   0.00414   0.00409   1.89422
   A20        1.90980  -0.00041   0.00000  -0.00483  -0.00497   1.90482
   A21        1.90017  -0.00051   0.00000  -0.01050  -0.01047   1.88971
   A22        1.93017  -0.00020   0.00000  -0.00031  -0.00024   1.92993
   A23        1.91044   0.00102   0.00000   0.00501   0.00500   1.91544
   A24        1.93711  -0.00013   0.00000   0.00422   0.00424   1.94135
   A25        1.87548   0.00026   0.00000   0.00638   0.00633   1.88181
   A26        2.05542  -0.01002   0.00000  -0.03956  -0.03956   2.01586
   A27        1.95396  -0.00170   0.00000  -0.01643  -0.01658   1.93738
   A28        1.94271  -0.00012   0.00000  -0.00088  -0.00106   1.94164
   A29        1.91000   0.00115   0.00000   0.00837   0.00850   1.91851
   A30        1.90905   0.00042   0.00000  -0.00496  -0.00494   1.90411
   A31        1.87156   0.00038   0.00000   0.00839   0.00839   1.87995
   A32        1.87345  -0.00004   0.00000   0.00688   0.00687   1.88032
   A33        1.91407   0.00154   0.00000  -0.00401  -0.00402   1.91005
   A34        1.92067  -0.00088   0.00000  -0.00629  -0.00627   1.91440
   A35        1.91669  -0.00046   0.00000   0.00216   0.00214   1.91883
   A36        1.91396  -0.00073   0.00000  -0.00084  -0.00097   1.91299
   A37        1.93111  -0.00009   0.00000   0.00296   0.00306   1.93417
   A38        1.86690   0.00057   0.00000   0.00618   0.00618   1.87308
   A39        1.89065   0.00134   0.00000   0.00786   0.00807   1.89873
   A40        1.93035   0.00361   0.00000   0.01576   0.01564   1.94600
   A41        1.83891  -0.00210   0.00000  -0.00468  -0.00471   1.83420
   A42        1.96002  -0.00401   0.00000  -0.01948  -0.01946   1.94056
   A43        1.90608   0.00170   0.00000   0.00593   0.00579   1.91187
   A44        1.93340  -0.00036   0.00000  -0.00413  -0.00412   1.92928
   A45        1.92014  -0.00118   0.00000  -0.00515  -0.00538   1.91476
   A46        1.94079  -0.00048   0.00000  -0.00224  -0.00219   1.93860
   A47        1.91633   0.00093   0.00000   0.00143   0.00151   1.91783
   A48        1.90307   0.00064   0.00000   0.00355   0.00358   1.90666
   A49        1.90653   0.00017   0.00000  -0.00078  -0.00069   1.90584
   A50        1.87620  -0.00004   0.00000   0.00342   0.00338   1.87958
   A51        1.94464   0.00259   0.00000   0.00794   0.00794   1.95257
   A52        1.84044  -0.00140   0.00000  -0.00232  -0.00233   1.83810
   A53        1.90867   0.00008   0.00000   0.00125   0.00129   1.90996
   A54        1.94704  -0.00032   0.00000  -0.00224  -0.00219   1.94485
   A55        1.93263  -0.00169   0.00000  -0.00801  -0.00806   1.92457
   A56        1.88732   0.00075   0.00000   0.00369   0.00367   1.89100
   A57        1.91267  -0.00055   0.00000  -0.00953  -0.00960   1.90307
   A58        1.92845   0.00067   0.00000   0.00320   0.00317   1.93162
   A59        1.90734  -0.00005   0.00000   0.00448   0.00450   1.91184
   A60        1.91362  -0.00048   0.00000  -0.00274  -0.00275   1.91087
   A61        1.93617   0.00049   0.00000   0.00288   0.00294   1.93911
   A62        1.86527  -0.00005   0.00000   0.00213   0.00211   1.86738
   A63        1.97665  -0.00415   0.00000  -0.02585  -0.02587   1.95079
    D1        0.49572   0.00146   0.00000   0.01176   0.01177   0.50749
    D2        2.57309   0.00035   0.00000   0.00037   0.00039   2.57349
    D3       -1.62552  -0.00015   0.00000  -0.00477  -0.00473  -1.63025
    D4       -1.65210   0.00209   0.00000   0.02877   0.02878  -1.62332
    D5        0.42527   0.00098   0.00000   0.01738   0.01741   0.44268
    D6        2.50985   0.00048   0.00000   0.01224   0.01229   2.52213
    D7        2.59315   0.00078   0.00000   0.00785   0.00781   2.60096
    D8       -1.61266  -0.00033   0.00000  -0.00354  -0.00357  -1.61623
[...]
 7,-0.00009627,-0.00021721,0.00017220,0.00018699,-0.00012047,0.00023258
 ,-0.00123442,0.00013369,0.00076598,-0.00000031,-0.00000836,0.00001639,
 -0.00000291,-0.00000831,0.00000551,0.00011460,-0.00018775,0.00004453,-
 0.00013363,0.00007833,-0.00007246,0.00004058,0.00006214,0.00005365,-0.
 00047514,-0.00039698,-0.00014034,-0.00024562,0.00000995,0.00015562,0.0
 0023560,-0.00031019,0.00060933,-0.00016466,0.00007001,0.00012229,0.000
 43447,0.00032905,-0.00080746,-0.08379718,-0.05036461,0.29159339,0.0002
 6292,0.00001963,-0.00012170,0.00001155,0.00000123,0.00001351,-0.000611
 16,0.00216437,0.00228883,0.00000389,-0.00001869,0.00004948,-0.00007670
 ,-0.00000893,0.00002006,-0.00045134,0.00020026,-0.00004448,-0.00280449
 ,-0.00343865,-0.00251726,-0.01079494,-0.00631643,0.02083878,0.00117952
 ,-0.00013849,-0.00037465,-0.09345452,-0.03098768,0.09429804,-0.0060917
 4,-0.00525429,0.00948210,0.00000916,0.00000684,-0.00000664,-0.00003743
 ,-0.00000086,-0.00003395,-0.00001746,-0.00000673,0.00002613,-0.0000075
 1,0.00000663,-0.00000513,-0.00000302,-0.00000257,-0.00000425,0.0000008
 1,-0.00000172,-0.00000171,-0.00002265,0.00001101,-0.00000762,0.0000221
 1,-0.00000526,0.00003756,0.00002048,0.00001856,-0.00003348,-0.00051921
 ,-0.00027388,0.00132741,0.00008901,-0.00012343,0.00023367,0.00068736,0
 .00080881,0.00010251,0.00092551,0.00034918,-0.00034199,-0.00004975,0.0
 0005547,0.00001783,0.10077070,0.00001294,-0.00000761,0.00004702,-0.000
 00752,-0.00000622,0.00001074,0.00473159,-0.00354397,-0.00586489,0.0000
 0777,0.00000037,-0.00000647,-0.00004506,-0.00002394,-0.00000504,0.0002
 3813,0.00020753,0.00017309,-0.00395034,-0.00271464,-0.00208342,-0.0083
 1588,-0.00625084,0.02032633,-0.00121135,-0.00199473,-0.00066972,-0.031
 78019,-0.07220507,0.06883506,0.00964039,0.01113943,-0.02124814,0.00000
 702,0.00003554,0.00000182,-0.00000141,0.00000760,0.00000030,-0.0000109
 5,0.00000368,0.00000226,-0.00000256,0.00000418,-0.00000494,0.00000003,
 0.00000009,-0.00000180,-0.00000242,0.00000217,-0.00000244,0.00000003,-
 0.00000107,0.00000086,0.00001849,-0.00000202,0.00004546,0.00001181,0.0
 0001734,-0.00004013,-0.00100341,-0.00002290,0.00134225,0.00024918,0.00
 009030,-0.00038330,0.00046311,0.00088019,-0.00039875,0.00095834,0.0004
 2258,0.00019613,0.00016106,0.00033208,0.00012598,0.03703978,0.07649264
 ,-0.00021826,-0.00001685,0.00013750,-0.00001705,-0.00000496,-0.0000042
 9,0.00343188,-0.00312162,-0.00210037,0.00000351,0.00001466,-0.00004657
 ,0.00004413,-0.00000412,-0.00000849,0.00059249,-0.00001041,0.00009827,
 -0.00108214,-0.00106491,0.00085241,-0.00401300,-0.00219104,0.00765798,
 -0.00169481,-0.00084938,-0.00022533,0.09628600,0.06778329,-0.24483611,
 0.00414883,0.00769575,-0.01263953,-0.00000405,0.00001909,0.00000122,0.
 00003258,0.00000591,0.00002789,0.00001285,0.00000523,-0.00002460,0.000
 00490,-0.00000316,0.00000101,0.00000241,0.00000240,0.00000225,-0.00000
 296,0.00000482,0.00000075,0.00002005,-0.00001041,0.00000678,-0.0000019
 9,0.,-0.00000785,-0.00000506,-0.00000148,0.00000134,-0.00019779,-0.000
 25248,0.00025804,-0.00007215,-0.00011138,0.00014638,0.00054306,0.00037
 757,0.00052356,0.00047604,0.00054754,0.00026322,0.00007474,0.00013742,
 -0.00001623,-0.10514259,-0.07311244,0.26394526,0.00014010,0.00000191,-
 0.00000845,0.00001072,0.00000482,0.00000092,0.00069361,-0.00104095,-0.
 00023800,0.00001125,-0.00000589,0.00001500,-0.00000500,0.00000408,0.00
 000670,-0.00007728,-0.00001154,0.00014071,0.00074459,0.00105489,-0.000
 68212,-0.01835638,0.00914178,-0.01446456,-0.00026779,-0.00005311,-0.00
 003548,-0.17807992,0.07624945,-0.10282520,-0.00936452,0.00637334,-0.00
 690844,0.00000135,-0.00001209,-0.00000391,-0.00001907,-0.00000378,-0.0
 0000981,-0.00002240,-0.00000512,0.00002321,-0.00000306,0.00000113,-0.0
 0000011,-0.00000110,-0.00000139,-0.00000082,0.00000270,-0.00000283,-0.
 00000015,-0.00000884,0.00000387,-0.00000261,0.00001319,-0.00000139,-0.
 00000622,-0.00000063,0.00000173,0.00000252,0.00032700,-0.00023769,0.00
 013446,-0.00011903,-0.00027751,0.00067301,-0.00267429,-0.00357750,-0.0
 0054159,0.00110579,-0.00003579,0.00025796,-0.00007814,0.00007091,0.000
 04954,0.01058131,-0.00607009,0.00709378,0.19439819,-0.00013866,0.00005
 706,0.00004530,-0.00000783,-0.00000315,-0.00000164,-0.00183556,0.00254
 088,-0.00018760,-0.00000842,0.00000145,-0.00002145,0.00004683,-0.00001
 448,-0.00002117,0.00032552,0.00014927,0.00005218,0.00065244,0.00101662
 ,-0.00078944,-0.01784697,0.00903542,-0.01393797,-0.00028395,-0.0004421
 9,-0.00010224,0.07656771,-0.09205960,0.06184989,0.02067280,-0.01565225
 ,0.01794178,0.00000182,0.00001171,0.00000404,0.00001608,0.00000665,0.0
 0001279,0.00000748,0.00000350,-0.00001435,0.00000243,-0.00000104,0.000
 00053,0.00000145,0.00000097,0.00000131,-0.00000463,0.00000327,-0.00000
 013,0.00000946,-0.00000401,0.00000264,0.00000302,-0.00000192,-0.000003
 04,-0.00000410,0.00000061,0.00000401,0.00030231,-0.00008231,-0.0000816
 8,0.00036429,-0.00015720,0.00028536,-0.00396640,-0.00249079,-0.0005410
 0,0.00094162,0.00099654,0.00005436,0.00007449,0.00008729,0.00002874,0.
 00597258,-0.00443167,0.00443552,-0.08324309,0.10404757,0.00012416,0.00
 004087,-0.00005676,0.00000671,0.00000286,0.00000203,-0.00151003,0.0003
 1760,0.00186552,-0.00000293,-0.00001036,0.00002032,-0.00000164,0.00000
 279,0.00000952,-0.00025583,0.00015487,-0.00002066,0.00095396,-0.000082
 22,0.00057000,-0.00507949,0.00198764,-0.00505251,0.00034275,-0.0000397
 5,0.00004397,-0.10432184,0.06366872,-0.13409564,0.01308930,-0.00813751
 ,0.00841774,0.00000091,-0.00000106,-0.00000481,-0.00001561,-0.00000145
 ,-0.00000988,-0.00000638,-0.00000689,0.00001636,-0.00000264,0.00000166
 ,-0.00000065,-0.00000081,-0.00000117,-0.00000087,0.00000201,-0.0000017
 2,-0.00000146,-0.00000937,0.00000485,-0.00000269,0.00001030,-0.0000038
 1,0.00000218,0.00000231,0.00000330,-0.00000576,0.00004365,-0.00013518,
 0.00009579,-0.00012292,0.00004759,0.00040412,-0.00076115,-0.00142599,0
 .00092639,0.00012391,-0.00004099,0.00007498,-0.00005824,0.00004851,0.0
 0002335,-0.01955530,0.01112841,-0.01485458,0.11564150,-0.06581407,0.14
 168338,0.00055297,0.00000222,-0.00010524,0.00003981,0.00001609,0.00000
 637,-0.01601594,-0.01392402,0.00257532,0.00002876,-0.00002883,0.000088
 31,-0.00009925,0.00004247,0.00004543,-0.00072458,-0.00024022,0.0001125
 0,-0.00031308,0.00001948,-0.00000501,-0.00084348,0.00221087,0.00144731
 ,0.00157216,0.00180577,0.00307949,0.01203540,0.01028690,0.00334046,-0.
 18880139,-0.12073883,-0.05810505,0.00000733,-0.00004763,-0.00001539,-0
 .00008119,-0.00001615,-0.00006677,-0.00009689,-0.00002777,0.00004758,-
 0.00001171,0.00000604,-0.00000168,-0.00000615,-0.00000561,-0.00000499,
 0.00000435,-0.00001193,-0.00000476,-0.00004487,0.00001879,-0.00001305,
 0.00000777,-0.00000140,0.00000496,0.00001725,0.00000835,0.00000013,0.0
 0004676,-0.00010605,-0.00014028,0.00003546,-0.00002344,-0.00004119,0.0
 0012331,0.00006080,0.00014971,0.00058252,0.00062418,0.00024896,-0.0006
 6578,-0.00064041,-0.00007860,0.00023737,-0.00102859,-0.00046351,0.0007
 5383,-0.00067854,-0.00033422,0.20567296,0.00007252,0.00008930,-0.00021
 068,0.00001059,0.00000336,0.00000530,-0.01126326,-0.00744645,0.0019471
 8,-0.00002120,-0.00002574,0.00003939,-0.00001286,-0.00001430,0.0000033
 0,-0.00022987,0.00039972,-0.00041291,0.00010817,0.00041406,-0.00015451
 ,0.00387422,-0.00296275,-0.00264388,0.00201160,0.00100740,0.00245004,-
 0.01888422,-0.01629837,-0.00827700,-0.11998748,-0.15730389,-0.04871692
 ,0.00000532,0.00000345,-0.00000093,-0.00002713,-0.00000076,-0.00002331
 ,0.00002660,-0.00000515,-0.00001163,-0.00000458,0.00000347,-0.00000219
 ,-0.00000171,-0.00000188,-0.00000206,0.00000088,-0.00000033,0.00000098
 ,-0.00001658,0.00001030,-0.00000542,0.00000575,0.00000016,0.00001707,0
 .00001174,0.00001015,-0.00001263,-0.00005368,-0.00002224,0.00001020,-0
 .00000406,-0.00001171,0.00008017,-0.00011081,0.00009886,-0.00013037,-0
 .00126501,-0.00107528,-0.00023356,-0.00042888,-0.00028054,-0.00004945,
 0.00018118,0.00062860,-0.00009916,-0.00028532,0.00102699,0.00093404,0.
 13533936,0.17038170,-0.00005215,-0.00009345,0.00030064,-0.00001292,-0.
 00000725,-0.00000260,0.03225555,0.02646855,0.00208925,0.00002830,0.000
 03062,-0.00004654,-0.00000569,0.00000515,-0.00002276,0.00027176,-0.000
 46200,0.00066825,0.00054478,0.00022827,-0.00039040,0.00275297,-0.00280
 536,-0.00103414,0.00028069,0.00053433,-0.00598585,-0.01258217,-0.00839
 184,-0.00317158,-0.06758958,-0.05644628,-0.07352585,-0.00000695,0.0000
 0498,0.00000906,0.00003392,0.00000284,0.00003542,-0.00003830,0.0000021
 8,0.00003893,0.00000412,-0.00000261,0.00000140,0.00000295,0.00000227,0
 .00000210,0.00000030,-0.00000050,-0.00000065,0.00001837,-0.00001147,0.
 00000582,0.00000653,-0.00000055,-0.00000109,-0.00001443,-0.00001411,0.
 00000285,-0.00016188,0.00014081,0.00024542,-0.00001892,-0.00001344,0.0
 0007230,0.00031110,0.00030694,0.00012972,-0.00082825,-0.00107878,0.000
 04811,0.00100454,0.00098354,0.00008804,-0.00000648,0.00055071,0.000161
 54,0.00053185,0.00044490,0.00066193,0.05535943,0.05174538,0.08336419,0
 .00029442,-0.00002130,0.00035599,-0.00000626,0.00000179,-0.00000284,0.
 01253485,-0.01016921,0.01614984,0.00003570,-0.00001137,-0.00002561,0.0
 0007671,-0.00001613,-0.00002329,-0.00191553,-0.00066742,0.00049126,-0.
 00010272,-0.00014947,0.00009601,0.00068973,-0.00091444,0.00024146,0.00
 144417,-0.00029462,0.00008782,-0.00898271,0.00615263,-0.00705038,-0.16
 861664,0.08174576,-0.10307423,0.00000396,0.00002389,0.00000464,0.00000
 771,0.00000392,0.00000533,-0.00003695,-0.00002409,0.00005245,0.0000019
 2,-0.00000114,0.00000041,0.00000046,0.00000156,0.00000111,0.00002801,0
 .00002738,-0.00001459,0.00001105,-0.00000131,0.00000360,-0.00000668,0.
 00000155,-0.00000432,0.00000091,0.00000375,-0.00000072,0.00004599,-0.0
 0003069,-0.00009275,-0.00005302,0.00001884,0.00003093,0.00048251,0.000
 39961,0.00007855,0.00003320,-0.00007339,0.00015635,-0.00012936,0.00010
 817,-0.00008618,0.00016562,-0.00009787,0.00013263,0.00030052,0.0020484
 0,0.00170223,-0.01398143,0.01096235,-0.01209886,0.17766287,-0.00032441
 ,0.00015113,-0.00008715,-0.00002569,-0.00000879,-0.00000221,-0.0000628
 4,-0.00410733,0.01308358,-0.00004100,0.00002720,-0.00005601,0.00009628
 ,-0.00004120,-0.00002645,-0.00025421,0.00047614,-0.00101724,-0.0003413
 9,-0.00028250,-0.00002794,0.00058875,0.00134172,0.00129671,0.00301052,
 0.00000336,0.00194843,0.02019877,-0.01337327,0.01421817,0.07825345,-0.
 11059445,0.06474220,0.00000219,0.00004914,0.00000711,0.00003570,0.0000
 1363,0.00003039,0.00010594,0.00001596,-0.00005126,0.00000608,-0.000001
 89,-0.00000006,0.00000320,0.00000277,0.00000254,-0.00002910,-0.0000051
 3,0.00001406,0.00001788,-0.00001402,0.00000959,-0.00000543,-0.00000263
 ,0.00000609,0.00000153,0.00001052,-0.00000920,-0.00003535,-0.00007384,
 -0.00002298,-0.00001143,0.00010952,-0.00006875,-0.00057646,-0.00016404
 ,-0.00040962,-0.00018189,0.00032199,-0.00028034,-0.00019874,-0.0000526
 0,-0.00011358,-0.00025813,0.00094081,-0.00017491,0.00195669,-0.0036453
 9,-0.00264160,-0.01292288,0.01137158,-0.01212414,-0.08902618,0.1175326
 8,-0.00001294,-0.00029278,0.00045273,-0.00000467,-0.00000286,-0.000005
 33,-0.00642916,0.02158765,-0.03372386,0.00009166,0.00002566,-0.0000715
 1,-0.00005767,0.00002520,0.00001028,0.00108720,-0.00098851,0.00169125,
 0.00063632,0.00018364,0.00011076,0.00065992,0.00069250,0.00056012,-0.0
 0596329,-0.00243118,-0.00162463,0.01067210,-0.00908382,0.01058359,-0.0
 9722918,0.06657847,-0.12811414,-0.00000719,-0.00002174,-0.00000010,0.0
 0001282,-0.00000669,0.00001116,-0.00010573,0.00001491,0.00000615,0.000
 00214,-0.00000275,0.00000130,0.00000083,0.00000132,0.00000101,0.000010
 72,0.00000361,-0.00000575,0.00002627,-0.00001535,0.00000895,0.00000010
 ,0.00000393,-0.00001247,-0.00000999,-0.00001318,0.00001147,-0.00004461
 ,0.00020473,0.00019127,0.00000093,-0.00003790,-0.00004647,-0.00017419,
 0.00040426,-0.00023759,0.00000392,0.00018929,-0.00003700,0.00045513,0.
 00009122,0.00006003,-0.00054030,0.00103358,0.00067864,0.00115587,-0.00
 364790,-0.00071177,-0.00712577,0.00375201,-0.00374202,0.10288481,-0.07
 824753,0.15395595,0.00087652,0.00101447,0.00116720,0.00078846,-0.00482
 414,-0.01190452,-0.00001395,-0.00006936,0.00000381,0.00003345,0.000085
 63,0.00025333,-0.01299448,0.01452460,0.03079489,0.00036733,-0.00030097
 ,-0.00047682,0.00002983,0.00019188,-0.00001691,-0.00000650,-0.00001106
 ,-0.00006315,0.00007879,0.00022803,0.00005200,-0.00000384,-0.00000137,
 0.00003652,0.00000079,0.00001947,-0.00001482,-0.07286225,0.03216627,0.
 07086139,0.00032334,-0.00003112,0.00005679,-0.00026241,-0.00037717,-0.
 00036322,0.00091876,-0.00056951,-0.00012592,0.00003290,0.00165108,-0.0
 0237227,0.00003418,-0.00003029,-0.00014714,0.00023565,-0.00032982,0.00
 016461,-0.00668238,-0.00006506,-0.00068626,0.00120483,0.00015386,-0.00
 052773,-0.00001938,-0.00017594,-0.00000932,-0.00008444,-0.00005261,-0.
 00001395,0.00001396,-0.00000026,0.00000200,-0.00000758,0.00000398,0.00
 000769,-0.00001109,0.00000640,0.00000425,-0.00001182,-0.00001372,0.000
 00241,-0.00000006,0.00000005,-0.00000146,-0.00000182,-0.00000618,0.000
 00110,0.00000072,-0.00000292,0.00000516,0.08364884,-0.00086975,0.00009
 160,0.00106690,-0.00553715,0.00791665,0.01708111,0.00010455,0.00003961
 ,0.00000586,-0.00004504,-0.00059706,0.00015740,0.00075028,-0.00083665,
 -0.00116464,0.00040333,-0.00000822,-0.00011159,0.00001394,-0.00003081,
 0.00001081,0.00000480,-0.00000566,0.00001521,-0.00022589,0.00003971,-0
 .00014650,-0.00000242,0.00000157,-0.00001022,-0.00001934,-0.00000661,0
 .00003092,0.03298355,-0.09579716,-0.09438826,0.00029394,-0.00030136,0.
 00033595,0.00028173,0.00024875,-0.00024081,-0.00061020,0.00117917,-0.0
 0052317,0.00072497,-0.00079958,0.00264202,-0.00001706,0.00012990,-0.00
 002605,-0.00046619,-0.00074989,0.00029109,0.00023347,0.00086891,0.0005
 8279,0.00006363,-0.00006243,-0.00005347,0.00000203,0.00004005,0.000006
 18,0.00002764,-0.00000516,-0.00000183,-0.00000079,0.00000074,0.0000045
 9,0.00000653,-0.00000251,-0.00000541,-0.00000377,0.00000354,-0.0000005
 1,0.00000523,0.00000238,-0.00000304,0.00000179,-0.00000110,0.00000155,
 0.00000696,0.00000316,-0.00000214,-0.00000128,-0.00000372,-0.00000153,
 -0.03829524,0.10095848,0.00004570,-0.00044603,0.00076386,0.00553622,-0
 .01240251,-0.02154508,0.00006090,0.00002756,0.00000392,0.00009661,-0.0
 0113528,-0.00113355,0.00094758,0.00102170,0.00147630,0.00019375,0.0000
 3092,-0.00000549,-0.00001661,-0.00001629,-0.00000280,0.00000567,0.0000
 0007,0.00001060,-0.00010599,-0.00000142,-0.00005300,-0.00000070,0.0000
 0102,-0.00000867,-0.00001056,-0.00000497,0.00001899,0.06898377,-0.0919
 2604,-0.23913122,0.00038971,0.00204117,-0.00027283,0.00042937,0.000397
 27,-0.00019964,0.00019320,0.00007458,0.00168091,-0.00119938,0.00320612
 ,-0.00269771,-0.00008194,0.00018469,0.00025648,-0.00037853,0.00025170,
 0.00044970,-0.00048563,-0.00019201,0.00109080,0.00062375,0.00009780,0.
 00028047,-0.00000474,0.00003017,0.00001192,0.00001550,-0.00000063,-0.0
 0000143,0.00000222,-0.00000021,0.00000350,0.00000355,-0.00000161,-0.00
 000327,0.00000365,-0.00000210,-0.00000645,0.00000356,0.00000194,-0.000
 00154,0.00000119,-0.00000058,0.00000113,0.00000329,0.00000227,-0.00000
 162,-0.00000171,-0.00000122,-0.00000129,-0.07516780,0.09995775,0.26058
 125,-0.00431194,0.00409084,0.00092934,0.00368928,0.00871951,0.00127119
 ,-0.00055810,-0.00010250,-0.00007894,-0.00084091,0.00067945,-0.0003410
 8,-0.01313648,-0.03255929,-0.00363906,-0.00315108,-0.00206560,-0.00000
 319,-0.00005236,-0.00002330,-0.00006461,0.00000897,0.00003099,-0.00001
 685,0.00116071,-0.00055291,0.00072954,0.00000994,-0.00000766,0.0000158
 4,0.00010974,0.00002122,-0.00015060,-0.08696968,-0.09663014,-0.0058803
 4,0.00066879,0.00122059,-0.00105610,0.00008167,-0.00029390,-0.00034917
 ,-0.00102668,-0.00034180,0.00015752,0.00110609,-0.00002095,0.00019240,
 0.00008798,-0.00005229,0.00010549,0.00023742,-0.00002013,-0.00000930,0
 .00141565,0.00027559,0.00044388,0.00166054,0.00034487,-0.00036346,0.00
 006221,-0.00002357,-0.00000157,-0.00004532,0.00005457,0.00001879,-0.00
 000204,-0.00000468,-0.00001960,-0.00002136,0.00000913,0.00002065,-0.00
 000584,0.00004992,-0.00004479,-0.00001359,0.00000168,0.00001305,-0.000
 00663,0.00000737,-0.00000385,-0.00003046,-0.00000747,0.00000833,0.0000
 1025,0.00002110,-0.00000122,0.00437366,0.01018576,-0.00008562,0.095489
 57,0.00133288,0.00076305,0.00015822,-0.00683599,-0.01338647,-0.0031864
 5,-0.00007653,-0.00003533,0.00000679,0.00082052,0.00057201,0.00044676,
 0.00213460,0.00506204,0.00064991,0.00014888,0.00021765,-0.00014004,-0.
 00000595,0.00003445,-0.00000009,-0.00000587,0.00000307,-0.00001598,0.0
 0017489,-0.00000048,0.00009382,0.00000188,-0.00000222,0.00001177,0.000
 01993,0.00000621,-0.00002694,-0.09895199,-0.27893479,-0.01535215,0.000
 21453,-0.00219435,0.00216224,-0.00002470,0.00012384,0.00000953,0.00065
 131,-0.00026627,0.00080724,-0.00030936,0.00152967,-0.00007370,-0.00008
 309,-0.00000790,0.00004931,-0.00019518,0.00004978,0.00006512,-0.000507
 82,0.00014054,0.00006112,-0.00056611,0.00047676,-0.00009694,-0.0000034
 0,-0.00003939,-0.00000986,-0.00002415,0.00000226,0.00000073,0.00000158
 ,-0.00000095,-0.00000200,-0.00000575,0.00000229,0.00000560,0.00000230,
 0.00000417,0.00000316,-0.00000507,-0.00000282,0.00000254,-0.00000128,0
 .00000131,-0.00000149,-0.00000599,-0.00000288,0.00000244,0.00000030,0.
 00000265,0.00000176,-0.00488897,-0.01231630,-0.00119582,0.10699360,0.2
 9819836,-0.00053289,0.00024167,0.00087446,0.01168023,0.02206740,0.0013
 0631,-0.00005761,-0.00001263,-0.00001048,-0.00083945,-0.00113347,-0.00
 140923,0.00005777,-0.00030895,-0.00119824,-0.00029119,-0.00018351,0.00
 008455,-0.00000135,0.00000753,-0.00000863,-0.00000067,0.00000245,-0.00
 000429,0.00014091,-0.00006819,0.00010065,0.00000187,-0.00000106,0.0000
 0370,0.00001260,0.00000181,-0.00001738,-0.00707280,-0.01727555,-0.0480
 1604,0.00043675,0.00576429,-0.00449217,0.00027009,0.00021918,-0.000025
 38,-0.00108811,0.00027601,-0.00015641,0.00096186,-0.00000781,0.0010469
 7,0.00004343,0.00012103,0.00024147,-0.00018667,0.00016445,0.00030077,-
 0.00021627,0.00035611,0.00020776,0.00001228,-0.00028250,0.00006578,-0.
 00000069,-0.00000979,0.00000119,-0.00000958,0.00000159,0.00000064,0.00
 000219,0.00000028,-0.00000273,-0.00000272,0.00000114,0.00000224,0.0000
 0489,0.00000299,-0.00001006,-0.00000192,-0.00000046,0.00000145,-0.0000
 0076,0.00000091,-0.00000067,-0.00000373,-0.00000072,0.00000015,0.00000
 006,0.00000335,-0.00000072,-0.01152182,-0.02551099,-0.00156420,0.00820
 330,0.01556343,0.05267853\\0.00011878,0.00084596,0.00057510,-0.0000023
 7,0.00000123,-0.00000456,-0.00041743,0.00031703,0.00082114,0.00000717,
 0.00001427,0.00000227,-0.00001181,-0.00001132,-0.00000198,-0.00029016,
 -0.00109520,-0.00056085,0.00000244,-0.00000844,-0.00000373,0.00000454,
 -0.00000618,-0.00000127,0.00058760,-0.00005083,-0.00083199,-0.00000071
 ,-0.00000446,-0.00000111,-0.00000149,0.00000313,0.00000850,0.00000603,
 -0.00000527,0.00000021,0.00000680,-0.00001405,-0.00000792,0.00000075,0
 .00000384,-0.00000317,0.00000011,0.00000054,-0.00000073,-0.00000375,0.
 00000031,-0.00000100,-0.00000078,0.00000380,-0.00000015,-0.00000046,-0
 .00000477,-0.00000654,0.00000401,0.00000119,0.00000221,-0.00000247,0.0
 0000249,0.00000175,-0.00000272,0.00000208,0.00000638,-0.00000172,0.000
 00472,0.00000191,0.00000010,-0.00000230,0.00000456,0.00000014,-0.00000
 062,0.00000219,-0.00000518,0.00000248,-0.00000177,0.00000258,0.0000001
 0,0.00000354,-0.00000101,-0.00000192,0.00000288,0.00000059,0.00000172,
 -0.00000417,0.00000014,-0.00000125,-0.00000184,-0.00000054,0.00000096,
 -0.00000112,0.00000083,0.00000075,0.00000128\\\@


 SIC AS THE CAWSE OF EWERY THING IS, SIC WILBE THE EFFECT.
 -- PROVERBS AND REASONS OF THE YEAR 1585
           AS REPRINTED IN PAISLEY MAGAZINE 1828.
 Job cpu time:       0 days 14 hours 17 minutes 55.8 seconds.
 Elapsed time:       0 days  0 hours 53 minutes 39.4 seconds.
 File lengths (MBytes):  RWF=    689 Int=      0 D2E=      0 Chk=     33 Scr=      1
 Normal termination of Gaussian 16 at Sun Nov  4 22:51:51 2018.
