 Entering Gaussian System, Link 0=g16
 Initial command:
 /apps/gaussian/g16a03/g16/l1.exe "/jobfs/local/2011984.r-man2/Gau-9492.inp" -scrdir="/jobfs/local/2011984.r-man2/"
 Entering Link 1 = /apps/gaussian/g16a03/g16/l1.exe PID=      9493.
  
 Copyright (c) 1988,1990,1992,1993,1995,1998,2003,2009,2016,
            Gaussian, Inc.  All Rights Reserved.
  
 This is part of the Gaussian(R) 16 program.  It is based on
 the Gaussian(R) 09 system (copyright 2009, Gaussian, Inc.),
 the Gaussian(R) 03 system (copyright 2003, Gaussian, Inc.),
 the Gaussian(R) 98 system (copyright 1998, Gaussian, Inc.),
 the Gaussian(R) 94 system (copyright 1995, Gaussian, Inc.),
 the Gaussian 92(TM) system (copyright 1992, Gaussian, Inc.),
 the Gaussian 90(TM) system (copyright 1990, Gaussian, Inc.),
 the Gaussian 88(TM) system (copyright 1988, Gaussian, Inc.),
 the Gaussian 86(TM) system (copyright 1986, Carnegie Mellon
 University), and the Gaussian 82(TM) system (copyright 1983,
 Carnegie Mellon University). Gaussian is a federally registered
 trademark of Gaussian, Inc.
  
 This software contains proprietary and confidential information,
 including trade secrets, belonging to Gaussian, Inc.
  
 This software is provided under written license and may be
 used, copied, transmitted, or stored only in accord with that
 written license.
  
 The following legend is applicable only to US Government
 contracts under FAR:
  
                    RESTRICTED RIGHTS LEGEND
  
 Use, reproduction and disclosure by the US Government is
 subject to restrictions as set forth in subparagraphs (a)
 and (c) of the Commercial Computer Software - Restricted
 Rights clause in FAR 52.227-19.
  
 Gaussian, Inc.
 340 Quinnipiac St., Bldg. 40, Wallingford CT 06492
  
  
 ---------------------------------------------------------------
 Warning -- This program may not be used in any manner that
 competes with the business of Gaussian, Inc. or will provide
 assistance to any competitor of Gaussian, Inc.  The licensee
 of this program is prohibited from giving any competitor of
 Gaussian, Inc. access to this program.  By using this program,
 the user acknowledges that Gaussian, Inc. is engaged in the
 business of creating and licensing software in the field of
 computational chemistry and represents and warrants to the
 licensee that it is not a competitor of Gaussian, Inc. and that
 it will not use this program in any manner prohibited above.
 ---------------------------------------------------------------
  

 Cite this work as:
 Gaussian 16, Revision A.03,
 M. J. Frisch, G. W. Trucks, H. B. Schlegel, G. E. Scuseria, 
 M. A. Robb, J. R. Cheeseman, G. Scalmani, V. Barone, 
 G. A. Petersson, H. Nakatsuji, X. Li, M. Caricato, A. V. Marenich, 
 J. Bloino, B. G. Janesko, R. Gomperts, B. Mennucci, H. P. Hratchian, 
 J. V. Ortiz, A. F. Izmaylov, J. L. Sonnenberg, D. Williams-Young, 
 F. Ding, F. Lipparini, F. Egidi, J. Goings, B. Peng, A. Petrone, 
 T. Henderson, D. Ranasinghe, V. G. Zakrzewski, J. Gao, N. Rega, 
 G. Zheng, W. Liang, M. Hada, M. Ehara, K. Toyota, R. Fukuda, 
 J. Hasegawa, M. Ishida, T. Nakajima, Y. Honda, O. Kitao, H. Nakai, 
 T. Vreven, K. Throssell, J. A. Montgomery, Jr., J. E. Peralta, 
 F. Ogliaro, M. J. Bearpark, J. J. Heyd, E. N. Brothers, K. N. Kudin, 
 V. N. Staroverov, T. A. Keith, R. Kobayashi, J. Normand, 
 K. Raghavachari, A. P. Rendell, J. C. Burant, S. S. Iyengar, 
 J. Tomasi, M. Cossi, J. M. Millam, M. Klene, C. Adamo, R. Cammi, 
 J. W. Ochterski, R. L. Martin, K. Morokuma, O. Farkas, 
 J. B. Foresman, and D. J. Fox, Gaussian, Inc., Wallingford CT, 2016.
 
 ******************************************
 Gaussian 16:  ES64L-G16RevA.03 25-Dec-2016
                 4-Nov-2018 
 ******************************************
 %mem=6000mb
 %nproc=24
 Will use up to   24 processors via shared memory.
 %chk=D_a1-4_2SO_PHI.inp_extract_11.chk
 ----------------------------------------------------------------------
 #M062X/6-311++G(2d,2p) opt=ModRedundant freq=noraman SCRF=(Solvent=Wat
 er)
 ----------------------------------------------------------------------
 1/18=120,19=15,26=3,38=1/1,3;
 2/9=110,12=2,17=6,18=5,40=1/2;
 3/5=4,6=6,7=1212,11=2,25=1,30=1,70=2201,71=1,72=1,74=-55/1,2,3;
 4//1;
 5/5=2,38=5,53=1/2;
 6/7=2,8=2,9=2,10=2,28=1/1;
 7//1,2,3,16;
 1/18=20,19=15,26=3/3(2);
 2/9=110/2;
 99//99;
 2/9=110/2;
 3/5=4,6=6,7=1212,11=2,25=1,30=1,70=2205,71=1,72=1,74=-55/1,2,3;
 4/5=5,16=3,69=1/1;
 5/5=2,38=5,53=1/2;
 7//1,2,3,16;
 1/18=20,19=15,26=3/3(-5);
 2/9=110/2;
 6/7=2,8=2,9=2,10=2,19=2,28=1/1;
 99/9=1/99;
 -----------------------------
 D_a1-4_2SO_PHI.inp_extract_11
 -----------------------------
 Symbolic Z-matrix:
 Charge =  0 Multiplicity = 1
 C                     0.8029    0.03229  -0.12664 
 C                     3.76894   0.06576  -0.10583 
 O                    -2.29825   0.23174   1.34703 
 C                     1.75308  -1.16527  -0.25691 
 C                     1.6126    1.31072   0.09793 
 O                    -0.07296  -0.11363   0.98018 
 C                    -1.77691  -1.37338  -0.38724 
 C                    -2.35162  -0.42285  -1.44547 
 C                    -1.34677  -0.71054   0.92602 
 C                    -3.33127   0.56138  -0.80952 
 C                    -2.68393   1.21355   0.39737 
 C                     2.93396   1.22444  -0.66235 
 O                     2.95067  -0.94875   0.45713 
 H                     0.23521   0.12059  -1.03825 
 H                     4.39627  -0.37065  -0.87747 
 H                     4.40636   0.40533   0.6996 
 H                     1.30256  -2.05789   0.15155 
 H                     1.98334  -1.34734  -1.30303 
 H                     1.81231   1.41512   1.15991 
 H                     1.03527   2.17558  -0.20991 
 H                    -0.96514  -1.96778  -0.78954 
 H                    -2.55796  -2.07254  -0.1024 
 H                    -1.56327   0.13365  -1.94065 
 H                    -2.84545  -1.01137  -2.21261 
 H                    -1.34762  -1.45535   1.70652 
 H                    -3.6269    1.32664  -1.52141 
 H                    -4.23304   0.04388  -0.49096 
 H                    -3.37069   1.86759   0.91656 
 H                    -1.81673   1.7976    0.10446 
 H                     2.73791   1.07787  -1.72077 
 H                     3.49588   2.14755  -0.57061 
 
 The following ModRedundant input section has been read:
 D       1       6       9       3 F                                           
 

 GradGradGradGradGradGradGradGradGradGradGradGradGradGradGradGradGradGrad
 Berny optimization.
 Initialization pass.
                           ----------------------------
                           !    Initial Parameters    !
                           ! (Angstroms and Degrees)  !
 --------------------------                            --------------------------
 ! Name  Definition              Value          Derivative Info.                !
 --------------------------------------------------------------------------------
 ! R1    R(1,4)                  1.5343         estimate D2E/DX2                !
 ! R2    R(1,5)                  1.5298         estimate D2E/DX2                !
 ! R3    R(1,6)                  1.419          estimate D2E/DX2                !
 ! R4    R(1,14)                 1.0775         estimate D2E/DX2                !
 ! R5    R(2,12)                 1.5328         estimate D2E/DX2                !
 ! R6    R(2,13)                 1.4198         estimate D2E/DX2                !
 ! R7    R(2,15)                 1.086          estimate D2E/DX2                !
 ! R8    R(2,16)                 1.0818         estimate D2E/DX2                !
 ! R9    R(3,9)                  1.4037         estimate D2E/DX2                !
 ! R10   R(3,11)                 1.4193         estimate D2E/DX2                !
 ! R11   R(4,13)                 1.411          estimate D2E/DX2                !
 ! R12   R(4,17)                 1.0801         estimate D2E/DX2                !
 ! R13   R(4,18)                 1.0865         estimate D2E/DX2                !
 ! R14   R(5,12)                 1.5269         estimate D2E/DX2                !
 ! R15   R(5,19)                 1.0856         estimate D2E/DX2                !
 ! R16   R(5,20)                 1.0845         estimate D2E/DX2                !
 ! R17   R(6,9)                  1.4078         estimate D2E/DX2                !
 ! R18   R(7,8)                  1.5342         estimate D2E/DX2                !
 ! R19   R(7,9)                  1.5327         estimate D2E/DX2                !
 ! R20   R(7,21)                 1.0836         estimate D2E/DX2                !
 ! R21   R(7,22)                 1.0863         estimate D2E/DX2                !
 ! R22   R(8,10)                 1.5274         estimate D2E/DX2                !
 ! R23   R(8,23)                 1.0846         estimate D2E/DX2                !
 ! R24   R(8,24)                 1.0857         estimate D2E/DX2                !
 ! R25   R(9,25)                 1.0789         estimate D2E/DX2                !
 ! R26   R(10,11)                1.5169         estimate D2E/DX2                !
 ! R27   R(10,26)                1.0862         estimate D2E/DX2                !
 ! R28   R(10,27)                1.0874         estimate D2E/DX2                !
 ! R29   R(11,28)                1.0812         estimate D2E/DX2                !
 ! R30   R(11,29)                1.0858         estimate D2E/DX2                !
 ! R31   R(12,30)                1.0864         estimate D2E/DX2                !
 ! R32   R(12,31)                1.0846         estimate D2E/DX2                !
 ! A1    A(4,1,5)              109.6913         estimate D2E/DX2                !
 ! A2    A(4,1,6)              111.6064         estimate D2E/DX2                !
 ! A3    A(4,1,14)             108.5667         estimate D2E/DX2                !
 ! A4    A(5,1,6)              107.345          estimate D2E/DX2                !
 ! A5    A(5,1,14)             109.545          estimate D2E/DX2                !
 ! A6    A(6,1,14)             110.0678         estimate D2E/DX2                !
 ! A7    A(12,2,13)            111.7258         estimate D2E/DX2                !
 ! A8    A(12,2,15)            111.1289         estimate D2E/DX2                !
 ! A9    A(12,2,16)            110.7327         estimate D2E/DX2                !
 ! A10   A(13,2,15)            109.118          estimate D2E/DX2                !
 ! A11   A(13,2,16)            105.5846         estimate D2E/DX2                !
 ! A12   A(15,2,16)            108.3473         estimate D2E/DX2                !
 ! A13   A(9,3,11)             116.606          estimate D2E/DX2                !
 ! A14   A(1,4,13)             111.278          estimate D2E/DX2                !
 ! A15   A(1,4,17)             110.7713         estimate D2E/DX2                !
 ! A16   A(1,4,18)             110.1084         estimate D2E/DX2                !
 ! A17   A(13,4,17)            106.8262         estimate D2E/DX2                !
 ! A18   A(13,4,18)            109.4552         estimate D2E/DX2                !
 ! A19   A(17,4,18)            108.3014         estimate D2E/DX2                !
 ! A20   A(1,5,12)             109.7374         estimate D2E/DX2                !
 ! A21   A(1,5,19)             108.743          estimate D2E/DX2                !
 ! A22   A(1,5,20)             110.0601         estimate D2E/DX2                !
 ! A23   A(12,5,19)            109.4701         estimate D2E/DX2                !
 ! A24   A(12,5,20)            111.3717         estimate D2E/DX2                !
 ! A25   A(19,5,20)            107.3927         estimate D2E/DX2                !
 ! A26   A(1,6,9)              124.8977         estimate D2E/DX2                !
 ! A27   A(8,7,9)              115.3546         estimate D2E/DX2                !
 ! A28   A(8,7,21)             111.3715         estimate D2E/DX2                !
 ! A29   A(8,7,22)             108.0772         estimate D2E/DX2                !
 ! A30   A(9,7,21)             110.1882         estimate D2E/DX2                !
 ! A31   A(9,7,22)             104.802          estimate D2E/DX2                !
 ! A32   A(21,7,22)            106.4364         estimate D2E/DX2                !
 ! A33   A(7,8,10)             110.6292         estimate D2E/DX2                !
 ! A34   A(7,8,23)             111.1332         estimate D2E/DX2                !
 ! A35   A(7,8,24)             108.7795         estimate D2E/DX2                !
 ! A36   A(10,8,23)            109.0055         estimate D2E/DX2                !
 ! A37   A(10,8,24)            110.5957         estimate D2E/DX2                !
 ! A38   A(23,8,24)            106.627          estimate D2E/DX2                !
 ! A39   A(3,9,6)              108.4916         estimate D2E/DX2                !
 ! A40   A(3,9,7)              110.9199         estimate D2E/DX2                !
 ! A41   A(3,9,25)             104.2361         estimate D2E/DX2                !
 ! A42   A(6,9,7)              118.0528         estimate D2E/DX2                !
 ! A43   A(6,9,25)             105.403          estimate D2E/DX2                !
 ! A44   A(7,9,25)             108.7289         estimate D2E/DX2                !
 ! A45   A(8,10,11)            109.5485         estimate D2E/DX2                !
 ! A46   A(8,10,26)            110.8347         estimate D2E/DX2                !
 ! A47   A(8,10,27)            110.3162         estimate D2E/DX2                !
 ! A48   A(11,10,26)           109.5551         estimate D2E/DX2                !
 ! A49   A(11,10,27)           108.9914         estimate D2E/DX2                !
 ! A50   A(26,10,27)           107.5529         estimate D2E/DX2                !
 ! A51   A(3,11,10)            110.5429         estimate D2E/DX2                !
 ! A52   A(3,11,28)            105.6499         estimate D2E/DX2                !
 ! A53   A(3,11,29)            109.6061         estimate D2E/DX2                !
 ! A54   A(10,11,28)           111.7816         estimate D2E/DX2                !
 ! A55   A(10,11,29)           110.9447         estimate D2E/DX2                !
 ! A56   A(28,11,29)           108.1476         estimate D2E/DX2                !
 ! A57   A(2,12,5)             109.4719         estimate D2E/DX2                !
 ! A58   A(2,12,30)            110.4905         estimate D2E/DX2                !
 ! A59   A(2,12,31)            109.2959         estimate D2E/DX2                !
 ! A60   A(5,12,30)            109.6678         estimate D2E/DX2                !
 ! A61   A(5,12,31)            110.9867         estimate D2E/DX2                !
 ! A62   A(30,12,31)           106.9023         estimate D2E/DX2                !
 ! A63   A(2,13,4)             113.4631         estimate D2E/DX2                !
 ! D1    D(5,1,4,13)            28.0882         estimate D2E/DX2                !
 ! D2    D(5,1,4,17)           146.7704         estimate D2E/DX2                !
 ! D3    D(5,1,4,18)           -93.4602         estimate D2E/DX2                !
 ! D4    D(6,1,4,13)           -90.7485         estimate D2E/DX2                !
 ! D5    D(6,1,4,17)            27.9338         estimate D2E/DX2                !
 ! D6    D(6,1,4,18)           147.7031         estimate D2E/DX2                !
 ! D7    D(14,1,4,13)          147.7608         estimate D2E/DX2                !
 ! D8    D(14,1,4,17)          -93.5569         estimate D2E/DX2                !
 ! D9    D(14,1,4,18)           26.2124         estimate D2E/DX2                !
 ! D10   D(4,1,5,12)            33.8368         estimate D2E/DX2                !
 ! D11   D(4,1,5,19)           -85.8787         estimate D2E/DX2                !
 ! D12   D(4,1,5,20)           156.7373         estimate D2E/DX2                !
 ! D13   D(6,1,5,12)           155.2702         estimate D2E/DX2                !
 ! D14   D(6,1,5,19)            35.5548         estimate D2E/DX2                !
 ! D15   D(6,1,5,20)           -81.8292         estimate D2E/DX2                !
 ! D16   D(14,1,5,12)          -85.2355         estimate D2E/DX2                !
 ! D17   D(14,1,5,19)          155.049          estimate D2E/DX2                !
 ! D18   D(14,1,5,20)           37.6651         estimate D2E/DX2                !
 ! D19   D(4,1,6,9)            -91.1637         estimate D2E/DX2                !
 ! D20   D(5,1,6,9)            148.6122         estimate D2E/DX2                !
 ! D21   D(14,1,6,9)            29.4531         estimate D2E/DX2                !
 ! D22   D(13,2,12,5)           27.1672         estimate D2E/DX2                !
 ! D23   D(13,2,12,30)         -93.7115         estimate D2E/DX2                !
 ! D24   D(13,2,12,31)         148.9214         estimate D2E/DX2                !
 ! D25   D(15,2,12,5)          149.3049         estimate D2E/DX2                !
 ! D26   D(15,2,12,30)          28.4261         estimate D2E/DX2                !
 ! D27   D(15,2,12,31)         -88.9409         estimate D2E/DX2                !
 ! D28   D(16,2,12,5)          -90.2237         estimate D2E/DX2                !
 ! D29   D(16,2,12,30)         148.8976         estimate D2E/DX2                !
 ! D30   D(16,2,12,31)          31.5306         estimate D2E/DX2                !
 ! D31   D(12,2,13,4)           37.3443         estimate D2E/DX2                !
 ! D32   D(15,2,13,4)          -85.9407         estimate D2E/DX2                !
 ! D33   D(16,2,13,4)          157.7927         estimate D2E/DX2                !
 ! D34   D(11,3,9,6)            78.8669         estimate D2E/DX2                !
 ! D35   D(11,3,9,7)           -52.3357         estimate D2E/DX2                !
 ! D36   D(11,3,9,25)         -169.1837         estimate D2E/DX2                !
 ! D37   D(9,3,11,10)           61.8409         estimate D2E/DX2                !
 ! D38   D(9,3,11,28)         -177.061          estimate D2E/DX2                !
 ! D39   D(9,3,11,29)          -60.7557         estimate D2E/DX2                !
 ! D40   D(1,4,13,2)           -68.6184         estimate D2E/DX2                !
 ! D41   D(17,4,13,2)          170.3588         estimate D2E/DX2                !
 ! D42   D(18,4,13,2)           53.3098         estimate D2E/DX2                !
 ! D43   D(1,5,12,2)           -63.0158         estimate D2E/DX2                !
 ! D44   D(1,5,12,30)           58.3609         estimate D2E/DX2                !
 ! D45   D(1,5,12,31)          176.2522         estimate D2E/DX2                !
 ! D46   D(19,5,12,2)           56.2544         estimate D2E/DX2                !
 ! D47   D(19,5,12,30)         177.6311         estimate D2E/DX2                !
 ! D48   D(19,5,12,31)         -64.4776         estimate D2E/DX2                !
 ! D49   D(20,5,12,2)          174.8619         estimate D2E/DX2                !
 ! D50   D(20,5,12,30)         -63.7614         estimate D2E/DX2                !
 ! D51   D(20,5,12,31)          54.1299         estimate D2E/DX2                !
 ! D52   D(1,6,9,3)           -121.1062         Frozen                          !
 ! D53   D(1,6,9,7)              6.1111         estimate D2E/DX2                !
 ! D54   D(1,6,9,25)           127.7258         estimate D2E/DX2                !
 ! D55   D(9,7,8,10)           -44.2002         estimate D2E/DX2                !
 ! D56   D(9,7,8,23)            77.0366         estimate D2E/DX2                !
 ! D57   D(9,7,8,24)          -165.8693         estimate D2E/DX2                !
 ! D58   D(21,7,8,10)         -170.75           estimate D2E/DX2                !
 ! D59   D(21,7,8,23)          -49.5133         estimate D2E/DX2                !
 ! D60   D(21,7,8,24)           67.5808         estimate D2E/DX2                !
 ! D61   D(22,7,8,10)           72.6761         estimate D2E/DX2                !
 ! D62   D(22,7,8,23)         -166.0872         estimate D2E/DX2                !
 ! D63   D(22,7,8,24)          -48.9931         estimate D2E/DX2                !
 ! D64   D(8,7,9,3)             43.1491         estimate D2E/DX2                !
 ! D65   D(8,7,9,6)            -82.8983         estimate D2E/DX2                !
 ! D66   D(8,7,9,25)           157.2031         estimate D2E/DX2                !
 ! D67   D(21,7,9,3)           170.2982         estimate D2E/DX2                !
 ! D68   D(21,7,9,6)            44.2507         estimate D2E/DX2                !
 ! D69   D(21,7,9,25)          -75.6479         estimate D2E/DX2                !
 ! D70   D(22,7,9,3)           -75.5609         estimate D2E/DX2                !
 ! D71   D(22,7,9,6)           158.3916         estimate D2E/DX2                !
 ! D72   D(22,7,9,25)           38.493          estimate D2E/DX2                !
 ! D73   D(7,8,10,11)           50.5665         estimate D2E/DX2                !
 ! D74   D(7,8,10,26)          171.5748         estimate D2E/DX2                !
 ! D75   D(7,8,10,27)          -69.4136         estimate D2E/DX2                !
 ! D76   D(23,8,10,11)         -71.9209         estimate D2E/DX2                !
 ! D77   D(23,8,10,26)          49.0873         estimate D2E/DX2                !
 ! D78   D(23,8,10,27)         168.099          estimate D2E/DX2                !
 ! D79   D(24,8,10,11)         171.1597         estimate D2E/DX2                !
 ! D80   D(24,8,10,26)         -67.832          estimate D2E/DX2                !
 ! D81   D(24,8,10,27)          51.1796         estimate D2E/DX2                !
 ! D82   D(8,10,11,3)          -58.6676         estimate D2E/DX2                !
 ! D83   D(8,10,11,28)        -176.0529         estimate D2E/DX2                !
 ! D84   D(8,10,11,29)          63.1439         estimate D2E/DX2                !
 ! D85   D(26,10,11,3)         179.5528         estimate D2E/DX2                !
 ! D86   D(26,10,11,28)         62.1675         estimate D2E/DX2                !
 ! D87   D(26,10,11,29)        -58.6357         estimate D2E/DX2                !
 ! D88   D(27,10,11,3)          62.1195         estimate D2E/DX2                !
 ! D89   D(27,10,11,28)        -55.2658         estimate D2E/DX2                !
 ! D90   D(27,10,11,29)       -176.069          estimate D2E/DX2                !
 --------------------------------------------------------------------------------
 Trust Radius=3.00D-01 FncErr=1.00D-07 GrdErr=1.00D-06 EigMax=2.50D+02 EigMin=1.00D-04
 Number of steps in this run=    186 maximum allowed number of steps=    186.
 GradGradGradGradGradGradGradGradGradGradGradGradGradGradGradGradGradGrad

                          Input orientation:                          
 ---------------------------------------------------------------------
 Center     Atomic      Atomic             Coordinates (Angstroms)
 Number     Number       Type             X           Y           Z
 ---------------------------------------------------------------------
      1          6           0        0.802902    0.032287   -0.126640
      2          6           0        3.768940    0.065760   -0.105833
      3          8           0       -2.298248    0.231742    1.347028
      4          6           0        1.753077   -1.165266   -0.256908
      5          6           0        1.612602    1.310718    0.097934
      6          8           0       -0.072956   -0.113634    0.980175
      7          6           0       -1.776914   -1.373378   -0.387235
      8          6           0       -2.351616   -0.422849   -1.445467
      9          6           0       -1.346766   -0.710536    0.926020
     10          6           0       -3.331271    0.561384   -0.809515
     11          6           0       -2.683928    1.213545    0.397374
     12          6           0        2.933960    1.224443   -0.662345
     13          8           0        2.950672   -0.948745    0.457134
     14          1           0        0.235208    0.120591   -1.038250
     15          1           0        4.396267   -0.370653   -0.877472
     16          1           0        4.406363    0.405326    0.699600
     17          1           0        1.302555   -2.057891    0.151552
     18          1           0        1.983342   -1.347342   -1.303028
     19          1           0        1.812311    1.415120    1.159909
     20          1           0        1.035274    2.175577   -0.209905
     21          1           0       -0.965136   -1.967775   -0.789537
     22          1           0       -2.557963   -2.072535   -0.102404
     23          1           0       -1.563267    0.133654   -1.940649
     24          1           0       -2.845445   -1.011374   -2.212613
     25          1           0       -1.347615   -1.455354    1.706515
     26          1           0       -3.626895    1.326635   -1.521407
     27          1           0       -4.233040    0.043880   -0.490959
     28          1           0       -3.370688    1.867585    0.916557
     29          1           0       -1.816725    1.797595    0.104461
     30          1           0        2.737909    1.077872   -1.720767
     31          1           0        3.495881    2.147548   -0.570609
 ---------------------------------------------------------------------
                    Distance matrix (angstroms):
                    1          2          3          4          5
     1  C    0.000000
     2  C    2.966300   0.000000
     3  O    3.439275   6.240923   0.000000
     4  C    1.534254   2.366844   4.575749   0.000000
     5  C    1.529848   2.498246   4.244900   2.505223   0.000000
     6  O    1.418964   3.996468   2.281620   2.443502   2.376601
     7  C    2.949450   5.736445   2.419890   3.538521   4.350699
     8  C    3.449266   6.284470   2.868687   4.337322   4.593731
     9  C    2.506183   5.276154   1.403728   3.348899   3.678186
    10  C    4.223464   7.152189   2.413810   5.397897   5.082012
    11  C    3.718594   6.573441   1.419341   5.076794   4.308048
    12  C    2.499925   1.532789   5.692015   2.696215   1.526910
    13  O    2.432310   1.419759   5.453130   1.411018   2.650402
    14  H    1.077547   3.655088   3.481423   2.137253   2.145817
    15  H    3.693018   1.086012   7.080100   2.828951   3.395175
    16  H    3.715745   1.081820   6.738034   3.228249   2.997805
    17  H    2.167000   3.264842   4.431407   1.080088   3.383272
    18  H    2.163493   2.572643   5.277150   1.086527   3.027445
    19  H    2.141575   2.692819   4.281599   2.944363   1.085622
    20  H    2.157457   3.454720   4.161118   3.417409   1.084460
    21  H    2.750571   5.197518   3.343647   2.883816   4.263901
    22  H    3.965637   6.678474   2.734593   4.408183   5.374025
    23  H    2.983230   5.639467   3.370258   3.939583   3.953156
    24  H    4.330236   7.024872   3.809961   4.999487   5.532172
    25  H    3.193471   5.637156   1.969575   3.681504   4.359079
    26  H    4.821184   7.634922   3.345447   6.062394   5.484054
    27  H    5.049116   8.011272   2.675240   6.111498   6.010258
    28  H    4.677118   7.434120   2.002852   6.068622   5.080691
    29  H    3.167359   5.851763   2.056145   4.653237   3.463723
    30  H    2.716384   2.166889   5.957363   2.853847   2.151327
    31  H    3.453053   2.150446   6.396841   3.756396   2.166558
                    6          7          8          9         10
     6  O    0.000000
     7  C    2.521951   0.000000
     8  C    3.342401   1.534159   0.000000
     9  C    1.407770   1.532653   2.591609   0.000000
    10  C    3.778261   2.517469   1.527375   2.927136   0.000000
    11  C    2.986342   2.851395   2.486821   2.401990   1.516888
    12  C    3.678297   5.386715   5.591437   4.958998   6.301938
    13  O    3.180143   4.821135   5.657801   4.329500   6.583897
    14  H    2.055205   2.589285   2.674474   2.655517   3.600887
    15  H    4.846738   6.273273   6.771947   6.029140   7.783839
    16  H    4.518002   6.525175   7.138450   5.864717   7.884971
    17  H    2.521663   3.200309   4.310081   3.071493   5.408937
    18  H    3.311104   3.870256   4.434731   4.057560   5.668501
    19  H    2.433850   4.801241   5.244464   3.814824   5.573503
    20  H    2.808016   4.531548   4.444036   3.910766   4.693812
    21  H    2.713983   1.083577   2.177009   2.160886   3.463472
    22  H    3.344328   1.086272   2.137256   2.092772   2.834703
    23  H    3.288372   2.174830   1.084617   2.996218   2.142021
    24  H    4.322792   2.145882   1.085699   3.491069   2.162933
    25  H    1.988099   2.138880   3.465411   1.078854   3.785833
    26  H    4.578512   3.463935   2.166287   3.916498   1.086183
    27  H    4.415353   2.837593   2.160712   3.302658   1.087417
    28  H    3.847637   3.839770   3.444380   3.277660   2.164957
    29  H    2.731374   3.209115   2.760210   2.680773   2.158106
    30  H    4.076240   5.307595   5.313306   5.185408   6.158903
    31  H    4.500497   6.342942   6.447134   5.818915   7.013059
                   11         12         13         14         15
    11  C    0.000000
    12  C    5.716974   0.000000
    13  O    6.035544   2.444639   0.000000
    14  H    3.431752   2.939908   3.279237   0.000000
    15  H    7.366415   2.174616   2.050636   4.193040   0.000000
    16  H    7.142604   2.166522   2.002832   4.527663   1.757669
    17  H    5.162826   3.754681   2.009944   2.701970   3.671065
    18  H    5.588642   2.815711   2.047627   2.298022   2.637655
    19  H    4.564894   2.148270   2.716177   2.999160   3.743893
    20  H    3.889313   2.171259   3.724927   2.355680   4.269099
    21  H    3.805759   5.040772   4.233930   2.421561   5.594924
    22  H    3.326254   6.429993   5.649871   3.672521   7.201281
    23  H    2.808629   4.800930   5.224614   2.012214   6.074596
    24  H    3.433422   6.387780   6.381727   3.485814   7.391584
    25  H    3.259234   5.578951   4.504762   3.538738   6.391068
    26  H    2.140957   6.617647   7.235770   4.074779   8.225969
    27  H    2.134713   7.265603   7.313679   4.502294   8.647900
    28  H    1.081184   6.531091   6.935588   4.458222   8.279725
    29  H    1.085796   4.846184   5.513151   2.885924   6.653327
    30  H    5.822478   1.086359   2.982566   2.765091   2.357864
    31  H    6.324507   1.084571   3.307649   3.867717   2.691876
                   16         17         18         19         20
    16  H    0.000000
    17  H    4.000177   0.000000
    18  H    3.599082   1.756176   0.000000
    19  H    2.821467   3.652183   3.704930   0.000000
    20  H    3.914745   4.257269   3.808505   1.748849   0.000000
    21  H    6.058229   2.456866   3.056490   4.791506   4.637346
    22  H    7.435378   3.868890   4.752984   5.732056   5.565013
    23  H    6.533085   4.170505   3.895940   4.759217   3.730595
    24  H    7.942087   4.887778   4.925181   6.241512   5.406244
    25  H    6.130601   3.131192   4.490467   4.303897   4.747050
    26  H    8.385399   6.209129   6.218730   6.064837   4.916967
    27  H    8.728537   5.955928   6.421710   6.414977   5.690189
    28  H    7.916299   6.150918   6.627816   5.208399   4.558100
    29  H    6.404641   4.959526   5.129538   3.798705   2.894062
    30  H    3.015665   3.924134   2.574012   3.044464   2.527178
    31  H    2.340458   4.797699   3.877946   2.523004   2.487062
                   21         22         23         24         25
    21  H    0.000000
    22  H    1.737879   0.000000
    23  H    2.469580   3.039052   0.000000
    24  H    2.544683   2.379431   1.740412   0.000000
    25  H    2.576653   2.262309   3.984126   4.219026   0.000000
    26  H    4.298108   3.835432   2.420233   2.560218   4.832604
    27  H    3.849039   2.726916   3.039301   2.450117   3.924573
    28  H    4.838122   4.150102   3.799594   4.284389   3.969733
    29  H    3.962631   3.945901   2.648663   3.783835   3.656271
    30  H    4.884229   6.371061   4.409083   5.981697   5.903813
    31  H    6.073260   7.394413   5.614958   7.272371   6.451794
                   26         27         28         29         30
    26  H    0.000000
    27  H    1.753481   0.000000
    28  H    2.510366   2.459807   0.000000
    29  H    2.478299   3.044441   1.754765   0.000000
    30  H    6.372783   7.153719   6.700305   4.959249   0.000000
    31  H    7.232693   8.010492   7.031345   5.366747   1.744016
                   31
    31  H    0.000000
 Stoichiometry    C10H18O3
 Framework group  C1[X(C10H18O3)]
 Deg. of freedom    87
 Full point group                 C1      NOp   1
 Largest Abelian subgroup         C1      NOp   1
 Largest concise Abelian subgroup C1      NOp   1
                         Standard orientation:                         
 ---------------------------------------------------------------------
 Center     Atomic      Atomic             Coordinates (Angstroms)
 Number     Number       Type             X           Y           Z
 ---------------------------------------------------------------------
      1          6           0       -0.802902    0.032287    0.126640
      2          6           0       -3.768940    0.065760    0.105833
      3          8           0        2.298248    0.231742   -1.347028
      4          6           0       -1.753077   -1.165266    0.256908
      5          6           0       -1.612602    1.310718   -0.097934
      6          8           0        0.072956   -0.113634   -0.980175
      7          6           0        1.776914   -1.373378    0.387235
      8          6           0        2.351616   -0.422849    1.445467
      9          6           0        1.346766   -0.710536   -0.926020
     10          6           0        3.331271    0.561384    0.809515
     11          6           0        2.683928    1.213545   -0.397374
     12          6           0       -2.933960    1.224443    0.662345
     13          8           0       -2.950672   -0.948745   -0.457134
     14          1           0       -0.235208    0.120591    1.038250
     15          1           0       -4.396267   -0.370653    0.877472
     16          1           0       -4.406363    0.405326   -0.699600
     17          1           0       -1.302555   -2.057891   -0.151552
     18          1           0       -1.983342   -1.347342    1.303028
     19          1           0       -1.812311    1.415120   -1.159909
     20          1           0       -1.035274    2.175577    0.209905
     21          1           0        0.965136   -1.967775    0.789537
     22          1           0        2.557963   -2.072535    0.102404
     23          1           0        1.563267    0.133654    1.940649
     24          1           0        2.845445   -1.011374    2.212613
     25          1           0        1.347615   -1.455354   -1.706515
     26          1           0        3.626895    1.326635    1.521407
     27          1           0        4.233040    0.043880    0.490959
     28          1           0        3.370688    1.867585   -0.916557
     29          1           0        1.816725    1.797595   -0.104461
     30          1           0       -2.737909    1.077872    1.720767
     31          1           0       -3.495881    2.147548    0.570609
 ---------------------------------------------------------------------
 Rotational constants (GHZ):           1.7611962           0.4284609           0.4156503
 Standard basis: 6-311++G(2d,2p) (5D, 7F)
 There are   557 symmetry adapted cartesian basis functions of A   symmetry.
 There are   531 symmetry adapted basis functions of A   symmetry.
   531 basis functions,   762 primitive gaussians,   557 cartesian basis functions
    51 alpha electrons       51 beta electrons
       nuclear repulsion energy       899.0315267007 Hartrees.
 NAtoms=   31 NActive=   31 NUniq=   31 SFac= 1.00D+00 NAtFMM=   60 NAOKFM=F Big=F
 Integral buffers will be    131072 words long.
 Raffenetti 2 integral format.
 Two-electron integral symmetry is turned on.
 ------------------------------------------------------------------------------
 Polarizable Continuum Model (PCM)
 =================================
 Model                : PCM.
 Atomic radii         : UFF (Universal Force Field).
 Polarization charges : Total charges.
 Charge compensation  : None.
 Solution method      : On-the-fly selection.
 Cavity type          : Scaled VdW (van der Waals Surface) (Alpha=1.100).
 Cavity algorithm     : GePol (No added spheres)
                        Default sphere list used, NSphG=   31.
                        Lebedev-Laikov grids with approx.  5.0 points / Ang**2.
                        Smoothing algorithm: York/Karplus (Gamma=1.0000).
                        Polarization charges: spherical gaussians, with
                                              point-specific exponents (IZeta= 3).
                        Self-potential: point-specific (ISelfS= 7).
                        Self-field    : sphere-specific E.n sum rule (ISelfD= 2).
 1st derivatives      : Analytical E(r).r(x)/FMM algorithm (CHGder, D1EAlg=3).
                        Cavity 1st derivative terms included.
 Solvent              : Water, Eps=  78.355300 Eps(inf)=   1.777849
 ------------------------------------------------------------------------------
 One-electron integrals computed using PRISM.
 NBasis=   531 RedAO= T EigKep=  4.43D-06  NBF=   531
 NBsUse=   531 1.00D-06 EigRej= -1.00D+00 NBFU=   531
 ExpMin= 3.60D-02 ExpMax= 8.59D+03 ExpMxC= 1.30D+03 IAcc=3 IRadAn=         5 AccDes= 0.00D+00
 Harris functional with IExCor= 1009 and IRadAn=       5 diagonalized for initial guess.
 HarFok:  IExCor= 1009 AccDes= 0.00D+00 IRadAn=         5 IDoV= 1 UseB2=F ITyADJ=14
 ICtDFT=  3500011 ScaDFX=  1.000000  1.000000  1.000000  1.000000
 FoFCou: FMM=F IPFlag=           0 FMFlag=      100000 FMFlg1=           0
         NFxFlg=           0 DoJE=T BraDBF=F KetDBF=T FulRan=T
         wScrn=  0.000000 ICntrl=       500 IOpCl=  0 I1Cent=   200000004 NGrid=           0
         NMat0=    1 NMatS0=      1 NMatT0=    0 NMatD0=    1 NMtDS0=    0 NMtDT0=    0
 Petite list used in FoFCou.
 Requested convergence on RMS density matrix=1.00D-08 within 128 cycles.
 Requested convergence on MAX density matrix=1.00D-06.
 Requested convergence on             energy=1.00D-06.
 No special actions if energy rises.
 Inv3:  Mode=1 IEnd=    12448107.
 Iteration    1 A*A^-1 deviation from unit magnitude is 4.55D-15 for   2031.
 Iteration    1 A*A^-1 deviation from orthogonality  is 2.20D-15 for   1884    365.
 Iteration    1 A^-1*A deviation from unit magnitude is 4.44D-15 for   2017.
 Iteration    1 A^-1*A deviation from orthogonality  is 2.51D-15 for   1622   1397.
 Error on total polarization charges =  0.01491
 SCF Done:  E(RM062X) =  -617.483717564     A.U. after   12 cycles
            NFock= 12  Conv=0.50D-08     -V/T= 2.0035

 **********************************************************************

            Population analysis using the SCF density.

 **********************************************************************

 Orbital symmetries:
       Occupied  (A) (A) (A) (A) (A) (A) (A) (A) (A) (A) (A) (A)
                 (A) (A) (A) (A) (A) (A) (A) (A) (A) (A) (A) (A)
                 (A) (A) (A) (A) (A) (A) (A) (A) (A) (A) (A) (A)
                 (A) (A) (A) (A) (A) (A) (A) (A) (A) (A) (A) (A)
                 (A) (A) (A)
       Virtual   (A) (A) (A) (A) (A) (A) (A) (A) (A) (A) (A) (A)
                 (A) (A) (A) (A) (A) (A) (A) (A) (A) (A) (A) (A)
                 (A) (A) (A) (A) (A) (A) (A) (A) (A) (A) (A) (A)
                 (A) (A) (A) (A) (A) (A) (A) (A) (A) (A) (A) (A)
                 (A) (A) (A) (A) (A) (A) (A) (A) (A) (A) (A) (A)
                 (A) (A) (A) (A) (A) (A) (A) (A) (A) (A) (A) (A)
                 (A) (A) (A) (A) (A) (A) (A) (A) (A) (A) (A) (A)
                 (A) (A) (A) (A) (A) (A) (A) (A) (A) (A) (A) (A)
                 (A) (A) (A) (A) (A) (A) (A) (A) (A) (A) (A) (A)
                 (A) (A) (A) (A) (A) (A) (A) (A) (A) (A) (A) (A)
                 (A) (A) (A) (A) (A) (A) (A) (A) (A) (A) (A) (A)
                 (A) (A) (A) (A) (A) (A) (A) (A) (A) (A) (A) (A)
                 (A) (A) (A) (A) (A) (A) (A) (A) (A) (A) (A) (A)
                 (A) (A) (A) (A) (A) (A) (A) (A) (A) (A) (A) (A)
                 (A) (A) (A) (A) (A) (A) (A) (A) (A) (A) (A) (A)
                 (A) (A) (A) (A) (A) (A) (A) (A) (A) (A) (A) (A)
                 (A) (A) (A) (A) (A) (A) (A) (A) (A) (A) (A) (A)
                 (A) (A) (A) (A) (A) (A) (A) (A) (A) (A) (A) (A)
                 (A) (A) (A) (A) (A) (A) (A) (A) (A) (A) (A) (A)
                 (A) (A) (A) (A) (A) (A) (A) (A) (A) (A) (A) (A)
                 (A) (A) (A) (A) (A) (A) (A) (A) (A) (A) (A) (A)
                 (A) (A) (A) (A) (A) (A) (A) (A) (A) (A) (A) (A)
                 (A) (A) (A) (A) (A) (A) (A) (A) (A) (A) (A) (A)
                 (A) (A) (A) (A) (A) (A) (A) (A) (A) (A) (A) (A)
                 (A) (A) (A) (A) (A) (A) (A) (A) (A) (A) (A) (A)
                 (A) (A) (A) (A) (A) (A) (A) (A) (A) (A) (A) (A)
                 (A) (A) (A) (A) (A) (A) (A) (A) (A) (A) (A) (A)
                 (A) (A) (A) (A) (A) (A) (A) (A) (A) (A) (A) (A)
                 (A) (A) (A) (A) (A) (A) (A) (A) (A) (A) (A) (A)
                 (A) (A) (A) (A) (A) (A) (A) (A) (A) (A) (A) (A)
                 (A) (A) (A) (A) (A) (A) (A) (A) (A) (A) (A) (A)
                 (A) (A) (A) (A) (A) (A) (A) (A) (A) (A) (A) (A)
                 (A) (A) (A) (A) (A) (A) (A) (A) (A) (A) (A) (A)
                 (A) (A) (A) (A) (A) (A) (A) (A) (A) (A) (A) (A)
                 (A) (A) (A) (A) (A) (A) (A) (A) (A) (A) (A) (A)
                 (A) (A) (A) (A) (A) (A) (A) (A) (A) (A) (A) (A)
                 (A) (A) (A) (A) (A) (A) (A) (A) (A) (A) (A) (A)
                 (A) (A) (A) (A) (A) (A) (A) (A) (A) (A) (A) (A)
                 (A) (A) (A) (A) (A) (A) (A) (A) (A) (A) (A) (A)
                 (A) (A) (A) (A) (A) (A) (A) (A) (A) (A) (A) (A)
 The electronic state is 1-A.
 Alpha  occ. eigenvalues --  -19.62668 -19.62616 -19.62588 -10.63731 -10.58912
 Alpha  occ. eigenvalues --  -10.57820 -10.57800 -10.57735 -10.53631 -10.53372
 Alpha  occ. eigenvalues --  -10.53231 -10.53187 -10.52871  -1.19695  -1.16501
 Alpha  occ. eigenvalues --   -1.13314  -0.90521  -0.90318  -0.87237  -0.84992
 Alpha  occ. eigenvalues --   -0.75630  -0.74768  -0.73693  -0.70737  -0.65216
 Alpha  occ. eigenvalues --   -0.62884  -0.59729  -0.59140  -0.57866  -0.57222
 Alpha  occ. eigenvalues --   -0.54996  -0.53250  -0.52801  -0.50740  -0.49939
 Alpha  occ. eigenvalues --   -0.48620  -0.46778  -0.45535  -0.45363  -0.45001
 Alpha  occ. eigenvalues --   -0.44090  -0.42776  -0.41408  -0.40103  -0.39677
 Alpha  occ. eigenvalues --   -0.38443  -0.36830  -0.36705  -0.35510  -0.33176
 Alpha  occ. eigenvalues --   -0.31293
 Alpha virt. eigenvalues --   -0.00263   0.00708   0.00912   0.01101   0.02224
 Alpha virt. eigenvalues --    0.02538   0.02746   0.03349   0.03537   0.04499
 Alpha virt. eigenvalues --    0.04592   0.04881   0.05606   0.06006   0.07273
 Alpha virt. eigenvalues --    0.07343   0.08233   0.08416   0.08755   0.09634
 Alpha virt. eigenvalues --    0.09867   0.10627   0.10811   0.11091   0.11809
 Alpha virt. eigenvalues --    0.11965   0.12466   0.12727   0.13183   0.13624
 Alpha virt. eigenvalues --    0.13723   0.13948   0.14271   0.14489   0.14684
 Alpha virt. eigenvalues --    0.15128   0.15482   0.15774   0.16160   0.16316
 Alpha virt. eigenvalues --    0.16452   0.16783   0.17243   0.17512   0.17714
 Alpha virt. eigenvalues --    0.18112   0.18312   0.18910   0.19187   0.19611
 Alpha virt. eigenvalues --    0.19653   0.20100   0.20213   0.21183   0.21381
 Alpha virt. eigenvalues --    0.22623   0.22731   0.22878   0.23677   0.23967
 Alpha virt. eigenvalues --    0.24788   0.25073   0.25809   0.26214   0.26716
 Alpha virt. eigenvalues --    0.27510   0.27908   0.28392   0.28922   0.29778
 Alpha virt. eigenvalues --    0.30151   0.30828   0.31325   0.32288   0.32534
 Alpha virt. eigenvalues --    0.32806   0.33008   0.33583   0.34339   0.34566
 Alpha virt. eigenvalues --    0.34813   0.35034   0.35906   0.36027   0.36480
 Alpha virt. eigenvalues --    0.37232   0.37532   0.37738   0.38215   0.38386
 Alpha virt. eigenvalues --    0.38858   0.39497   0.40058   0.40249   0.40626
 Alpha virt. eigenvalues --    0.42382   0.42982   0.43143   0.43849   0.45469
 Alpha virt. eigenvalues --    0.46806   0.48524   0.48891   0.49918   0.51112
 Alpha virt. eigenvalues --    0.51647   0.51914   0.52917   0.54552   0.55060
 Alpha virt. eigenvalues --    0.56252   0.57758   0.58017   0.58437   0.58979
 Alpha virt. eigenvalues --    0.59591   0.59800   0.60442   0.60875   0.61464
 Alpha virt. eigenvalues --    0.61888   0.62016   0.63104   0.63409   0.63661
 Alpha virt. eigenvalues --    0.64856   0.65074   0.65629   0.66282   0.66709
 Alpha virt. eigenvalues --    0.67873   0.68571   0.68941   0.69788   0.70560
 Alpha virt. eigenvalues --    0.70906   0.71265   0.71531   0.72654   0.72789
 Alpha virt. eigenvalues --    0.73317   0.74161   0.75053   0.75277   0.75669
 Alpha virt. eigenvalues --    0.76256   0.77139   0.77583   0.79303   0.79884
 Alpha virt. eigenvalues --    0.81388   0.82033   0.84491   0.84811   0.85627
 Alpha virt. eigenvalues --    0.86274   0.86853   0.88481   0.89653   0.89982
 Alpha virt. eigenvalues --    0.91256   0.91899   0.94025   0.95511   0.96033
 Alpha virt. eigenvalues --    0.96530   0.97492   0.98431   0.99239   1.02030
 Alpha virt. eigenvalues --    1.02795   1.03170   1.04827   1.05252   1.07129
 Alpha virt. eigenvalues --    1.07535   1.09220   1.09992   1.10873   1.11755
 Alpha virt. eigenvalues --    1.13475   1.13604   1.14457   1.15912   1.16953
 Alpha virt. eigenvalues --    1.17387   1.18932   1.19339   1.20087   1.21274
 Alpha virt. eigenvalues --    1.22145   1.23005   1.23217   1.24088   1.24848
 Alpha virt. eigenvalues --    1.25495   1.26023   1.26462   1.27024   1.27500
 Alpha virt. eigenvalues --    1.27776   1.28791   1.29101   1.31335   1.31622
 Alpha virt. eigenvalues --    1.32306   1.32847   1.33609   1.34639   1.35194
 Alpha virt. eigenvalues --    1.35807   1.35929   1.36554   1.37193   1.38356
 Alpha virt. eigenvalues --    1.38672   1.39435   1.39656   1.40810   1.41286
 Alpha virt. eigenvalues --    1.42107   1.43019   1.43602   1.44561   1.44835
 Alpha virt. eigenvalues --    1.45396   1.46111   1.47033   1.48179   1.48890
 Alpha virt. eigenvalues --    1.49218   1.50212   1.51320   1.51850   1.52342
 Alpha virt. eigenvalues --    1.52836   1.53969   1.54820   1.54941   1.55758
 Alpha virt. eigenvalues --    1.56566   1.57141   1.57808   1.58082   1.58932
 Alpha virt. eigenvalues --    1.59870   1.60019   1.61067   1.62239   1.62786
 Alpha virt. eigenvalues --    1.63774   1.64439   1.65085   1.65835   1.67012
 Alpha virt. eigenvalues --    1.68270   1.68755   1.69716   1.70156   1.70831
 Alpha virt. eigenvalues --    1.73589   1.74711   1.75492   1.75843   1.76353
 Alpha virt. eigenvalues --    1.76936   1.79133   1.81654   1.82625   1.84484
 Alpha virt. eigenvalues --    1.85590   1.87509   1.89250   1.97042   1.99368
 Alpha virt. eigenvalues --    2.01845   2.05068   2.08103   2.14977   2.19832
 Alpha virt. eigenvalues --    2.23184   2.24693   2.26145   2.29594   2.38231
 Alpha virt. eigenvalues --    2.41240   2.44114   2.44938   2.48959   2.50846
 Alpha virt. eigenvalues --    2.55587   2.75278   2.77345   2.81208   2.83264
 Alpha virt. eigenvalues --    2.85097   2.88181   2.91102   2.92300   2.93060
 Alpha virt. eigenvalues --    2.94670   2.95924   2.99241   3.01412   3.02275
 Alpha virt. eigenvalues --    3.06656   3.07477   3.08178   3.09467   3.11143
 Alpha virt. eigenvalues --    3.12824   3.13692   3.15203   3.17385   3.21335
 Alpha virt. eigenvalues --    3.23144   3.28653   3.31484   3.31976   3.33514
 Alpha virt. eigenvalues --    3.34888   3.35835   3.36659   3.38257   3.39576
 Alpha virt. eigenvalues --    3.40807   3.43327   3.44285   3.44824   3.45731
 Alpha virt. eigenvalues --    3.46498   3.49257   3.49624   3.50222   3.51889
 Alpha virt. eigenvalues --    3.52653   3.52939   3.53991   3.54574   3.55744
 Alpha virt. eigenvalues --    3.56498   3.57503   3.58914   3.58948   3.60452
 Alpha virt. eigenvalues --    3.60746   3.62667   3.63652   3.64089   3.64780
 Alpha virt. eigenvalues --    3.66103   3.66546   3.67721   3.68906   3.69470
 Alpha virt. eigenvalues --    3.70604   3.71685   3.72504   3.72753   3.74304
 Alpha virt. eigenvalues --    3.74942   3.76171   3.76642   3.78176   3.79341
 Alpha virt. eigenvalues --    3.81059   3.81831   3.82195   3.84176   3.85927
 Alpha virt. eigenvalues --    3.86705   3.88088   3.88940   3.91009   3.92754
 Alpha virt. eigenvalues --    3.93678   3.94653   3.96427   3.97754   3.98083
 Alpha virt. eigenvalues --    4.00504   4.00617   4.01146   4.03166   4.04571
 Alpha virt. eigenvalues --    4.05128   4.05775   4.07133   4.07435   4.08415
 Alpha virt. eigenvalues --    4.09677   4.09968   4.10373   4.11351   4.11809
 Alpha virt. eigenvalues --    4.13131   4.13258   4.13870   4.14227   4.15762
 Alpha virt. eigenvalues --    4.16344   4.16756   4.18512   4.19570   4.20295
 Alpha virt. eigenvalues --    4.22101   4.23610   4.24868   4.26365   4.27059
 Alpha virt. eigenvalues --    4.28573   4.29726   4.30737   4.32484   4.32907
 Alpha virt. eigenvalues --    4.33900   4.36672   4.36944   4.38276   4.39788
 Alpha virt. eigenvalues --    4.41651   4.43097   4.44305   4.47642   4.56224
 Alpha virt. eigenvalues --    4.58021   4.60954   4.74280   4.74854   4.82209
 Alpha virt. eigenvalues --    4.84804   4.93221   4.94465   4.99561   5.02059
 Alpha virt. eigenvalues --    5.04791   5.06455   5.08793   5.11538   5.12863
 Alpha virt. eigenvalues --    5.14420   5.16226   5.18724   5.32989   5.34706
 Alpha virt. eigenvalues --    5.43416   5.55992   5.60491   5.62678   5.85459
 Alpha virt. eigenvalues --    5.88463   6.01664   7.00154   7.06709   7.08014
 Alpha virt. eigenvalues --    7.09478   7.10114   7.11338   7.11440   7.14531
 Alpha virt. eigenvalues --    7.32101   7.35982   7.40810   7.45649   7.51744
 Alpha virt. eigenvalues --    7.56439   7.57091  23.96373  23.98036  24.05569
 Alpha virt. eigenvalues --   24.08249  24.10441  24.11586  24.14516  24.14827
 Alpha virt. eigenvalues --   24.16504  24.18775  50.17669  50.18443  50.22274
          Condensed to atoms (all electrons):
               1          2          3          4          5          6
     1  C    7.835182   0.174315   0.014695  -0.701742  -1.098521   0.190936
     2  C    0.174315   5.629468  -0.000592  -0.214124  -0.014238   0.008553
     3  O    0.014695  -0.000592   8.214077  -0.014963   0.014800  -0.044525
     4  C   -0.701742  -0.214124  -0.014963   6.522364  -0.150882  -0.101083
     5  C   -1.098521  -0.014238   0.014800  -0.150882   7.064033  -0.221278
     6  O    0.190936   0.008553  -0.044525  -0.101083  -0.221278   8.209410
     7  C    0.162428  -0.030054  -0.005476   0.197290  -0.098409  -0.012335
     8  C   -0.248565   0.004451  -0.034569  -0.028113   0.040194   0.041902
     9  C   -0.675714   0.051799   0.193984   0.041163   0.074615   0.303366
    10  C    0.233090  -0.001277  -0.120178  -0.022500  -0.030541  -0.030813
    11  C   -0.037510  -0.002754   0.215136  -0.018624   0.026712   0.005503
    12  C   -0.033893  -0.265820  -0.001520   0.066275  -0.154941   0.021059
    13  O   -0.012717   0.057238   0.000710   0.134807  -0.069800   0.021484
    14  H    0.531870   0.029107  -0.003415  -0.163459  -0.094268  -0.003740
    15  H    0.052230   0.518070  -0.000040  -0.040095  -0.037100   0.000341
    16  H   -0.022058   0.406331   0.000031   0.033283  -0.012631   0.000274
    17  H    0.045058   0.034464   0.001634   0.339095  -0.021796  -0.007460
    18  H   -0.097977   0.023165   0.000375   0.459099   0.030429   0.009686
    19  H   -0.079756  -0.034182   0.003910  -0.025972   0.498221  -0.005255
    20  H   -0.088691  -0.019641  -0.002752   0.045498   0.431552   0.008289
    21  H    0.018597  -0.008319   0.011831   0.010535   0.024553  -0.013500
    22  H   -0.000747  -0.000411  -0.012859   0.004247  -0.000657   0.003338
    23  H   -0.002488  -0.003499   0.004343   0.008597   0.018384  -0.007120
    24  H   -0.007131   0.000270  -0.001865  -0.001775  -0.000475   0.000608
    25  H   -0.062980   0.001892  -0.082484   0.022106   0.005998  -0.067602
    26  H   -0.004439   0.000036   0.006109  -0.001165  -0.003148   0.001031
    27  H   -0.005157  -0.000037  -0.012225   0.000716   0.001836   0.000202
    28  H    0.005918  -0.000181  -0.052342  -0.001625   0.003583  -0.003884
    29  H    0.029307   0.005213  -0.039047  -0.005159  -0.028857   0.000088
    30  H   -0.060432  -0.102226   0.000274   0.009264   0.009001   0.000616
    31  H    0.048468  -0.008096   0.000087  -0.019000  -0.052617  -0.002077
               7          8          9         10         11         12
     1  C    0.162428  -0.248565  -0.675714   0.233090  -0.037510  -0.033893
     2  C   -0.030054   0.004451   0.051799  -0.001277  -0.002754  -0.265820
     3  O   -0.005476  -0.034569   0.193984  -0.120178   0.215136  -0.001520
     4  C    0.197290  -0.028113   0.041163  -0.022500  -0.018624   0.066275
     5  C   -0.098409   0.040194   0.074615  -0.030541   0.026712  -0.154941
     6  O   -0.012335   0.041902   0.303366  -0.030813   0.005503   0.021059
     7  C    6.911113  -0.681636  -1.164870   0.228692   0.082281   0.055542
     8  C   -0.681636   6.250450   0.444425  -0.574932   0.201671  -0.013781
     9  C   -1.164870   0.444425   6.911434  -0.127494  -0.269917  -0.095001
    10  C    0.228692  -0.574932  -0.127494   6.523973  -0.319854   0.003005
    11  C    0.082281   0.201671  -0.269917  -0.319854   5.532433  -0.006407
    12  C    0.055542  -0.013781  -0.095001   0.003005  -0.006407   5.918411
    13  O    0.013621  -0.002342  -0.023859  -0.000222   0.002238   0.060119
    14  H   -0.038414  -0.024361   0.034560   0.053254  -0.049221   0.009972
    15  H    0.000190   0.000093  -0.000561   0.000005  -0.000342  -0.090500
    16  H   -0.000224   0.000245   0.000443   0.000128   0.000166   0.013028
    17  H   -0.015441  -0.015294   0.027347   0.005645  -0.000231  -0.017431
    18  H   -0.003877   0.010420   0.005490  -0.004642   0.003021  -0.035839
    19  H    0.002285   0.000060  -0.013636  -0.002533   0.009103  -0.011260
    20  H    0.002670   0.002303   0.011961   0.003322  -0.003342   0.003837
    21  H    0.495358  -0.061587  -0.114176  -0.016150   0.005525   0.011363
    22  H    0.446469   0.007544  -0.074479  -0.034289   0.023069  -0.000831
    23  H   -0.065590   0.558574  -0.036196  -0.117897   0.026499   0.001252
    24  H   -0.071863   0.444152   0.032469  -0.039375   0.017103   0.000715
    25  H   -0.061914   0.000036   0.545085  -0.001027  -0.020931   0.002039
    26  H    0.010012  -0.044807   0.018757   0.424176  -0.034935   0.000737
    27  H   -0.045754   0.012265   0.026404   0.445749  -0.057496  -0.000051
    28  H    0.011895  -0.002810  -0.014650  -0.007154   0.420703  -0.000559
    29  H   -0.015067   0.036673   0.029897  -0.167414   0.500644  -0.003974
    30  H    0.002015   0.000867  -0.004588  -0.001426   0.002571   0.523314
    31  H    0.000050  -0.000614  -0.001867   0.000151  -0.000186   0.398219
              13         14         15         16         17         18
     1  C   -0.012717   0.531870   0.052230  -0.022058   0.045058  -0.097977
     2  C    0.057238   0.029107   0.518070   0.406331   0.034464   0.023165
     3  O    0.000710  -0.003415  -0.000040   0.000031   0.001634   0.000375
     4  C    0.134807  -0.163459  -0.040095   0.033283   0.339095   0.459099
     5  C   -0.069800  -0.094268  -0.037100  -0.012631  -0.021796   0.030429
     6  O    0.021484  -0.003740   0.000341   0.000274  -0.007460   0.009686
     7  C    0.013621  -0.038414   0.000190  -0.000224  -0.015441  -0.003877
     8  C   -0.002342  -0.024361   0.000093   0.000245  -0.015294   0.010420
     9  C   -0.023859   0.034560  -0.000561   0.000443   0.027347   0.005490
    10  C   -0.000222   0.053254   0.000005   0.000128   0.005645  -0.004642
    11  C    0.002238  -0.049221  -0.000342   0.000166  -0.000231   0.003021
    12  C    0.060119   0.009972  -0.090500   0.013028  -0.017431  -0.035839
    13  O    8.378143   0.010193  -0.064956  -0.080415  -0.074978  -0.030844
    14  H    0.010193   0.616670   0.005708   0.000102   0.010376  -0.032103
    15  H   -0.064956   0.005708   0.527577  -0.026800  -0.000819   0.006276
    16  H   -0.080415   0.000102  -0.026800   0.507910   0.000965  -0.004545
    17  H   -0.074978   0.010376  -0.000819   0.000965   0.492302  -0.008747
    18  H   -0.030844  -0.032103   0.006276  -0.004545  -0.008747   0.472830
    19  H    0.002583  -0.005872  -0.003884   0.006569   0.002119   0.002171
    20  H   -0.001655  -0.020143   0.000956  -0.001346  -0.001868   0.000182
    21  H    0.002160  -0.025316  -0.001141   0.000338  -0.005214  -0.008410
    22  H    0.000190  -0.008008  -0.000050   0.000040  -0.000766   0.000414
    23  H   -0.000211  -0.047835  -0.000562   0.000031  -0.001670   0.004657
    24  H   -0.000019   0.007681   0.000093  -0.000019  -0.000145   0.000293
    25  H   -0.000121   0.004348   0.000320  -0.000259  -0.006733   0.000842
    26  H   -0.000001   0.005100   0.000024   0.000000  -0.000116  -0.000146
    27  H   -0.000041   0.000987  -0.000015   0.000004  -0.000276  -0.000060
    28  H    0.000100  -0.001656  -0.000010   0.000009   0.000126   0.000045
    29  H   -0.000614  -0.005117   0.000136  -0.000264   0.001498  -0.000346
    30  H    0.000068  -0.030209  -0.016711   0.008713  -0.001833  -0.001613
    31  H    0.010086   0.002496   0.001596  -0.008583   0.001550  -0.001134
              19         20         21         22         23         24
     1  C   -0.079756  -0.088691   0.018597  -0.000747  -0.002488  -0.007131
     2  C   -0.034182  -0.019641  -0.008319  -0.000411  -0.003499   0.000270
     3  O    0.003910  -0.002752   0.011831  -0.012859   0.004343  -0.001865
     4  C   -0.025972   0.045498   0.010535   0.004247   0.008597  -0.001775
     5  C    0.498221   0.431552   0.024553  -0.000657   0.018384  -0.000475
     6  O   -0.005255   0.008289  -0.013500   0.003338  -0.007120   0.000608
     7  C    0.002285   0.002670   0.495358   0.446469  -0.065590  -0.071863
     8  C    0.000060   0.002303  -0.061587   0.007544   0.558574   0.444152
     9  C   -0.013636   0.011961  -0.114176  -0.074479  -0.036196   0.032469
    10  C   -0.002533   0.003322  -0.016150  -0.034289  -0.117897  -0.039375
    11  C    0.009103  -0.003342   0.005525   0.023069   0.026499   0.017103
    12  C   -0.011260   0.003837   0.011363  -0.000831   0.001252   0.000715
    13  O    0.002583  -0.001655   0.002160   0.000190  -0.000211  -0.000019
    14  H   -0.005872  -0.020143  -0.025316  -0.008008  -0.047835   0.007681
    15  H   -0.003884   0.000956  -0.001141  -0.000050  -0.000562   0.000093
    16  H    0.006569  -0.001346   0.000338   0.000040   0.000031  -0.000019
    17  H    0.002119  -0.001868  -0.005214  -0.000766  -0.001670  -0.000145
    18  H    0.002171   0.000182  -0.008410   0.000414   0.004657   0.000293
    19  H    0.468972  -0.018616  -0.000609   0.000307   0.001179   0.000031
    20  H   -0.018616   0.505481  -0.000611   0.000245  -0.000780  -0.000017
    21  H   -0.000609  -0.000611   0.516126  -0.005256   0.007486  -0.010759
    22  H    0.000307   0.000245  -0.005256   0.431329   0.006714  -0.008048
    23  H    0.001179  -0.000780   0.007486   0.006714   0.496658  -0.013064
    24  H    0.000031  -0.000017  -0.010759  -0.008048  -0.013064   0.467110
    25  H   -0.004398   0.002089  -0.012963  -0.007957  -0.003724   0.003294
    26  H   -0.000078   0.000148  -0.000303  -0.001339  -0.010708  -0.006051
    27  H   -0.000191   0.000276   0.000021  -0.002410  -0.000985   0.000610
    28  H    0.000247   0.000576   0.000585   0.000287  -0.000709   0.001175
    29  H   -0.001854  -0.008164   0.001640  -0.001454   0.000526   0.000155
    30  H    0.007044  -0.000075   0.001873   0.000139   0.003362  -0.000220
    31  H   -0.000326  -0.013503   0.000026  -0.000055   0.000205   0.000028
              25         26         27         28         29         30
     1  C   -0.062980  -0.004439  -0.005157   0.005918   0.029307  -0.060432
     2  C    0.001892   0.000036  -0.000037  -0.000181   0.005213  -0.102226
     3  O   -0.082484   0.006109  -0.012225  -0.052342  -0.039047   0.000274
     4  C    0.022106  -0.001165   0.000716  -0.001625  -0.005159   0.009264
     5  C    0.005998  -0.003148   0.001836   0.003583  -0.028857   0.009001
     6  O   -0.067602   0.001031   0.000202  -0.003884   0.000088   0.000616
     7  C   -0.061914   0.010012  -0.045754   0.011895  -0.015067   0.002015
     8  C    0.000036  -0.044807   0.012265  -0.002810   0.036673   0.000867
     9  C    0.545085   0.018757   0.026404  -0.014650   0.029897  -0.004588
    10  C   -0.001027   0.424176   0.445749  -0.007154  -0.167414  -0.001426
    11  C   -0.020931  -0.034935  -0.057496   0.420703   0.500644   0.002571
    12  C    0.002039   0.000737  -0.000051  -0.000559  -0.003974   0.523314
    13  O   -0.000121  -0.000001  -0.000041   0.000100  -0.000614   0.000068
    14  H    0.004348   0.005100   0.000987  -0.001656  -0.005117  -0.030209
    15  H    0.000320   0.000024  -0.000015  -0.000010   0.000136  -0.016711
    16  H   -0.000259   0.000000   0.000004   0.000009  -0.000264   0.008713
    17  H   -0.006733  -0.000116  -0.000276   0.000126   0.001498  -0.001833
    18  H    0.000842  -0.000146  -0.000060   0.000045  -0.000346  -0.001613
    19  H   -0.004398  -0.000078  -0.000191   0.000247  -0.001854   0.007044
    20  H    0.002089   0.000148   0.000276   0.000576  -0.008164  -0.000075
    21  H   -0.012963  -0.000303   0.000021   0.000585   0.001640   0.001873
    22  H   -0.007957  -0.001339  -0.002410   0.000287  -0.001454   0.000139
    23  H   -0.003724  -0.010708  -0.000985  -0.000709   0.000526   0.003362
    24  H    0.003294  -0.006051   0.000610   0.001175   0.000155  -0.000220
    25  H    0.484779   0.002021   0.001238  -0.000883  -0.000776  -0.000748
    26  H    0.002021   0.489761  -0.004965  -0.012775   0.003060  -0.000184
    27  H    0.001238  -0.004965   0.464944  -0.000625  -0.000633   0.000021
    28  H   -0.000883  -0.012775  -0.000625   0.452132  -0.018642   0.000064
    29  H   -0.000776   0.003060  -0.000633  -0.018642   0.556431  -0.000833
    30  H   -0.000748  -0.000184   0.000021   0.000064  -0.000833   0.478492
    31  H    0.000092  -0.000022  -0.000001   0.000018   0.000375  -0.010330
              31
     1  C    0.048468
     2  C   -0.008096
     3  O    0.000087
     4  C   -0.019000
     5  C   -0.052617
     6  O   -0.002077
     7  C    0.000050
     8  C   -0.000614
     9  C   -0.001867
    10  C    0.000151
    11  C   -0.000186
    12  C    0.398219
    13  O    0.010086
    14  H    0.002496
    15  H    0.001596
    16  H   -0.008583
    17  H    0.001550
    18  H   -0.001134
    19  H   -0.000326
    20  H   -0.013503
    21  H    0.000026
    22  H   -0.000055
    23  H    0.000205
    24  H    0.000028
    25  H    0.000092
    26  H   -0.000022
    27  H   -0.000001
    28  H    0.000018
    29  H    0.000375
    30  H   -0.010330
    31  H    0.477151
 Mulliken charges:
               1
     1  C   -0.101575
     2  C   -0.238921
     3  O   -0.253142
     4  C   -0.384059
     5  C   -0.153753
     6  O   -0.306016
     7  C   -0.310987
     8  C   -0.322916
     9  C   -0.136192
    10  C   -0.301473
    11  C   -0.252629
    12  C   -0.357080
    13  O   -0.330945
    14  H    0.230711
    15  H    0.169968
    16  H    0.178532
    17  H    0.218641
    18  H    0.200887
    19  H    0.203621
    20  H    0.161816
    21  H    0.176296
    22  H    0.235280
    23  H    0.174570
    24  H    0.185040
    25  H    0.259320
    26  H    0.164208
    27  H    0.175650
    28  H    0.221039
    29  H    0.132570
    30  H    0.183729
    31  H    0.177811
 Sum of Mulliken charges =  -0.00000
 Mulliken charges with hydrogens summed into heavy atoms:
               1
     1  C    0.129136
     2  C    0.109579
     3  O   -0.253142
     4  C    0.035469
     5  C    0.211684
     6  O   -0.306016
     7  C    0.100589
     8  C    0.036693
     9  C    0.123128
    10  C    0.038385
    11  C    0.100980
    12  C    0.004461
    13  O   -0.330945
 Electronic spatial extent (au):  <R**2>=           2922.4043
 Charge=             -0.0000 electrons
 Dipole moment (field-independent basis, Debye):
    X=              0.5236    Y=              0.7451    Z=              5.1111  Tot=              5.1916
 Quadrupole moment (field-independent basis, Debye-Ang):
   XX=            -77.5101   YY=            -76.3495   ZZ=            -85.1417
   XY=             -5.6184   XZ=              0.5215   YZ=             -0.2755
 Traceless Quadrupole moment (field-independent basis, Debye-Ang):
   XX=              2.1570   YY=              3.3176   ZZ=             -5.4746
   XY=             -5.6184   XZ=              0.5215   YZ=             -0.2755
 Octapole moment (field-independent basis, Debye-Ang**2):
  XXX=             -4.1401  YYY=             -1.2842  ZZZ=              3.2106  XYY=              9.9620
  XXY=             23.4203  XXZ=             21.2959  XZZ=             -6.0762  YZZ=             -3.0765
  YYZ=             -2.5986  XYZ=              6.5853
 Hexadecapole moment (field-independent basis, Debye-Ang**3):
 XXXX=          -2803.3827 YYYY=           -545.9725 ZZZZ=           -441.8184 XXXY=            -43.7207
 XXXZ=             -2.8903 YYYX=              1.4518 YYYZ=              2.3798 ZZZX=              7.6077
 ZZZY=              4.1693 XXYY=           -563.4821 XXZZ=           -571.7277 YYZZ=           -161.1600
 XXYZ=            -21.7909 YYXZ=            -10.3155 ZZXY=             -2.3744
 N-N= 8.990315267007D+02 E-N=-3.239764484688D+03  KE= 6.153207181935D+02
 D1PCM: PCM CHGder 1st derivatives, ID1Alg=3 FixD1E=F DoIter=F DoCFld=F I1PDM=0.
 Calling FoFJK, ICntrl=      2127 FMM=F ISym2X=0 I1Cent= 0 IOpClX= 0 NMat=1 NMatS=1 NMatT=0.
 ***** Axes restored to original set *****
 -------------------------------------------------------------------
 Center     Atomic                   Forces (Hartrees/Bohr)
 Number     Number              X              Y              Z
 -------------------------------------------------------------------
      1        6          -0.000028777   -0.003097501    0.003760924
      2        6          -0.005892761    0.001187155   -0.002383794
      3        8          -0.004436916   -0.002109440    0.009803931
      4        6           0.003524684    0.006756124   -0.000867959
      5        6           0.001554394   -0.002335412   -0.002983638
      6        8           0.004486947    0.005990834    0.005341268
      7        6           0.000600138    0.003809002   -0.000114718
      8        6          -0.000696490   -0.000229669    0.004643549
      9        6          -0.002083770    0.004326809   -0.011065242
     10        6           0.002748209    0.000663258   -0.000313119
     11        6           0.000437059   -0.006688923   -0.003072889
     12        6          -0.000375050   -0.000794823    0.001793189
     13        8           0.000368821   -0.004380238    0.008584136
     14        1          -0.003819933    0.000878576   -0.007403684
     15        1           0.003038957   -0.001279135   -0.004414088
     16        1           0.002412001    0.001756617    0.003674242
     17        1          -0.003166209   -0.003854647    0.002506676
     18        1           0.000369305   -0.001014877   -0.006457171
     19        1           0.000333580   -0.001313686    0.003756325
     20        1          -0.001891759    0.002124554   -0.000874372
     21        1           0.003879611   -0.002093318   -0.001696720
     22        1          -0.002535949   -0.002180019    0.000765206
     23        1           0.003054212    0.002427485   -0.001569212
     24        1          -0.001066891   -0.001294713   -0.001974314
     25        1          -0.000794553   -0.004758168    0.005165107
     26        1          -0.000780727    0.001636827   -0.002153751
     27        1          -0.002175123   -0.001818851    0.001501446
     28        1          -0.002725195    0.002718271    0.001925738
     29        1           0.005531833    0.003193298   -0.002628267
     30        1          -0.000990557   -0.000706524   -0.003227946
     31        1           0.001120909    0.002481135   -0.000020853
 -------------------------------------------------------------------
 Cartesian Forces:  Max     0.011065242 RMS     0.003473193

 GradGradGradGradGradGradGradGradGradGradGradGradGradGradGradGradGradGrad
 Berny optimization.
 FormGI is forming the generalized inverse of G from B-inverse, IUseBI=4.
 Internal  Forces:  Max     0.016207104 RMS     0.002289394
 Search for a local minimum.
 Step number   1 out of a maximum of  186
 All quantities printed in internal units (Hartrees-Bohrs-Radians)
 Mixed Optimization -- RFO/linear search
 Second derivative matrix not updated -- first step.
 ITU=  0
     Eigenvalues ---    0.00414   0.00498   0.00619   0.00714   0.01404
     Eigenvalues ---    0.01429   0.01441   0.02538   0.02819   0.03055
     Eigenvalues ---    0.03379   0.03816   0.04318   0.04658   0.04667
     Eigenvalues ---    0.04786   0.04824   0.04950   0.05047   0.05095
     Eigenvalues ---    0.05189   0.05520   0.05659   0.05734   0.05978
     Eigenvalues ---    0.06295   0.06391   0.06699   0.07599   0.07821
     Eigenvalues ---    0.07840   0.07873   0.08008   0.08084   0.08461
     Eigenvalues ---    0.08771   0.09354   0.10165   0.11251   0.11622
     Eigenvalues ---    0.11686   0.11782   0.11900   0.12416   0.12647
     Eigenvalues ---    0.14681   0.14981   0.16535   0.18557   0.19600
     Eigenvalues ---    0.19944   0.21662   0.22550   0.25000   0.27149
     Eigenvalues ---    0.27901   0.28117   0.28515   0.28612   0.29000
     Eigenvalues ---    0.29256   0.30128   0.35113   0.35217   0.35237
     Eigenvalues ---    0.35247   0.35258   0.35278   0.35303   0.35314
     Eigenvalues ---    0.35324   0.35442   0.35448   0.35461   0.35566
     Eigenvalues ---    0.35775   0.35852   0.35984   0.36133   0.36292
     Eigenvalues ---    0.40323   0.41045   0.41587   0.42617   0.43483
     Eigenvalues ---    0.443571000.000001000.000001000.000001000.00000
     Eigenvalues --- 1000.000001000.000001000.000001000.000001000.00000
     Eigenvalues --- 1000.000001000.000001000.000001000.000001000.00000
     Eigenvalues --- 1000.000001000.000001000.000001000.000001000.00000
     Eigenvalues --- 1000.000001000.000001000.000001000.000001000.00000
     Eigenvalues --- 1000.000001000.000001000.000001000.000001000.00000
     Eigenvalues --- 1000.000001000.000001000.000001000.000001000.00000
     Eigenvalues --- 1000.000001000.000001000.000001000.000001000.00000
     Eigenvalues --- 1000.000001000.000001000.000001000.000001000.00000
     Eigenvalues --- 1000.000001000.000001000.000001000.000001000.00000
     Eigenvalues --- 1000.000001000.000001000.000001000.000001000.00000
     Eigenvalues --- 1000.000001000.000001000.000001000.000001000.00000
     Eigenvalues --- 1000.000001000.000001000.000001000.000001000.00000
     Eigenvalues --- 1000.000001000.000001000.000001000.000001000.00000
     Eigenvalues --- 1000.000001000.000001000.000001000.000001000.00000
     Eigenvalues --- 1000.000001000.000001000.000001000.000001000.00000
     Eigenvalues --- 1000.000001000.000001000.000001000.000001000.00000
     Eigenvalues --- 1000.000001000.000001000.000001000.000001000.00000
     Eigenvalues --- 1000.000001000.000001000.000001000.000001000.00000
     Eigenvalues --- 1000.000001000.000001000.000001000.000001000.00000
 RFO step:  Lambda=-4.10478546D-03 EMin= 4.14198637D-03
 Linear search not attempted -- first point.
 Iteration  1 RMS(Cart)=  0.08648572 RMS(Int)=  0.00162594
 Iteration  2 RMS(Cart)=  0.00366865 RMS(Int)=  0.00005311
 Iteration  3 RMS(Cart)=  0.00000725 RMS(Int)=  0.00005302
 Iteration  4 RMS(Cart)=  0.00000000 RMS(Int)=  0.00005302
 Iteration  1 RMS(Cart)=  0.00000608 RMS(Int)=  0.00000131
 Iteration  2 RMS(Cart)=  0.00000324 RMS(Int)=  0.00000146
 Iteration  3 RMS(Cart)=  0.00000173 RMS(Int)=  0.00000165
 Iteration  4 RMS(Cart)=  0.00000092 RMS(Int)=  0.00000177
 Variable       Old X    -DE/DX   Delta X   Delta X   Delta X     New X
                                 (Linear)    (Quad)   (Total)
    R1        2.89932   0.00071   0.00000   0.00197   0.00198   2.90130
    R2        2.89099  -0.00169   0.00000  -0.00691  -0.00691   2.88409
    R3        2.68145   0.00105   0.00000   0.00243   0.00243   2.68389
    R4        2.03627   0.00835   0.00000   0.02274   0.02274   2.05901
    R5        2.89655   0.00065   0.00000   0.00331   0.00330   2.89985
    R6        2.68296   0.00336   0.00000   0.00917   0.00917   2.69213
    R7        2.05227   0.00541   0.00000   0.01515   0.01515   2.06741
    R8        2.04434   0.00471   0.00000   0.01301   0.01301   2.05736
    R9        2.65266   0.00177   0.00000   0.00378   0.00379   2.65646
   R10        2.68217   0.00297   0.00000   0.00625   0.00625   2.68841
   R11        2.66644   0.00246   0.00000   0.00562   0.00562   2.67206
   R12        2.04107   0.00546   0.00000   0.01499   0.01499   2.05606
   R13        2.05324   0.00646   0.00000   0.01814   0.01814   2.07138
   R14        2.88544  -0.00030   0.00000  -0.00226  -0.00226   2.88318
   R15        2.05153   0.00361   0.00000   0.01010   0.01010   2.06163
   R16        2.04933   0.00295   0.00000   0.00822   0.00822   2.05755
   R17        2.66030   0.00199   0.00000   0.00444   0.00444   2.66474
   R18        2.89914  -0.00144   0.00000  -0.00401  -0.00401   2.89513
   R19        2.89629  -0.00074   0.00000  -0.00237  -0.00238   2.89392
   R20        2.04766   0.00468   0.00000   0.01302   0.01302   2.06068
   R21        2.05276   0.00343   0.00000   0.00961   0.00961   2.06237
   R22        2.88632  -0.00087   0.00000  -0.00283  -0.00284   2.88348
   R23        2.04963   0.00418   0.00000   0.01167   0.01167   2.06130
   R24        2.05167   0.00258   0.00000   0.00723   0.00723   2.05890
   R25        2.03874   0.00702   0.00000   0.01921   0.01921   2.05795
   R26        2.86650   0.00029   0.00000   0.00089   0.00091   2.86741
   R27        2.05259   0.00278   0.00000   0.00779   0.00779   2.06038
   R28        2.05492   0.00311   0.00000   0.00875   0.00875   2.06367
   R29        2.04314   0.00430   0.00000   0.01186   0.01186   2.05500
   R30        2.05186   0.00685   0.00000   0.01917   0.01917   2.07103
   R31        2.05292   0.00342   0.00000   0.00959   0.00959   2.06251
   R32        2.04954   0.00269   0.00000   0.00750   0.00750   2.05704
    A1        1.91447   0.00050   0.00000  -0.00555  -0.00567   1.90880
    A2        1.94790  -0.00067   0.00000  -0.00055  -0.00054   1.94736
    A3        1.89485   0.00014   0.00000   0.00017   0.00019   1.89504
    A4        1.87352   0.00036   0.00000  -0.00087  -0.00083   1.87269
    A5        1.91192  -0.00082   0.00000  -0.00046  -0.00045   1.91148
    A6        1.92105   0.00048   0.00000   0.00721   0.00719   1.92824
    A7        1.94998   0.00179   0.00000   0.00548   0.00538   1.95536
    A8        1.93956  -0.00113   0.00000  -0.00642  -0.00644   1.93313
    A9        1.93265  -0.00083   0.00000  -0.00536  -0.00532   1.92733
   A10        1.90447   0.00045   0.00000   0.00692   0.00699   1.91146
   A11        1.84280  -0.00087   0.00000  -0.00235  -0.00232   1.84047
   A12        1.89102   0.00060   0.00000   0.00204   0.00201   1.89302
   A13        2.03516  -0.00615   0.00000  -0.03974  -0.03961   1.99555
   A14        1.94217   0.00071   0.00000   0.00025   0.00007   1.94224
   A15        1.93332  -0.00144   0.00000  -0.01531  -0.01530   1.91802
   A16        1.92175  -0.00053   0.00000   0.00138   0.00134   1.92310
   A17        1.86447  -0.00059   0.00000  -0.00240  -0.00244   1.86203
   A18        1.91035   0.00135   0.00000   0.01442   0.01445   1.92480
   A19        1.89022   0.00052   0.00000   0.00191   0.00187   1.89209
   A20        1.91528  -0.00080   0.00000  -0.00683  -0.00698   1.90830
   A21        1.89792  -0.00037   0.00000  -0.01021  -0.01018   1.88774
   A22        1.92091  -0.00017   0.00000  -0.00042  -0.00034   1.92057
   A23        1.91061   0.00104   0.00000   0.00442   0.00439   1.91500
   A24        1.94380   0.00007   0.00000   0.00554   0.00555   1.94936
   A25        1.87436   0.00024   0.00000   0.00745   0.00739   1.88175
   A26        2.17988  -0.01621   0.00000  -0.06378  -0.06378   2.11609
   A27        2.01332  -0.00144   0.00000  -0.01152  -0.01168   2.00164
   A28        1.94380  -0.00024   0.00000  -0.00454  -0.00469   1.93911
   A29        1.88630   0.00103   0.00000   0.00917   0.00929   1.89559
   A30        1.92315   0.00055   0.00000  -0.00466  -0.00470   1.91844
   A31        1.82914   0.00031   0.00000   0.00917   0.00918   1.83832
   A32        1.85767  -0.00006   0.00000   0.00512   0.00513   1.86279
   A33        1.93084   0.00132   0.00000  -0.00258  -0.00258   1.92827
   A34        1.93964  -0.00044   0.00000  -0.00052  -0.00053   1.93910
   A35        1.89856  -0.00027   0.00000   0.00251   0.00250   1.90107
   A36        1.90251  -0.00096   0.00000  -0.00310  -0.00317   1.89934
   A37        1.93026   0.00005   0.00000   0.00253   0.00259   1.93285
   A38        1.86099   0.00027   0.00000   0.00137   0.00137   1.86237
   A39        1.89354   0.00227   0.00000   0.00621   0.00630   1.89983
   A40        1.93592   0.00400   0.00000   0.01376   0.01356   1.94947
   A41        1.81926  -0.00239   0.00000  -0.00233  -0.00247   1.81680
   A42        2.06041  -0.00712   0.00000  -0.03848  -0.03840   2.02201
   A43        1.83963   0.00298   0.00000   0.01930   0.01929   1.85892
   A44        1.89768   0.00062   0.00000   0.00571   0.00578   1.90346
   A45        1.91198  -0.00118   0.00000  -0.00535  -0.00555   1.90643
   A46        1.93443  -0.00076   0.00000  -0.00242  -0.00239   1.93204
   A47        1.92538   0.00118   0.00000   0.00136   0.00143   1.92681
   A48        1.91210   0.00090   0.00000   0.00510   0.00516   1.91725
   A49        1.90226  -0.00010   0.00000  -0.00241  -0.00236   1.89990
   A50        1.87715  -0.00000   0.00000   0.00392   0.00389   1.88104
   A51        1.92934   0.00276   0.00000   0.00800   0.00793   1.93727
   A52        1.84394  -0.00162   0.00000  -0.00185  -0.00185   1.84209
   A53        1.91299   0.00021   0.00000   0.00197   0.00204   1.91503
   A54        1.95096  -0.00020   0.00000  -0.00271  -0.00265   1.94830
   A55        1.93635  -0.00178   0.00000  -0.00679  -0.00684   1.92951
   A56        1.88753   0.00062   0.00000   0.00162   0.00160   1.88913
   A57        1.91064  -0.00019   0.00000  -0.00731  -0.00737   1.90327
   A58        1.92842   0.00051   0.00000   0.00284   0.00283   1.93125
   A59        1.90757  -0.00012   0.00000   0.00358   0.00361   1.91118
   A60        1.91406  -0.00046   0.00000  -0.00136  -0.00136   1.91271
   A61        1.93708   0.00027   0.00000   0.00077   0.00082   1.93790
   A62        1.86580   0.00001   0.00000   0.00179   0.00177   1.86757
   A63        1.98031  -0.00477   0.00000  -0.02931  -0.02934   1.95097
    D1        0.49023   0.00190   0.00000   0.02012   0.02013   0.51036
    D2        2.56163   0.00069   0.00000   0.00730   0.00732   2.56894
    D3       -1.63119   0.00007   0.00000   0.00078   0.00082  -1.63037
    D4       -1.58386   0.00155   0.00000   0.02516   0.02516  -1.55870
    D5        0.48754   0.00034   0.00000   0.01234   0.01234   0.49988
    D6        2.57791  -0.00028   0.00000   0.00582   0.00584   2.58375
    D7        2.57891   0.00129   0.00000   0.01639   0.01637   2.59529
    D8       -1.63288   0.00007   0.00000   0.00356   0.00356  -1.62931
    D9        0.45749  -0.00054   0.00000  -0.00295  -0.00294   0.45455
[...]
 9573,-0.00003332,0.00002178,-0.00030191,-0.00016008,0.00019639,0.00001
 138,-0.00000833,-0.00000546,0.00000841,0.00000435,0.00000249,0.0000589
 8,-0.00001566,-0.00003573,0.00004907,-0.00007793,-0.00002993,0.0000016
 0,0.00001644,-0.00000355,-0.00001805,0.00000077,-0.00000626,0.00047849
 ,-0.00029997,0.00008217,-0.00032435,0.00008329,0.00081521,0.00006791,0
 .00012231,-0.00012022,-0.00072956,0.00098440,-0.00113530,-0.00061680,-
 0.13791060,0.20503145,0.00015411,0.00004447,-0.00008729,0.00002245,0.0
 0001632,-0.00001989,-0.00045224,-0.00052489,-0.00318265,0.00005264,0.0
 0002521,-0.00000512,-0.00001660,0.00002858,0.00000927,-0.00029738,-0.0
 0018143,-0.00000065,-0.00207325,0.00231035,0.00309270,-0.00732744,0.01
 517198,-0.01494906,0.00092005,-0.00027524,0.00039615,-0.06382917,0.043
 10755,-0.04420630,-0.00399769,0.01041170,-0.00688199,-0.00000217,-0.00
 001972,-0.00001000,-0.00008209,-0.00002745,0.00000164,0.00001083,0.000
 03247,-0.00001773,-0.00000506,0.00000144,0.00000492,-0.00000677,-0.000
 00558,0.00000132,0.00001558,-0.00003685,0.00001634,-0.00001265,0.00000
 908,0.00000798,-0.00000614,-0.00000662,-0.00000180,-0.00000067,-0.0000
 0805,0.00000136,-0.00028383,0.00078836,-0.00083928,-0.00003394,0.00030
 642,-0.00020619,0.00072842,-0.00054331,-0.00059981,0.00058239,-0.00043
 775,0.00020084,-0.00002239,-0.00000429,-0.00001578,0.06767433,-0.00011
 237,-0.00001245,-0.00005276,-0.00002185,-0.00001799,0.00002384,-0.0020
 8824,0.00092550,-0.00433741,-0.00007343,-0.00003646,0.00004251,0.00000
 522,-0.00002726,0.00001643,-0.00000901,0.00008833,0.00018161,0.0031803
 5,-0.00132837,-0.00332011,0.00467498,-0.01434877,0.01468724,0.00016826
 ,-0.00077805,-0.00111522,0.04476062,-0.17924919,0.12578289,-0.00266678
 ,0.01133782,-0.00840866,-0.00000027,0.00001074,0.00000885,0.00009364,0
 .00003380,-0.00000370,-0.00003551,-0.00004271,0.00003280,0.00000523,-0
 .00000106,-0.00000581,0.00000774,0.00000590,-0.00000141,-0.00000917,0.
 00004543,-0.00002382,0.00000395,-0.00000322,-0.00000664,0.00001120,0.0
 0001290,0.00000509,-0.00000376,0.00000686,0.00000008,0.00066055,-0.000
 68515,0.00118277,-0.00026184,0.00019981,-0.00020681,-0.00022513,0.0011
 9319,-0.00011589,-0.00067831,0.00017082,0.00004001,-0.00010836,0.00017
 421,0.00018169,-0.05195446,0.19221591,0.00011957,0.00006136,-0.0002904
 3,0.00001824,0.00000442,-0.00000245,-0.00532832,-0.00043190,-0.0071146
 4,-0.00000123,-0.00003564,0.00007274,-0.00002572,0.00001885,0.00003798
 ,-0.00083762,-0.00005758,0.00033318,0.00212465,-0.00205141,-0.00077532
 ,0.00434840,-0.01102189,0.01128001,0.00226023,-0.00172437,-0.00097361,
 -0.04594597,0.12476436,-0.16887652,-0.00278213,0.02117348,-0.01357641,
 -0.00000397,-0.00002081,-0.00000914,-0.00003143,0.00001414,-0.00000999
 ,-0.00000495,-0.00001165,0.00003204,-0.00000323,0.00000276,0.00000218,
 -0.00000224,-0.00000074,-0.00000150,0.00000158,0.00000697,-0.00001305,
 -0.00002467,0.00001711,0.00001138,0.00000343,0.00000097,0.00000100,0.0
 0000512,0.00000207,0.00000139,0.00047137,-0.00053782,0.00058884,-0.000
 05864,-0.00000078,-0.00005328,-0.00057924,0.00041908,0.00075725,-0.000
 71971,0.00052561,0.00037143,-0.00010897,0.00027166,0.00013994,0.048233
 26,-0.13588831,0.18235544,0.00007439,-0.00004394,0.00017060,0.00002859
 ,0.00001421,-0.00001136,0.00135930,0.00080444,0.00097260,0.00005658,-0
 .00006272,-0.00003743,-0.00000464,0.00004558,-0.00002724,0.00007629,0.
 00011186,-0.00008362,0.00041451,-0.00076311,-0.00011272,-0.01773203,-0
 .00991809,0.00709335,-0.00043972,0.00024751,0.00005987,-0.22785546,-0.
 10227256,0.06041928,-0.01283994,-0.00813489,0.00284123,0.00000149,-0.0
 0000894,-0.00001600,-0.00010277,0.00001822,-0.00001589,0.00010835,0.00
 004321,-0.00006973,-0.00000624,0.00000330,0.00000465,-0.00000582,-0.00
 000299,-0.00000121,0.00000810,0.00000898,-0.00000011,-0.00001032,0.000
 00516,0.00000355,-0.00002120,-0.00001899,-0.00001162,0.00001837,0.0000
 0906,0.00000272,0.00017010,0.00019893,-0.00004378,-0.00017248,0.000461
 23,-0.00032415,-0.00190431,0.00310718,0.00139806,0.00116084,0.00002804
 ,-0.00018930,-0.00006303,-0.00002442,-0.00010565,0.00782910,0.00387243
 ,-0.00172564,0.24900735,0.00017092,0.00001621,-0.00020035,-0.00000526,
 -0.00000389,0.00000362,0.00175004,0.00180689,0.00049254,-0.00002508,0.
 00003853,0.00002851,0.00000640,-0.00004280,0.00007625,-0.00019425,0.00
 006910,0.00002899,-0.00042328,0.00129668,-0.00009842,0.01947253,0.0109
 7885,-0.00709058,0.00031979,-0.00029807,-0.00012836,-0.10343111,-0.108
 74831,0.03620839,-0.01426536,-0.01043771,0.00512912,-0.00000659,0.0000
 0147,-0.00000800,0.00001748,-0.00001289,0.00000516,-0.00003504,-0.0000
 5637,0.00001947,-0.00000105,0.00000214,-0.00000044,-0.00000065,0.00000
 017,-0.00000013,0.00000029,-0.00001582,0.00000332,-0.00000639,0.000002
 30,0.00000076,0.00001361,0.00002499,0.00000348,0.00000833,0.00002646,-
 0.00000691,-0.00027773,-0.00003217,-0.00010899,-0.00040958,-0.00020713
 ,0.00007824,0.00361825,-0.00215787,-0.00171378,-0.00084038,0.00111026,
 0.00043848,-0.00007570,0.00005930,0.00004503,-0.01804989,-0.01055542,0
 .00489241,0.11324285,0.11714157,0.00010100,-0.00003205,-0.00019750,-0.
 00001634,-0.00001024,0.00001316,0.00181743,-0.00035909,0.00271129,-0.0
 0002357,0.00003735,0.00003068,0.00001867,-0.00004666,0.00004600,-0.000
 03369,0.00029257,0.00000435,-0.00078330,0.00009474,0.00022390,0.012460
 22,0.00648733,-0.00607241,-0.00031088,-0.00011523,-0.00004653,0.061887
 07,0.03820460,-0.06882907,-0.02567365,-0.01508494,0.00552956,-0.000001
 78,0.00001724,-0.00000572,0.00005544,-0.00000484,0.00000914,-0.0000658
 2,-0.00006832,0.00001975,0.00000101,0.00000145,-0.00000314,0.00000221,
 0.00000242,-0.00000026,-0.00000784,-0.00000167,-0.00000100,-0.00000043
 ,-0.00000097,0.00000149,0.00001337,0.00001527,0.00000530,0.00001742,0.
 00002763,-0.00000898,-0.00006355,-0.00009899,-0.00001004,0.00002315,-0
 .00018112,0.00032762,0.00213562,-0.00256556,-0.00014980,-0.00036293,0.
 00043275,0.00030382,0.00000898,0.00005162,0.00006509,0.01819029,0.0096
 3439,-0.00580796,-0.06759548,-0.03539414,0.07474443,0.00044298,-0.0000
 8328,-0.00024393,0.00004380,0.00001915,-0.00001117,-0.00486459,0.00809
 849,-0.00002987,0.00006553,-0.00006457,-0.00000437,-0.00001273,0.00003
 359,0.00009181,-0.00009319,0.00049975,0.00011682,-0.00012897,-0.000172
 04,-0.00001055,-0.00108806,-0.00105941,-0.00240340,0.00140452,-0.00079
 601,-0.00170357,0.01106867,-0.01113292,-0.00713101,-0.15963045,0.10696
 419,0.07799960,-0.00001121,-0.00001558,-0.00004732,-0.00014480,0.00002
 246,-0.00002180,0.00003785,-0.00007240,-0.00009763,-0.00001244,0.00000
 938,0.00000624,-0.00001079,-0.00000378,-0.00000273,0.00000171,0.000006
 29,-0.00000080,-0.00003430,0.00001484,0.00001885,-0.00001569,-0.000002
 64,-0.00001214,0.00006824,0.00006029,0.00000384,0.00000262,-0.00000286
 ,0.00010541,0.00002810,-0.00000097,0.00002876,0.00019544,-0.00006327,-
 0.00023555,0.00060151,-0.00048915,-0.00048460,-0.00036757,0.00044873,0
 .00011133,0.00038357,0.00068316,0.00087585,0.00076907,0.00035411,0.000
 78016,0.16742688,-0.00005729,-0.00016305,0.00038774,-0.00002428,-0.000
 00947,0.00001768,0.02249408,-0.02483945,-0.00417817,-0.00002652,-0.000
 00327,-0.00009328,0.00005633,-0.00003633,-0.00003823,0.00097830,0.0011
 6876,-0.00053258,0.00024102,0.00017099,0.00026061,-0.00199086,0.000234
 68,-0.00182291,-0.00412924,-0.00142194,0.00433167,0.00795623,-0.007597
 25,-0.00735891,0.10119117,-0.15336271,-0.07623248,0.00000669,0.0000442
 0,-0.00000348,0.00004887,0.00002396,0.00000464,0.00003479,-0.00006381,
 -0.00010953,0.00000283,-0.00000032,-0.00000472,0.00000492,0.00000344,-
 0.00000026,-0.00002379,0.00002771,0.00000278,0.00002333,-0.00002615,-0
 .00001519,-0.00000975,-0.00000165,-0.00000538,0.00004181,0.00003808,-0
 .00000095,-0.00000240,-0.00003070,-0.00015628,0.00000011,-0.00001327,0
 .00003203,0.00022236,-0.00000739,-0.00017536,0.00062682,-0.00031144,-0
 .00024965,0.00089550,-0.00101152,-0.00029274,-0.00012567,0.00039334,-0
 .00009486,0.00027267,0.00021548,0.00064264,-0.11957752,0.17487795,-0.0
 0003351,0.00012803,-0.00034522,0.00000266,-0.00000078,-0.00000322,-0.0
 2196213,0.02462071,0.00899411,-0.00002757,0.00000717,0.00007455,-0.000
 03374,0.00000825,0.00005363,-0.00047322,-0.00080287,0.00049620,-0.0005
 1428,0.00062072,-0.00030592,-0.00451242,-0.00231290,-0.00401565,0.0011
 6758,0.00322291,-0.00365046,0.01853699,-0.01594654,-0.01073223,0.08432
 872,-0.08496433,-0.10721104,-0.00000638,-0.00002020,0.00000702,0.00001
 040,-0.00000561,-0.00000174,-0.00009649,0.00001402,0.00008054,0.000000
 60,-0.00000042,0.00000033,0.00000032,0.00000023,-0.00000002,0.00001254
 ,-0.00000478,-0.00001055,-0.00001128,0.00001378,0.00000954,0.00001650,
 0.00001266,0.00000770,-0.00000971,-0.00001885,-0.00000039,0.00013950,-
 0.00000640,0.00026233,-0.00000392,-0.00006990,0.00005017,-0.00011590,0
 .00030882,0.00016670,0.00121175,-0.00150731,-0.00070957,-0.00078492,0.
 00105906,0.00027153,0.00015074,0.00073100,0.00061901,-0.00032304,0.000
 40165,0.00121970,-0.08039719,0.07923019,0.11697042,-0.00035001,0.00015
 380,0.00006692,-0.00000499,0.00003715,-0.00004775,0.01212409,0.0022071
 1,-0.00188921,-0.00005194,-0.00002061,-0.00004501,0.00005880,0.0002505
 1,-0.00024694,0.00035365,0.00096439,-0.00067478,0.00010947,-0.00009575
 ,-0.00013817,0.00092559,0.00098370,0.00058848,-0.00046076,0.00101151,0
 .00083144,-0.01234018,-0.00615150,0.00307424,-0.23471239,-0.09905422,0
 .05081537,0.00005943,-0.00005151,0.00012703,0.00002434,0.00000965,0.00
 000869,0.00003704,0.00004417,-0.00003899,0.00001608,-0.00002218,0.0000
 0189,0.00000805,-0.00000108,0.00000407,0.00000614,-0.00001053,-0.00000
 260,0.00002959,-0.00002470,-0.00001607,0.00004217,-0.00003407,0.000005
 17,0.00003546,-0.00026966,0.00000094,0.00004346,-0.00005831,0.00003564
 ,-0.00001984,0.00002123,-0.00001725,0.00045596,-0.00046189,-0.00035527
 ,0.00012881,0.00017773,-0.00011411,0.00001289,-0.00023269,0.00005295,0
 .00008628,0.00011425,-0.00026639,0.00008464,-0.00092413,-0.00257403,-0
 .01610224,-0.00914370,0.00373271,0.24937742,0.00095971,-0.00034051,0.0
 0014220,0.00004367,0.00002891,-0.00001441,-0.01508355,-0.02295734,0.01
 856002,0.00008281,-0.00008454,-0.00010402,0.00009291,0.00009212,0.0000
 2169,0.00105374,0.00158222,-0.00085308,0.00061383,-0.00030887,-0.00006
 966,-0.00054280,0.00032617,0.00112360,-0.00561798,0.00065366,0.0015553
 8,-0.01320030,-0.00563382,0.00143032,-0.09465637,-0.10462571,0.0209470
 6,0.00000244,0.00000376,-0.00003983,-0.00016971,0.00004534,-0.00002454
 ,0.00022460,-0.00028250,-0.00022748,-0.00001299,0.00000803,0.00000703,
 -0.00001017,-0.00000298,-0.00000304,-0.00002293,0.00002829,0.00000298,
 -0.00002596,0.00000036,0.00001203,-0.00002242,-0.00002263,-0.00002420,
 0.00000034,0.00004469,0.00000153,0.00001199,-0.00008394,-0.00016277,-0
 .00000911,0.00013749,0.00004449,0.00020715,-0.00015647,-0.00038223,0.0
 0018893,0.00024184,-0.00003924,0.00030711,-0.00005470,-0.00018666,-0.0
 0005364,0.00027118,-0.00029899,-0.00124457,-0.00022107,-0.00197736,0.0
 1632104,0.01170257,-0.00471903,0.11057916,0.11960785,0.00002151,-0.000
 11412,-0.00008535,0.00002296,0.00000644,-0.00001092,0.01678771,0.02436
 809,-0.01427110,0.00005914,-0.00000768,0.00000615,-0.00002191,0.000005
 26,0.00002973,-0.00151800,-0.00092282,0.00052973,-0.00028371,0.0000739
 0,0.00002950,-0.00058511,0.00083240,0.00160068,0.00383540,-0.00241800,
 -0.00042218,-0.02389102,-0.01437230,0.00676386,0.04724346,0.02239308,-
 0.06233490,-0.00001233,-0.00005012,-0.00000813,-0.00003593,-0.00000807
 ,-0.00000933,0.00012522,-0.00013961,-0.00000093,-0.00000219,0.00000077
 ,0.00000347,-0.00000425,-0.00000235,-0.00000060,0.00000919,0.00000225,
 -0.00000204,-0.00001166,0.00001013,0.00000207,-0.00002317,0.00000834,-
 0.00000976,-0.00006364,-0.00000601,0.00000255,0.00003415,0.00005717,0.
 00021136,-0.00000169,0.00004777,-0.00007006,0.00034381,0.00026008,-0.0
 0023453,0.00008683,0.00037171,0.00005862,-0.00031555,0.00004203,0.0000
 2536,0.00070874,0.00094154,0.00089312,-0.00227906,-0.00310784,-0.00412
 229,0.01268027,0.00646335,-0.00230030,-0.05289661,-0.03473603,0.073717
 70,0.00136537,0.00011125,0.00112440,-0.00860131,-0.00289064,-0.0177616
 8,0.00004295,-0.00001349,-0.00000314,-0.00024750,-0.00048435,-0.000418
 40,0.00704874,0.00391777,0.03001763,0.00019043,0.00006998,-0.00040785,
 -0.00003037,-0.00000422,0.00002127,-0.00000910,-0.00000582,0.00001341,
 -0.00011414,-0.00006323,-0.00016614,-0.00000177,0.00000272,0.00000402,
 -0.00000656,0.00000657,-0.00000455,-0.06420919,-0.01039735,-0.06259987
 ,0.00057934,0.00092882,-0.00008092,-0.00012766,0.00008346,-0.00043238,
 0.00092182,-0.00041256,0.00006623,-0.00130821,0.00362699,-0.00132149,0
 .00002767,0.00009015,0.00002101,0.00012534,-0.00031581,0.00026757,-0.0
 0480504,0.00009784,0.00323983,0.00101761,0.00023538,-0.00095219,-0.000
 00188,-0.00001405,-0.00000332,0.00000612,-0.00000402,-0.00001125,-0.00
 000012,0.00000986,-0.00002201,0.00001301,0.00000463,-0.00000127,0.0000
 2971,0.00002053,0.00000204,0.00000166,-0.00000227,0.00000069,0.0000035
 2,-0.00000129,-0.00000270,0.00000355,-0.00000146,-0.00000159,-0.000000
 74,0.00000445,0.00000406,0.07254454,-0.00023219,0.00005040,0.00112967,
 0.00821648,0.00381085,0.02545958,0.00007792,-0.00003496,-0.00000485,0.
 00014854,-0.00031642,0.00042279,-0.00087179,-0.00068862,-0.00255671,0.
 00020972,0.00011255,-0.00020872,0.00001136,0.00000716,-0.00000415,-0.0
 0000230,0.00000689,0.00000938,-0.00020174,-0.00004582,0.00000877,0.000
 00016,0.00000322,0.00000210,-0.00001569,0.00001082,-0.00001745,-0.0106
 0019,-0.05489934,-0.03472170,0.00015552,-0.00100716,0.00000136,0.00002
 831,0.00015325,-0.00021098,-0.00085899,0.00138151,-0.00018567,0.002287
 44,-0.00279561,0.00170253,-0.00003558,0.00008739,-0.00008063,-0.000322
 69,-0.00086136,0.00006591,0.00073256,0.00078964,0.00010990,-0.00021679
 ,-0.00006018,-0.00004063,-0.00000364,-0.00001540,-0.00000374,0.0000147
 4,0.00000420,0.00000620,0.00000030,0.00001014,-0.00001743,0.00001236,0
 .00000241,0.00000310,0.00002837,0.00001457,-0.00000903,0.00000349,-0.0
 0000282,0.00000248,0.00000343,-0.00000078,-0.00000156,0.00000695,-0.00
 000235,0.00000008,-0.00000429,0.00000764,0.00000167,0.00740691,0.05777
 638,-0.00040898,-0.00071662,0.00028148,-0.00205915,-0.00311291,-0.0079
 4259,0.00005880,-0.00003294,-0.00000359,-0.00064151,-0.00071724,-0.001
 15287,-0.00303109,-0.00229325,-0.01880255,0.00018043,0.00010037,0.0002
 6481,0.00003422,0.00002488,-0.00002414,0.00000204,0.00000787,-0.000004
 65,-0.00012279,0.00003040,0.00007600,0.00000137,-0.00000006,-0.0000001
 5,-0.00001713,0.00000368,-0.00001243,-0.06391661,-0.03196156,-0.288632
 03,0.00035910,0.00158456,0.00011985,0.00056362,0.00051798,-0.00013258,
 0.00034787,0.00025170,0.00147051,-0.00047841,0.00147344,0.00064257,0.0
 0008793,0.00009989,0.00030464,-0.00021462,0.00017875,0.00049745,0.0034
 8617,-0.00033340,-0.00062842,0.00012699,-0.00019152,0.00051180,0.00000
 696,-0.00000693,-0.00000443,0.00001369,0.00000660,0.00001429,0.0000052
 4,0.00000217,-0.00000684,0.00000469,0.00000017,0.00000414,0.00001898,0
 .00000672,-0.00001133,0.00000279,-0.00000188,0.00000235,0.00000176,0.0
 0000154,0.00000122,0.00000668,-0.00000128,0.00000038,-0.00001084,0.000
 00605,-0.00000164,0.06646512,0.03598878,0.31476198,-0.00178327,0.00302
 616,0.00387162,0.01014101,0.01473996,0.00080535,-0.00039004,0.00020446
 ,0.00001686,-0.00122343,0.00042213,-0.00026003,-0.01531515,-0.02407293
 ,-0.00394328,-0.00275341,-0.00192431,0.00033818,-0.00006443,-0.0000012
 9,0.00003853,0.00001047,-0.00002623,-0.00003037,0.00102651,-0.00006536
 ,0.00042184,0.00000799,-0.00000174,-0.00000926,0.00007248,-0.00006302,
 0.00009760,-0.12379187,-0.12296978,-0.01015128,-0.00002770,0.00421172,
 -0.00175435,0.00006345,0.00006865,-0.00020271,-0.00103567,-0.00019647,
 0.00080300,0.00158479,0.00002642,-0.00013397,0.00015761,-0.00005324,0.
 00013002,0.00015766,0.00000210,0.00010719,0.00118790,0.00025613,-0.000
 04156,0.00093521,0.00030885,-0.00087380,0.00001352,0.00003485,-0.00000
 077,-0.00004207,-0.00002314,-0.00003741,-0.00000342,-0.00001805,0.0000
 4292,-0.00003539,-0.00000196,-0.00001874,-0.00025482,-0.00014198,0.000
 03170,-0.00001191,0.00000917,-0.00001232,-0.00001264,-0.00000182,0.000
 00396,-0.00002702,0.00001469,-0.00000371,0.00002375,-0.00002137,-0.000
 01662,-0.00445779,-0.00597868,-0.00087332,0.13584771,0.00136250,0.0005
 8873,-0.00087386,-0.01413641,-0.01754784,-0.00225470,-0.00004254,0.000
 01721,0.00000796,0.00144784,0.00061699,0.00034355,0.00353949,0.0049332
 1,0.00097519,0.00014058,0.00017572,-0.00003398,-0.00000141,-0.00001607
 ,-0.00001111,-0.00000193,-0.00000190,-0.00000087,0.00020678,0.00006184
 ,-0.00008750,-0.00000053,-0.00000094,-0.00000390,0.00001196,-0.0000008
 7,0.00000533,-0.12348998,-0.24183383,-0.01587768,0.00116197,-0.0048484
 6,0.00182871,-0.00006609,0.00005394,0.00008835,0.00118171,-0.00060373,
 0.00004739,-0.00044998,0.00155620,0.00040210,-0.00011705,-0.00003594,0
 .00002097,-0.00013438,0.00000658,0.00003480,-0.00037986,0.00002600,0.0
 0024852,-0.00044727,0.00051324,0.00035692,0.00001194,0.00002111,0.0000
 1146,-0.00001419,0.00000045,-0.00000188,0.00000117,-0.00000647,0.00001
 181,-0.00000821,-0.00000208,-0.00000164,-0.00000026,0.00000501,-0.0000
 0214,-0.00000259,0.00000316,-0.00000097,-0.00000307,-0.00000009,0.0000
 0077,-0.00000602,0.00000094,0.00000065,0.00000647,-0.00000704,-0.00000
 102,-0.00200673,-0.00349819,-0.00091597,0.13223609,0.25982311,0.001747
 07,-0.00159081,-0.00153933,0.00634743,0.00916490,-0.00101650,0.0001775
 2,-0.00009791,-0.00001031,-0.00060466,-0.00079623,-0.00091735,0.010259
 35,0.01722649,0.00158655,0.00140457,0.00092265,-0.00008093,0.00001818,
 0.00000243,-0.00002505,-0.00000057,0.00001126,0.00000843,-0.00037481,0
 .00009589,-0.00019177,-0.00000425,-0.00000216,0.00000545,-0.00003232,0
 .00002880,-0.00004552,-0.01204913,-0.01855935,-0.04860869,-0.00066223,
 0.00398157,-0.00117338,0.00027347,0.00020105,0.00009179,-0.00005843,0.
 00032987,0.00016373,0.00051020,0.00016162,0.00063832,0.00006191,0.0000
 6393,0.00016499,-0.00009992,0.00009018,0.00041642,-0.00090049,0.000205
 33,0.00058050,-0.00077166,-0.00032854,0.00063820,-0.00000711,-0.000018
 14,-0.00000381,0.00001948,0.00000999,0.00001741,0.00000314,0.00000723,
 -0.00001519,0.00001421,0.00000062,0.00000860,0.00011988,0.00005989,-0.
 00002035,0.00000518,-0.00000431,0.00000502,0.00000535,0.00000098,-0.00
 000178,0.00001200,-0.00000707,0.00000245,-0.00001152,0.00000819,0.0000
 1015,-0.01705653,-0.02685107,-0.00159324,0.01165471,0.01568274,0.05090
 520\\-0.00074493,0.00156072,-0.00039114,0.00000299,0.00000818,-0.00000
 509,-0.00016402,0.00048837,-0.00152331,-0.00001107,0.00000326,0.000010
 75,0.00000020,0.00000092,0.00000574,0.00111385,-0.00225983,0.00010870,
 -0.00000033,-0.00000807,0.00000766,0.00000403,0.00001273,-0.00000677,-
 0.00019849,0.00018206,0.00180758,-0.00000221,0.00001058,0.00000184,-0.
 00000268,0.00003542,-0.00002712,0.00000731,-0.00000728,0.00000618,-0.0
 0000864,-0.00001598,-0.00001160,0.00000278,0.00000203,0.00000513,0.000
 00247,-0.00000230,0.00000883,-0.00000600,-0.00000060,0.00000690,-0.000
 00093,-0.00000039,0.00000494,-0.00000008,-0.00000403,0.00000402,0.0000
 0090,0.00000201,-0.00000109,0.00000055,0.00000059,-0.00000094,-0.00000
 123,0.00000024,-0.00000811,0.00000043,0.00000240,0.00000223,-0.0000008
 2,-0.00000705,0.00000120,-0.00000279,-0.00000002,0.00000147,-0.0000014
 9,0.00000567,-0.00000173,0.00000362,-0.00000350,-0.00000887,0.00000199
 ,0.00000400,-0.00000308,0.00000305,0.00000113,-0.00000013,-0.00000561,
 -0.00000426,0.00000359,0.00000255,-0.00000378,0.00000226,0.00000458,-0
 .00000320,-0.00000004\\\@


 ... IT CAN BE VERY DIFFICULT, IN THESE COMPLEX TIMES,
 TO UNDERSTAND JUST HOW SCIENTISTS DO WHAT THEY DO.

                     DON MOSER IN THE FEBRUARY 1979 SMITHSONIAN
 Job cpu time:       0 days 14 hours 52 minutes 23.9 seconds.
 Elapsed time:       0 days  0 hours 55 minutes 48.3 seconds.
 File lengths (MBytes):  RWF=    686 Int=      0 D2E=      0 Chk=     33 Scr=      1
 Normal termination of Gaussian 16 at Sun Nov  4 22:59:35 2018.
