 Entering Gaussian System, Link 0=g16
 Initial command:
 /apps/gaussian/g16a03/g16/l1.exe "/jobfs/local/2011991.r-man2/Gau-3426.inp" -scrdir="/jobfs/local/2011991.r-man2/"
 Entering Link 1 = /apps/gaussian/g16a03/g16/l1.exe PID=      3427.
  
 Copyright (c) 1988,1990,1992,1993,1995,1998,2003,2009,2016,
            Gaussian, Inc.  All Rights Reserved.
  
 This is part of the Gaussian(R) 16 program.  It is based on
 the Gaussian(R) 09 system (copyright 2009, Gaussian, Inc.),
 the Gaussian(R) 03 system (copyright 2003, Gaussian, Inc.),
 the Gaussian(R) 98 system (copyright 1998, Gaussian, Inc.),
 the Gaussian(R) 94 system (copyright 1995, Gaussian, Inc.),
 the Gaussian 92(TM) system (copyright 1992, Gaussian, Inc.),
 the Gaussian 90(TM) system (copyright 1990, Gaussian, Inc.),
 the Gaussian 88(TM) system (copyright 1988, Gaussian, Inc.),
 the Gaussian 86(TM) system (copyright 1986, Carnegie Mellon
 University), and the Gaussian 82(TM) system (copyright 1983,
 Carnegie Mellon University). Gaussian is a federally registered
 trademark of Gaussian, Inc.
  
 This software contains proprietary and confidential information,
 including trade secrets, belonging to Gaussian, Inc.
  
 This software is provided under written license and may be
 used, copied, transmitted, or stored only in accord with that
 written license.
  
 The following legend is applicable only to US Government
 contracts under FAR:
  
                    RESTRICTED RIGHTS LEGEND
  
 Use, reproduction and disclosure by the US Government is
 subject to restrictions as set forth in subparagraphs (a)
 and (c) of the Commercial Computer Software - Restricted
 Rights clause in FAR 52.227-19.
  
 Gaussian, Inc.
 340 Quinnipiac St., Bldg. 40, Wallingford CT 06492
  
  
 ---------------------------------------------------------------
 Warning -- This program may not be used in any manner that
 competes with the business of Gaussian, Inc. or will provide
 assistance to any competitor of Gaussian, Inc.  The licensee
 of this program is prohibited from giving any competitor of
 Gaussian, Inc. access to this program.  By using this program,
 the user acknowledges that Gaussian, Inc. is engaged in the
 business of creating and licensing software in the field of
 computational chemistry and represents and warrants to the
 licensee that it is not a competitor of Gaussian, Inc. and that
 it will not use this program in any manner prohibited above.
 ---------------------------------------------------------------
  

 Cite this work as:
 Gaussian 16, Revision A.03,
 M. J. Frisch, G. W. Trucks, H. B. Schlegel, G. E. Scuseria, 
 M. A. Robb, J. R. Cheeseman, G. Scalmani, V. Barone, 
 G. A. Petersson, H. Nakatsuji, X. Li, M. Caricato, A. V. Marenich, 
 J. Bloino, B. G. Janesko, R. Gomperts, B. Mennucci, H. P. Hratchian, 
 J. V. Ortiz, A. F. Izmaylov, J. L. Sonnenberg, D. Williams-Young, 
 F. Ding, F. Lipparini, F. Egidi, J. Goings, B. Peng, A. Petrone, 
 T. Henderson, D. Ranasinghe, V. G. Zakrzewski, J. Gao, N. Rega, 
 G. Zheng, W. Liang, M. Hada, M. Ehara, K. Toyota, R. Fukuda, 
 J. Hasegawa, M. Ishida, T. Nakajima, Y. Honda, O. Kitao, H. Nakai, 
 T. Vreven, K. Throssell, J. A. Montgomery, Jr., J. E. Peralta, 
 F. Ogliaro, M. J. Bearpark, J. J. Heyd, E. N. Brothers, K. N. Kudin, 
 V. N. Staroverov, T. A. Keith, R. Kobayashi, J. Normand, 
 K. Raghavachari, A. P. Rendell, J. C. Burant, S. S. Iyengar, 
 J. Tomasi, M. Cossi, J. M. Millam, M. Klene, C. Adamo, R. Cammi, 
 J. W. Ochterski, R. L. Martin, K. Morokuma, O. Farkas, 
 J. B. Foresman, and D. J. Fox, Gaussian, Inc., Wallingford CT, 2016.
 
 ******************************************
 Gaussian 16:  ES64L-G16RevA.03 25-Dec-2016
                 4-Nov-2018 
 ******************************************
 %mem=6000mb
 %nproc=24
 Will use up to   24 processors via shared memory.
 %chk=D_a1-4_2SO_PHI.inp_extract_17.chk
 ----------------------------------------------------------------------
 #M062X/6-311++G(2d,2p) opt=ModRedundant freq=noraman SCRF=(Solvent=Wat
 er)
 ----------------------------------------------------------------------
 1/18=120,19=15,26=3,38=1/1,3;
 2/9=110,12=2,17=6,18=5,40=1/2;
 3/5=4,6=6,7=1212,11=2,25=1,30=1,70=2201,71=1,72=1,74=-55/1,2,3;
 4//1;
 5/5=2,38=5,53=1/2;
 6/7=2,8=2,9=2,10=2,28=1/1;
 7//1,2,3,16;
 1/18=20,19=15,26=3/3(2);
 2/9=110/2;
 99//99;
 2/9=110/2;
 3/5=4,6=6,7=1212,11=2,25=1,30=1,70=2205,71=1,72=1,74=-55/1,2,3;
 4/5=5,16=3,69=1/1;
 5/5=2,38=5,53=1/2;
 7//1,2,3,16;
 1/18=20,19=15,26=3/3(-5);
 2/9=110/2;
 6/7=2,8=2,9=2,10=2,19=2,28=1/1;
 99/9=1/99;
 -----------------------------
 D_a1-4_2SO_PHI.inp_extract_17
 -----------------------------
 Symbolic Z-matrix:
 Charge =  0 Multiplicity = 1
 C                     0.84346   0.42302  -0.01778 
 C                     3.58198  -0.69002  -0.2719 
 O                    -1.83756   1.38717  -0.05106 
 C                     1.23841  -1.01649  -0.37479 
 C                     2.09939   1.23197   0.31333 
 O                    -0.01056   0.4785    1.11244 
 C                    -2.17934  -0.68084   1.22771 
 C                    -2.55113  -1.39493  -0.06978 
 C                    -1.41617   0.63472   1.05057 
 C                    -3.2186   -0.39576  -1.00748 
 C                    -2.27008   0.75909  -1.25706 
 C                     3.25409   0.77634  -0.57558 
 O                     2.45503  -1.38341   0.24048 
 H                     0.34995   0.87103  -0.86426 
 H                     3.94264  -1.2029   -1.15878 
 H                     4.34118  -0.76254   0.49538 
 H                     0.49541  -1.71661  -0.02782 
 H                     1.33373  -1.12345  -1.45188 
 H                     2.3568    1.06977   1.35565 
 H                     1.89889   2.29088   0.1899 
 H                    -1.6034   -1.31858   1.88865 
 H                    -3.10016  -0.43327   1.74988 
 H                    -1.67338  -1.81363  -0.5524 
 H                    -3.21665  -2.22295   0.15397 
 H                    -1.62501   1.25991   1.90458 
 H                    -3.46704  -0.85087  -1.96182 
 H                    -4.1427   -0.02842  -0.56753 
 H                    -2.74328   1.54907  -1.82334 
 H                    -1.41126   0.41146  -1.81855 
 H                     2.97991   0.89627  -1.62005 
 H                     4.13709   1.38401  -0.40982 
 
 The following ModRedundant input section has been read:
 D       1       6       9       3 F                                           
 

 GradGradGradGradGradGradGradGradGradGradGradGradGradGradGradGradGradGrad
 Berny optimization.
 Initialization pass.
                           ----------------------------
                           !    Initial Parameters    !
                           ! (Angstroms and Degrees)  !
 --------------------------                            --------------------------
 ! Name  Definition              Value          Derivative Info.                !
 --------------------------------------------------------------------------------
 ! R1    R(1,4)                  1.5348         estimate D2E/DX2                !
 ! R2    R(1,5)                  1.5302         estimate D2E/DX2                !
 ! R3    R(1,6)                  1.4177         estimate D2E/DX2                !
 ! R4    R(1,14)                 1.0774         estimate D2E/DX2                !
 ! R5    R(2,12)                 1.5329         estimate D2E/DX2                !
 ! R6    R(2,13)                 1.4189         estimate D2E/DX2                !
 ! R7    R(2,15)                 1.0861         estimate D2E/DX2                !
 ! R8    R(2,16)                 1.0818         estimate D2E/DX2                !
 ! R9    R(3,9)                  1.3991         estimate D2E/DX2                !
 ! R10   R(3,11)                 1.4269         estimate D2E/DX2                !
 ! R11   R(4,13)                 1.4119         estimate D2E/DX2                !
 ! R12   R(4,17)                 1.0782         estimate D2E/DX2                !
 ! R13   R(4,18)                 1.0866         estimate D2E/DX2                !
 ! R14   R(5,12)                 1.5268         estimate D2E/DX2                !
 ! R15   R(5,19)                 1.0858         estimate D2E/DX2                !
 ! R16   R(5,20)                 1.0848         estimate D2E/DX2                !
 ! R17   R(6,9)                  1.4156         estimate D2E/DX2                !
 ! R18   R(7,8)                  1.527          estimate D2E/DX2                !
 ! R19   R(7,9)                  1.5312         estimate D2E/DX2                !
 ! R20   R(7,21)                 1.0841         estimate D2E/DX2                !
 ! R21   R(7,22)                 1.0871         estimate D2E/DX2                !
 ! R22   R(8,10)                 1.5242         estimate D2E/DX2                !
 ! R23   R(8,23)                 1.0857         estimate D2E/DX2                !
 ! R24   R(8,24)                 1.0856         estimate D2E/DX2                !
 ! R25   R(9,25)                 1.0788         estimate D2E/DX2                !
 ! R26   R(10,11)                1.5151         estimate D2E/DX2                !
 ! R27   R(10,26)                1.0861         estimate D2E/DX2                !
 ! R28   R(10,27)                1.0874         estimate D2E/DX2                !
 ! R29   R(11,28)                1.081          estimate D2E/DX2                !
 ! R30   R(11,29)                1.0834         estimate D2E/DX2                !
 ! R31   R(12,30)                1.0865         estimate D2E/DX2                !
 ! R32   R(12,31)                1.0846         estimate D2E/DX2                !
 ! A1    A(4,1,5)              109.5706         estimate D2E/DX2                !
 ! A2    A(4,1,6)              112.1579         estimate D2E/DX2                !
 ! A3    A(4,1,14)             108.9732         estimate D2E/DX2                !
 ! A4    A(5,1,6)              107.5322         estimate D2E/DX2                !
 ! A5    A(5,1,14)             109.035          estimate D2E/DX2                !
 ! A6    A(6,1,14)             109.5207         estimate D2E/DX2                !
 ! A7    A(12,2,13)            111.6604         estimate D2E/DX2                !
 ! A8    A(12,2,15)            111.1592         estimate D2E/DX2                !
 ! A9    A(12,2,16)            110.7768         estimate D2E/DX2                !
 ! A10   A(13,2,15)            109.1374         estimate D2E/DX2                !
 ! A11   A(13,2,16)            105.5749         estimate D2E/DX2                !
 ! A12   A(15,2,16)            108.3275         estimate D2E/DX2                !
 ! A13   A(9,3,11)             121.3376         estimate D2E/DX2                !
 ! A14   A(1,4,13)             111.3535         estimate D2E/DX2                !
 ! A15   A(1,4,17)             110.9053         estimate D2E/DX2                !
 ! A16   A(1,4,18)             110.2107         estimate D2E/DX2                !
 ! A17   A(13,4,17)            106.5481         estimate D2E/DX2                !
 ! A18   A(13,4,18)            109.318          estimate D2E/DX2                !
 ! A19   A(17,4,18)            108.3919         estimate D2E/DX2                !
 ! A20   A(1,5,12)             109.6945         estimate D2E/DX2                !
 ! A21   A(1,5,19)             108.8645         estimate D2E/DX2                !
 ! A22   A(1,5,20)             109.8609         estimate D2E/DX2                !
 ! A23   A(12,5,19)            109.5734         estimate D2E/DX2                !
 ! A24   A(12,5,20)            111.3983         estimate D2E/DX2                !
 ! A25   A(19,5,20)            107.389          estimate D2E/DX2                !
 ! A26   A(1,6,9)              124.5847         estimate D2E/DX2                !
 ! A27   A(8,7,9)              115.1414         estimate D2E/DX2                !
 ! A28   A(8,7,21)             111.8575         estimate D2E/DX2                !
 ! A29   A(8,7,22)             107.9628         estimate D2E/DX2                !
 ! A30   A(9,7,21)             108.1298         estimate D2E/DX2                !
 ! A31   A(9,7,22)             106.3839         estimate D2E/DX2                !
 ! A32   A(21,7,22)            106.9246         estimate D2E/DX2                !
 ! A33   A(7,8,10)             108.8335         estimate D2E/DX2                !
 ! A34   A(7,8,23)             111.1761         estimate D2E/DX2                !
 ! A35   A(7,8,24)             109.3181         estimate D2E/DX2                !
 ! A36   A(10,8,23)            109.4745         estimate D2E/DX2                !
 ! A37   A(10,8,24)            110.9973         estimate D2E/DX2                !
 ! A38   A(23,8,24)            107.0434         estimate D2E/DX2                !
 ! A39   A(3,9,6)              113.1308         estimate D2E/DX2                !
 ! A40   A(3,9,7)              113.77           estimate D2E/DX2                !
 ! A41   A(3,9,25)             104.6757         estimate D2E/DX2                !
 ! A42   A(6,9,7)              113.2673         estimate D2E/DX2                !
 ! A43   A(6,9,25)             102.8011         estimate D2E/DX2                !
 ! A44   A(7,9,25)             108.0506         estimate D2E/DX2                !
 ! A45   A(8,10,11)            109.0775         estimate D2E/DX2                !
 ! A46   A(8,10,26)            111.4727         estimate D2E/DX2                !
 ! A47   A(8,10,27)            110.1633         estimate D2E/DX2                !
 ! A48   A(11,10,26)           108.5333         estimate D2E/DX2                !
 ! A49   A(11,10,27)           109.9482         estimate D2E/DX2                !
 ! A50   A(26,10,27)           107.6176         estimate D2E/DX2                !
 ! A51   A(3,11,10)            112.7086         estimate D2E/DX2                !
 ! A52   A(3,11,28)            104.7001         estimate D2E/DX2                !
 ! A53   A(3,11,29)            109.816          estimate D2E/DX2                !
 ! A54   A(10,11,28)           111.6691         estimate D2E/DX2                !
 ! A55   A(10,11,29)           109.6982         estimate D2E/DX2                !
 ! A56   A(28,11,29)           108.0588         estimate D2E/DX2                !
 ! A57   A(2,12,5)             109.3832         estimate D2E/DX2                !
 ! A58   A(2,12,30)            110.4872         estimate D2E/DX2                !
 ! A59   A(2,12,31)            109.3609         estimate D2E/DX2                !
 ! A60   A(5,12,30)            109.6266         estimate D2E/DX2                !
 ! A61   A(5,12,31)            111.0712         estimate D2E/DX2                !
 ! A62   A(30,12,31)           106.8891         estimate D2E/DX2                !
 ! A63   A(2,13,4)             113.5804         estimate D2E/DX2                !
 ! D1    D(5,1,4,13)            26.381          estimate D2E/DX2                !
 ! D2    D(5,1,4,17)           144.851          estimate D2E/DX2                !
 ! D3    D(5,1,4,18)           -95.1141         estimate D2E/DX2                !
 ! D4    D(6,1,4,13)           -92.9582         estimate D2E/DX2                !
 ! D5    D(6,1,4,17)            25.5118         estimate D2E/DX2                !
 ! D6    D(6,1,4,18)           145.5466         estimate D2E/DX2                !
 ! D7    D(14,1,4,13)          145.6069         estimate D2E/DX2                !
 ! D8    D(14,1,4,17)          -95.9232         estimate D2E/DX2                !
 ! D9    D(14,1,4,18)           24.1117         estimate D2E/DX2                !
 ! D10   D(4,1,5,12)            35.4325         estimate D2E/DX2                !
 ! D11   D(4,1,5,19)           -84.4571         estimate D2E/DX2                !
 ! D12   D(4,1,5,20)           158.2062         estimate D2E/DX2                !
 ! D13   D(6,1,5,12)           157.5797         estimate D2E/DX2                !
 ! D14   D(6,1,5,19)            37.6901         estimate D2E/DX2                !
 ! D15   D(6,1,5,20)           -79.6467         estimate D2E/DX2                !
 ! D16   D(14,1,5,12)          -83.7552         estimate D2E/DX2                !
 ! D17   D(14,1,5,19)          156.3552         estimate D2E/DX2                !
 ! D18   D(14,1,5,20)           39.0185         estimate D2E/DX2                !
 ! D19   D(4,1,6,9)           -100.1798         estimate D2E/DX2                !
 ! D20   D(5,1,6,9)            139.2928         estimate D2E/DX2                !
 ! D21   D(14,1,6,9)            20.9404         estimate D2E/DX2                !
 ! D22   D(13,2,12,5)           26.06           estimate D2E/DX2                !
 ! D23   D(13,2,12,30)         -94.7082         estimate D2E/DX2                !
 ! D24   D(13,2,12,31)         147.9036         estimate D2E/DX2                !
 ! D25   D(15,2,12,5)          148.198          estimate D2E/DX2                !
 ! D26   D(15,2,12,30)          27.4298         estimate D2E/DX2                !
 ! D27   D(15,2,12,31)         -89.9583         estimate D2E/DX2                !
 ! D28   D(16,2,12,5)          -91.3058         estimate D2E/DX2                !
 ! D29   D(16,2,12,30)         147.926          estimate D2E/DX2                !
 ! D30   D(16,2,12,31)          30.5379         estimate D2E/DX2                !
 ! D31   D(12,2,13,4)           38.4702         estimate D2E/DX2                !
 ! D32   D(15,2,13,4)          -84.8228         estimate D2E/DX2                !
 ! D33   D(16,2,13,4)          158.9295         estimate D2E/DX2                !
 ! D34   D(11,3,9,6)            96.2152         estimate D2E/DX2                !
 ! D35   D(11,3,9,7)           -34.8949         estimate D2E/DX2                !
 ! D36   D(11,3,9,25)         -152.6272         estimate D2E/DX2                !
 ! D37   D(9,3,11,10)           45.54           estimate D2E/DX2                !
 ! D38   D(9,3,11,28)          167.1147         estimate D2E/DX2                !
 ! D39   D(9,3,11,29)          -77.0881         estimate D2E/DX2                !
 ! D40   D(1,4,13,2)           -68.2992         estimate D2E/DX2                !
 ! D41   D(17,4,13,2)          170.6469         estimate D2E/DX2                !
 ! D42   D(18,4,13,2)           53.7142         estimate D2E/DX2                !
 ! D43   D(1,5,12,2)           -63.2952         estimate D2E/DX2                !
 ! D44   D(1,5,12,30)           57.9954         estimate D2E/DX2                !
 ! D45   D(1,5,12,31)          175.896          estimate D2E/DX2                !
 ! D46   D(19,5,12,2)           56.1607         estimate D2E/DX2                !
 ! D47   D(19,5,12,30)         177.4513         estimate D2E/DX2                !
 ! D48   D(19,5,12,31)         -64.6481         estimate D2E/DX2                !
 ! D49   D(20,5,12,2)          174.8462         estimate D2E/DX2                !
 ! D50   D(20,5,12,30)         -63.8633         estimate D2E/DX2                !
 ! D51   D(20,5,12,31)          54.0373         estimate D2E/DX2                !
 ! D52   D(1,6,9,3)            -31.1062         Frozen                          !
 ! D53   D(1,6,9,7)            100.2535         estimate D2E/DX2                !
 ! D54   D(1,6,9,25)          -143.4137         estimate D2E/DX2                !
 ! D55   D(9,7,8,10)           -49.777          estimate D2E/DX2                !
 ! D56   D(9,7,8,23)            70.8793         estimate D2E/DX2                !
 ! D57   D(9,7,8,24)          -171.1595         estimate D2E/DX2                !
 ! D58   D(21,7,8,10)         -173.7373         estimate D2E/DX2                !
 ! D59   D(21,7,8,23)          -53.081          estimate D2E/DX2                !
 ! D60   D(21,7,8,24)           64.8802         estimate D2E/DX2                !
 ! D61   D(22,7,8,10)           68.8895         estimate D2E/DX2                !
 ! D62   D(22,7,8,23)         -170.4542         estimate D2E/DX2                !
 ! D63   D(22,7,8,24)          -52.4929         estimate D2E/DX2                !
 ! D64   D(8,7,9,3)             36.9428         estimate D2E/DX2                !
 ! D65   D(8,7,9,6)            -94.1002         estimate D2E/DX2                !
 ! D66   D(8,7,9,25)           152.7087         estimate D2E/DX2                !
 ! D67   D(21,7,9,3)           162.8456         estimate D2E/DX2                !
 ! D68   D(21,7,9,6)            31.8027         estimate D2E/DX2                !
 ! D69   D(21,7,9,25)          -81.3885         estimate D2E/DX2                !
 ! D70   D(22,7,9,3)           -82.6003         estimate D2E/DX2                !
 ! D71   D(22,7,9,6)           146.3568         estimate D2E/DX2                !
 ! D72   D(22,7,9,25)           33.1656         estimate D2E/DX2                !
 ! D73   D(7,8,10,11)           57.9685         estimate D2E/DX2                !
 ! D74   D(7,8,10,26)          177.8001         estimate D2E/DX2                !
 ! D75   D(7,8,10,27)          -62.7993         estimate D2E/DX2                !
 ! D76   D(23,8,10,11)         -63.7295         estimate D2E/DX2                !
 ! D77   D(23,8,10,26)          56.1021         estimate D2E/DX2                !
 ! D78   D(23,8,10,27)         175.5027         estimate D2E/DX2                !
 ! D79   D(24,8,10,11)         178.3196         estimate D2E/DX2                !
 ! D80   D(24,8,10,26)         -61.8489         estimate D2E/DX2                !
 ! D81   D(24,8,10,27)          57.5517         estimate D2E/DX2                !
 ! D82   D(8,10,11,3)          -55.7752         estimate D2E/DX2                !
 ! D83   D(8,10,11,28)        -173.3093         estimate D2E/DX2                !
 ! D84   D(8,10,11,29)          66.9189         estimate D2E/DX2                !
 ! D85   D(26,10,11,3)        -177.4069         estimate D2E/DX2                !
 ! D86   D(26,10,11,28)         65.059          estimate D2E/DX2                !
 ! D87   D(26,10,11,29)        -54.7129         estimate D2E/DX2                !
 ! D88   D(27,10,11,3)          65.1242         estimate D2E/DX2                !
 ! D89   D(27,10,11,28)        -52.4099         estimate D2E/DX2                !
 ! D90   D(27,10,11,29)       -172.1817         estimate D2E/DX2                !
 --------------------------------------------------------------------------------
 Trust Radius=3.00D-01 FncErr=1.00D-07 GrdErr=1.00D-06 EigMax=2.50D+02 EigMin=1.00D-04
 Number of steps in this run=    186 maximum allowed number of steps=    186.
 GradGradGradGradGradGradGradGradGradGradGradGradGradGradGradGradGradGrad

                          Input orientation:                          
 ---------------------------------------------------------------------
 Center     Atomic      Atomic             Coordinates (Angstroms)
 Number     Number       Type             X           Y           Z
 ---------------------------------------------------------------------
      1          6           0        0.843460    0.423022   -0.017784
      2          6           0        3.581977   -0.690015   -0.271898
      3          8           0       -1.837563    1.387173   -0.051061
      4          6           0        1.238409   -1.016490   -0.374789
      5          6           0        2.099386    1.231968    0.313328
      6          8           0       -0.010560    0.478502    1.112437
      7          6           0       -2.179336   -0.680841    1.227707
      8          6           0       -2.551126   -1.394929   -0.069783
      9          6           0       -1.416174    0.634722    1.050571
     10          6           0       -3.218600   -0.395762   -1.007484
     11          6           0       -2.270080    0.759091   -1.257062
     12          6           0        3.254094    0.776341   -0.575580
     13          8           0        2.455030   -1.383405    0.240484
     14          1           0        0.349949    0.871027   -0.864258
     15          1           0        3.942635   -1.202898   -1.158779
     16          1           0        4.341177   -0.762535    0.495382
     17          1           0        0.495405   -1.716605   -0.027819
     18          1           0        1.333726   -1.123449   -1.451880
     19          1           0        2.356798    1.069772    1.355654
     20          1           0        1.898886    2.290878    0.189899
     21          1           0       -1.603397   -1.318577    1.888650
     22          1           0       -3.100161   -0.433269    1.749884
     23          1           0       -1.673378   -1.813633   -0.552403
     24          1           0       -3.216649   -2.222948    0.153969
     25          1           0       -1.625007    1.259914    1.904580
     26          1           0       -3.467043   -0.850874   -1.961818
     27          1           0       -4.142702   -0.028422   -0.567534
     28          1           0       -2.743279    1.549071   -1.823344
     29          1           0       -1.411259    0.411460   -1.818549
     30          1           0        2.979907    0.896265   -1.620053
     31          1           0        4.137086    1.384013   -0.409819
 ---------------------------------------------------------------------
                    Distance matrix (angstroms):
                    1          2          3          4          5
     1  C    0.000000
     2  C    2.966968   0.000000
     3  O    2.849312   5.808175   0.000000
     4  C    1.534807   2.368435   3.917142   0.000000
     5  C    1.530156   2.496915   3.956821   2.504067   0.000000
     6  O    1.417684   4.023448   2.348904   2.450870   2.378688
     7  C    3.450660   5.953287   2.455349   3.789675   4.775185
     8  C    3.851086   6.176788   2.872214   3.820579   5.354869
     9  C    2.508415   5.337168   1.399051   3.435835   3.641345
    10  C    4.260310   6.846570   2.449666   4.544286   5.716207
    11  C    3.367920   6.108766   1.426883   4.029961   4.667116
    12  C    2.499425   1.532948   5.154921   2.705096   1.526795
    13  O    2.434551   1.418920   5.117368   1.411862   2.640448
    14  H    1.077395   3.637822   2.390168   2.142816   2.139513
    15  H    3.681083   1.086131   6.430101   2.821742   3.390168
    16  H    3.728660   1.081833   6.564806   3.232470   3.006129
    17  H    2.167775   3.261961   3.882875   1.078241   3.373903
    18  H    2.165309   2.575821   4.280490   1.086577   3.041411
    19  H    2.143551   2.691995   4.435342   2.932186   1.085823
    20  H    2.155445   3.454240   3.851726   3.419618   1.084770
    21  H    3.557354   5.652536   3.337423   3.645583   4.764192
    22  H    4.405682   6.986021   2.855095   4.865961   5.645529
    23  H    3.409240   5.381446   3.243988   3.024151   4.925335
    24  H    4.849241   6.982303   3.869999   4.645715   6.342087
    25  H    3.238704   5.970926   1.971270   4.310068   4.050181
    26  H    4.897195   7.250544   3.363785   4.968638   6.363934
    27  H    5.036650   7.758593   2.753964   5.474467   6.428698
    28  H    4.170459   6.886897   1.996877   4.953206   5.302577
    29  H    2.885593   5.342077   2.063435   3.338297   4.188408
    30  H    2.712127   2.167094   5.090260   2.870911   2.150808
    31  H    3.453284   2.151455   5.985411   3.763771   2.167552
                    6          7          8          9         10
     6  O    0.000000
     7  C    2.461900   0.000000
     8  C    3.370736   1.526968   0.000000
     9  C    1.415621   1.531176   2.581239   0.000000
    10  C    3.943339   2.481415   1.524185   2.923393   0.000000
    11  C    3.286135   2.873276   2.475565   2.463695   1.515145
    12  C    3.687286   5.907401   6.218587   4.947305   6.592127
    13  O    3.210317   4.790152   5.015775   4.440191   5.892617
    14  H    2.047283   3.630688   3.765897   2.615645   3.789434
    15  H    4.859350   6.591387   6.587239   6.080700   7.208165
    16  H    4.567116   6.562017   6.944291   5.950433   7.716434
    17  H    2.524813   3.131037   3.063754   3.216488   4.061798
    18  H    3.308938   4.440461   4.132308   4.112831   4.631489
    19  H    2.452170   4.863900   5.674006   3.810205   6.230351
    20  H    2.789582   5.151704   5.784048   3.804370   5.902578
    21  H    2.523713   1.084093   2.177035   2.133730   3.442101
    22  H    3.283793   1.087143   2.130121   2.113162   2.760165
    23  H    3.284896   2.169793   1.085669   2.937707   2.145965
    24  H    4.300639   2.146398   1.085634   3.494551   2.165083
    25  H    1.960748   2.128842   3.435695   1.078799   3.709571
    26  H    4.813061   3.443860   2.171335   3.935422   1.086096
    27  H    4.489306   2.739224   2.155971   3.239132   1.087409
    28  H    4.151226   3.820923   3.432060   3.294940   2.161928
    29  H    3.249174   3.326070   2.760529   2.877798   2.139139
    30  H    4.072336   6.100393   6.184273   5.150356   6.361294
    31  H    4.510009   6.844144   7.250539   5.790758   7.591503
                   11         12         13         14         15
    11  C    0.000000
    12  C    5.566077   0.000000
    13  O    5.399963   2.443147   0.000000
    14  H    2.651674   2.919993   3.276322   0.000000
    15  H    6.515895   2.175223   2.050241   4.158762   0.000000
    16  H    7.006791   2.167221   2.002000   4.521841   1.757556
    17  H    3.909989   3.758349   2.005776   2.723348   3.664200
    18  H    4.070544   2.839880   2.046704   2.300229   2.626524
    19  H    5.322669   2.149629   2.696541   2.999159   3.741962
    20  H    4.671225   2.171720   3.716478   2.350836   4.266417
    21  H    3.828404   5.835780   4.380809   4.023485   6.329192
    22  H    3.339533   6.873681   5.834483   4.520861   7.658565
    23  H    2.733406   5.566730   4.225816   3.376167   5.681575
    24  H    3.432136   7.169274   5.734131   4.830123   7.349773
    25  H    3.265413   5.494603   5.138390   3.423178   6.815295
    26  H    2.126356   7.052884   6.340715   4.328858   7.461375
    27  H    2.145306   7.440450   6.783726   4.591401   8.191559
    28  H    1.081046   6.174343   6.315158   3.308723   7.260608
    29  H    1.083369   4.841862   4.733851   2.055171   5.630775
    30  H    5.264308   1.086501   2.988978   2.736520   2.355017
    31  H    6.493083   1.084628   3.303151   3.848646   2.700159
                   16         17         18         19         20
    16  H    0.000000
    17  H    3.996743   0.000000
    18  H    3.600951   1.755724   0.000000
    19  H    2.834639   3.625283   3.706635   0.000000
    20  H    3.921917   4.251715   3.830466   1.749219   0.000000
    21  H    6.130933   2.869887   4.452405   4.655259   5.308475
    22  H    7.553523   4.211327   5.512440   5.673883   5.902965
    23  H    6.194960   2.233433   3.213734   5.310087   5.491729
    24  H    7.705200   3.750837   4.949097   6.584023   6.822361
    25  H    6.455346   4.134003   5.069551   4.023959   4.052264
    26  H    8.186204   4.493421   4.835464   6.972204   6.579794
    27  H    8.581662   4.965208   5.654416   6.866453   6.515646
    28  H    7.804456   4.937370   4.889000   6.028809   5.114012
    29  H    6.310552   3.372053   3.166281   4.970633   4.303851
    30  H    3.013260   3.941453   2.611023   3.045193   2.527742
    31  H    2.338527   4.798083   3.902830   2.526869   2.488294
                   21         22         23         24         25
    21  H    0.000000
    22  H    1.744514   0.000000
    23  H    2.491730   3.040007   0.000000
    24  H    2.535663   2.400722   1.745905   0.000000
    25  H    2.578631   2.250973   3.935200   4.210498   0.000000
    26  H    4.303258   3.753096   2.476003   2.534135   4.774679
    27  H    3.761038   2.573173   3.047092   2.488792   3.756321
    28  H    4.827177   4.101828   3.750701   4.285087   3.902763
    29  H    4.095518   4.037285   2.573494   3.753714   3.824559
    30  H    6.182491   7.077525   5.489671   7.160583   5.810380
    31  H    6.748340   7.768177   6.633759   8.210082   6.210762
                   26         27         28         29         30
    26  H    0.000000
    27  H    1.754129   0.000000
    28  H    2.510527   2.454369   0.000000
    29  H    2.416663   3.036333   1.751702   0.000000
    30  H    6.688233   7.259091   5.763882   4.422304   0.000000
    31  H    8.076274   8.400877   7.026003   5.806420   1.744026
                   31
    31  H    0.000000
 Stoichiometry    C10H18O3
 Framework group  C1[X(C10H18O3)]
 Deg. of freedom    87
 Full point group                 C1      NOp   1
 Largest Abelian subgroup         C1      NOp   1
 Largest concise Abelian subgroup C1      NOp   1
                         Standard orientation:                         
 ---------------------------------------------------------------------
 Center     Atomic      Atomic             Coordinates (Angstroms)
 Number     Number       Type             X           Y           Z
 ---------------------------------------------------------------------
      1          6           0       -0.843460   -0.423022   -0.017784
      2          6           0       -3.581977    0.690015   -0.271898
      3          8           0        1.837563   -1.387173   -0.051061
      4          6           0       -1.238409    1.016490   -0.374789
      5          6           0       -2.099386   -1.231968    0.313328
      6          8           0        0.010560   -0.478502    1.112437
      7          6           0        2.179336    0.680841    1.227707
      8          6           0        2.551126    1.394929   -0.069783
      9          6           0        1.416174   -0.634722    1.050571
     10          6           0        3.218600    0.395762   -1.007484
     11          6           0        2.270080   -0.759091   -1.257062
     12          6           0       -3.254094   -0.776341   -0.575580
     13          8           0       -2.455030    1.383405    0.240484
     14          1           0       -0.349949   -0.871027   -0.864258
     15          1           0       -3.942635    1.202898   -1.158779
     16          1           0       -4.341177    0.762535    0.495382
     17          1           0       -0.495405    1.716605   -0.027819
     18          1           0       -1.333726    1.123449   -1.451880
     19          1           0       -2.356798   -1.069772    1.355654
     20          1           0       -1.898886   -2.290878    0.189899
     21          1           0        1.603397    1.318577    1.888650
     22          1           0        3.100161    0.433269    1.749884
     23          1           0        1.673378    1.813633   -0.552403
     24          1           0        3.216649    2.222948    0.153969
     25          1           0        1.625007   -1.259914    1.904580
     26          1           0        3.467043    0.850874   -1.961818
     27          1           0        4.142702    0.028422   -0.567534
     28          1           0        2.743279   -1.549071   -1.823344
     29          1           0        1.411259   -0.411460   -1.818549
     30          1           0       -2.979907   -0.896265   -1.620053
     31          1           0       -4.137086   -1.384013   -0.409819
 ---------------------------------------------------------------------
 Rotational constants (GHZ):           1.6513109           0.4520571           0.4280309
 Standard basis: 6-311++G(2d,2p) (5D, 7F)
 There are   557 symmetry adapted cartesian basis functions of A   symmetry.
 There are   531 symmetry adapted basis functions of A   symmetry.
   531 basis functions,   762 primitive gaussians,   557 cartesian basis functions
    51 alpha electrons       51 beta electrons
       nuclear repulsion energy       901.2160337694 Hartrees.
 NAtoms=   31 NActive=   31 NUniq=   31 SFac= 1.00D+00 NAtFMM=   60 NAOKFM=F Big=F
 Integral buffers will be    131072 words long.
 Raffenetti 2 integral format.
 Two-electron integral symmetry is turned on.
 ------------------------------------------------------------------------------
 Polarizable Continuum Model (PCM)
 =================================
 Model                : PCM.
 Atomic radii         : UFF (Universal Force Field).
 Polarization charges : Total charges.
 Charge compensation  : None.
 Solution method      : On-the-fly selection.
 Cavity type          : Scaled VdW (van der Waals Surface) (Alpha=1.100).
 Cavity algorithm     : GePol (No added spheres)
                        Default sphere list used, NSphG=   31.
                        Lebedev-Laikov grids with approx.  5.0 points / Ang**2.
                        Smoothing algorithm: York/Karplus (Gamma=1.0000).
                        Polarization charges: spherical gaussians, with
                                              point-specific exponents (IZeta= 3).
                        Self-potential: point-specific (ISelfS= 7).
                        Self-field    : sphere-specific E.n sum rule (ISelfD= 2).
 1st derivatives      : Analytical E(r).r(x)/FMM algorithm (CHGder, D1EAlg=3).
                        Cavity 1st derivative terms included.
 Solvent              : Water, Eps=  78.355300 Eps(inf)=   1.777849
 ------------------------------------------------------------------------------
 One-electron integrals computed using PRISM.
 NBasis=   531 RedAO= T EigKep=  4.35D-06  NBF=   531
 NBsUse=   531 1.00D-06 EigRej= -1.00D+00 NBFU=   531
 ExpMin= 3.60D-02 ExpMax= 8.59D+03 ExpMxC= 1.30D+03 IAcc=3 IRadAn=         5 AccDes= 0.00D+00
 Harris functional with IExCor= 1009 and IRadAn=       5 diagonalized for initial guess.
 HarFok:  IExCor= 1009 AccDes= 0.00D+00 IRadAn=         5 IDoV= 1 UseB2=F ITyADJ=14
 ICtDFT=  3500011 ScaDFX=  1.000000  1.000000  1.000000  1.000000
 FoFCou: FMM=F IPFlag=           0 FMFlag=      100000 FMFlg1=           0
         NFxFlg=           0 DoJE=T BraDBF=F KetDBF=T FulRan=T
         wScrn=  0.000000 ICntrl=       500 IOpCl=  0 I1Cent=   200000004 NGrid=           0
         NMat0=    1 NMatS0=      1 NMatT0=    0 NMatD0=    1 NMtDS0=    0 NMtDT0=    0
 Petite list used in FoFCou.
 Requested convergence on RMS density matrix=1.00D-08 within 128 cycles.
 Requested convergence on MAX density matrix=1.00D-06.
 Requested convergence on             energy=1.00D-06.
 No special actions if energy rises.
 Inv3:  Mode=1 IEnd=    12435888.
 Iteration    1 A*A^-1 deviation from unit magnitude is 8.88D-15 for   2019.
 Iteration    1 A*A^-1 deviation from orthogonality  is 2.75D-15 for   2023    872.
 Iteration    1 A^-1*A deviation from unit magnitude is 8.88D-15 for   2019.
 Iteration    1 A^-1*A deviation from orthogonality  is 1.13D-14 for   1841   1820.
 Error on total polarization charges =  0.01478
 SCF Done:  E(RM062X) =  -617.479136273     A.U. after   12 cycles
            NFock= 12  Conv=0.55D-08     -V/T= 2.0035

 **********************************************************************

            Population analysis using the SCF density.

 **********************************************************************

 Orbital symmetries:
       Occupied  (A) (A) (A) (A) (A) (A) (A) (A) (A) (A) (A) (A)
                 (A) (A) (A) (A) (A) (A) (A) (A) (A) (A) (A) (A)
                 (A) (A) (A) (A) (A) (A) (A) (A) (A) (A) (A) (A)
                 (A) (A) (A) (A) (A) (A) (A) (A) (A) (A) (A) (A)
                 (A) (A) (A)
       Virtual   (A) (A) (A) (A) (A) (A) (A) (A) (A) (A) (A) (A)
                 (A) (A) (A) (A) (A) (A) (A) (A) (A) (A) (A) (A)
                 (A) (A) (A) (A) (A) (A) (A) (A) (A) (A) (A) (A)
                 (A) (A) (A) (A) (A) (A) (A) (A) (A) (A) (A) (A)
                 (A) (A) (A) (A) (A) (A) (A) (A) (A) (A) (A) (A)
                 (A) (A) (A) (A) (A) (A) (A) (A) (A) (A) (A) (A)
                 (A) (A) (A) (A) (A) (A) (A) (A) (A) (A) (A) (A)
                 (A) (A) (A) (A) (A) (A) (A) (A) (A) (A) (A) (A)
                 (A) (A) (A) (A) (A) (A) (A) (A) (A) (A) (A) (A)
                 (A) (A) (A) (A) (A) (A) (A) (A) (A) (A) (A) (A)
                 (A) (A) (A) (A) (A) (A) (A) (A) (A) (A) (A) (A)
                 (A) (A) (A) (A) (A) (A) (A) (A) (A) (A) (A) (A)
                 (A) (A) (A) (A) (A) (A) (A) (A) (A) (A) (A) (A)
                 (A) (A) (A) (A) (A) (A) (A) (A) (A) (A) (A) (A)
                 (A) (A) (A) (A) (A) (A) (A) (A) (A) (A) (A) (A)
                 (A) (A) (A) (A) (A) (A) (A) (A) (A) (A) (A) (A)
                 (A) (A) (A) (A) (A) (A) (A) (A) (A) (A) (A) (A)
                 (A) (A) (A) (A) (A) (A) (A) (A) (A) (A) (A) (A)
                 (A) (A) (A) (A) (A) (A) (A) (A) (A) (A) (A) (A)
                 (A) (A) (A) (A) (A) (A) (A) (A) (A) (A) (A) (A)
                 (A) (A) (A) (A) (A) (A) (A) (A) (A) (A) (A) (A)
                 (A) (A) (A) (A) (A) (A) (A) (A) (A) (A) (A) (A)
                 (A) (A) (A) (A) (A) (A) (A) (A) (A) (A) (A) (A)
                 (A) (A) (A) (A) (A) (A) (A) (A) (A) (A) (A) (A)
                 (A) (A) (A) (A) (A) (A) (A) (A) (A) (A) (A) (A)
                 (A) (A) (A) (A) (A) (A) (A) (A) (A) (A) (A) (A)
                 (A) (A) (A) (A) (A) (A) (A) (A) (A) (A) (A) (A)
                 (A) (A) (A) (A) (A) (A) (A) (A) (A) (A) (A) (A)
                 (A) (A) (A) (A) (A) (A) (A) (A) (A) (A) (A) (A)
                 (A) (A) (A) (A) (A) (A) (A) (A) (A) (A) (A) (A)
                 (A) (A) (A) (A) (A) (A) (A) (A) (A) (A) (A) (A)
                 (A) (A) (A) (A) (A) (A) (A) (A) (A) (A) (A) (A)
                 (A) (A) (A) (A) (A) (A) (A) (A) (A) (A) (A) (A)
                 (A) (A) (A) (A) (A) (A) (A) (A) (A) (A) (A) (A)
                 (A) (A) (A) (A) (A) (A) (A) (A) (A) (A) (A) (A)
                 (A) (A) (A) (A) (A) (A) (A) (A) (A) (A) (A) (A)
                 (A) (A) (A) (A) (A) (A) (A) (A) (A) (A) (A) (A)
                 (A) (A) (A) (A) (A) (A) (A) (A) (A) (A) (A) (A)
                 (A) (A) (A) (A) (A) (A) (A) (A) (A) (A) (A) (A)
                 (A) (A) (A) (A) (A) (A) (A) (A) (A) (A) (A) (A)
 The electronic state is 1-A.
 Alpha  occ. eigenvalues --  -19.63433 -19.62515 -19.62138 -10.63800 -10.58644
 Alpha  occ. eigenvalues --  -10.58248 -10.57765 -10.57700 -10.53272 -10.53121
 Alpha  occ. eigenvalues --  -10.53058 -10.53043 -10.52991  -1.19531  -1.16428
 Alpha  occ. eigenvalues --   -1.13221  -0.90851  -0.90328  -0.87439  -0.84639
 Alpha  occ. eigenvalues --   -0.75447  -0.74578  -0.74080  -0.70795  -0.64952
 Alpha  occ. eigenvalues --   -0.62912  -0.59894  -0.58673  -0.58128  -0.56822
 Alpha  occ. eigenvalues --   -0.54804  -0.53280  -0.52968  -0.51343  -0.49419
 Alpha  occ. eigenvalues --   -0.48906  -0.46145  -0.45869  -0.45286  -0.44894
 Alpha  occ. eigenvalues --   -0.43795  -0.42440  -0.41166  -0.40677  -0.39796
 Alpha  occ. eigenvalues --   -0.38932  -0.37043  -0.36397  -0.34651  -0.33861
 Alpha  occ. eigenvalues --   -0.30662
 Alpha virt. eigenvalues --   -0.00228   0.00648   0.00894   0.01115   0.02264
 Alpha virt. eigenvalues --    0.02535   0.02603   0.03267   0.03550   0.04492
 Alpha virt. eigenvalues --    0.04667   0.04879   0.05624   0.05688   0.07043
 Alpha virt. eigenvalues --    0.07868   0.07895   0.08393   0.08641   0.09402
 Alpha virt. eigenvalues --    0.09696   0.10799   0.10937   0.11410   0.11724
 Alpha virt. eigenvalues --    0.11937   0.12259   0.12775   0.13302   0.13507
 Alpha virt. eigenvalues --    0.13873   0.14197   0.14316   0.14435   0.14780
 Alpha virt. eigenvalues --    0.15223   0.15297   0.15785   0.15957   0.16170
 Alpha virt. eigenvalues --    0.16479   0.16737   0.16943   0.17237   0.17736
 Alpha virt. eigenvalues --    0.18263   0.18440   0.18615   0.18997   0.19065
 Alpha virt. eigenvalues --    0.19356   0.19814   0.20329   0.20930   0.21133
 Alpha virt. eigenvalues --    0.21930   0.22577   0.23227   0.23806   0.24339
 Alpha virt. eigenvalues --    0.24629   0.24960   0.25946   0.26225   0.26681
 Alpha virt. eigenvalues --    0.27348   0.27946   0.28204   0.28760   0.30087
 Alpha virt. eigenvalues --    0.30742   0.30978   0.31326   0.31711   0.32200
 Alpha virt. eigenvalues --    0.32792   0.33526   0.33708   0.34358   0.34675
 Alpha virt. eigenvalues --    0.34975   0.35461   0.35966   0.36609   0.36914
 Alpha virt. eigenvalues --    0.37171   0.37594   0.38234   0.38461   0.38633
 Alpha virt. eigenvalues --    0.39079   0.39426   0.40325   0.40727   0.41146
 Alpha virt. eigenvalues --    0.41566   0.41996   0.42925   0.43792   0.45500
 Alpha virt. eigenvalues --    0.46819   0.47870   0.48404   0.50250   0.50730
 Alpha virt. eigenvalues --    0.51832   0.52518   0.53169   0.54910   0.55244
 Alpha virt. eigenvalues --    0.56183   0.56578   0.57508   0.58126   0.58913
 Alpha virt. eigenvalues --    0.59619   0.60034   0.60558   0.61167   0.61469
 Alpha virt. eigenvalues --    0.61960   0.62180   0.63109   0.63669   0.64169
 Alpha virt. eigenvalues --    0.64619   0.64811   0.65707   0.65869   0.67222
 Alpha virt. eigenvalues --    0.68053   0.68507   0.69180   0.69892   0.70727
 Alpha virt. eigenvalues --    0.71228   0.71771   0.71881   0.73085   0.73282
 Alpha virt. eigenvalues --    0.73553   0.74615   0.75102   0.75618   0.75792
 Alpha virt. eigenvalues --    0.76514   0.76817   0.77593   0.78474   0.78643
 Alpha virt. eigenvalues --    0.80429   0.81327   0.83455   0.84954   0.85825
 Alpha virt. eigenvalues --    0.86879   0.87785   0.88282   0.89010   0.89808
 Alpha virt. eigenvalues --    0.91294   0.92671   0.93395   0.94901   0.96705
 Alpha virt. eigenvalues --    0.97289   0.97677   0.99128   1.00825   1.01698
 Alpha virt. eigenvalues --    1.02839   1.03277   1.04293   1.04733   1.06119
 Alpha virt. eigenvalues --    1.07374   1.08026   1.08659   1.09209   1.12003
 Alpha virt. eigenvalues --    1.13570   1.13992   1.14891   1.15380   1.16192
 Alpha virt. eigenvalues --    1.16643   1.18618   1.19188   1.20688   1.21749
 Alpha virt. eigenvalues --    1.22744   1.22825   1.23072   1.23946   1.23996
 Alpha virt. eigenvalues --    1.24764   1.26031   1.26560   1.27674   1.27839
 Alpha virt. eigenvalues --    1.28113   1.28504   1.28967   1.29840   1.31605
 Alpha virt. eigenvalues --    1.32798   1.33282   1.33906   1.33949   1.35382
 Alpha virt. eigenvalues --    1.35676   1.36080   1.36552   1.37546   1.38292
 Alpha virt. eigenvalues --    1.39120   1.39850   1.40252   1.41414   1.42255
 Alpha virt. eigenvalues --    1.42930   1.43656   1.44101   1.45071   1.45361
 Alpha virt. eigenvalues --    1.45754   1.46870   1.47132   1.47708   1.48449
 Alpha virt. eigenvalues --    1.48900   1.49202   1.50510   1.51451   1.52457
 Alpha virt. eigenvalues --    1.52823   1.53161   1.53572   1.55317   1.55868
 Alpha virt. eigenvalues --    1.57039   1.57355   1.57761   1.58862   1.59279
 Alpha virt. eigenvalues --    1.59478   1.59858   1.60961   1.61312   1.62124
 Alpha virt. eigenvalues --    1.62712   1.63678   1.64860   1.66183   1.66547
 Alpha virt. eigenvalues --    1.67157   1.68417   1.70037   1.70700   1.71729
 Alpha virt. eigenvalues --    1.72706   1.74387   1.74864   1.75603   1.77037
 Alpha virt. eigenvalues --    1.77410   1.79459   1.80006   1.81950   1.83638
 Alpha virt. eigenvalues --    1.84160   1.87956   1.88767   1.96368   1.97039
 Alpha virt. eigenvalues --    1.99310   2.06513   2.08972   2.13545   2.18995
 Alpha virt. eigenvalues --    2.22190   2.24130   2.26664   2.33378   2.36710
 Alpha virt. eigenvalues --    2.39791   2.43549   2.45311   2.48370   2.53823
 Alpha virt. eigenvalues --    2.55781   2.77467   2.77962   2.82683   2.83981
 Alpha virt. eigenvalues --    2.84950   2.86419   2.90606   2.92367   2.93890
 Alpha virt. eigenvalues --    2.94577   2.95082   2.99646   3.02257   3.03476
 Alpha virt. eigenvalues --    3.04034   3.06571   3.07767   3.09046   3.10373
 Alpha virt. eigenvalues --    3.13017   3.14234   3.15458   3.17857   3.19491
 Alpha virt. eigenvalues --    3.23139   3.28139   3.30275   3.32424   3.33678
 Alpha virt. eigenvalues --    3.34641   3.36048   3.36358   3.38071   3.38945
 Alpha virt. eigenvalues --    3.41026   3.42168   3.44013   3.44855   3.45802
 Alpha virt. eigenvalues --    3.47738   3.49209   3.49466   3.49986   3.50974
 Alpha virt. eigenvalues --    3.52102   3.53041   3.53517   3.55251   3.55918
 Alpha virt. eigenvalues --    3.56306   3.56582   3.57052   3.58076   3.59150
 Alpha virt. eigenvalues --    3.60239   3.61804   3.63494   3.63566   3.63965
 Alpha virt. eigenvalues --    3.65445   3.66671   3.67805   3.69218   3.69513
 Alpha virt. eigenvalues --    3.70256   3.71013   3.71536   3.72628   3.73144
 Alpha virt. eigenvalues --    3.74488   3.76373   3.76839   3.78647   3.79128
 Alpha virt. eigenvalues --    3.80080   3.80742   3.81490   3.84045   3.84199
 Alpha virt. eigenvalues --    3.86434   3.87455   3.88193   3.89412   3.90773
 Alpha virt. eigenvalues --    3.93425   3.95184   3.96487   3.97598   3.99064
 Alpha virt. eigenvalues --    3.99847   4.00745   4.01528   4.03113   4.03610
 Alpha virt. eigenvalues --    4.05127   4.05517   4.06586   4.07527   4.08286
 Alpha virt. eigenvalues --    4.08848   4.09550   4.10595   4.11295   4.11729
 Alpha virt. eigenvalues --    4.12407   4.13231   4.13545   4.13914   4.15658
 Alpha virt. eigenvalues --    4.16966   4.17928   4.18951   4.20378   4.20924
 Alpha virt. eigenvalues --    4.21886   4.23721   4.25658   4.26423   4.26641
 Alpha virt. eigenvalues --    4.27524   4.29160   4.31012   4.31893   4.32448
 Alpha virt. eigenvalues --    4.34929   4.35873   4.37698   4.37941   4.39644
 Alpha virt. eigenvalues --    4.41856   4.43036   4.45357   4.47356   4.55245
 Alpha virt. eigenvalues --    4.59876   4.60760   4.73804   4.75851   4.82215
 Alpha virt. eigenvalues --    4.86353   4.92843   4.94071   4.99370   5.01847
 Alpha virt. eigenvalues --    5.04601   5.07404   5.07959   5.12329   5.13598
 Alpha virt. eigenvalues --    5.14581   5.15412   5.16831   5.33453   5.36528
 Alpha virt. eigenvalues --    5.43713   5.55731   5.59762   5.62353   5.85621
 Alpha virt. eigenvalues --    5.87753   6.03659   6.98287   7.03939   7.07073
 Alpha virt. eigenvalues --    7.08750   7.10584   7.11079   7.12750   7.18895
 Alpha virt. eigenvalues --    7.27176   7.36433   7.42940   7.46848   7.50919
 Alpha virt. eigenvalues --    7.54496   7.59935  23.96521  23.98408  24.05213
 Alpha virt. eigenvalues --   24.07139  24.10011  24.11567  24.13190  24.14939
 Alpha virt. eigenvalues --   24.15998  24.17884  50.17283  50.18881  50.20947
          Condensed to atoms (all electrons):
               1          2          3          4          5          6
     1  C    7.769193   0.107669   0.105208  -0.555759  -1.165046   0.128005
     2  C    0.107669   5.622138  -0.000325  -0.250807  -0.028318   0.020252
     3  O    0.105208  -0.000325   8.109443  -0.006956  -0.049604  -0.024133
     4  C   -0.555759  -0.250807  -0.006956   6.481570  -0.148232  -0.115902
     5  C   -1.165046  -0.028318  -0.049604  -0.148232   7.070258  -0.199871
     6  O    0.128005   0.020252  -0.024133  -0.115902  -0.199871   8.308916
     7  C    0.267758  -0.000578  -0.048840  -0.081758   0.036069  -0.046806
     8  C   -0.001309  -0.016850  -0.046412  -0.034011   0.017744  -0.027710
     9  C   -1.012440   0.026492   0.313668   0.221455   0.114183   0.256816
    10  C    0.202053   0.010211  -0.055969   0.011255  -0.054398  -0.043172
    11  C   -0.142352  -0.008887   0.168707   0.069169   0.005325   0.050105
    12  C    0.179872  -0.230751   0.005575   0.057207  -0.122155   0.008339
    13  O    0.003668   0.040531   0.000276   0.183065  -0.099103   0.018665
    14  H    0.544165   0.031644   0.001303  -0.158637  -0.034808  -0.016659
    15  H    0.042695   0.539006   0.000066  -0.049622  -0.024293  -0.000084
    16  H   -0.006589   0.402222  -0.000088   0.033850  -0.025813   0.001892
    17  H    0.042809   0.048348  -0.000147   0.285644  -0.036097  -0.005120
    18  H   -0.074346   0.032408   0.000980   0.434281   0.015168   0.007643
    19  H   -0.064510  -0.030522   0.000194  -0.004319   0.467063  -0.007736
    20  H   -0.031959  -0.004109   0.000065   0.021593   0.423592   0.001928
    21  H   -0.016594   0.000392   0.008781   0.006812   0.009251   0.001630
    22  H    0.010104  -0.000572  -0.009291  -0.003304  -0.001419   0.001026
    23  H   -0.011378  -0.008586  -0.003813   0.001770   0.019468  -0.002682
    24  H    0.004831  -0.000421  -0.002358  -0.002505   0.000204  -0.001516
    25  H   -0.016013  -0.000666  -0.063030  -0.006777   0.028290  -0.087954
    26  H    0.001490   0.000361   0.010420   0.000212  -0.002194  -0.000228
    27  H    0.003090   0.000184  -0.008069  -0.003774   0.000508   0.000048
    28  H    0.009003  -0.000398  -0.053935   0.004201  -0.003864   0.000376
    29  H   -0.023623  -0.005226  -0.048669   0.003764   0.014157   0.008797
    30  H   -0.063587  -0.101171  -0.000449   0.020125  -0.005149   0.001814
    31  H    0.044395  -0.011153   0.000136  -0.017209  -0.044706  -0.002767
               7          8          9         10         11         12
     1  C    0.267758  -0.001309  -1.012440   0.202053  -0.142352   0.179872
     2  C   -0.000578  -0.016850   0.026492   0.010211  -0.008887  -0.230751
     3  O   -0.048840  -0.046412   0.313668  -0.055969   0.168707   0.005575
     4  C   -0.081758  -0.034011   0.221455   0.011255   0.069169   0.057207
     5  C    0.036069   0.017744   0.114183  -0.054398   0.005325  -0.122155
     6  O   -0.046806  -0.027710   0.256816  -0.043172   0.050105   0.008339
     7  C    6.794495  -0.424543  -1.094063  -0.021000   0.132366   0.004083
     8  C   -0.424543   5.790368   0.205742  -0.132907   0.026317   0.007955
     9  C   -1.094063   0.205742   7.049416  -0.027647  -0.196229  -0.092060
    10  C   -0.021000  -0.132907  -0.027647   6.224464  -0.278046  -0.002252
    11  C    0.132366   0.026317  -0.196229  -0.278046   5.544224   0.003557
    12  C    0.004083   0.007955  -0.092060  -0.002252   0.003557   5.784941
    13  O   -0.000993   0.000695  -0.014578   0.001479  -0.000591   0.054446
    14  H   -0.009136  -0.018201   0.016801  -0.009196  -0.023245  -0.016720
    15  H   -0.000855   0.000096  -0.001538   0.000319   0.000252  -0.105466
    16  H    0.000422  -0.000344   0.000431  -0.000021   0.000046   0.020114
    17  H    0.053008  -0.012711   0.004648   0.001197  -0.015549  -0.038896
    18  H   -0.003145  -0.005460  -0.002447   0.015677  -0.008649  -0.035266
    19  H    0.007747  -0.000612  -0.000921  -0.000932   0.000399  -0.014148
    20  H    0.000832  -0.000044  -0.006104   0.001739   0.000190  -0.013612
    21  H    0.448909  -0.050926  -0.048804   0.005080   0.004615   0.000651
    22  H    0.520542  -0.014177  -0.107084  -0.055008   0.030920   0.000733
    23  H   -0.098119   0.556413   0.028128  -0.148649   0.037290   0.006571
    24  H   -0.035654   0.412575  -0.000562  -0.010526  -0.000687   0.000132
    25  H   -0.021496   0.008115   0.439029  -0.020442  -0.006410  -0.005662
    26  H    0.017530  -0.053395  -0.009081   0.444183  -0.035960  -0.000013
    27  H   -0.046983   0.006852   0.029330   0.449531  -0.065751  -0.000382
    28  H    0.007684   0.008989  -0.020281  -0.019897   0.421189   0.001082
    29  H   -0.003101   0.003994  -0.008556  -0.077982   0.473147   0.006104
    30  H    0.001054   0.000579   0.003708  -0.001210   0.001663   0.523823
    31  H    0.000966   0.000123  -0.003096  -0.000298   0.000111   0.389096
              13         14         15         16         17         18
     1  C    0.003668   0.544165   0.042695  -0.006589   0.042809  -0.074346
     2  C    0.040531   0.031644   0.539006   0.402222   0.048348   0.032408
     3  O    0.000276   0.001303   0.000066  -0.000088  -0.000147   0.000980
     4  C    0.183065  -0.158637  -0.049622   0.033850   0.285644   0.434281
     5  C   -0.099103  -0.034808  -0.024293  -0.025813  -0.036097   0.015168
     6  O    0.018665  -0.016659  -0.000084   0.001892  -0.005120   0.007643
     7  C   -0.000993  -0.009136  -0.000855   0.000422   0.053008  -0.003145
     8  C    0.000695  -0.018201   0.000096  -0.000344  -0.012711  -0.005460
     9  C   -0.014578   0.016801  -0.001538   0.000431   0.004648  -0.002447
    10  C    0.001479  -0.009196   0.000319  -0.000021   0.001197   0.015677
    11  C   -0.000591  -0.023245   0.000252   0.000046  -0.015549  -0.008649
    12  C    0.054446  -0.016720  -0.105466   0.020114  -0.038896  -0.035266
    13  O    8.359476   0.004204  -0.058006  -0.081110  -0.088141  -0.021680
    14  H    0.004204   0.511447   0.004803  -0.001337   0.003362  -0.004155
    15  H   -0.058006   0.004803   0.519115  -0.024995   0.002137   0.007931
    16  H   -0.081110  -0.001337  -0.024995   0.510904  -0.001548  -0.005190
    17  H   -0.088141   0.003362   0.002137  -0.001548   0.543183  -0.004382
    18  H   -0.021680  -0.004155   0.007931  -0.005190  -0.004382   0.469054
    19  H    0.002597  -0.005659  -0.003230   0.005820   0.003684   0.000043
    20  H   -0.000783  -0.022163   0.000941  -0.002112   0.000981  -0.001470
    21  H    0.001297  -0.000119  -0.000006   0.000123  -0.013516  -0.000513
    22  H   -0.000463  -0.001766  -0.000060   0.000037   0.001549  -0.000526
    23  H    0.002600   0.003509  -0.000944   0.000199  -0.018064  -0.008578
    24  H   -0.000129  -0.000894  -0.000002  -0.000010   0.002693   0.000029
    25  H   -0.000796   0.001522  -0.000145  -0.000061   0.002986  -0.000337
    26  H   -0.000032  -0.000823   0.000061  -0.000015   0.000824   0.000770
    27  H    0.000026   0.003619   0.000000  -0.000002   0.000631  -0.000043
    28  H   -0.000006  -0.004271   0.000011   0.000001  -0.001180   0.000091
    29  H   -0.000082  -0.019089  -0.000832   0.000420   0.000331  -0.010068
    30  H   -0.000877  -0.024466  -0.015378   0.008863  -0.002047  -0.005615
    31  H    0.009207   0.003653   0.003228  -0.010908   0.002001  -0.000805
              19         20         21         22         23         24
     1  C   -0.064510  -0.031959  -0.016594   0.010104  -0.011378   0.004831
     2  C   -0.030522  -0.004109   0.000392  -0.000572  -0.008586  -0.000421
     3  O    0.000194   0.000065   0.008781  -0.009291  -0.003813  -0.002358
     4  C   -0.004319   0.021593   0.006812  -0.003304   0.001770  -0.002505
     5  C    0.467063   0.423592   0.009251  -0.001419   0.019468   0.000204
     6  O   -0.007736   0.001928   0.001630   0.001026  -0.002682  -0.001516
     7  C    0.007747   0.000832   0.448909   0.520542  -0.098119  -0.035654
     8  C   -0.000612  -0.000044  -0.050926  -0.014177   0.556413   0.412575
     9  C   -0.000921  -0.006104  -0.048804  -0.107084   0.028128  -0.000562
    10  C   -0.000932   0.001739   0.005080  -0.055008  -0.148649  -0.010526
    11  C    0.000399   0.000190   0.004615   0.030920   0.037290  -0.000687
    12  C   -0.014148  -0.013612   0.000651   0.000733   0.006571   0.000132
    13  O    0.002597  -0.000783   0.001297  -0.000463   0.002600  -0.000129
    14  H   -0.005659  -0.022163  -0.000119  -0.001766   0.003509  -0.000894
    15  H   -0.003230   0.000941  -0.000006  -0.000060  -0.000944  -0.000002
    16  H    0.005820  -0.002112   0.000123   0.000037   0.000199  -0.000010
    17  H    0.003684   0.000981  -0.013516   0.001549  -0.018064   0.002693
    18  H    0.000043  -0.001470  -0.000513  -0.000526  -0.008578   0.000029
    19  H    0.461067  -0.015023  -0.000181   0.000235  -0.000341  -0.000017
    20  H   -0.015023   0.482123  -0.000100   0.000072  -0.000542   0.000072
    21  H   -0.000181  -0.000100   0.477472  -0.008635  -0.000444  -0.008896
    22  H    0.000235   0.000072  -0.008635   0.452149   0.005558  -0.004559
    23  H   -0.000341  -0.000542  -0.000444   0.005558   0.512033  -0.006093
    24  H   -0.000017   0.000072  -0.008896  -0.004559  -0.006093   0.453361
    25  H    0.000207  -0.000652  -0.017563  -0.005181   0.001177   0.002879
    26  H   -0.000072   0.000018   0.000577  -0.002070  -0.007184  -0.005729
    27  H    0.000004  -0.000141  -0.001447  -0.006167  -0.000800   0.000540
    28  H   -0.000022   0.000239   0.000625   0.000522  -0.001322   0.001681
    29  H    0.000447   0.001498   0.002251   0.000458  -0.000758  -0.001130
    30  H    0.006626  -0.001183   0.000081   0.000110   0.000539  -0.000016
    31  H   -0.001500  -0.011306  -0.000033  -0.000001   0.000044   0.000015
              25         26         27         28         29         30
     1  C   -0.016013   0.001490   0.003090   0.009003  -0.023623  -0.063587
     2  C   -0.000666   0.000361   0.000184  -0.000398  -0.005226  -0.101171
     3  O   -0.063030   0.010420  -0.008069  -0.053935  -0.048669  -0.000449
     4  C   -0.006777   0.000212  -0.003774   0.004201   0.003764   0.020125
     5  C    0.028290  -0.002194   0.000508  -0.003864   0.014157  -0.005149
     6  O   -0.087954  -0.000228   0.000048   0.000376   0.008797   0.001814
     7  C   -0.021496   0.017530  -0.046983   0.007684  -0.003101   0.001054
     8  C    0.008115  -0.053395   0.006852   0.008989   0.003994   0.000579
     9  C    0.439029  -0.009081   0.029330  -0.020281  -0.008556   0.003708
    10  C   -0.020442   0.444183   0.449531  -0.019897  -0.077982  -0.001210
    11  C   -0.006410  -0.035960  -0.065751   0.421189   0.473147   0.001663
    12  C   -0.005662  -0.000013  -0.000382   0.001082   0.006104   0.523823
    13  O   -0.000796  -0.000032   0.000026  -0.000006  -0.000082  -0.000877
    14  H    0.001522  -0.000823   0.003619  -0.004271  -0.019089  -0.024466
    15  H   -0.000145   0.000061   0.000000   0.000011  -0.000832  -0.015378
    16  H   -0.000061  -0.000015  -0.000002   0.000001   0.000420   0.008863
    17  H    0.002986   0.000824   0.000631  -0.001180   0.000331  -0.002047
    18  H   -0.000337   0.000770  -0.000043   0.000091  -0.010068  -0.005615
    19  H    0.000207  -0.000072   0.000004  -0.000022   0.000447   0.006626
    20  H   -0.000652   0.000018  -0.000141   0.000239   0.001498  -0.001183
    21  H   -0.017563   0.000577  -0.001447   0.000625   0.002251   0.000081
    22  H   -0.005181  -0.002070  -0.006167   0.000522   0.000458   0.000110
    23  H    0.001177  -0.007184  -0.000800  -0.001322  -0.000758   0.000539
    24  H    0.002879  -0.005729   0.000540   0.001681  -0.001130  -0.000016
    25  H    0.515273   0.000412   0.003020   0.000126  -0.005185   0.000142
    26  H    0.000412   0.475834  -0.006091  -0.011128  -0.000965  -0.000094
    27  H    0.003020  -0.006091   0.473093  -0.003167   0.001258  -0.000051
    28  H    0.000126  -0.011128  -0.003167   0.455996  -0.016737   0.000027
    29  H   -0.005185  -0.000965   0.001258  -0.016737   0.546453   0.002742
    30  H    0.000142  -0.000094  -0.000051   0.000027   0.002742   0.480600
    31  H    0.000142   0.000004  -0.000004  -0.000031  -0.000249  -0.010648
              31
     1  C    0.044395
     2  C   -0.011153
     3  O    0.000136
     4  C   -0.017209
     5  C   -0.044706
     6  O   -0.002767
     7  C    0.000966
     8  C    0.000123
     9  C   -0.003096
    10  C   -0.000298
    11  C    0.000111
    12  C    0.389096
    13  O    0.009207
    14  H    0.003653
    15  H    0.003228
    16  H   -0.010908
    17  H    0.002001
    18  H   -0.000805
    19  H   -0.001500
    20  H   -0.011306
    21  H   -0.000033
    22  H   -0.000001
    23  H    0.000044
    24  H    0.000015
    25  H    0.000142
    26  H    0.000004
    27  H   -0.000004
    28  H   -0.000031
    29  H   -0.000249
    30  H   -0.010648
    31  H    0.480944
 Mulliken charges:
               1
     1  C   -0.280503
     2  C   -0.182516
     3  O   -0.302730
     4  C   -0.396399
     5  C   -0.176209
     6  O   -0.233913
     7  C   -0.356394
     8  C   -0.206944
     9  C   -0.064356
    10  C   -0.407635
    11  C   -0.187233
    12  C   -0.376899
    13  O   -0.314862
    14  H    0.241312
    15  H    0.164794
    16  H    0.174801
    17  H    0.237383
    18  H    0.208598
    19  H    0.193611
    20  H    0.175421
    21  H    0.199232
    22  H    0.196268
    23  H    0.142996
    24  H    0.202691
    25  H    0.255048
    26  H    0.182376
    27  H    0.171139
    28  H    0.224397
    29  H    0.156432
    30  H    0.179443
    31  H    0.180648
 Sum of Mulliken charges =  -0.00000
 Mulliken charges with hydrogens summed into heavy atoms:
               1
     1  C   -0.039192
     2  C    0.157080
     3  O   -0.302730
     4  C    0.049582
     5  C    0.192824
     6  O   -0.233913
     7  C    0.039106
     8  C    0.138743
     9  C    0.190692
    10  C   -0.054119
    11  C    0.193596
    12  C   -0.016808
    13  O   -0.314862
 Electronic spatial extent (au):  <R**2>=           2854.5349
 Charge=             -0.0000 electrons
 Dipole moment (field-independent basis, Debye):
    X=              1.2105    Y=              0.3093    Z=             -3.1244  Tot=              3.3649
 Quadrupole moment (field-independent basis, Debye-Ang):
   XX=            -70.5456   YY=            -85.5311   ZZ=            -78.5659
   XY=              7.8923   XZ=              2.6645   YZ=             -0.5159
 Traceless Quadrupole moment (field-independent basis, Debye-Ang):
   XX=              7.6686   YY=             -7.3169   ZZ=             -0.3517
   XY=              7.8923   XZ=              2.6645   YZ=             -0.5159
 Octapole moment (field-independent basis, Debye-Ang**2):
  XXX=            -11.4850  YYY=             -1.9719  ZZZ=             -2.5165  XYY=              3.8685
  XXY=             -5.7949  XXZ=             -6.6991  XZZ=              8.6901  YZZ=             -2.4708
  YYZ=             -1.8355  XYZ=              5.2211
 Hexadecapole moment (field-independent basis, Debye-Ang**3):
 XXXX=          -2608.7052 YYYY=           -604.0762 ZZZZ=           -434.4018 XXXY=             17.1292
 XXXZ=             -3.7592 YYYX=             16.0847 YYYZ=              0.0329 ZZZX=             -1.2475
 ZZZY=             -1.8781 XXYY=           -583.3405 XXZZ=           -514.6660 YYZZ=           -166.0711
 XXYZ=             -5.2975 YYXZ=              3.5834 ZZXY=            -14.7897
 N-N= 9.012160337694D+02 E-N=-3.244261971902D+03  KE= 6.153224529291D+02
 D1PCM: PCM CHGder 1st derivatives, ID1Alg=3 FixD1E=F DoIter=F DoCFld=F I1PDM=0.
 Calling FoFJK, ICntrl=      2127 FMM=F ISym2X=0 I1Cent= 0 IOpClX= 0 NMat=1 NMatS=1 NMatT=0.
 ***** Axes restored to original set *****
 -------------------------------------------------------------------
 Center     Atomic                   Forces (Hartrees/Bohr)
 Number     Number              X              Y              Z
 -------------------------------------------------------------------
      1        6          -0.002066132   -0.002488476    0.003240400
      2        6          -0.004993153    0.003778742   -0.001742982
      3        8          -0.000210999    0.008645232    0.001135158
      4        6           0.006730947    0.005229145   -0.000553983
      5        6           0.000738769   -0.001977691   -0.003552928
      6        8           0.007467789   -0.000812117    0.008052331
      7        6           0.000202574    0.000164691   -0.002735083
      8        6          -0.000912259    0.004661930    0.001461827
      9        6          -0.002264546   -0.006888342   -0.010169689
     10        6           0.002992558   -0.000654210   -0.000570422
     11        6          -0.002070035   -0.004502540    0.006697826
     12        6          -0.000522854   -0.000856891    0.001713893
     13        8          -0.001062535   -0.005712852    0.008065913
     14        1          -0.003671985    0.004141476   -0.006339598
     15        1           0.002046891   -0.001646035   -0.004844380
     16        1           0.003040828    0.000023970    0.003595122
     17        1          -0.005126564   -0.003093383    0.002755829
     18        1          -0.000353353   -0.000209977   -0.006540378
     19        1          -0.000079152   -0.001979287    0.003465502
     20        1          -0.000912460    0.002497958   -0.000408793
     21        1           0.002371714   -0.001597922    0.001910819
     22        1          -0.003277377    0.000691887    0.001336417
     23        1           0.003847321   -0.001259229   -0.002278009
     24        1          -0.001209789   -0.002096474    0.000322132
     25        1          -0.001519528    0.004061532    0.005686513
     26        1          -0.000745897   -0.001417033   -0.002265357
     27        1          -0.002275848    0.001426132    0.001848816
     28        1          -0.002013074    0.003141909   -0.002583643
     29        1           0.005203946   -0.003343103   -0.003759793
     30        1          -0.001352191    0.000239532   -0.003184524
     31        1           0.001996395    0.001831427    0.000241062
 -------------------------------------------------------------------
 Cartesian Forces:  Max     0.010169689 RMS     0.003543777

 GradGradGradGradGradGradGradGradGradGradGradGradGradGradGradGradGradGrad
 Berny optimization.
 FormGI is forming the generalized inverse of G from B-inverse, IUseBI=4.
 Internal  Forces:  Max     0.018486325 RMS     0.002313389
 Search for a local minimum.
 Step number   1 out of a maximum of  186
 All quantities printed in internal units (Hartrees-Bohrs-Radians)
 Mixed Optimization -- RFO/linear search
 Second derivative matrix not updated -- first step.
 ITU=  0
     Eigenvalues ---    0.00410   0.00564   0.00619   0.00771   0.01252
     Eigenvalues ---    0.01427   0.01458   0.02574   0.02824   0.03023
     Eigenvalues ---    0.03379   0.03981   0.04319   0.04455   0.04656
     Eigenvalues ---    0.04759   0.04815   0.04943   0.05010   0.05126
     Eigenvalues ---    0.05160   0.05650   0.05721   0.05809   0.05960
     Eigenvalues ---    0.06243   0.06364   0.06705   0.07408   0.07745
     Eigenvalues ---    0.07807   0.07814   0.07837   0.08077   0.08547
     Eigenvalues ---    0.08726   0.09307   0.10168   0.11255   0.11706
     Eigenvalues ---    0.11782   0.11783   0.11864   0.12579   0.12647
     Eigenvalues ---    0.14701   0.15757   0.16980   0.18578   0.19817
     Eigenvalues ---    0.19924   0.21882   0.22580   0.25000   0.27116
     Eigenvalues ---    0.27890   0.28302   0.28612   0.29070   0.29222
     Eigenvalues ---    0.29266   0.30278   0.35114   0.35145   0.35211
     Eigenvalues ---    0.35220   0.35264   0.35268   0.35300   0.35318
     Eigenvalues ---    0.35322   0.35424   0.35441   0.35504   0.35590
     Eigenvalues ---    0.35774   0.35868   0.36140   0.36208   0.36311
     Eigenvalues ---    0.40254   0.40372   0.41531   0.42811   0.43127
     Eigenvalues ---    0.444391000.000001000.000001000.000001000.00000
     Eigenvalues --- 1000.000001000.000001000.000001000.000001000.00000
     Eigenvalues --- 1000.000001000.000001000.000001000.000001000.00000
     Eigenvalues --- 1000.000001000.000001000.000001000.000001000.00000
     Eigenvalues --- 1000.000001000.000001000.000001000.000001000.00000
     Eigenvalues --- 1000.000001000.000001000.000001000.000001000.00000
     Eigenvalues --- 1000.000001000.000001000.000001000.000001000.00000
     Eigenvalues --- 1000.000001000.000001000.000001000.000001000.00000
     Eigenvalues --- 1000.000001000.000001000.000001000.000001000.00000
     Eigenvalues --- 1000.000001000.000001000.000001000.000001000.00000
     Eigenvalues --- 1000.000001000.000001000.000001000.000001000.00000
     Eigenvalues --- 1000.000001000.000001000.000001000.000001000.00000
     Eigenvalues --- 1000.000001000.000001000.000001000.000001000.00000
     Eigenvalues --- 1000.000001000.000001000.000001000.000001000.00000
     Eigenvalues --- 1000.000001000.000001000.000001000.000001000.00000
     Eigenvalues --- 1000.000001000.000001000.000001000.000001000.00000
     Eigenvalues --- 1000.000001000.000001000.000001000.000001000.00000
     Eigenvalues --- 1000.000001000.000001000.000001000.000001000.00000
     Eigenvalues --- 1000.000001000.000001000.000001000.000001000.00000
     Eigenvalues --- 1000.000001000.000001000.000001000.000001000.00000
 RFO step:  Lambda=-4.44437404D-03 EMin= 4.09840856D-03
 Linear search not attempted -- first point.
 Iteration  1 RMS(Cart)=  0.12076652 RMS(Int)=  0.00261406
 Iteration  2 RMS(Cart)=  0.00765238 RMS(Int)=  0.00006680
 Iteration  3 RMS(Cart)=  0.00001559 RMS(Int)=  0.00006642
 Iteration  4 RMS(Cart)=  0.00000000 RMS(Int)=  0.00006642
 Iteration  1 RMS(Cart)=  0.00007643 RMS(Int)=  0.00001680
 Iteration  2 RMS(Cart)=  0.00004025 RMS(Int)=  0.00001878
 Iteration  3 RMS(Cart)=  0.00002120 RMS(Int)=  0.00002113
 Iteration  4 RMS(Cart)=  0.00001116 RMS(Int)=  0.00002261
 Iteration  5 RMS(Cart)=  0.00000588 RMS(Int)=  0.00002345
 Iteration  6 RMS(Cart)=  0.00000310 RMS(Int)=  0.00002390
 Iteration  7 RMS(Cart)=  0.00000163 RMS(Int)=  0.00002415
 Iteration  8 RMS(Cart)=  0.00000086 RMS(Int)=  0.00002428
 Variable       Old X    -DE/DX   Delta X   Delta X   Delta X     New X
                                 (Linear)    (Quad)   (Total)
    R1        2.90036   0.00097   0.00000   0.00284   0.00284   2.90321
    R2        2.89158  -0.00150   0.00000  -0.00636  -0.00636   2.88521
    R3        2.67903  -0.00009   0.00000  -0.00022  -0.00022   2.67882
    R4        2.03598   0.00839   0.00000   0.02281   0.02281   2.05880
    R5        2.89685   0.00083   0.00000   0.00376   0.00375   2.90060
    R6        2.68137   0.00348   0.00000   0.00934   0.00934   2.69071
    R7        2.05249   0.00541   0.00000   0.01516   0.01516   2.06765
    R8        2.04437   0.00468   0.00000   0.01293   0.01293   2.05730
    R9        2.64382   0.00219   0.00000   0.00516   0.00523   2.64905
   R10        2.69642   0.00290   0.00000   0.00708   0.00709   2.70351
   R11        2.66803   0.00237   0.00000   0.00559   0.00560   2.67363
   R12        2.03758   0.00643   0.00000   0.01754   0.01754   2.05512
   R13        2.05333   0.00647   0.00000   0.01815   0.01815   2.07148
   R14        2.88523  -0.00028   0.00000  -0.00206  -0.00206   2.88316
   R15        2.05191   0.00360   0.00000   0.01008   0.01008   2.06199
   R16        2.04992   0.00265   0.00000   0.00740   0.00740   2.05732
   R17        2.67514   0.00215   0.00000   0.00494   0.00494   2.68008
   R18        2.88555  -0.00091   0.00000  -0.00328  -0.00328   2.88227
   R19        2.89350  -0.00039   0.00000  -0.00046  -0.00041   2.89309
   R20        2.04864   0.00336   0.00000   0.00936   0.00936   2.05800
   R21        2.05440   0.00358   0.00000   0.01005   0.01005   2.06445
   R22        2.88029  -0.00110   0.00000  -0.00410  -0.00417   2.87612
   R23        2.05162   0.00461   0.00000   0.01289   0.01289   2.06450
   R24        2.05155   0.00241   0.00000   0.00673   0.00673   2.05828
   R25        2.03863   0.00715   0.00000   0.01954   0.01954   2.05818
   R26        2.86321  -0.00017   0.00000  -0.00142  -0.00146   2.86175
   R27        2.05242   0.00276   0.00000   0.00772   0.00772   2.06014
   R28        2.05491   0.00316   0.00000   0.00890   0.00890   2.06380
   R29        2.04288   0.00453   0.00000   0.01247   0.01247   2.05536
   R30        2.04727   0.00715   0.00000   0.01984   0.01984   2.06711
   R31        2.05319   0.00343   0.00000   0.00962   0.00962   2.06281
   R32        2.04965   0.00269   0.00000   0.00749   0.00749   2.05714
    A1        1.91237   0.00029   0.00000  -0.00576  -0.00588   1.90649
    A2        1.95752  -0.00130   0.00000  -0.00529  -0.00526   1.95226
    A3        1.90194   0.00063   0.00000   0.00489   0.00493   1.90687
    A4        1.87679   0.00118   0.00000   0.00411   0.00413   1.88092
    A5        1.90302  -0.00093   0.00000   0.00056   0.00059   1.90361
    A6        1.91150   0.00011   0.00000   0.00155   0.00153   1.91302
    A7        1.94884   0.00190   0.00000   0.00584   0.00575   1.95459
    A8        1.94009  -0.00111   0.00000  -0.00617  -0.00619   1.93390
    A9        1.93342  -0.00084   0.00000  -0.00532  -0.00528   1.92814
   A10        1.90481   0.00043   0.00000   0.00675   0.00682   1.91162
   A11        1.84263  -0.00098   0.00000  -0.00289  -0.00287   1.83976
   A12        1.89067   0.00061   0.00000   0.00206   0.00203   1.89270
   A13        2.11774  -0.00523   0.00000  -0.02764  -0.02744   2.09030
   A14        1.94348   0.00100   0.00000   0.00124   0.00105   1.94453
   A15        1.93566  -0.00180   0.00000  -0.01805  -0.01804   1.91762
   A16        1.92354  -0.00049   0.00000   0.00214   0.00209   1.92563
   A17        1.85962  -0.00049   0.00000  -0.00194  -0.00198   1.85764
   A18        1.90796   0.00121   0.00000   0.01481   0.01482   1.92278
   A19        1.89180   0.00061   0.00000   0.00209   0.00205   1.89384
   A20        1.91453  -0.00090   0.00000  -0.00732  -0.00748   1.90705
   A21        1.90004  -0.00026   0.00000  -0.00990  -0.00988   1.89017
   A22        1.91743  -0.00024   0.00000  -0.00072  -0.00063   1.91680
   A23        1.91242   0.00096   0.00000   0.00411   0.00408   1.91649
   A24        1.94427   0.00021   0.00000   0.00586   0.00587   1.95014
   A25        1.87429   0.00025   0.00000   0.00793   0.00787   1.88216
   A26        2.17441  -0.01849   0.00000  -0.07265  -0.07265   2.10176
   A27        2.00960  -0.00135   0.00000  -0.01035  -0.01042   1.99918
   A28        1.95228  -0.00012   0.00000  -0.00424  -0.00445   1.94784
   A29        1.88431   0.00090   0.00000   0.00873   0.00881   1.89312
   A30        1.88722   0.00016   0.00000  -0.00875  -0.00885   1.87837
   A31        1.85675   0.00053   0.00000   0.01115   0.01117   1.86792
   A32        1.86619  -0.00000   0.00000   0.00563   0.00567   1.87186
   A33        1.89950   0.00149   0.00000  -0.00239  -0.00239   1.89711
   A34        1.94039  -0.00029   0.00000  -0.00000  -0.00003   1.94036
   A35        1.90796  -0.00049   0.00000   0.00227   0.00229   1.91025
   A36        1.91069  -0.00102   0.00000  -0.00304  -0.00306   1.90763
   A37        1.93727  -0.00000   0.00000   0.00231   0.00234   1.93961
   A38        1.86826   0.00028   0.00000   0.00095   0.00095   1.86921
   A39        1.97450  -0.00097   0.00000  -0.01747  -0.01761   1.95690
   A40        1.98566   0.00328   0.00000   0.00728   0.00681   1.99247
   A41        1.82694  -0.00108   0.00000   0.00820   0.00823   1.83517
   A42        1.97689  -0.00341   0.00000  -0.02279  -0.02301   1.95388
   A43        1.79422   0.00219   0.00000   0.02181   0.02204   1.81626
   A44        1.88584   0.00014   0.00000   0.00934   0.00936   1.89520
   A45        1.90376  -0.00110   0.00000  -0.00735  -0.00752   1.89624
   A46        1.94557  -0.00033   0.00000  -0.00032  -0.00029   1.94528
   A47        1.92271   0.00073   0.00000   0.00055   0.00060   1.92331
   A48        1.89426   0.00053   0.00000   0.00416   0.00422   1.89848
   A49        1.91896   0.00018   0.00000  -0.00106  -0.00104   1.91792
   A50        1.87828   0.00001   0.00000   0.00422   0.00419   1.88247
   A51        1.96714   0.00257   0.00000   0.00960   0.00952   1.97665
   A52        1.82736  -0.00119   0.00000  -0.00111  -0.00108   1.82628
   A53        1.91665   0.00032   0.00000   0.00465   0.00472   1.92137
   A54        1.94899  -0.00044   0.00000  -0.00360  -0.00360   1.94539
   A55        1.91460  -0.00183   0.00000  -0.00961  -0.00962   1.90498
   A56        1.88598   0.00059   0.00000   0.00037   0.00033   1.88631
   A57        1.90910  -0.00018   0.00000  -0.00676  -0.00682   1.90227
   A58        1.92837   0.00055   0.00000   0.00246   0.00245   1.93081
   A59        1.90871  -0.00017   0.00000   0.00364   0.00367   1.91238
   A60        1.91334  -0.00050   0.00000  -0.00175  -0.00175   1.91159
   A61        1.93856   0.00029   0.00000   0.00064   0.00069   1.93924
   A62        1.86557   0.00004   0.00000   0.00206   0.00204   1.86761
   A63        1.98235  -0.00515   0.00000  -0.03047  -0.03050   1.95185
    D1        0.46044   0.00201   0.00000   0.02088   0.02089   0.48133
    D2        2.52813   0.00087   0.00000   0.00748   0.00751   2.53563
    D3       -1.66005   0.00015   0.00000  -0.00017  -0.00013  -1.66019
    D4       -1.62243   0.00116   0.00000   0.02294   0.02293  -1.59950
    D5        0.44526   0.00002   0.00000   0.00954   0.00954   0.45481
    D6        2.54027  -0.00070   0.00000   0.00189   0.00191   2.54217
[...]
 00001385,0.00011268,-0.00004504,0.00001399,-0.00018344,0.00000449,-0.0
 0001820,0.00000710,-0.00000597,-0.00000886,0.00001261,0.,0.,0.00001459
 ,0.00004310,-0.00000933,0.00001713,0.00001803,-0.00000240,0.00000308,-
 0.00001113,-0.00001787,-0.00000738,0.00001167,-0.00001203,-0.00043990,
 -0.00085804,-0.00022094,-0.00042058,0.00011771,0.00092428,0.00000725,0
 .00011554,0.00012084,0.00017058,0.00018761,0.00020844,-0.04966027,0.12
 485750,0.22427676,0.00018734,-0.00001483,-0.00017462,0.00001773,-0.000
 00009,-0.00001060,-0.00304980,-0.00452888,-0.00086864,0.00002984,-0.00
 001349,0.00001591,-0.00000769,0.00002272,0.00003003,-0.00045742,0.0001
 1107,-0.00005378,-0.00026494,0.00229593,-0.00094882,-0.00398820,-0.006
 04863,-0.01124439,0.00080209,-0.00044514,0.00131101,-0.05957019,-0.024
 98110,-0.04305439,-0.00368528,-0.00758566,-0.01949656,-0.00001178,-0.0
 0001326,-0.00001054,-0.00003989,0.00001887,0.00000410,0.00003302,-0.00
 001237,0.00001657,-0.00000254,0.00000247,0.00000395,-0.00000435,-0.000
 00005,-0.00000019,0.00001511,-0.00001993,-0.00001661,-0.00001656,0.000
 01081,0.00001312,-0.00000078,-0.00000202,-0.00000051,-0.00000033,-0.00
 000434,0.00000083,0.00015005,-0.00034167,-0.00056373,0.00007305,-0.000
 17955,-0.00042090,0.00028185,-0.00052662,0.00025614,0.00035854,0.00011
 494,0.00054713,0.00000555,0.00002857,-0.00007393,0.06124943,0.00013337
 ,-0.00002640,-0.00009359,0.00002052,0.00000089,-0.00000842,-0.00599070
 ,-0.00478810,-0.00167977,0.00001071,-0.00004592,0.00000642,-0.00000027
 ,0.00002793,0.00000006,-0.00045608,0.00037037,-0.00031480,0.00227566,-
 0.00316971,0.00282660,0.00485293,0.01223991,0.02057871,0.00077837,-0.0
 0156345,0.00223303,-0.02655321,-0.10692370,-0.10898540,-0.00075524,-0.
 00963433,-0.02246471,-0.00000565,-0.00000967,-0.00000996,-0.00004354,0
 .00002938,-0.00000557,0.00006650,0.00001116,-0.00003120,-0.00000238,0.
 00000227,0.00000373,-0.00000383,-0.00000008,-0.00000031,-0.00001620,0.
 00000419,0.00001125,-0.00000658,0.00001260,0.00000172,-0.00001269,-0.0
 0000561,-0.00000183,0.00000037,-0.00000589,0.00000173,0.00040295,0.000
 70632,0.00121695,-0.00010719,-0.00004090,-0.00002545,-0.00039153,0.000
 83517,-0.00086216,-0.00072917,0.00085244,-0.00081414,0.00000413,0.0001
 6100,-0.00019315,0.02815048,0.11553962,0.00010092,-0.00002745,-0.00012
 758,0.00002715,0.00000832,-0.00002237,0.00120706,0.00190464,0.00165575
 ,0.00007734,0.00000824,-0.00000713,-0.00000973,0.00002315,0.00002949,-
 0.00031467,-0.00017794,0.00019243,-0.00252345,0.00433859,-0.00152773,-
 0.00356693,-0.01064830,-0.01770836,0.00080727,0.00104914,-0.00014492,-
 0.04509867,-0.10931118,-0.24562921,0.00097961,0.00276334,0.00526208,-0
 .00001366,-0.00001322,-0.00001190,-0.00009049,0.00000200,0.00000488,-0
 .00000155,0.00001474,0.00001680,-0.00000361,0.00000241,0.00000651,-0.0
 0000944,-0.00000199,0.00000088,0.00003559,-0.00004548,-0.00000065,-0.0
 0001472,0.00000642,0.00001466,-0.00000354,-0.00000082,-0.00000258,-0.0
 0000374,-0.00000680,-0.00000128,-0.00047933,-0.00097394,-0.00115294,0.
 00018116,0.00012480,0.00030735,-0.00006647,-0.00002663,0.00095996,0.00
 066613,-0.00015614,0.00049452,0.00000972,-0.00017204,0.00008242,0.0510
 4240,0.11704505,0.26601671,-0.00003094,-0.00013896,0.00023792,0.000049
 24,0.00002022,-0.00004283,0.00210806,0.00099643,-0.00065052,0.00015364
 ,-0.00002727,-0.00002845,0.00001516,0.00005833,-0.00005319,0.00008000,
 0.00004284,-0.00007375,0.00023048,-0.00020136,0.00072121,-0.01088009,0
 .00531614,0.00420875,-0.00026228,-0.00011942,-0.00031155,-0.23581237,0
 .08375745,0.07834271,-0.02065629,0.00792564,0.00966003,-0.00000515,-0.
 00000899,-0.00001459,-0.00017782,0.00000057,-0.00001504,0.00002753,0.0
 0012690,-0.00009571,-0.00000554,0.00000211,0.00001136,-0.00001836,-0.0
 0000464,0.00000301,0.00003784,-0.00006514,0.00005359,0.00002396,-0.000
 00797,-0.00000535,-0.00003623,-0.00000765,-0.00001506,-0.00000831,-0.0
 0001131,-0.00000251,0.00023268,-0.00005080,-0.00012779,-0.00009684,-0.
 00019629,-0.00054262,0.00004219,0.00149378,-0.00178958,0.00065173,-0.0
 0002736,-0.00023687,-0.00007849,-0.00004267,-0.00008808,0.00683730,-0.
 00254922,-0.00201934,0.25842172,-0.00011958,-0.00027775,0.00021806,0.0
 0000235,-0.00001963,0.00002392,0.00234644,0.00175634,0.00063040,-0.000
 05646,-0.00016735,0.00008859,-0.00000595,0.00008190,-0.00008990,0.0002
 1363,0.00000451,-0.00002873,-0.00091485,0.00070212,-0.00101944,0.01956
 312,-0.01016081,-0.00802653,-0.00024438,-0.00011963,0.00000433,0.08555
 631,-0.08624977,-0.03776069,-0.02444123,0.00945232,0.01074176,0.000004
 92,-0.00000502,-0.00000697,0.00007187,0.00007479,-0.00004294,-0.000031
 50,0.00017186,-0.00011452,0.00000182,0.00000222,-0.00000135,0.00000925
 ,0.00000451,-0.00000266,-0.00005584,0.00007522,-0.00004867,0.00004448,
 -0.00000564,-0.00002247,-0.00003970,-0.00001095,-0.00001411,0.00000561
 ,0.00000225,0.00000536,-0.00027645,-0.00004536,0.00005425,-0.00014589,
 0.00036560,0.00044672,0.00176953,-0.00195747,0.00373377,-0.00055885,0.
 00045905,-0.00057630,0.00004153,0.00012178,-0.00004412,0.01277773,-0.0
 0596429,-0.00479123,-0.09263830,0.09382491,-0.00004742,0.00014204,0.00
 000495,-0.00000680,0.00001206,-0.00001871,-0.00092492,0.00047007,0.001
 56239,0.00003432,0.00012632,-0.00009622,0.00001735,-0.00005858,0.00001
 951,0.00014990,-0.00006004,-0.00001279,-0.00034104,0.00001473,0.001535
 84,-0.01990395,0.00865060,0.00786276,-0.00028171,0.00028168,-0.0003609
 6,0.08013770,-0.03660066,-0.08395359,0.00593546,-0.00380712,-0.0049293
 6,0.00000620,0.00000885,0.00000865,-0.00005221,-0.00005191,0.00002575,
 -0.00006147,-0.00006826,0.00001409,-0.00000009,-0.00000212,0.00000038,
 -0.00000618,-0.00000309,0.00000238,-0.00000465,-0.00005357,0.00005055,
 -0.00001674,-0.00000729,0.00002155,0.00001494,0.00000625,0.00000709,-0
 .00000573,-0.00000077,-0.00000320,0.00026134,0.00004906,0.00015644,0.0
 0035118,0.00002123,-0.00018235,-0.00236144,0.00285002,-0.00244509,0.00
 069406,-0.00060407,0.00083115,0.00004111,-0.00006642,0.00009153,0.0233
 1168,-0.00901429,-0.00924356,-0.08761850,0.03639596,0.08816195,-0.0000
 4773,-0.00036426,0.00037056,0.00008435,0.00002779,-0.00005719,-0.00157
 339,0.00257119,-0.00976067,0.00028490,-0.00015976,0.00008484,0.0000588
 4,0.00013282,-0.00014586,-0.00020944,0.00024952,-0.00016682,-0.0001726
 2,0.00007720,-0.00015002,-0.00336881,-0.00310100,0.00023430,0.00051258
 ,-0.00193122,0.00128855,0.01004384,-0.01652271,0.01586650,-0.08948564,
 0.07021518,-0.06108246,-0.00000096,-0.00001788,-0.00003360,-0.00022989
 ,0.00002352,-0.00004851,-0.00016974,0.00021941,-0.00015031,-0.00000911
 ,0.00000568,0.00001861,-0.00002669,-0.00000521,0.00000523,-0.00000963,
 -0.00007882,0.00004834,0.00007888,-0.00002516,-0.00001742,-0.00007837,
 -0.00002535,-0.00003775,-0.00001312,-0.00002465,-0.00000546,0.00004737
 ,0.00009658,0.00003646,0.00002013,0.00003136,0.00001865,0.00024869,-0.
 00024337,-0.00008411,0.00068647,-0.00101917,0.00088615,-0.00004955,0.0
 0019540,-0.00036493,0.00071410,0.00098272,-0.00056050,0.00102529,0.001
 01808,-0.00008789,0.09088988,0.00020708,0.00010149,-0.00038309,-0.0000
 3716,-0.00002231,0.00003467,-0.00933750,0.01378484,-0.02007176,-0.0001
 8005,0.00001510,0.00000887,-0.00003261,-0.00004963,0.00009256,-0.00063
 714,0.00038177,-0.00016123,-0.00014226,-0.00010286,-0.00075226,-0.0051
 6620,-0.00308347,0.00021884,-0.00067400,-0.00176958,-0.00252631,0.0104
 8629,-0.01510853,0.01388707,0.07289013,-0.18166219,0.12384488,-0.00000
 959,-0.00000137,0.00000788,0.00013476,0.00001350,0.00001293,0.00014360
 ,-0.00023705,0.00024677,0.00000423,0.00000023,-0.00000831,0.00001401,0
 .00000451,-0.00000327,-0.00003983,0.00007116,-0.00005261,-0.00002973,0
 .00002487,0.00001512,0.00004060,0.00001250,0.00001419,0.00000814,0.000
 01020,0.00000523,0.00012285,0.00014490,0.00009949,-0.00001641,0.000075
 72,0.00005868,-0.00013097,0.00036098,-0.00029073,0.00057132,-0.0009798
 2,0.00147920,-0.00004411,0.00028698,-0.00057797,0.00021006,0.00042968,
 -0.00045127,-0.00013855,0.00117910,-0.00020690,-0.07194929,0.19307556,
 0.00055132,-0.00009805,-0.00049637,0.00002091,-0.00001579,-0.00000073,
 -0.01570473,0.01576007,-0.03512632,-0.00007681,-0.00003207,0.00002014,
 -0.00003334,0.00004607,0.00014007,-0.00167240,0.00071605,-0.00051847,-
 0.00024496,-0.00026878,0.00000595,0.00066293,0.00025457,0.00097738,0.0
 0095599,-0.00546772,0.00033816,-0.00079772,0.00416211,-0.00167800,-0.0
 5701337,0.11282909,-0.14822502,-0.00003951,-0.00003513,-0.00002112,-0.
 00001687,0.00005510,0.00001854,-0.00001550,-0.00006719,0.00005753,-0.0
 0000245,0.00000601,0.00000340,-0.00000039,0.00000296,-0.00000363,0.000
 00900,0.00002241,-0.00004070,-0.00006303,0.00005261,0.00004214,0.00002
 561,0.00000544,0.00000568,0.00000262,-0.00000728,0.00000460,0.00004080
 ,0.00016120,0.00001727,0.00003731,0.00003668,-0.00000597,-0.00020346,0
 .00017746,-0.00001562,-0.00031082,0.00004061,0.00000317,-0.00022109,0.
 00050508,-0.00110872,0.00024508,0.00024873,0.00023505,-0.00026091,-0.0
 0022470,-0.00004024,0.07044213,-0.12150079,0.17593551,-0.00172368,-0.0
 0185169,-0.00001860,-0.00012371,-0.00007242,0.00001121,0.01115275,-0.0
 0513807,-0.00126065,-0.00004719,0.00030644,-0.00049133,-0.00006944,0.0
 0029652,-0.00023026,0.00127249,-0.00012204,0.00013572,0.00004929,-0.00
 008942,0.00026405,0.00113399,0.00168603,-0.00094862,0.00010751,0.00102
 255,-0.00092689,-0.02158149,0.00767192,0.00816727,-0.23364733,0.082718
 17,0.07789322,0.00000219,0.00001078,-0.00003083,0.00018332,-0.00017698
 ,0.00013439,-0.00221045,-0.00103264,-0.00256027,0.00001437,0.00000777,
 -0.00001555,0.00000952,0.00000381,0.00000600,0.00008552,-0.00006150,0.
 00015062,-0.00020215,0.00014844,0.00031142,-0.00007174,-0.00000638,-0.
 00006950,0.00004168,0.00001779,0.00000739,0.00003275,0.00000081,0.0000
 9360,-0.00002223,-0.00002184,-0.00008372,0.00066727,-0.00066080,0.0003
 2746,0.00035446,-0.00010047,-0.00032894,0.00000543,0.00011895,-0.00003
 819,0.00035216,-0.00004881,-0.00034575,-0.00186048,-0.00389648,0.00076
 040,-0.00923824,0.00373203,0.00370373,0.25533022,0.00042690,0.00086195
 ,-0.00109698,0.00002067,0.00003521,-0.00001165,0.00984256,-0.00962833,
 -0.01837469,0.00024767,0.00009219,0.00039718,-0.00003662,-0.00020036,0
 .00035332,-0.00155476,0.00029542,-0.00028032,-0.00003310,0.00005853,-0
 .00003050,-0.00100507,0.00166086,-0.00035331,0.00169358,-0.00169045,0.
 00284510,-0.02254140,0.00818507,0.01039149,0.08101572,-0.08561771,-0.0
 2978233,-0.00004936,-0.00001372,0.00001367,-0.00000792,-0.00010106,-0.
 00002891,-0.00082380,-0.00060392,-0.00045463,0.00000018,-0.00000457,0.
 00000365,-0.00000401,-0.00000581,0.00000135,-0.00004857,-0.00005680,0.
 00004401,0.00002356,0.00004538,-0.00013891,0.00014379,0.00003753,0.000
 05106,-0.00001013,0.00000014,-0.00001300,0.00005770,0.00014329,-0.0000
 3135,0.00005298,-0.00003580,-0.00008566,0.00025246,-0.00029912,-0.0001
 2843,0.00011540,0.00017697,-0.00028503,-0.00038162,0.00023087,-0.00054
 254,0.00097010,0.00095196,-0.00048849,-0.00350578,-0.00329985,0.001581
 08,0.01961863,-0.00695798,-0.00737480,-0.08447276,0.09574944,-0.000095
 77,0.00028068,-0.00154113,-0.00015898,-0.00006918,0.00011060,0.0183681
 4,-0.02112626,-0.02524122,-0.00067254,0.00046625,-0.00007253,-0.000120
 62,-0.00019222,0.00042284,-0.00163647,0.00037949,0.00080563,-0.0004592
 3,0.00004272,-0.00038908,0.00074498,-0.00089329,-0.00011975,0.00429493
 ,-0.00265765,0.00261553,0.00652416,-0.00077927,-0.00049929,0.07446837,
 -0.02722326,-0.08293902,-0.00004482,0.00000495,0.00003622,0.00047114,-
 0.00008129,0.00007546,-0.00094806,-0.00120176,-0.00007402,0.00001661,-
 0.00000559,-0.00003186,0.00004769,0.00001260,-0.00000765,0.00002080,0.
 00009772,-0.00015854,-0.00009332,0.00003305,0.00001132,0.00017801,0.00
 005213,0.00006557,0.00003632,0.00003528,0.00001215,0.00005556,0.000182
 65,-0.00004445,0.00001941,-0.00001502,0.00007975,-0.00001199,0.0004599
 1,-0.00015950,-0.00018633,0.00006371,0.00015396,-0.00050007,0.00055441
 ,-0.00073586,0.00013278,0.00032424,0.00029340,0.00074775,0.00046925,0.
 00093458,-0.01656225,0.00696256,0.00945983,-0.08463950,0.04382033,0.09
 695161,0.00110759,-0.00071901,0.00138666,-0.00417833,0.00203017,-0.004
 45580,0.00005974,0.00001006,0.00000926,-0.00031930,-0.00034408,-0.0003
 0556,0.00691329,-0.00518630,0.02501350,0.00029407,0.00007505,-0.000477
 08,0.00001615,-0.00000606,0.00000987,0.00000007,0.00001114,0.00000094,
 -0.00017890,0.00000417,-0.00014033,0.00000433,-0.00000574,-0.00000534,
 -0.00004229,-0.00000229,-0.00000763,-0.07201936,0.01300137,-0.07248837
 ,0.00069822,0.00008133,-0.00006344,-0.00010006,0.00032295,-0.00037382,
 0.00053017,0.00002063,0.00000522,0.00072459,0.00195873,-0.00002806,0.0
 0004616,0.00010535,0.00000925,-0.00036447,-0.00058586,0.00014073,-0.00
 332603,0.00142098,0.00336907,0.00077359,0.00000417,-0.00086998,-0.0000
 0261,0.00000136,0.00000409,0.00000934,0.00000725,-0.00000095,-0.000000
 47,-0.00001032,-0.00000528,0.00000768,0.00000280,0.00000042,0.00004048
 ,-0.00000440,-0.00000435,0.00000243,0.00000234,0.00000262,0.00000573,0
 .00000232,-0.00000144,0.00001275,-0.00000447,0.00000187,0.00000191,-0.
 00001190,-0.00002415,0.07696660,-0.00053361,0.00035004,0.00056868,0.01
 284506,-0.00692049,0.03070368,0.00005249,-0.00000905,0.00002988,0.0004
 1883,-0.00018858,0.00074034,-0.00373025,0.00215367,-0.01081189,0.00006
 597,0.00001994,-0.00008210,0.00001320,-0.00000133,0.00000166,0.0000017
 7,-0.00000455,-0.00000499,-0.00011131,0.00001122,0.00003859,0.00000030
 ,-0.00000271,0.00000162,-0.00001278,-0.00000383,-0.00000879,0.01273512
 ,-0.05826709,0.04597079,-0.00089155,-0.00143457,-0.00025308,-0.0000465
 3,-0.00000617,0.00002845,-0.00051139,0.00180499,-0.00010198,0.00050597
 ,-0.00534413,0.00081398,-0.00005067,0.00007455,-0.00012985,-0.00050750
 ,-0.00027776,-0.00027158,0.00206302,0.00004227,-0.00120018,-0.00062159
 ,0.00012122,0.00030343,-0.00000034,-0.00000249,0.00000058,0.00000548,0
 .00000344,-0.00000082,-0.00000455,0.00000160,0.00000233,0.00000027,0.0
 0000293,0.00000118,0.00000708,-0.00000238,-0.00000547,0.00000107,0.000
 00163,0.00000092,0.00000187,0.00000200,-0.00000138,0.00000395,-0.00000
 142,0.00000152,0.00000077,-0.00000566,-0.00000658,-0.01781843,0.064896
 18,-0.00089838,-0.00036621,0.00024460,-0.00062456,-0.00177531,-0.00166
 263,0.00007334,-0.00002164,0.00005090,-0.00084320,-0.00011115,-0.00108
 438,-0.00481756,0.00392232,-0.02169009,0.00016325,-0.00009279,0.000306
 65,0.00003331,-0.00001328,-0.00000548,0.00000185,-0.00000425,-0.000008
 45,-0.00008893,0.00007268,0.00004642,-0.00000073,0.00000164,0.00000332
 ,-0.00000664,-0.00001486,-0.00002733,-0.07259955,0.04905721,-0.2770739
 1,0.00090346,0.00097867,0.00031792,0.00081226,0.00023872,-0.00008451,0
 .00033053,0.00012736,0.00145277,0.00034603,0.00021404,0.00113888,0.000
 12281,0.00000754,0.00028559,-0.00019059,0.00001252,0.00061504,0.003531
 01,-0.00170358,-0.00136665,-0.00009743,-0.00032253,0.00052022,-0.00000
 030,-0.00000163,0.00000011,0.00001077,0.00001141,-0.00000190,-0.000000
 94,0.00000238,0.00000148,-0.00000005,0.00000359,0.00000298,0.00001180,
 -0.00000548,-0.00000904,0.00000205,0.00000202,0.00000151,0.00000061,0.
 00000098,-0.00000131,0.00000450,-0.00000082,0.00000396,0.00001601,-0.0
 0000120,-0.00000613,0.07578063,-0.05069848,0.30283107,0.00053764,0.002
 35997,0.00363531,0.00509609,0.00381330,0.00046468,-0.00024646,0.000063
 66,-0.00028030,-0.00011719,0.00078171,0.00006597,-0.01945161,-0.011143
 04,-0.00546788,-0.00298318,-0.00039019,0.00035801,-0.00018607,0.000065
 71,-0.00001395,-0.00001493,-0.00002354,0.00002688,0.00092854,-0.000422
 51,0.00051008,-0.00000141,0.00000156,-0.00000341,0.00008307,0.00005942
 ,0.00009967,-0.24399564,-0.11603876,-0.03977802,0.00112043,0.00137194,
 -0.00048347,0.00010310,0.00009982,-0.00011798,-0.00054805,-0.00034255,
 0.00069768,0.00142970,0.00009999,0.00005458,0.00006613,-0.00011060,0.0
 0009926,0.00006603,-0.00006098,0.00008995,0.00091187,-0.00019161,0.000
 04001,0.00081050,0.00030951,-0.00058592,0.00001089,0.00000859,-0.00001
 561,-0.00006423,-0.00006507,0.00000388,0.00000904,0.00001881,0.0000021
 3,-0.00001940,-0.00001936,-0.00001544,-0.00016197,0.00002415,0.0000238
 6,-0.00000986,-0.00000876,-0.00001139,-0.00001336,-0.00000350,0.000006
 56,-0.00002514,0.00000479,-0.00002194,0.00000128,0.00000492,0.00002747
 ,-0.00768308,-0.00388170,-0.00197537,0.26434727,0.00119432,-0.00062712
 ,-0.00227998,-0.02660850,-0.01258501,-0.00466886,0.00003403,-0.0000191
 5,0.00009566,0.00194544,-0.00046720,0.00050228,0.01158019,0.00596423,0
 .00350517,0.00130545,0.00026986,-0.00016697,0.00006642,-0.00002545,-0.
 00000264,0.00001530,-0.00001282,-0.00002086,-0.00016031,0.00013734,-0.
 00026624,-0.00000511,0.00000316,0.00000958,-0.00000197,-0.00002090,-0.
 00003998,-0.11582327,-0.11408681,-0.02296882,-0.00198563,-0.00708990,0
 .00119965,-0.00014849,0.00000508,0.00012931,0.00110480,-0.00111092,-0.
 00057229,-0.00046412,0.00164819,0.00062258,-0.00016654,0.00007621,-0.0
 0006021,-0.00016037,0.00008114,-0.00009024,-0.00064788,0.00015041,0.00
 015029,-0.00039537,0.00049583,0.00067695,-0.00000115,-0.00000141,0.000
 00018,0.00001641,0.00002511,0.00000117,-0.00000161,0.00001338,0.000015
 46,-0.00000737,0.00000930,0.00000858,0.00005377,-0.00000889,-0.0000044
 9,0.00000281,0.00000152,0.00000115,-0.00000059,0.00000304,-0.00000346,
 -0.00000117,0.00000314,0.00000852,0.00000951,-0.00000366,0.00000945,0.
 00563669,0.00298652,0.00048013,0.12361432,0.12418581,0.00099573,-0.001
 96913,-0.00256229,0.00408129,0.00286399,-0.00091626,0.00009708,-0.0000
 3033,0.00015462,-0.00047091,-0.00035950,-0.00085534,0.01995395,0.01210
 677,0.00465834,0.00205792,0.00019918,-0.00016270,0.00012231,-0.0000399
 8,0.00000390,0.00001348,0.00000510,-0.00002318,-0.00035724,0.00027005,
 -0.00033250,-0.00000147,0.00000095,0.00000400,-0.00003668,-0.00003311,
 -0.00005865,-0.04263320,-0.02448239,-0.05548714,0.00075256,0.00257131,
 -0.00014268,0.00030503,0.00001278,0.00015682,0.00035023,0.00006574,0.0
 0011038,0.00042722,0.00013586,0.00077030,0.00004751,0.00001649,0.00015
 018,-0.00008660,0.00005552,0.00040946,-0.00089443,0.00048035,0.0007410
 2,-0.00095989,-0.00000169,0.00082137,-0.00000445,-0.00000455,0.0000061
 9,0.00003881,0.00004190,-0.00000132,-0.00000769,-0.00000439,0.00000262
 ,0.00000617,0.00001205,0.00001044,0.00009337,-0.00001682,-0.00001606,0
 .00000545,0.00000450,0.00000582,0.00000527,0.00000198,-0.00000413,0.00
 001091,-0.00000163,0.00001255,0.00000612,0.00000050,-0.00000842,-0.026
 48256,-0.01563045,-0.00480160,0.04256469,0.02372892,0.05735427\\-0.000
 02013,-0.00031924,-0.00000882,0.00000265,-0.00000980,-0.00000247,-0.00
 000919,0.00028126,0.00013213,-0.00000835,-0.00000096,-0.00000132,0.000
 00479,0.00000248,-0.00000291,-0.00001646,0.00058764,0.00005901,-0.0000
 0274,-0.00000612,-0.00000487,-0.00000475,0.00000136,0.00001212,0.00004
 713,-0.00055284,-0.00018721,-0.00000166,0.00000486,-0.00000336,-0.0000
 0070,0.00000339,-0.00000029,-0.00000061,0.00000714,0.00000200,0.000008
 02,0.00000493,0.00000725,-0.00000104,-0.00000324,0.00000242,-0.0000044
 0,-0.00000149,0.00000009,-0.00000213,-0.00000464,-0.00000357,-0.000001
 27,-0.00000142,-0.00000586,-0.00000014,0.00000306,0.00000306,0.0000000
 2,-0.00000139,0.00000068,0.,-0.00000319,0.00000243,-0.00000288,-0.0000
 0149,-0.00000044,0.00000032,0.00000098,-0.00000148,0.00000272,0.000001
 17,-0.00000124,0.00000371,-0.00000277,-0.00000086,0.00000226,0.0000023
 3,-0.00000192,-0.00000093,0.00000374,-0.00000132,0.00000210,0.00000102
 ,-0.00000128,0.00000495,0.00000468,0.00000192,-0.00000162,0.00000074,0
 .00000202,0.00000242,-0.00000005,0.00000204,-0.00000206,-0.00000214,0.
 00000204\\\@


 SIC AS THE CAWSE OF EWERY THING IS, SIC WILBE THE EFFECT.
 -- PROVERBS AND REASONS OF THE YEAR 1585
           AS REPRINTED IN PAISLEY MAGAZINE 1828.
 Job cpu time:       0 days 14 hours 10 minutes 23.2 seconds.
 Elapsed time:       0 days  0 hours 53 minutes 10.8 seconds.
 File lengths (MBytes):  RWF=    687 Int=      0 D2E=      0 Chk=     33 Scr=      1
 Normal termination of Gaussian 16 at Sun Nov  4 23:14:41 2018.
