 Entering Gaussian System, Link 0=g16
 Initial command:
 /apps/gaussian/g16a03/g16/l1.exe "/jobfs/local/2012000.r-man2/Gau-1621.inp" -scrdir="/jobfs/local/2012000.r-man2/"
 Entering Link 1 = /apps/gaussian/g16a03/g16/l1.exe PID=      1622.
  
 Copyright (c) 1988,1990,1992,1993,1995,1998,2003,2009,2016,
            Gaussian, Inc.  All Rights Reserved.
  
 This is part of the Gaussian(R) 16 program.  It is based on
 the Gaussian(R) 09 system (copyright 2009, Gaussian, Inc.),
 the Gaussian(R) 03 system (copyright 2003, Gaussian, Inc.),
 the Gaussian(R) 98 system (copyright 1998, Gaussian, Inc.),
 the Gaussian(R) 94 system (copyright 1995, Gaussian, Inc.),
 the Gaussian 92(TM) system (copyright 1992, Gaussian, Inc.),
 the Gaussian 90(TM) system (copyright 1990, Gaussian, Inc.),
 the Gaussian 88(TM) system (copyright 1988, Gaussian, Inc.),
 the Gaussian 86(TM) system (copyright 1986, Carnegie Mellon
 University), and the Gaussian 82(TM) system (copyright 1983,
 Carnegie Mellon University). Gaussian is a federally registered
 trademark of Gaussian, Inc.
  
 This software contains proprietary and confidential information,
 including trade secrets, belonging to Gaussian, Inc.
  
 This software is provided under written license and may be
 used, copied, transmitted, or stored only in accord with that
 written license.
  
 The following legend is applicable only to US Government
 contracts under FAR:
  
                    RESTRICTED RIGHTS LEGEND
  
 Use, reproduction and disclosure by the US Government is
 subject to restrictions as set forth in subparagraphs (a)
 and (c) of the Commercial Computer Software - Restricted
 Rights clause in FAR 52.227-19.
  
 Gaussian, Inc.
 340 Quinnipiac St., Bldg. 40, Wallingford CT 06492
  
  
 ---------------------------------------------------------------
 Warning -- This program may not be used in any manner that
 competes with the business of Gaussian, Inc. or will provide
 assistance to any competitor of Gaussian, Inc.  The licensee
 of this program is prohibited from giving any competitor of
 Gaussian, Inc. access to this program.  By using this program,
 the user acknowledges that Gaussian, Inc. is engaged in the
 business of creating and licensing software in the field of
 computational chemistry and represents and warrants to the
 licensee that it is not a competitor of Gaussian, Inc. and that
 it will not use this program in any manner prohibited above.
 ---------------------------------------------------------------
  

 Cite this work as:
 Gaussian 16, Revision A.03,
 M. J. Frisch, G. W. Trucks, H. B. Schlegel, G. E. Scuseria, 
 M. A. Robb, J. R. Cheeseman, G. Scalmani, V. Barone, 
 G. A. Petersson, H. Nakatsuji, X. Li, M. Caricato, A. V. Marenich, 
 J. Bloino, B. G. Janesko, R. Gomperts, B. Mennucci, H. P. Hratchian, 
 J. V. Ortiz, A. F. Izmaylov, J. L. Sonnenberg, D. Williams-Young, 
 F. Ding, F. Lipparini, F. Egidi, J. Goings, B. Peng, A. Petrone, 
 T. Henderson, D. Ranasinghe, V. G. Zakrzewski, J. Gao, N. Rega, 
 G. Zheng, W. Liang, M. Hada, M. Ehara, K. Toyota, R. Fukuda, 
 J. Hasegawa, M. Ishida, T. Nakajima, Y. Honda, O. Kitao, H. Nakai, 
 T. Vreven, K. Throssell, J. A. Montgomery, Jr., J. E. Peralta, 
 F. Ogliaro, M. J. Bearpark, J. J. Heyd, E. N. Brothers, K. N. Kudin, 
 V. N. Staroverov, T. A. Keith, R. Kobayashi, J. Normand, 
 K. Raghavachari, A. P. Rendell, J. C. Burant, S. S. Iyengar, 
 J. Tomasi, M. Cossi, J. M. Millam, M. Klene, C. Adamo, R. Cammi, 
 J. W. Ochterski, R. L. Martin, K. Morokuma, O. Farkas, 
 J. B. Foresman, and D. J. Fox, Gaussian, Inc., Wallingford CT, 2016.
 
 ******************************************
 Gaussian 16:  ES64L-G16RevA.03 25-Dec-2016
                 4-Nov-2018 
 ******************************************
 %mem=6000mb
 %nproc=24
 Will use up to   24 processors via shared memory.
 %chk=D_a1-4_2SO_PHI.inp_extract_24.chk
 ----------------------------------------------------------------------
 #M062X/6-311++G(2d,2p) opt=ModRedundant freq=noraman SCRF=(Solvent=Wat
 er)
 ----------------------------------------------------------------------
 1/18=120,19=15,26=3,38=1/1,3;
 2/9=110,12=2,17=6,18=5,40=1/2;
 3/5=4,6=6,7=1212,11=2,25=1,30=1,70=2201,71=1,72=1,74=-55/1,2,3;
 4//1;
 5/5=2,38=5,53=1/2;
 6/7=2,8=2,9=2,10=2,28=1/1;
 7//1,2,3,16;
 1/18=20,19=15,26=3/3(2);
 2/9=110/2;
 99//99;
 2/9=110/2;
 3/5=4,6=6,7=1212,11=2,25=1,30=1,70=2205,71=1,72=1,74=-55/1,2,3;
 4/5=5,16=3,69=1/1;
 5/5=2,38=5,53=1/2;
 7//1,2,3,16;
 1/18=20,19=15,26=3/3(-5);
 2/9=110/2;
 6/7=2,8=2,9=2,10=2,19=2,28=1/1;
 99/9=1/99;
 -----------------------------
 D_a1-4_2SO_PHI.inp_extract_24
 -----------------------------
 Symbolic Z-matrix:
 Charge =  0 Multiplicity = 1
 C                     1.00638  -0.0151   -0.52628 
 C                     3.77572  -0.29132   0.4995 
 O                    -1.84365   0.42648  -1.25654 
 C                     1.76675  -1.30603  -0.23248 
 C                     1.89792   1.1988   -0.22297 
 O                    -0.16835  -0.00757   0.27366 
 C                    -2.14098   1.05445   1.05841 
 C                    -2.97706  -0.20353   1.29843 
 C                    -1.17747   0.88104  -0.10559 
 C                    -3.63764  -0.63925  -0.00958 
 C                    -2.59463  -0.77131  -1.10685 
 C                     3.36451   0.83615  -0.45201 
 O                     2.67769  -1.1302    0.82981 
 H                     0.71548  -0.0233   -1.57006 
 H                     4.56753  -0.89647   0.06811 
 H                     4.12841   0.11113   1.43978 
 H                     1.08179  -2.08853   0.06032 
 H                     2.29998  -1.63465  -1.11922 
 H                     1.75363   1.48317   0.81521 
 H                     1.61496   2.04814  -0.83392 
 H                    -1.5774    1.33327   1.94223 
 H                    -2.79807   1.88478   0.81461 
 H                    -2.34716  -1.0049    1.67513 
 H                    -3.72743  -0.00691   2.05803 
 H                    -0.74785   1.82983  -0.39126 
 H                    -4.14973  -1.58997   0.10882 
 H                    -4.38035   0.09644  -0.30956 
 H                    -3.05341  -0.94804  -2.06988 
 H                    -1.92069  -1.59528  -0.89792 
 H                     3.50853   0.5331   -1.48503 
 H                     4.00524   1.69506  -0.2842 
 
 The following ModRedundant input section has been read:
 D       1       6       9       3 F                                           
 

 GradGradGradGradGradGradGradGradGradGradGradGradGradGradGradGradGradGrad
 Berny optimization.
 Initialization pass.
                           ----------------------------
                           !    Initial Parameters    !
                           ! (Angstroms and Degrees)  !
 --------------------------                            --------------------------
 ! Name  Definition              Value          Derivative Info.                !
 --------------------------------------------------------------------------------
 ! R1    R(1,4)                  1.5267         estimate D2E/DX2                !
 ! R2    R(1,5)                  1.5364         estimate D2E/DX2                !
 ! R3    R(1,6)                  1.4213         estimate D2E/DX2                !
 ! R4    R(1,14)                 1.0836         estimate D2E/DX2                !
 ! R5    R(2,12)                 1.5316         estimate D2E/DX2                !
 ! R6    R(2,13)                 1.4207         estimate D2E/DX2                !
 ! R7    R(2,15)                 1.0859         estimate D2E/DX2                !
 ! R8    R(2,16)                 1.0819         estimate D2E/DX2                !
 ! R9    R(3,9)                  1.4054         estimate D2E/DX2                !
 ! R10   R(3,11)                 1.4216         estimate D2E/DX2                !
 ! R11   R(4,13)                 1.4104         estimate D2E/DX2                !
 ! R12   R(4,17)                 1.0804         estimate D2E/DX2                !
 ! R13   R(4,18)                 1.0856         estimate D2E/DX2                !
 ! R14   R(5,12)                 1.528          estimate D2E/DX2                !
 ! R15   R(5,19)                 1.086          estimate D2E/DX2                !
 ! R16   R(5,20)                 1.0838         estimate D2E/DX2                !
 ! R17   R(6,9)                  1.3971         estimate D2E/DX2                !
 ! R18   R(7,8)                  1.5294         estimate D2E/DX2                !
 ! R19   R(7,9)                  1.521          estimate D2E/DX2                !
 ! R20   R(7,21)                 1.0847         estimate D2E/DX2                !
 ! R21   R(7,22)                 1.0866         estimate D2E/DX2                !
 ! R22   R(8,10)                 1.5288         estimate D2E/DX2                !
 ! R23   R(8,23)                 1.0867         estimate D2E/DX2                !
 ! R24   R(8,24)                 1.0857         estimate D2E/DX2                !
 ! R25   R(9,25)                 1.08           estimate D2E/DX2                !
 ! R26   R(10,11)                1.5196         estimate D2E/DX2                !
 ! R27   R(10,26)                1.0863         estimate D2E/DX2                !
 ! R28   R(10,27)                1.0876         estimate D2E/DX2                !
 ! R29   R(11,28)                1.0813         estimate D2E/DX2                !
 ! R30   R(11,29)                1.0848         estimate D2E/DX2                !
 ! R31   R(12,30)                1.0861         estimate D2E/DX2                !
 ! R32   R(12,31)                1.0846         estimate D2E/DX2                !
 ! A1    A(4,1,5)              109.9424         estimate D2E/DX2                !
 ! A2    A(4,1,6)              107.9278         estimate D2E/DX2                !
 ! A3    A(4,1,14)             108.2203         estimate D2E/DX2                !
 ! A4    A(5,1,6)              111.3667         estimate D2E/DX2                !
 ! A5    A(5,1,14)             110.6059         estimate D2E/DX2                !
 ! A6    A(6,1,14)             108.6812         estimate D2E/DX2                !
 ! A7    A(12,2,13)            111.8142         estimate D2E/DX2                !
 ! A8    A(12,2,15)            111.0515         estimate D2E/DX2                !
 ! A9    A(12,2,16)            110.7099         estimate D2E/DX2                !
 ! A10   A(13,2,15)            109.0779         estimate D2E/DX2                !
 ! A11   A(13,2,16)            105.6359         estimate D2E/DX2                !
 ! A12   A(15,2,16)            108.3519         estimate D2E/DX2                !
 ! A13   A(9,3,11)             115.892          estimate D2E/DX2                !
 ! A14   A(1,4,13)             111.1739         estimate D2E/DX2                !
 ! A15   A(1,4,17)             110.4145         estimate D2E/DX2                !
 ! A16   A(1,4,18)             110.0831         estimate D2E/DX2                !
 ! A17   A(13,4,17)            107.1969         estimate D2E/DX2                !
 ! A18   A(13,4,18)            109.615          estimate D2E/DX2                !
 ! A19   A(17,4,18)            108.2714         estimate D2E/DX2                !
 ! A20   A(1,5,12)             109.8679         estimate D2E/DX2                !
 ! A21   A(1,5,19)             108.5729         estimate D2E/DX2                !
 ! A22   A(1,5,20)             110.8779         estimate D2E/DX2                !
 ! A23   A(12,5,19)            109.4479         estimate D2E/DX2                !
 ! A24   A(12,5,20)            110.6135         estimate D2E/DX2                !
 ! A25   A(19,5,20)            107.3959         estimate D2E/DX2                !
 ! A26   A(1,6,9)              116.5904         estimate D2E/DX2                !
 ! A27   A(8,7,9)              111.8775         estimate D2E/DX2                !
 ! A28   A(8,7,21)             111.5672         estimate D2E/DX2                !
 ! A29   A(8,7,22)             109.4612         estimate D2E/DX2                !
 ! A30   A(9,7,21)             108.8898         estimate D2E/DX2                !
 ! A31   A(9,7,22)             107.3679         estimate D2E/DX2                !
 ! A32   A(21,7,22)            107.4945         estimate D2E/DX2                !
 ! A33   A(7,8,10)             109.6562         estimate D2E/DX2                !
 ! A34   A(7,8,23)             110.127          estimate D2E/DX2                !
 ! A35   A(7,8,24)             109.7957         estimate D2E/DX2                !
 ! A36   A(10,8,23)            109.6865         estimate D2E/DX2                !
 ! A37   A(10,8,24)            110.5846         estimate D2E/DX2                !
 ! A38   A(23,8,24)            106.9561         estimate D2E/DX2                !
 ! A39   A(3,9,6)              111.0378         estimate D2E/DX2                !
 ! A40   A(3,9,7)              111.3058         estimate D2E/DX2                !
 ! A41   A(3,9,25)             104.8382         estimate D2E/DX2                !
 ! A42   A(6,9,7)              108.8051         estimate D2E/DX2                !
 ! A43   A(6,9,25)             110.075          estimate D2E/DX2                !
 ! A44   A(7,9,25)             110.7485         estimate D2E/DX2                !
 ! A45   A(8,10,11)            110.242          estimate D2E/DX2                !
 ! A46   A(8,10,26)            111.0928         estimate D2E/DX2                !
 ! A47   A(8,10,27)            109.7716         estimate D2E/DX2                !
 ! A48   A(11,10,26)           109.038          estimate D2E/DX2                !
 ! A49   A(11,10,27)           109.1672         estimate D2E/DX2                !
 ! A50   A(26,10,27)           107.4663         estimate D2E/DX2                !
 ! A51   A(3,11,10)            111.4307         estimate D2E/DX2                !
 ! A52   A(3,11,28)            105.5495         estimate D2E/DX2                !
 ! A53   A(3,11,29)            109.3941         estimate D2E/DX2                !
 ! A54   A(10,11,28)           111.4743         estimate D2E/DX2                !
 ! A55   A(10,11,29)           110.6917         estimate D2E/DX2                !
 ! A56   A(28,11,29)           108.1188         estimate D2E/DX2                !
 ! A57   A(2,12,5)             109.8338         estimate D2E/DX2                !
 ! A58   A(2,12,30)            110.4798         estimate D2E/DX2                !
 ! A59   A(2,12,31)            109.1614         estimate D2E/DX2                !
 ! A60   A(5,12,30)            109.6363         estimate D2E/DX2                !
 ! A61   A(5,12,31)            110.8462         estimate D2E/DX2                !
 ! A62   A(30,12,31)           106.8436         estimate D2E/DX2                !
 ! A63   A(2,13,4)             113.4328         estimate D2E/DX2                !
 ! D1    D(5,1,4,13)            31.7747         estimate D2E/DX2                !
 ! D2    D(5,1,4,17)           150.6219         estimate D2E/DX2                !
 ! D3    D(5,1,4,18)           -89.8888         estimate D2E/DX2                !
 ! D4    D(6,1,4,13)           -89.8761         estimate D2E/DX2                !
 ! D5    D(6,1,4,17)            28.971          estimate D2E/DX2                !
 ! D6    D(6,1,4,18)           148.4604         estimate D2E/DX2                !
 ! D7    D(14,1,4,13)          152.6777         estimate D2E/DX2                !
 ! D8    D(14,1,4,17)          -88.4751         estimate D2E/DX2                !
 ! D9    D(14,1,4,18)           31.0142         estimate D2E/DX2                !
 ! D10   D(4,1,5,12)            29.9856         estimate D2E/DX2                !
 ! D11   D(4,1,5,19)           -89.6771         estimate D2E/DX2                !
 ! D12   D(4,1,5,20)           152.5658         estimate D2E/DX2                !
 ! D13   D(6,1,5,12)           149.5611         estimate D2E/DX2                !
 ! D14   D(6,1,5,19)            29.8984         estimate D2E/DX2                !
 ! D15   D(6,1,5,20)           -87.8587         estimate D2E/DX2                !
 ! D16   D(14,1,5,12)          -89.4716         estimate D2E/DX2                !
 ! D17   D(14,1,5,19)          150.8657         estimate D2E/DX2                !
 ! D18   D(14,1,5,20)           33.1086         estimate D2E/DX2                !
 ! D19   D(4,1,6,9)           -162.6282         estimate D2E/DX2                !
 ! D20   D(5,1,6,9)             76.6073         estimate D2E/DX2                !
 ! D21   D(14,1,6,9)           -45.48           estimate D2E/DX2                !
 ! D22   D(13,2,12,5)           29.1673         estimate D2E/DX2                !
 ! D23   D(13,2,12,30)         -91.9005         estimate D2E/DX2                !
 ! D24   D(13,2,12,31)         150.8909         estimate D2E/DX2                !
 ! D25   D(15,2,12,5)          151.2606         estimate D2E/DX2                !
 ! D26   D(15,2,12,30)          30.1928         estimate D2E/DX2                !
 ! D27   D(15,2,12,31)         -87.0158         estimate D2E/DX2                !
 ! D28   D(16,2,12,5)          -88.329          estimate D2E/DX2                !
 ! D29   D(16,2,12,30)         150.6032         estimate D2E/DX2                !
 ! D30   D(16,2,12,31)          33.3947         estimate D2E/DX2                !
 ! D31   D(12,2,13,4)           35.0499         estimate D2E/DX2                !
 ! D32   D(15,2,13,4)          -88.1683         estimate D2E/DX2                !
 ! D33   D(16,2,13,4)          155.5522         estimate D2E/DX2                !
 ! D34   D(11,3,9,6)            66.1368         estimate D2E/DX2                !
 ! D35   D(11,3,9,7)           -55.243          estimate D2E/DX2                !
 ! D36   D(11,3,9,25)         -175.0245         estimate D2E/DX2                !
 ! D37   D(9,3,11,10)           57.199          estimate D2E/DX2                !
 ! D38   D(9,3,11,28)          178.3594         estimate D2E/DX2                !
 ! D39   D(9,3,11,29)          -65.5254         estimate D2E/DX2                !
 ! D40   D(1,4,13,2)           -69.2791         estimate D2E/DX2                !
 ! D41   D(17,4,13,2)          169.9605         estimate D2E/DX2                !
 ! D42   D(18,4,13,2)           52.6569         estimate D2E/DX2                !
 ! D43   D(1,5,12,2)           -61.7677         estimate D2E/DX2                !
 ! D44   D(1,5,12,30)           59.8063         estimate D2E/DX2                !
 ! D45   D(1,5,12,31)          177.5208         estimate D2E/DX2                !
 ! D46   D(19,5,12,2)           57.3599         estimate D2E/DX2                !
 ! D47   D(19,5,12,30)         178.9338         estimate D2E/DX2                !
 ! D48   D(19,5,12,31)         -63.3516         estimate D2E/DX2                !
 ! D49   D(20,5,12,2)          175.4959         estimate D2E/DX2                !
 ! D50   D(20,5,12,30)         -62.9302         estimate D2E/DX2                !
 ! D51   D(20,5,12,31)          54.7844         estimate D2E/DX2                !
 ! D52   D(1,6,9,3)             73.8938         Frozen                          !
 ! D53   D(1,6,9,7)           -163.2713         estimate D2E/DX2                !
 ! D54   D(1,6,9,25)           -41.7445         estimate D2E/DX2                !
 ! D55   D(9,7,8,10)           -51.9276         estimate D2E/DX2                !
 ! D56   D(9,7,8,23)            68.8621         estimate D2E/DX2                !
 ! D57   D(9,7,8,24)          -173.62           estimate D2E/DX2                !
 ! D58   D(21,7,8,10)         -174.1937         estimate D2E/DX2                !
 ! D59   D(21,7,8,23)          -53.4041         estimate D2E/DX2                !
 ! D60   D(21,7,8,24)           64.1138         estimate D2E/DX2                !
 ! D61   D(22,7,8,10)           66.9573         estimate D2E/DX2                !
 ! D62   D(22,7,8,23)         -172.2531         estimate D2E/DX2                !
 ! D63   D(22,7,8,24)          -54.7352         estimate D2E/DX2                !
 ! D64   D(8,7,9,3)             52.0208         estimate D2E/DX2                !
 ! D65   D(8,7,9,6)            -70.6527         estimate D2E/DX2                !
 ! D66   D(8,7,9,25)           168.2323         estimate D2E/DX2                !
 ! D67   D(21,7,9,3)           175.8049         estimate D2E/DX2                !
 ! D68   D(21,7,9,6)            53.1314         estimate D2E/DX2                !
 ! D69   D(21,7,9,25)          -67.9836         estimate D2E/DX2                !
 ! D70   D(22,7,9,3)           -68.096          estimate D2E/DX2                !
 ! D71   D(22,7,9,6)           169.2305         estimate D2E/DX2                !
 ! D72   D(22,7,9,25)           48.1155         estimate D2E/DX2                !
 ! D73   D(7,8,10,11)           52.8635         estimate D2E/DX2                !
 ! D74   D(7,8,10,26)          173.8525         estimate D2E/DX2                !
 ! D75   D(7,8,10,27)          -67.4291         estimate D2E/DX2                !
 ! D76   D(23,8,10,11)         -68.1925         estimate D2E/DX2                !
 ! D77   D(23,8,10,26)          52.7966         estimate D2E/DX2                !
 ! D78   D(23,8,10,27)         171.5149         estimate D2E/DX2                !
 ! D79   D(24,8,10,11)         174.0816         estimate D2E/DX2                !
 ! D80   D(24,8,10,26)         -64.9293         estimate D2E/DX2                !
 ! D81   D(24,8,10,27)          53.789          estimate D2E/DX2                !
 ! D82   D(8,10,11,3)          -54.6968         estimate D2E/DX2                !
 ! D83   D(8,10,11,28)        -172.3344         estimate D2E/DX2                !
 ! D84   D(8,10,11,29)          67.2802         estimate D2E/DX2                !
 ! D85   D(26,10,11,3)        -176.9059         estimate D2E/DX2                !
 ! D86   D(26,10,11,28)         65.4565         estimate D2E/DX2                !
 ! D87   D(26,10,11,29)        -54.9289         estimate D2E/DX2                !
 ! D88   D(27,10,11,3)          65.9589         estimate D2E/DX2                !
 ! D89   D(27,10,11,28)        -51.6786         estimate D2E/DX2                !
 ! D90   D(27,10,11,29)       -172.0641         estimate D2E/DX2                !
 --------------------------------------------------------------------------------
 Trust Radius=3.00D-01 FncErr=1.00D-07 GrdErr=1.00D-06 EigMax=2.50D+02 EigMin=1.00D-04
 Number of steps in this run=    186 maximum allowed number of steps=    186.
 GradGradGradGradGradGradGradGradGradGradGradGradGradGradGradGradGradGrad

                          Input orientation:                          
 ---------------------------------------------------------------------
 Center     Atomic      Atomic             Coordinates (Angstroms)
 Number     Number       Type             X           Y           Z
 ---------------------------------------------------------------------
      1          6           0        1.006381   -0.015102   -0.526282
      2          6           0        3.775724   -0.291321    0.499496
      3          8           0       -1.843652    0.426484   -1.256541
      4          6           0        1.766751   -1.306026   -0.232483
      5          6           0        1.897919    1.198796   -0.222965
      6          8           0       -0.168353   -0.007572    0.273656
      7          6           0       -2.140981    1.054455    1.058407
      8          6           0       -2.977056   -0.203526    1.298427
      9          6           0       -1.177472    0.881038   -0.105592
     10          6           0       -3.637637   -0.639254   -0.009577
     11          6           0       -2.594627   -0.771306   -1.106851
     12          6           0        3.364505    0.836152   -0.452006
     13          8           0        2.677692   -1.130199    0.829808
     14          1           0        0.715476   -0.023300   -1.570059
     15          1           0        4.567530   -0.896465    0.068106
     16          1           0        4.128411    0.111127    1.439780
     17          1           0        1.081787   -2.088528    0.060319
     18          1           0        2.299980   -1.634654   -1.119221
     19          1           0        1.753626    1.483168    0.815208
     20          1           0        1.614957    2.048137   -0.833923
     21          1           0       -1.577397    1.333268    1.942228
     22          1           0       -2.798074    1.884783    0.814606
     23          1           0       -2.347164   -1.004904    1.675128
     24          1           0       -3.727428   -0.006910    2.058029
     25          1           0       -0.747847    1.829831   -0.391260
     26          1           0       -4.149734   -1.589969    0.108824
     27          1           0       -4.380346    0.096443   -0.309558
     28          1           0       -3.053411   -0.948043   -2.069878
     29          1           0       -1.920685   -1.595277   -0.897920
     30          1           0        3.508527    0.533101   -1.485029
     31          1           0        4.005240    1.695059   -0.284202
 ---------------------------------------------------------------------
                    Distance matrix (angstroms):
                    1          2          3          4          5
     1  C    0.000000
     2  C    2.966105   0.000000
     3  O    2.975057   5.930961   0.000000
     4  C    1.526750   2.366726   4.133436   0.000000
     5  C    1.536356   2.503707   3.957790   2.508272   0.000000
     6  O    1.421252   3.960715   2.310094   2.384699   2.443652
     7  C    3.682537   6.093512   2.416968   4.744327   4.239748
     8  C    4.385526   6.800444   2.865201   5.105183   5.295897
     9  C    2.397762   5.125886   1.405382   3.669850   3.093990
    10  C    4.714176   7.438961   2.430864   5.449925   5.836638
    11  C    3.725072   6.587269   1.421644   4.480186   4.984529
    12  C    2.508166   1.531552   5.285830   2.681405   1.528020
    13  O    2.423985   1.420738   5.217151   1.410387   2.672189
    14  H    1.083588   3.704053   2.617200   2.130651   2.169413
    15  H    3.716434   1.085934   6.678932   2.846482   3.406122
    16  H    3.691667   1.081890   6.560117   3.222146   2.987112
    17  H    2.156127   3.268046   4.076469   1.080379   3.398944
    18  H    2.155904   2.569554   4.629993   1.085649   2.998894
    19  H    2.145410   2.708757   4.283589   2.979502   1.086044
    20  H    2.173008   3.452533   3.843220   3.411038   1.083844
    21  H    3.819365   5.777254   3.335457   4.783154   4.096824
    22  H    4.458859   6.931778   2.706881   5.667035   4.857930
    23  H    4.131849   6.275434   3.301072   4.544662   5.145851
    24  H    5.393299   7.668586   3.837032   6.092631   6.188795
    25  H    2.549377   5.074980   1.979617   4.022687   2.725180
    26  H    5.428544   8.040646   3.353851   5.933120   6.667938
    27  H    5.392239   8.205267   2.727732   6.305526   6.374895
    28  H    4.442407   7.325985   2.003586   5.170893   5.704005
    29  H    3.347056   6.008506   2.054765   3.758145   4.779555
    30  H    2.735042   2.165503   5.358115   2.825782   2.151747
    31  H    3.460695   2.147688   6.063354   3.744332   2.165832
                    6          7          8          9         10
     6  O    0.000000
     7  C    2.373815   0.000000
     8  C    2.996225   1.529427   0.000000
     9  C    1.397060   1.520959   2.527064   0.000000
    10  C    3.537679   2.499844   1.528758   2.893600   0.000000
    11  C    2.894114   2.868369   2.500798   2.396057   1.519644
    12  C    3.703990   5.713088   6.660356   4.555389   7.169558
    13  O    3.109593   5.295713   5.749304   4.447734   6.389755
    14  H    2.044673   4.028615   4.679261   2.558465   4.665201
    15  H    4.822963   7.056267   7.675587   6.016206   8.209565
    16  H    4.453775   6.351424   7.113835   5.579725   7.935692
    17  H    2.436953   4.610939   4.643312   3.734983   4.937433
    18  H    3.268053   5.629876   5.978316   4.410082   6.121881
    19  H    2.491904   3.925672   5.045571   3.130778   5.852407
    20  H    2.938174   4.321503   5.541073   3.112916   5.957463
    21  H    2.562692   1.084667   2.176065   2.134952   3.456150
    22  H    3.284672   1.086579   2.151082   2.116747   2.784763
    23  H    2.775971   2.159587   1.086680   2.845333   2.153428
    24  H    3.981332   2.154659   1.085685   3.460055   2.164005
    25  H    2.038131   2.154893   3.458172   1.079996   3.820072
    26  H    4.287487   3.453951   2.170842   3.871200   1.086334
    27  H    4.253451   2.793541   2.155184   3.303875   1.087592
    28  H    3.834084   3.824748   3.450451   3.274615   2.163680
    29  H    2.638951   3.301034   2.806569   2.704124   2.156631
    30  H    4.111538   6.217541   7.095987   4.897192   7.390469
    31  H    4.541920   6.323686   7.406875   5.249289   7.996124
                   11         12         13         14         15
    11  C    0.000000
    12  C    6.206770   0.000000
    13  O    5.628215   2.445669   0.000000
    14  H    3.425034   3.001009   3.291638   0.000000
    15  H    7.258972   2.172498   2.050929   4.276017   0.000000
    16  H    7.243152   2.165195   2.004381   4.552508   1.757713
    17  H    4.075951   3.745268   2.014304   2.656592   3.683949
    18  H    4.970181   2.771872   2.048379   2.304424   2.663917
    19  H    5.261584   2.149277   2.771966   3.006110   3.760169
    20  H    5.073889   2.162334   3.741554   2.375250   4.266383
    21  H    3.841988   5.513790   5.041025   4.408367   6.800307
    22  H    3.284539   6.378190   6.250949   4.655367   7.908522
    23  H    2.802715   6.366895   5.097003   4.568867   7.099808
    24  H    3.447318   7.570109   6.617845   5.736086   8.576563
    25  H    3.269339   4.231138   4.689041   2.639124   5.991405
    26  H    2.136921   7.916084   6.880767   5.379904   8.744901
    27  H    2.139499   7.781399   7.253875   5.250772   9.010715
    28  H    1.081268   6.854962   6.425488   3.912733   7.915325
    29  H    1.084794   5.834717   4.934208   3.142010   6.596854
    30  H    6.252438   1.086149   2.969061   2.849201   2.361647
    31  H    7.093515   1.084629   3.314436   3.927943   2.675124
                   16         17         18         19         20
    16  H    0.000000
    17  H    4.002913   0.000000
    18  H    3.597137   1.755366   0.000000
    19  H    2.812862   3.711905   3.709627   0.000000
    20  H    3.903740   4.265670   3.756807   1.748729   0.000000
    21  H    5.856819   4.724567   5.763253   3.519710   4.290592
    22  H    7.177248   5.604415   6.489706   4.569384   4.713722
    23  H    6.575256   3.942024   5.459022   4.873032   5.595963
    24  H    7.881013   5.608255   7.005292   5.814369   6.413087
    25  H    5.484938   4.347991   4.671384   2.798769   2.413804
    26  H    8.555282   5.255447   6.565737   6.692743   6.881588
    27  H    8.686734   5.894557   6.948310   6.388561   6.326747
    28  H    8.063381   4.789395   5.480327   6.110819   5.683163
    29  H    6.705835   3.190040   4.226646   5.090402   5.077334
    30  H    3.019408   3.892314   2.508697   3.045225   2.510952
    31  H    2.344382   4.793830   3.833035   2.514630   2.477965
                   21         22         23         24         25
    21  H    0.000000
    22  H    1.750929   0.000000
    23  H    2.476072   3.048624   0.000000
    24  H    2.536163   2.447101   1.745776   0.000000
    25  H    2.525845   2.379194   3.855321   4.272065   0.000000
    26  H    4.303905   3.794603   2.458631   2.546334   4.849531
    27  H    3.802210   2.639221   3.047257   2.458140   4.025712
    28  H    4.845616   4.050969   3.811442   4.287149   3.981202
    29  H    4.093979   3.976603   2.674135   3.811150   3.655628
    30  H    6.184899   6.847524   6.829434   8.074894   4.581982
    31  H    6.021106   6.894088   7.175083   8.256930   4.756202
                   26         27         28         29         30
    26  H    0.000000
    27  H    1.752772   0.000000
    28  H    2.522050   2.439351   0.000000
    29  H    2.445858   3.042699   1.753701   0.000000
    30  H    8.105353   7.987911   6.752397   5.860975   0.000000
    31  H    8.800539   8.536643   7.745914   6.805847   1.743231
                   31
    31  H    0.000000
 Stoichiometry    C10H18O3
 Framework group  C1[X(C10H18O3)]
 Deg. of freedom    87
 Full point group                 C1      NOp   1
 Largest Abelian subgroup         C1      NOp   1
 Largest concise Abelian subgroup C1      NOp   1
                         Standard orientation:                         
 ---------------------------------------------------------------------
 Center     Atomic      Atomic             Coordinates (Angstroms)
 Number     Number       Type             X           Y           Z
 ---------------------------------------------------------------------
      1          6           0        1.006381   -0.015102   -0.526282
      2          6           0        3.775724   -0.291321    0.499496
      3          8           0       -1.843652    0.426484   -1.256541
      4          6           0        1.766751   -1.306026   -0.232483
      5          6           0        1.897919    1.198796   -0.222965
      6          8           0       -0.168353   -0.007572    0.273656
      7          6           0       -2.140981    1.054455    1.058407
      8          6           0       -2.977056   -0.203526    1.298427
      9          6           0       -1.177472    0.881038   -0.105592
     10          6           0       -3.637637   -0.639254   -0.009577
     11          6           0       -2.594627   -0.771306   -1.106851
     12          6           0        3.364505    0.836152   -0.452006
     13          8           0        2.677692   -1.130199    0.829808
     14          1           0        0.715476   -0.023300   -1.570059
     15          1           0        4.567530   -0.896465    0.068106
     16          1           0        4.128411    0.111127    1.439780
     17          1           0        1.081787   -2.088528    0.060319
     18          1           0        2.299980   -1.634654   -1.119221
     19          1           0        1.753626    1.483168    0.815208
     20          1           0        1.614957    2.048137   -0.833923
     21          1           0       -1.577397    1.333268    1.942228
     22          1           0       -2.798074    1.884783    0.814606
     23          1           0       -2.347164   -1.004904    1.675128
     24          1           0       -3.727428   -0.006910    2.058029
     25          1           0       -0.747847    1.829831   -0.391260
     26          1           0       -4.149734   -1.589969    0.108824
     27          1           0       -4.380346    0.096443   -0.309558
     28          1           0       -3.053411   -0.948043   -2.069878
     29          1           0       -1.920685   -1.595277   -0.897920
     30          1           0        3.508527    0.533101   -1.485029
     31          1           0        4.005240    1.695059   -0.284202
 ---------------------------------------------------------------------
 Rotational constants (GHZ):           1.9346831           0.3985774           0.3926562
 Standard basis: 6-311++G(2d,2p) (5D, 7F)
 There are   557 symmetry adapted cartesian basis functions of A   symmetry.
 There are   531 symmetry adapted basis functions of A   symmetry.
   531 basis functions,   762 primitive gaussians,   557 cartesian basis functions
    51 alpha electrons       51 beta electrons
       nuclear repulsion energy       893.6292964737 Hartrees.
 NAtoms=   31 NActive=   31 NUniq=   31 SFac= 1.00D+00 NAtFMM=   60 NAOKFM=F Big=F
 Integral buffers will be    131072 words long.
 Raffenetti 2 integral format.
 Two-electron integral symmetry is turned on.
 ------------------------------------------------------------------------------
 Polarizable Continuum Model (PCM)
 =================================
 Model                : PCM.
 Atomic radii         : UFF (Universal Force Field).
 Polarization charges : Total charges.
 Charge compensation  : None.
 Solution method      : On-the-fly selection.
 Cavity type          : Scaled VdW (van der Waals Surface) (Alpha=1.100).
 Cavity algorithm     : GePol (No added spheres)
                        Default sphere list used, NSphG=   31.
                        Lebedev-Laikov grids with approx.  5.0 points / Ang**2.
                        Smoothing algorithm: York/Karplus (Gamma=1.0000).
                        Polarization charges: spherical gaussians, with
                                              point-specific exponents (IZeta= 3).
                        Self-potential: point-specific (ISelfS= 7).
                        Self-field    : sphere-specific E.n sum rule (ISelfD= 2).
 1st derivatives      : Analytical E(r).r(x)/FMM algorithm (CHGder, D1EAlg=3).
                        Cavity 1st derivative terms included.
 Solvent              : Water, Eps=  78.355300 Eps(inf)=   1.777849
 ------------------------------------------------------------------------------
 One-electron integrals computed using PRISM.
 NBasis=   531 RedAO= T EigKep=  4.51D-06  NBF=   531
 NBsUse=   531 1.00D-06 EigRej= -1.00D+00 NBFU=   531
 ExpMin= 3.60D-02 ExpMax= 8.59D+03 ExpMxC= 1.30D+03 IAcc=3 IRadAn=         5 AccDes= 0.00D+00
 Harris functional with IExCor= 1009 and IRadAn=       5 diagonalized for initial guess.
 HarFok:  IExCor= 1009 AccDes= 0.00D+00 IRadAn=         5 IDoV= 1 UseB2=F ITyADJ=14
 ICtDFT=  3500011 ScaDFX=  1.000000  1.000000  1.000000  1.000000
 FoFCou: FMM=F IPFlag=           0 FMFlag=      100000 FMFlg1=           0
         NFxFlg=           0 DoJE=T BraDBF=F KetDBF=T FulRan=T
         wScrn=  0.000000 ICntrl=       500 IOpCl=  0 I1Cent=   200000004 NGrid=           0
         NMat0=    1 NMatS0=      1 NMatT0=    0 NMatD0=    1 NMtDS0=    0 NMtDT0=    0
 Petite list used in FoFCou.
 Requested convergence on RMS density matrix=1.00D-08 within 128 cycles.
 Requested convergence on MAX density matrix=1.00D-06.
 Requested convergence on             energy=1.00D-06.
 No special actions if energy rises.
 Inv3:  Mode=1 IEnd=    13054188.
 Iteration    1 A*A^-1 deviation from unit magnitude is 6.33D-15 for   2054.
 Iteration    1 A*A^-1 deviation from orthogonality  is 2.72D-15 for   2086    908.
 Iteration    1 A^-1*A deviation from unit magnitude is 6.33D-15 for   2054.
 Iteration    1 A^-1*A deviation from orthogonality  is 3.35D-14 for   1546   1530.
 Error on total polarization charges =  0.01479
 SCF Done:  E(RM062X) =  -617.494841780     A.U. after   12 cycles
            NFock= 12  Conv=0.42D-08     -V/T= 2.0035

 **********************************************************************

            Population analysis using the SCF density.

 **********************************************************************

 Orbital symmetries:
       Occupied  (A) (A) (A) (A) (A) (A) (A) (A) (A) (A) (A) (A)
                 (A) (A) (A) (A) (A) (A) (A) (A) (A) (A) (A) (A)
                 (A) (A) (A) (A) (A) (A) (A) (A) (A) (A) (A) (A)
                 (A) (A) (A) (A) (A) (A) (A) (A) (A) (A) (A) (A)
                 (A) (A) (A)
       Virtual   (A) (A) (A) (A) (A) (A) (A) (A) (A) (A) (A) (A)
                 (A) (A) (A) (A) (A) (A) (A) (A) (A) (A) (A) (A)
                 (A) (A) (A) (A) (A) (A) (A) (A) (A) (A) (A) (A)
                 (A) (A) (A) (A) (A) (A) (A) (A) (A) (A) (A) (A)
                 (A) (A) (A) (A) (A) (A) (A) (A) (A) (A) (A) (A)
                 (A) (A) (A) (A) (A) (A) (A) (A) (A) (A) (A) (A)
                 (A) (A) (A) (A) (A) (A) (A) (A) (A) (A) (A) (A)
                 (A) (A) (A) (A) (A) (A) (A) (A) (A) (A) (A) (A)
                 (A) (A) (A) (A) (A) (A) (A) (A) (A) (A) (A) (A)
                 (A) (A) (A) (A) (A) (A) (A) (A) (A) (A) (A) (A)
                 (A) (A) (A) (A) (A) (A) (A) (A) (A) (A) (A) (A)
                 (A) (A) (A) (A) (A) (A) (A) (A) (A) (A) (A) (A)
                 (A) (A) (A) (A) (A) (A) (A) (A) (A) (A) (A) (A)
                 (A) (A) (A) (A) (A) (A) (A) (A) (A) (A) (A) (A)
                 (A) (A) (A) (A) (A) (A) (A) (A) (A) (A) (A) (A)
                 (A) (A) (A) (A) (A) (A) (A) (A) (A) (A) (A) (A)
                 (A) (A) (A) (A) (A) (A) (A) (A) (A) (A) (A) (A)
                 (A) (A) (A) (A) (A) (A) (A) (A) (A) (A) (A) (A)
                 (A) (A) (A) (A) (A) (A) (A) (A) (A) (A) (A) (A)
                 (A) (A) (A) (A) (A) (A) (A) (A) (A) (A) (A) (A)
                 (A) (A) (A) (A) (A) (A) (A) (A) (A) (A) (A) (A)
                 (A) (A) (A) (A) (A) (A) (A) (A) (A) (A) (A) (A)
                 (A) (A) (A) (A) (A) (A) (A) (A) (A) (A) (A) (A)
                 (A) (A) (A) (A) (A) (A) (A) (A) (A) (A) (A) (A)
                 (A) (A) (A) (A) (A) (A) (A) (A) (A) (A) (A) (A)
                 (A) (A) (A) (A) (A) (A) (A) (A) (A) (A) (A) (A)
                 (A) (A) (A) (A) (A) (A) (A) (A) (A) (A) (A) (A)
                 (A) (A) (A) (A) (A) (A) (A) (A) (A) (A) (A) (A)
                 (A) (A) (A) (A) (A) (A) (A) (A) (A) (A) (A) (A)
                 (A) (A) (A) (A) (A) (A) (A) (A) (A) (A) (A) (A)
                 (A) (A) (A) (A) (A) (A) (A) (A) (A) (A) (A) (A)
                 (A) (A) (A) (A) (A) (A) (A) (A) (A) (A) (A) (A)
                 (A) (A) (A) (A) (A) (A) (A) (A) (A) (A) (A) (A)
                 (A) (A) (A) (A) (A) (A) (A) (A) (A) (A) (A) (A)
                 (A) (A) (A) (A) (A) (A) (A) (A) (A) (A) (A) (A)
                 (A) (A) (A) (A) (A) (A) (A) (A) (A) (A) (A) (A)
                 (A) (A) (A) (A) (A) (A) (A) (A) (A) (A) (A) (A)
                 (A) (A) (A) (A) (A) (A) (A) (A) (A) (A) (A) (A)
                 (A) (A) (A) (A) (A) (A) (A) (A) (A) (A) (A) (A)
                 (A) (A) (A) (A) (A) (A) (A) (A) (A) (A) (A) (A)
 The electronic state is 1-A.
 Alpha  occ. eigenvalues --  -19.62776 -19.62624 -19.62553 -10.63233 -10.58644
 Alpha  occ. eigenvalues --  -10.57873 -10.57807 -10.57554 -10.53277 -10.53173
 Alpha  occ. eigenvalues --  -10.52933 -10.52892 -10.52717  -1.20104  -1.16469
 Alpha  occ. eigenvalues --   -1.13327  -0.90742  -0.89598  -0.87481  -0.84516
 Alpha  occ. eigenvalues --   -0.75111  -0.74444  -0.73169  -0.71303  -0.64932
 Alpha  occ. eigenvalues --   -0.62552  -0.60194  -0.59268  -0.58140  -0.55761
 Alpha  occ. eigenvalues --   -0.54774  -0.53659  -0.52700  -0.50455  -0.49652
 Alpha  occ. eigenvalues --   -0.47344  -0.46401  -0.46149  -0.45385  -0.45009
 Alpha  occ. eigenvalues --   -0.43440  -0.42768  -0.42160  -0.41091  -0.39539
 Alpha  occ. eigenvalues --   -0.38460  -0.37016  -0.35857  -0.34277  -0.33288
 Alpha  occ. eigenvalues --   -0.32051
 Alpha virt. eigenvalues --   -0.00124   0.00759   0.00931   0.01033   0.02206
 Alpha virt. eigenvalues --    0.02416   0.02606   0.03352   0.03737   0.04378
 Alpha virt. eigenvalues --    0.04441   0.04586   0.05313   0.06007   0.06989
 Alpha virt. eigenvalues --    0.07548   0.07787   0.07920   0.09032   0.09563
 Alpha virt. eigenvalues --    0.10040   0.10420   0.10815   0.11544   0.12119
 Alpha virt. eigenvalues --    0.12232   0.12724   0.12768   0.12965   0.13476
 Alpha virt. eigenvalues --    0.13660   0.13833   0.14089   0.14578   0.14794
 Alpha virt. eigenvalues --    0.15113   0.15241   0.15600   0.16030   0.16358
 Alpha virt. eigenvalues --    0.16764   0.17012   0.17270   0.17289   0.17587
 Alpha virt. eigenvalues --    0.18228   0.18362   0.18454   0.19051   0.19627
 Alpha virt. eigenvalues --    0.20029   0.20294   0.20578   0.20908   0.21645
 Alpha virt. eigenvalues --    0.21971   0.22325   0.22573   0.23496   0.23612
 Alpha virt. eigenvalues --    0.24214   0.24838   0.25482   0.25585   0.27154
 Alpha virt. eigenvalues --    0.27383   0.27852   0.28490   0.28779   0.29614
 Alpha virt. eigenvalues --    0.30083   0.30467   0.30970   0.31493   0.32313
 Alpha virt. eigenvalues --    0.32567   0.32747   0.33905   0.34193   0.34602
 Alpha virt. eigenvalues --    0.34976   0.35322   0.35523   0.35890   0.36269
 Alpha virt. eigenvalues --    0.36992   0.37432   0.37625   0.38142   0.38504
 Alpha virt. eigenvalues --    0.38851   0.39223   0.39780   0.40691   0.40856
 Alpha virt. eigenvalues --    0.41904   0.42795   0.43715   0.44219   0.44774
 Alpha virt. eigenvalues --    0.45819   0.48752   0.49338   0.49744   0.50600
 Alpha virt. eigenvalues --    0.51462   0.53071   0.53323   0.53621   0.54708
 Alpha virt. eigenvalues --    0.55668   0.56800   0.58009   0.58176   0.58760
 Alpha virt. eigenvalues --    0.59398   0.59854   0.60804   0.61394   0.61761
 Alpha virt. eigenvalues --    0.62164   0.62316   0.62875   0.63579   0.63958
 Alpha virt. eigenvalues --    0.64162   0.64706   0.65177   0.65914   0.66699
 Alpha virt. eigenvalues --    0.66885   0.67742   0.69250   0.69450   0.69577
 Alpha virt. eigenvalues --    0.70979   0.71168   0.71990   0.72501   0.72945
 Alpha virt. eigenvalues --    0.73589   0.73832   0.74026   0.75151   0.75634
 Alpha virt. eigenvalues --    0.76122   0.76853   0.77466   0.77684   0.78745
 Alpha virt. eigenvalues --    0.79656   0.83285   0.84303   0.84968   0.85996
 Alpha virt. eigenvalues --    0.86387   0.87351   0.87889   0.88497   0.89125
 Alpha virt. eigenvalues --    0.91442   0.92401   0.92935   0.95087   0.95586
 Alpha virt. eigenvalues --    0.96342   0.98230   0.99307   1.01334   1.02044
 Alpha virt. eigenvalues --    1.02605   1.03189   1.04644   1.05438   1.06223
 Alpha virt. eigenvalues --    1.07792   1.08246   1.09967   1.11664   1.11972
 Alpha virt. eigenvalues --    1.13278   1.14470   1.15166   1.16433   1.16690
 Alpha virt. eigenvalues --    1.17730   1.18057   1.18342   1.20195   1.20430
 Alpha virt. eigenvalues --    1.22390   1.22595   1.23323   1.24220   1.24883
 Alpha virt. eigenvalues --    1.25387   1.25509   1.26553   1.27049   1.27364
 Alpha virt. eigenvalues --    1.27849   1.29002   1.29914   1.30263   1.30759
 Alpha virt. eigenvalues --    1.32323   1.32624   1.33026   1.33277   1.34312
 Alpha virt. eigenvalues --    1.35264   1.35666   1.37024   1.37307   1.37627
 Alpha virt. eigenvalues --    1.38475   1.39553   1.40130   1.40766   1.41273
 Alpha virt. eigenvalues --    1.42209   1.42580   1.43744   1.44123   1.45129
 Alpha virt. eigenvalues --    1.45634   1.46340   1.47140   1.47566   1.47732
 Alpha virt. eigenvalues --    1.48362   1.49345   1.50578   1.50661   1.52007
 Alpha virt. eigenvalues --    1.52547   1.53921   1.54514   1.54824   1.55279
 Alpha virt. eigenvalues --    1.56238   1.56564   1.57172   1.58169   1.58343
 Alpha virt. eigenvalues --    1.59260   1.59581   1.60800   1.61607   1.61761
 Alpha virt. eigenvalues --    1.63370   1.64036   1.64900   1.65291   1.66346
 Alpha virt. eigenvalues --    1.68309   1.68899   1.69098   1.70621   1.71746
 Alpha virt. eigenvalues --    1.71814   1.72887   1.74748   1.75396   1.76257
 Alpha virt. eigenvalues --    1.77966   1.79666   1.80932   1.82031   1.83122
 Alpha virt. eigenvalues --    1.84869   1.86669   1.88974   1.98763   2.00403
 Alpha virt. eigenvalues --    2.02613   2.06086   2.11898   2.15011   2.18742
 Alpha virt. eigenvalues --    2.23368   2.25256   2.28744   2.33382   2.40478
 Alpha virt. eigenvalues --    2.42145   2.42202   2.45136   2.45518   2.50858
 Alpha virt. eigenvalues --    2.60168   2.76105   2.77525   2.79928   2.80699
 Alpha virt. eigenvalues --    2.83758   2.87103   2.90417   2.91376   2.92911
 Alpha virt. eigenvalues --    2.93975   2.95843   2.98721   3.02044   3.02928
 Alpha virt. eigenvalues --    3.03393   3.06211   3.08612   3.10433   3.10955
 Alpha virt. eigenvalues --    3.13546   3.14079   3.15246   3.20124   3.21418
 Alpha virt. eigenvalues --    3.23177   3.29749   3.31605   3.32010   3.33749
 Alpha virt. eigenvalues --    3.34672   3.35952   3.36112   3.38853   3.40281
 Alpha virt. eigenvalues --    3.41388   3.43172   3.43497   3.44993   3.45693
 Alpha virt. eigenvalues --    3.46221   3.48652   3.49753   3.51063   3.51810
 Alpha virt. eigenvalues --    3.52335   3.53113   3.53859   3.54958   3.55804
 Alpha virt. eigenvalues --    3.56950   3.57235   3.57946   3.58706   3.59767
 Alpha virt. eigenvalues --    3.60736   3.62628   3.62950   3.63314   3.64529
 Alpha virt. eigenvalues --    3.65736   3.66953   3.67795   3.68124   3.69603
 Alpha virt. eigenvalues --    3.70693   3.71175   3.73064   3.73465   3.74328
 Alpha virt. eigenvalues --    3.74645   3.75246   3.76558   3.77856   3.79449
 Alpha virt. eigenvalues --    3.80167   3.81247   3.81991   3.83064   3.83860
 Alpha virt. eigenvalues --    3.85886   3.88021   3.90088   3.91912   3.92466
 Alpha virt. eigenvalues --    3.92877   3.94391   3.95712   3.97238   3.98614
 Alpha virt. eigenvalues --    4.00098   4.00757   4.01921   4.03035   4.03676
 Alpha virt. eigenvalues --    4.05510   4.06462   4.07131   4.07531   4.08379
 Alpha virt. eigenvalues --    4.08602   4.09063   4.10441   4.10641   4.11760
 Alpha virt. eigenvalues --    4.12111   4.13513   4.13631   4.14409   4.14886
 Alpha virt. eigenvalues --    4.15620   4.17429   4.17965   4.18844   4.19598
 Alpha virt. eigenvalues --    4.21841   4.22731   4.24598   4.25902   4.26313
 Alpha virt. eigenvalues --    4.28555   4.30041   4.31097   4.31908   4.32436
 Alpha virt. eigenvalues --    4.33128   4.34011   4.35694   4.35902   4.37244
 Alpha virt. eigenvalues --    4.40620   4.41991   4.43220   4.46420   4.50163
 Alpha virt. eigenvalues --    4.58472   4.61113   4.72427   4.75919   4.81492
 Alpha virt. eigenvalues --    4.85144   4.93179   4.95446   5.00793   5.01566
 Alpha virt. eigenvalues --    5.04962   5.06760   5.07853   5.11954   5.12442
 Alpha virt. eigenvalues --    5.14094   5.14855   5.16254   5.32325   5.37102
 Alpha virt. eigenvalues --    5.41465   5.58194   5.60771   5.65495   5.85256
 Alpha virt. eigenvalues --    5.88066   6.06417   7.03459   7.05622   7.07272
 Alpha virt. eigenvalues --    7.07876   7.09873   7.12009   7.13135   7.19163
 Alpha virt. eigenvalues --    7.26656   7.34997   7.37258   7.46169   7.53259
 Alpha virt. eigenvalues --    7.54316   7.66227  23.96102  23.98002  24.05521
 Alpha virt. eigenvalues --   24.06497  24.10676  24.11637  24.11945  24.15103
 Alpha virt. eigenvalues --   24.17292  24.21911  50.17653  50.18541  50.25129
          Condensed to atoms (all electrons):
               1          2          3          4          5          6
     1  C    8.975817   0.025095   0.037285  -0.758615  -1.934401  -0.108099
     2  C    0.025095   5.592488  -0.001401  -0.127318   0.001328   0.017092
     3  O    0.037285  -0.001401   8.227706  -0.016291  -0.025914  -0.059010
     4  C   -0.758615  -0.127318  -0.016291   6.279974   0.218598  -0.094325
     5  C   -1.934401   0.001328  -0.025914   0.218598   7.379631  -0.052134
     6  O   -0.108099   0.017092  -0.059010  -0.094325  -0.052134   8.308427
     7  C    0.124477  -0.002854  -0.009323  -0.068656  -0.045741  -0.091756
     8  C    0.067120   0.001972  -0.000663  -0.023806  -0.010675  -0.025904
     9  C   -1.096951   0.040624   0.259343   0.079010   0.419272   0.388594
    10  C    0.044091  -0.001842  -0.043002  -0.003811  -0.015176  -0.017574
    11  C    0.130840   0.002023   0.091609   0.014000  -0.044377  -0.018136
    12  C    0.331671  -0.234159   0.001062   0.015175  -0.427219  -0.020333
    13  O   -0.000531   0.105023  -0.000120   0.096803  -0.047508   0.024304
    14  H    0.563150  -0.003607   0.001750  -0.056793  -0.100878  -0.025860
    15  H    0.044269   0.518690   0.000048  -0.024955  -0.037861  -0.000119
    16  H   -0.019484   0.407613   0.000033   0.025036  -0.009827   0.001035
    17  H    0.062626   0.013328  -0.000620   0.352679  -0.018880  -0.008264
    18  H   -0.095347   0.034769   0.001010   0.470478   0.009465   0.012521
    19  H   -0.116058  -0.032867  -0.000622  -0.021378   0.512006   0.002779
    20  H   -0.032583  -0.002805   0.001296   0.013299   0.404717   0.001132
    21  H   -0.003775   0.000863   0.007383   0.001832   0.003660   0.000958
    22  H    0.001040  -0.000069  -0.005099   0.000259  -0.001626   0.008298
    23  H   -0.014687   0.000487   0.002284  -0.000548   0.005003  -0.005088
    24  H    0.006118  -0.000112  -0.003673  -0.002584  -0.000733   0.000577
    25  H   -0.000533   0.002917  -0.067290  -0.003301   0.024331  -0.024774
    26  H    0.004574   0.000073   0.009333   0.000689  -0.000649   0.000558
    27  H   -0.004694  -0.000028  -0.002157  -0.000332   0.000262  -0.000347
    28  H    0.012327   0.000217  -0.074880   0.001070  -0.001914   0.000152
    29  H   -0.061801  -0.001454  -0.035855   0.008873   0.024128   0.018429
    30  H   -0.060561  -0.084870  -0.000303  -0.009813   0.008425   0.001908
    31  H   -0.007341  -0.013674  -0.000019   0.004028  -0.011285  -0.001943
               7          8          9         10         11         12
     1  C    0.124477   0.067120  -1.096951   0.044091   0.130840   0.331671
     2  C   -0.002854   0.001972   0.040624  -0.001842   0.002023  -0.234159
     3  O   -0.009323  -0.000663   0.259343  -0.043002   0.091609   0.001062
     4  C   -0.068656  -0.023806   0.079010  -0.003811   0.014000   0.015175
     5  C   -0.045741  -0.010675   0.419272  -0.015176  -0.044377  -0.427219
     6  O   -0.091756  -0.025904   0.388594  -0.017574  -0.018136  -0.020333
     7  C    6.569552  -0.044600  -0.917240  -0.164643   0.216275   0.003452
     8  C   -0.044600   5.648087  -0.104555   0.013838  -0.018680   0.004369
     9  C   -0.917240  -0.104555   7.121525   0.224397  -0.506666  -0.136469
    10  C   -0.164643   0.013838   0.224397   5.667190  -0.060304  -0.006529
    11  C    0.216275  -0.018680  -0.506666  -0.060304   5.544487   0.006609
    12  C    0.003452   0.004369  -0.136469  -0.006529   0.006609   6.017988
    13  O    0.003471   0.001028  -0.001691   0.000011   0.000295   0.013994
    14  H   -0.006654  -0.003994  -0.040829  -0.001974   0.009169   0.017054
    15  H   -0.000434   0.000136  -0.002329  -0.000002   0.000249  -0.095201
    16  H    0.000117  -0.000125  -0.000664   0.000004  -0.000134   0.018780
    17  H   -0.005352  -0.002172  -0.023787   0.004006   0.003747   0.001966
    18  H    0.004052   0.001024   0.010889  -0.000603   0.002575  -0.047992
    19  H   -0.010732   0.000286   0.010662   0.000098  -0.002666   0.005290
    20  H    0.008984   0.002186  -0.013263   0.000333   0.003958   0.016352
    21  H    0.433174  -0.041333  -0.030349  -0.003371   0.003389  -0.000459
    22  H    0.546138  -0.004862  -0.151255  -0.021171   0.015432   0.000661
    23  H   -0.040258   0.523074  -0.018480  -0.074512   0.002287  -0.000227
    24  H   -0.060651   0.418376   0.025574  -0.013386   0.005849   0.000223
    25  H   -0.117482  -0.013935   0.517089   0.017137  -0.029042  -0.021935
    26  H   -0.005404  -0.042441   0.004397   0.434392  -0.033313   0.000033
    27  H   -0.002319  -0.029139  -0.002473   0.499004  -0.088346  -0.000226
    28  H   -0.000657   0.006577  -0.012990  -0.022455   0.441727  -0.000003
    29  H    0.028916  -0.003624   0.017285  -0.090308   0.462123  -0.000551
    30  H   -0.000140  -0.000177   0.002051   0.000141  -0.000938   0.518380
    31  H    0.000030   0.000046   0.001588  -0.000137   0.000032   0.383979
              13         14         15         16         17         18
     1  C   -0.000531   0.563150   0.044269  -0.019484   0.062626  -0.095347
     2  C    0.105023  -0.003607   0.518690   0.407613   0.013328   0.034769
     3  O   -0.000120   0.001750   0.000048   0.000033  -0.000620   0.001010
     4  C    0.096803  -0.056793  -0.024955   0.025036   0.352679   0.470478
     5  C   -0.047508  -0.100878  -0.037861  -0.009827  -0.018880   0.009465
     6  O    0.024304  -0.025860  -0.000119   0.001035  -0.008264   0.012521
     7  C    0.003471  -0.006654  -0.000434   0.000117  -0.005352   0.004052
     8  C    0.001028  -0.003994   0.000136  -0.000125  -0.002172   0.001024
     9  C   -0.001691  -0.040829  -0.002329  -0.000664  -0.023787   0.010889
    10  C    0.000011  -0.001974  -0.000002   0.000004   0.004006  -0.000603
    11  C    0.000295   0.009169   0.000249  -0.000134   0.003747   0.002575
    12  C    0.013994   0.017054  -0.095201   0.018780   0.001966  -0.047992
    13  O    8.376539   0.003211  -0.070189  -0.077654  -0.081367  -0.034456
    14  H    0.003211   0.417481   0.000121   0.000940   0.001957  -0.009070
    15  H   -0.070189   0.000121   0.529457  -0.030141  -0.001064   0.009604
    16  H   -0.077654   0.000940  -0.030141   0.512293   0.000092  -0.004411
    17  H   -0.081367   0.001957  -0.001064   0.000092   0.499724  -0.010340
    18  H   -0.034456  -0.009070   0.009604  -0.004411  -0.010340   0.470998
    19  H   -0.006235   0.003015  -0.004288   0.005598   0.002847  -0.002028
    20  H    0.001735  -0.006245   0.001849  -0.002266  -0.001847   0.002979
    21  H    0.001109  -0.000732   0.000069  -0.000071  -0.000619   0.000261
    22  H    0.000016  -0.000847  -0.000031   0.000049  -0.000457   0.000244
    23  H    0.000276  -0.000579   0.000001   0.000043  -0.002388   0.000366
    24  H    0.000002   0.000147  -0.000005   0.000005   0.000423  -0.000030
    25  H   -0.001553  -0.000307  -0.000188  -0.000067   0.004469  -0.001995
    26  H    0.000024   0.000044   0.000009  -0.000004   0.000661  -0.000037
    27  H   -0.000003  -0.000074   0.000001  -0.000004  -0.000049  -0.000065
    28  H    0.000030  -0.000855   0.000014  -0.000018   0.001521   0.000104
    29  H    0.000625  -0.004380  -0.000354   0.000215  -0.011814   0.000459
    30  H    0.000575  -0.002354  -0.015435   0.008367  -0.001482  -0.008888
    31  H    0.009022  -0.001768   0.002373  -0.011541   0.002128  -0.000703
              19         20         21         22         23         24
     1  C   -0.116058  -0.032583  -0.003775   0.001040  -0.014687   0.006118
     2  C   -0.032867  -0.002805   0.000863  -0.000069   0.000487  -0.000112
     3  O   -0.000622   0.001296   0.007383  -0.005099   0.002284  -0.003673
     4  C   -0.021378   0.013299   0.001832   0.000259  -0.000548  -0.002584
     5  C    0.512006   0.404717   0.003660  -0.001626   0.005003  -0.000733
     6  O    0.002779   0.001132   0.000958   0.008298  -0.005088   0.000577
     7  C   -0.010732   0.008984   0.433174   0.546138  -0.040258  -0.060651
     8  C    0.000286   0.002186  -0.041333  -0.004862   0.523074   0.418376
     9  C    0.010662  -0.013263  -0.030349  -0.151255  -0.018480   0.025574
    10  C    0.000098   0.000333  -0.003371  -0.021171  -0.074512  -0.013386
    11  C   -0.002666   0.003958   0.003389   0.015432   0.002287   0.005849
    12  C    0.005290   0.016352  -0.000459   0.000661  -0.000227   0.000223
    13  O   -0.006235   0.001735   0.001109   0.000016   0.000276   0.000002
    14  H    0.003015  -0.006245  -0.000732  -0.000847  -0.000579   0.000147
    15  H   -0.004288   0.001849   0.000069  -0.000031   0.000001  -0.000005
    16  H    0.005598  -0.002266  -0.000071   0.000049   0.000043   0.000005
    17  H    0.002847  -0.001847  -0.000619  -0.000457  -0.002388   0.000423
    18  H   -0.002028   0.002979   0.000261   0.000244   0.000366  -0.000030
    19  H    0.459379  -0.023759  -0.002822  -0.000504  -0.000398   0.000358
    20  H   -0.023759   0.490056   0.000675   0.001284   0.000386  -0.000139
    21  H   -0.002822   0.000675   0.475693  -0.003729  -0.001593  -0.008939
    22  H   -0.000504   0.001284  -0.003729   0.453523   0.002584  -0.003492
    23  H   -0.000398   0.000386  -0.001593   0.002584   0.462001  -0.007260
    24  H    0.000358  -0.000139  -0.008939  -0.003492  -0.007260   0.469620
    25  H    0.002598  -0.012373  -0.006732  -0.018493  -0.004767   0.003375
    26  H   -0.000062   0.000032   0.001224  -0.003112  -0.005442  -0.006252
    27  H    0.000075  -0.000179  -0.001545  -0.001415   0.001890  -0.003322
    28  H   -0.000077   0.000228   0.001200   0.000194  -0.002584   0.001442
    29  H    0.000203  -0.000476  -0.000166  -0.000551   0.001140  -0.001967
    30  H    0.001312  -0.005449  -0.000082   0.000001  -0.000010   0.000009
    31  H    0.001672  -0.011160   0.000118  -0.000063   0.000011   0.000003
              25         26         27         28         29         30
     1  C   -0.000533   0.004574  -0.004694   0.012327  -0.061801  -0.060561
     2  C    0.002917   0.000073  -0.000028   0.000217  -0.001454  -0.084870
     3  O   -0.067290   0.009333  -0.002157  -0.074880  -0.035855  -0.000303
     4  C   -0.003301   0.000689  -0.000332   0.001070   0.008873  -0.009813
     5  C    0.024331  -0.000649   0.000262  -0.001914   0.024128   0.008425
     6  O   -0.024774   0.000558  -0.000347   0.000152   0.018429   0.001908
     7  C   -0.117482  -0.005404  -0.002319  -0.000657   0.028916  -0.000140
     8  C   -0.013935  -0.042441  -0.029139   0.006577  -0.003624  -0.000177
     9  C    0.517089   0.004397  -0.002473  -0.012990   0.017285   0.002051
    10  C    0.017137   0.434392   0.499004  -0.022455  -0.090308   0.000141
    11  C   -0.029042  -0.033313  -0.088346   0.441727   0.462123  -0.000938
    12  C   -0.021935   0.000033  -0.000226  -0.000003  -0.000551   0.518380
    13  O   -0.001553   0.000024  -0.000003   0.000030   0.000625   0.000575
    14  H   -0.000307   0.000044  -0.000074  -0.000855  -0.004380  -0.002354
    15  H   -0.000188   0.000009   0.000001   0.000014  -0.000354  -0.015435
    16  H   -0.000067  -0.000004  -0.000004  -0.000018   0.000215   0.008367
    17  H    0.004469   0.000661  -0.000049   0.001521  -0.011814  -0.001482
    18  H   -0.001995  -0.000037  -0.000065   0.000104   0.000459  -0.008888
    19  H    0.002598  -0.000062   0.000075  -0.000077   0.000203   0.001312
    20  H   -0.012373   0.000032  -0.000179   0.000228  -0.000476  -0.005449
    21  H   -0.006732   0.001224  -0.001545   0.001200  -0.000166  -0.000082
    22  H   -0.018493  -0.003112  -0.001415   0.000194  -0.000551   0.000001
    23  H   -0.004767  -0.005442   0.001890  -0.002584   0.001140  -0.000010
    24  H    0.003375  -0.006252  -0.003322   0.001442  -0.001967   0.000009
    25  H    0.469767   0.001960  -0.000304   0.000330  -0.000989   0.000342
    26  H    0.001960   0.490807  -0.012096  -0.008384  -0.001683  -0.000013
    27  H   -0.000304  -0.012096   0.482454  -0.006530   0.004835   0.000012
    28  H    0.000330  -0.008384  -0.006530   0.481119  -0.019510  -0.000089
    29  H   -0.000989  -0.001683   0.004835  -0.019510   0.533315   0.000433
    30  H    0.000342  -0.000013   0.000012  -0.000089   0.000433   0.462375
    31  H    0.001233  -0.000002   0.000004   0.000018  -0.000047  -0.007584
              31
     1  C   -0.007341
     2  C   -0.013674
     3  O   -0.000019
     4  C    0.004028
     5  C   -0.011285
     6  O   -0.001943
     7  C    0.000030
     8  C    0.000046
     9  C    0.001588
    10  C   -0.000137
    11  C    0.000032
    12  C    0.383979
    13  O    0.009022
    14  H   -0.001768
    15  H    0.002373
    16  H   -0.011541
    17  H    0.002128
    18  H   -0.000703
    19  H    0.001672
    20  H   -0.011160
    21  H    0.000118
    22  H   -0.000063
    23  H    0.000011
    24  H    0.000003
    25  H    0.001233
    26  H   -0.000002
    27  H    0.000004
    28  H    0.000018
    29  H   -0.000047
    30  H   -0.007584
    31  H    0.493709
 Mulliken charges:
               1
     1  C   -0.115039
     2  C   -0.257542
     3  O   -0.293898
     4  C   -0.369279
     5  C   -0.224027
     6  O   -0.233099
     7  C   -0.343741
     8  C   -0.317433
     9  C   -0.062309
    10  C   -0.363841
    11  C   -0.154074
    12  C   -0.365735
    13  O   -0.316786
    14  H    0.249761
    15  H    0.175707
    16  H    0.176190
    17  H    0.218329
    18  H    0.184167
    19  H    0.216318
    20  H    0.161063
    21  H    0.174709
    22  H    0.187056
    23  H    0.176990
    24  H    0.180443
    25  H    0.280514
    26  H    0.170086
    27  H    0.167110
    28  H    0.202678
    29  H    0.134551
    30  H    0.193857
    31  H    0.167274
 Sum of Mulliken charges =  -0.00000
 Mulliken charges with hydrogens summed into heavy atoms:
               1
     1  C    0.134721
     2  C    0.094356
     3  O   -0.293898
     4  C    0.033217
     5  C    0.153353
     6  O   -0.233099
     7  C    0.018024
     8  C    0.040000
     9  C    0.218205
    10  C   -0.026645
    11  C    0.183155
    12  C   -0.004603
    13  O   -0.316786
 Electronic spatial extent (au):  <R**2>=           3073.0586
 Charge=             -0.0000 electrons
 Dipole moment (field-independent basis, Debye):
    X=              0.2062    Y=              1.0674    Z=             -1.2296  Tot=              1.6413
 Quadrupole moment (field-independent basis, Debye-Ang):
   XX=            -70.3264   YY=            -78.2542   ZZ=            -83.4641
   XY=              6.1326   XZ=             -6.6364   YZ=              5.1468
 Traceless Quadrupole moment (field-independent basis, Debye-Ang):
   XX=              7.0218   YY=             -0.9059   ZZ=             -6.1159
   XY=              6.1326   XZ=             -6.6364   YZ=              5.1468
 Octapole moment (field-independent basis, Debye-Ang**2):
  XXX=             12.1270  YYY=              0.9540  ZZZ=             -0.2847  XYY=             -4.6120
  XXY=              5.4786  XXZ=             -4.0810  XZZ=              0.6086  YZZ=             -0.7272
  YYZ=             -3.9759  XYZ=              2.0734
 Hexadecapole moment (field-independent basis, Debye-Ang**3):
 XXXX=          -3023.4327 YYYY=           -480.0904 ZZZZ=           -430.7117 XXXY=             37.3704
 XXXZ=              3.6786 YYYX=              1.6761 YYYZ=             -1.4470 ZZZX=              6.7521
 ZZZY=             10.1879 XXYY=           -615.1310 XXZZ=           -603.6303 YYZZ=           -157.3327
 XXYZ=             35.4179 YYXZ=             -6.8424 ZZXY=             11.0592
 N-N= 8.936292964737D+02 E-N=-3.229296303206D+03  KE= 6.153399889573D+02
 D1PCM: PCM CHGder 1st derivatives, ID1Alg=3 FixD1E=F DoIter=F DoCFld=F I1PDM=0.
 Calling FoFJK, ICntrl=      2127 FMM=F ISym2X=0 I1Cent= 0 IOpClX= 0 NMat=1 NMatS=1 NMatT=0.
 ***** Axes restored to original set *****
 -------------------------------------------------------------------
 Center     Atomic                   Forces (Hartrees/Bohr)
 Number     Number              X              Y              Z
 -------------------------------------------------------------------
      1        6          -0.000159850    0.001189862    0.001888838
      2        6          -0.004597134    0.001331161   -0.004506572
      3        8           0.000538014    0.006103046   -0.009902893
      4        6           0.003440416    0.006179749    0.000538034
      5        6           0.001843974   -0.003054255   -0.001869952
      6        8           0.000350055   -0.006509136    0.010287180
      7        6           0.000590788   -0.002751626    0.000108575
      8        6           0.000718195    0.001552216   -0.003545233
      9        6          -0.004250650   -0.006412362    0.001991986
     10        6           0.002580948   -0.000775243    0.000818938
     11        6          -0.000901434    0.003272864    0.005881731
     12        6          -0.000877903   -0.000131648    0.001775558
     13        8          -0.002841031   -0.002968952    0.008420800
     14        1          -0.001730691    0.000468785   -0.006656511
     15        1           0.004242191   -0.002194079   -0.002784486
     16        1           0.001245754    0.002174940    0.004106726
     17        1          -0.004183381   -0.002676955    0.001461076
     18        1           0.002221064   -0.001459319   -0.005597228
     19        1          -0.001051848   -0.000380278    0.003970781
     20        1          -0.000801573    0.002489731   -0.001946630
     21        1           0.001865045    0.000512515    0.002555223
     22        1          -0.002162371    0.002285318   -0.001276409
     23        1           0.002815201   -0.002290752    0.000394114
     24        1          -0.001818673    0.000564780    0.001744462
     25        1           0.002797821    0.007264855   -0.002621196
     26        1          -0.001492486   -0.002361132    0.000594278
     27        1          -0.001734294    0.002651940   -0.001058559
     28        1          -0.001976859   -0.000597200   -0.003908881
     29        1           0.003746399   -0.004661122    0.002373108
     30        1          -0.000003100   -0.001140499   -0.003282493
     31        1           0.001587414    0.002322794    0.000045635
 -------------------------------------------------------------------
 Cartesian Forces:  Max     0.010287180 RMS     0.003335459

 GradGradGradGradGradGradGradGradGradGradGradGradGradGradGradGradGradGrad
 Berny optimization.
 FormGI is forming the generalized inverse of G from B-inverse, IUseBI=4.
 Internal  Forces:  Max     0.011382369 RMS     0.002010950
 Search for a local minimum.
 Step number   1 out of a maximum of  186
 All quantities printed in internal units (Hartrees-Bohrs-Radians)
 Mixed Optimization -- RFO/linear search
 Second derivative matrix not updated -- first step.
 ITU=  0
     Eigenvalues ---    0.00421   0.00611   0.00625   0.00727   0.01411
     Eigenvalues ---    0.01411   0.01453   0.02699   0.02771   0.03072
     Eigenvalues ---    0.03351   0.04092   0.04266   0.04645   0.04745
     Eigenvalues ---    0.04822   0.04867   0.04929   0.05115   0.05201
     Eigenvalues ---    0.05220   0.05631   0.05680   0.06022   0.06166
     Eigenvalues ---    0.06380   0.06838   0.06862   0.07353   0.07837
     Eigenvalues ---    0.07853   0.07880   0.07967   0.08117   0.08167
     Eigenvalues ---    0.08228   0.08873   0.10232   0.11221   0.11577
     Eigenvalues ---    0.11657   0.11759   0.11780   0.12400   0.12696
     Eigenvalues ---    0.14472   0.14716   0.16057   0.18438   0.18993
     Eigenvalues ---    0.20129   0.21620   0.22480   0.25000   0.27393
     Eigenvalues ---    0.27494   0.28523   0.28614   0.28841   0.28939
     Eigenvalues ---    0.29584   0.30338   0.35092   0.35199   0.35211
     Eigenvalues ---    0.35240   0.35262   0.35274   0.35287   0.35316
     Eigenvalues ---    0.35320   0.35421   0.35436   0.35441   0.35534
     Eigenvalues ---    0.35564   0.35767   0.35842   0.35949   0.35995
     Eigenvalues ---    0.40216   0.40842   0.41638   0.42272   0.43166
     Eigenvalues ---    0.461111000.000001000.000001000.000001000.00000
     Eigenvalues --- 1000.000001000.000001000.000001000.000001000.00000
     Eigenvalues --- 1000.000001000.000001000.000001000.000001000.00000
     Eigenvalues --- 1000.000001000.000001000.000001000.000001000.00000
     Eigenvalues --- 1000.000001000.000001000.000001000.000001000.00000
     Eigenvalues --- 1000.000001000.000001000.000001000.000001000.00000
     Eigenvalues --- 1000.000001000.000001000.000001000.000001000.00000
     Eigenvalues --- 1000.000001000.000001000.000001000.000001000.00000
     Eigenvalues --- 1000.000001000.000001000.000001000.000001000.00000
     Eigenvalues --- 1000.000001000.000001000.000001000.000001000.00000
     Eigenvalues --- 1000.000001000.000001000.000001000.000001000.00000
     Eigenvalues --- 1000.000001000.000001000.000001000.000001000.00000
     Eigenvalues --- 1000.000001000.000001000.000001000.000001000.00000
     Eigenvalues --- 1000.000001000.000001000.000001000.000001000.00000
     Eigenvalues --- 1000.000001000.000001000.000001000.000001000.00000
     Eigenvalues --- 1000.000001000.000001000.000001000.000001000.00000
     Eigenvalues --- 1000.000001000.000001000.000001000.000001000.00000
     Eigenvalues --- 1000.000001000.000001000.000001000.000001000.00000
     Eigenvalues --- 1000.000001000.000001000.000001000.000001000.00000
     Eigenvalues --- 1000.000001000.000001000.000001000.000001000.00000
 RFO step:  Lambda=-3.06540361D-03 EMin= 4.20948900D-03
 Linear search not attempted -- first point.
 Iteration  1 RMS(Cart)=  0.03010693 RMS(Int)=  0.00027496
 Iteration  2 RMS(Cart)=  0.00061601 RMS(Int)=  0.00004951
 Iteration  3 RMS(Cart)=  0.00000017 RMS(Int)=  0.00004951
 Iteration  1 RMS(Cart)=  0.00000811 RMS(Int)=  0.00000175
 Iteration  2 RMS(Cart)=  0.00000425 RMS(Int)=  0.00000195
 Iteration  3 RMS(Cart)=  0.00000223 RMS(Int)=  0.00000220
 Iteration  4 RMS(Cart)=  0.00000117 RMS(Int)=  0.00000235
 Iteration  5 RMS(Cart)=  0.00000061 RMS(Int)=  0.00000244
 Variable       Old X    -DE/DX   Delta X   Delta X   Delta X     New X
                                 (Linear)    (Quad)   (Total)
    R1        2.88514  -0.00037   0.00000  -0.00159  -0.00158   2.88356
    R2        2.90329  -0.00073   0.00000  -0.00390  -0.00389   2.89940
    R3        2.68578   0.00111   0.00000   0.00262   0.00262   2.68839
    R4        2.04768   0.00687   0.00000   0.01916   0.01916   2.06685
    R5        2.89421   0.00054   0.00000   0.00271   0.00271   2.89692
    R6        2.68481   0.00350   0.00000   0.00943   0.00943   2.69423
    R7        2.05212   0.00542   0.00000   0.01523   0.01523   2.06735
    R8        2.04448   0.00478   0.00000   0.01326   0.01326   2.05774
    R9        2.65579   0.00355   0.00000   0.00788   0.00788   2.66367
   R10        2.68652   0.00295   0.00000   0.00677   0.00677   2.69329
   R11        2.66524   0.00276   0.00000   0.00650   0.00650   2.67174
   R12        2.04162   0.00499   0.00000   0.01375   0.01375   2.05537
   R13        2.05158   0.00610   0.00000   0.01714   0.01714   2.06871
   R14        2.88754  -0.00029   0.00000  -0.00205  -0.00206   2.88548
   R15        2.05233   0.00384   0.00000   0.01078   0.01078   2.06311
   R16        2.04817   0.00326   0.00000   0.00909   0.00909   2.05726
   R17        2.64006   0.00340   0.00000   0.00732   0.00732   2.64738
   R18        2.89020  -0.00145   0.00000  -0.00461  -0.00462   2.88558
   R19        2.87420  -0.00070   0.00000  -0.00204  -0.00206   2.87213
   R20        2.04972   0.00318   0.00000   0.00891   0.00891   2.05863
   R21        2.05334   0.00334   0.00000   0.00940   0.00940   2.06274
   R22        2.88893  -0.00083   0.00000  -0.00279  -0.00280   2.88614
   R23        2.05353   0.00346   0.00000   0.00974   0.00974   2.06327
   R24        2.05165   0.00258   0.00000   0.00724   0.00724   2.05889
   R25        2.04090   0.00819   0.00000   0.02256   0.02256   2.06345
   R26        2.87171   0.00011   0.00000   0.00011   0.00013   2.87184
   R27        2.05287   0.00284   0.00000   0.00798   0.00798   2.06085
   R28        2.05525   0.00327   0.00000   0.00923   0.00923   2.06448
   R29        2.04330   0.00442   0.00000   0.01222   0.01222   2.05552
   R30        2.04996   0.00633   0.00000   0.01771   0.01771   2.06767
   R31        2.05252   0.00344   0.00000   0.00967   0.00967   2.06220
   R32        2.04965   0.00278   0.00000   0.00779   0.00779   2.05744
    A1        1.91886   0.00038   0.00000  -0.00593  -0.00605   1.91281
    A2        1.88369  -0.00109   0.00000  -0.00462  -0.00460   1.87909
    A3        1.88880   0.00079   0.00000   0.00908   0.00912   1.89792
    A4        1.94372   0.00068   0.00000  -0.00062  -0.00061   1.94310
    A5        1.93044  -0.00105   0.00000  -0.00165  -0.00161   1.92882
    A6        1.89685   0.00029   0.00000   0.00407   0.00405   1.90090
    A7        1.95153   0.00185   0.00000   0.00528   0.00518   1.95670
    A8        1.93821  -0.00114   0.00000  -0.00597  -0.00600   1.93222
    A9        1.93225  -0.00092   0.00000  -0.00646  -0.00642   1.92583
   A10        1.90377   0.00047   0.00000   0.00788   0.00796   1.91173
   A11        1.84369  -0.00085   0.00000  -0.00217  -0.00215   1.84155
   A12        1.89110   0.00060   0.00000   0.00175   0.00171   1.89280
   A13        2.02270  -0.00577   0.00000  -0.03562  -0.03557   1.98712
   A14        1.94035   0.00073   0.00000   0.00043   0.00027   1.94062
   A15        1.92710  -0.00159   0.00000  -0.01583  -0.01582   1.91127
   A16        1.92131  -0.00068   0.00000  -0.00065  -0.00067   1.92064
   A17        1.87094  -0.00038   0.00000  -0.00083  -0.00085   1.87008
   A18        1.91314   0.00125   0.00000   0.01333   0.01336   1.92651
   A19        1.88969   0.00070   0.00000   0.00380   0.00374   1.89344
   A20        1.91756  -0.00055   0.00000  -0.00651  -0.00668   1.91088
   A21        1.89495  -0.00032   0.00000  -0.00871  -0.00867   1.88629
   A22        1.93518  -0.00004   0.00000   0.00192   0.00199   1.93718
   A23        1.91023   0.00087   0.00000   0.00384   0.00382   1.91405
   A24        1.93057  -0.00018   0.00000   0.00249   0.00253   1.93310
   A25        1.87441   0.00026   0.00000   0.00711   0.00708   1.88149
   A26        2.03489  -0.01138   0.00000  -0.04498  -0.04498   1.98991
   A27        1.95263  -0.00172   0.00000  -0.01362  -0.01379   1.93884
   A28        1.94721  -0.00026   0.00000  -0.00216  -0.00223   1.94498
   A29        1.91046   0.00118   0.00000   0.00719   0.00728   1.91774
   A30        1.90049   0.00076   0.00000  -0.00119  -0.00117   1.89931
   A31        1.87392   0.00012   0.00000   0.00402   0.00403   1.87796
   A32        1.87613  -0.00001   0.00000   0.00680   0.00677   1.88290
   A33        1.91386   0.00190   0.00000  -0.00184  -0.00185   1.91201
   A34        1.92208  -0.00095   0.00000  -0.00613  -0.00615   1.91593
   A35        1.91630  -0.00055   0.00000   0.00171   0.00172   1.91801
   A36        1.91439  -0.00086   0.00000  -0.00186  -0.00194   1.91245
   A37        1.93007  -0.00024   0.00000   0.00215   0.00220   1.93227
   A38        1.86674   0.00064   0.00000   0.00608   0.00609   1.87283
   A39        1.93797   0.00039   0.00000  -0.00193  -0.00182   1.93616
   A40        1.94265   0.00343   0.00000   0.00911   0.00890   1.95155
   A41        1.82977  -0.00232   0.00000  -0.00355  -0.00357   1.82620
   A42        1.89901  -0.00327   0.00000  -0.01923  -0.01916   1.87984
   A43        1.92117   0.00172   0.00000   0.01406   0.01405   1.93522
   A44        1.93293   0.00020   0.00000   0.00272   0.00280   1.93573
   A45        1.92409  -0.00103   0.00000  -0.00655  -0.00674   1.91734
   A46        1.93893  -0.00051   0.00000  -0.00132  -0.00129   1.93764
   A47        1.91588   0.00092   0.00000   0.00168   0.00176   1.91763
   A48        1.90307   0.00059   0.00000   0.00385   0.00390   1.90698
   A49        1.90533   0.00008   0.00000  -0.00098  -0.00093   1.90439
   A50        1.87564  -0.00001   0.00000   0.00360   0.00356   1.87920
   A51        1.94483   0.00234   0.00000   0.00567   0.00559   1.95042
   A52        1.84219  -0.00137   0.00000  -0.00228  -0.00228   1.83991
   A53        1.90929   0.00019   0.00000   0.00173   0.00181   1.91110
   A54        1.94559  -0.00025   0.00000  -0.00187  -0.00180   1.94379
   A55        1.93193  -0.00166   0.00000  -0.00746  -0.00749   1.92444
   A56        1.88703   0.00077   0.00000   0.00456   0.00455   1.89158
   A57        1.91696  -0.00053   0.00000  -0.00876  -0.00885   1.90812
   A58        1.92824   0.00067   0.00000   0.00277   0.00276   1.93100
   A59        1.90523  -0.00010   0.00000   0.00409   0.00412   1.90934
   A60        1.91351  -0.00042   0.00000  -0.00203  -0.00204   1.91148
   A61        1.93463   0.00046   0.00000   0.00247   0.00254   1.93717
   A62        1.86477  -0.00005   0.00000   0.00187   0.00184   1.86662
   A63        1.97978  -0.00448   0.00000  -0.02731  -0.02735   1.95242
    D1        0.55457   0.00166   0.00000   0.01231   0.01232   0.56690
    D2        2.62885   0.00063   0.00000   0.00131   0.00133   2.63018
    D3       -1.56885   0.00006   0.00000  -0.00438  -0.00433  -1.57318
    D4       -1.56863   0.00128   0.00000   0.01954   0.01952  -1.54911
    D5        0.50564   0.00025   0.00000   0.00853   0.00852   0.51416
    D6        2.59112  -0.00032   0.00000   0.00285   0.00286   2.59399
    D7        2.66473   0.00110   0.00000   0.01236   0.01233   2.67706
    D8       -1.54418   0.00007   0.00000   0.00135   0.00134  -1.54284
    D9        0.54130  -0.00051   0.00000  -0.00433  -0.00432   0.53698
[...]
 078,-0.00012123,-0.00021133,-0.00011712,-0.00012286,-0.00002734,-0.000
 04915,-0.00018636,-0.00005921,0.00019261,-0.00001136,-0.00000180,0.000
 01188,-0.00001353,-0.00000895,-0.00000082,0.00006347,-0.00008812,-0.00
 001299,-0.00008267,0.00003474,0.00000925,-0.00012144,-0.00000252,-0.00
 027363,0.00055355,-0.00015284,0.00022042,-0.00095462,-0.00012495,0.000
 60099,-0.00036458,-0.00046477,0.00091134,-0.00022514,0.00000311,0.0000
 0698,0.00091791,0.00135480,-0.00014362,-0.02437898,-0.05475068,0.07734
 281,0.00025203,0.00002293,-0.00015566,0.00002392,0.00000431,0.00000407
 ,-0.00471765,-0.00146440,0.00422111,0.00001069,-0.00004844,0.00004472,
 -0.00003686,0.00002098,0.00003158,-0.00057212,0.00024974,-0.00010295,0
 .00003178,0.00027845,-0.00298145,-0.00732802,-0.01130251,0.00106075,0.
 00147254,0.00048258,0.00119978,-0.10708858,-0.10771912,0.01189369,-0.0
 0936878,-0.02067388,-0.00127593,0.00000239,-0.00001996,-0.00001190,-0.
 00005638,0.00001240,-0.00003211,0.00001218,-0.00001969,0.00000071,-0.0
 0000678,0.00000544,0.00000027,-0.00000438,-0.00000209,-0.00000298,0.00
 000331,-0.00000296,-0.00000415,-0.00002547,0.00001878,-0.00000191,0.00
 000508,-0.00000393,0.00000272,0.00000560,0.00000375,-0.00000632,-0.000
 21432,-0.00072331,0.00019026,-0.00002613,-0.00032258,0.00007371,0.0002
 1693,0.00015347,0.00052379,0.00047666,0.00039334,-0.00001044,-0.000047
 94,-0.00003130,-0.00012175,0.11442157,0.00015714,0.00002046,-0.0000860
 4,0.00001595,0.00000327,0.00000113,0.00006469,0.00162635,-0.00057366,0
 .00000650,-0.00002114,0.00003498,-0.00002683,0.00001310,0.00001366,-0.
 00033960,0.00008365,0.00007608,-0.00066781,0.00112913,-0.00217487,-0.0
 0224790,-0.00603765,0.00107187,0.00082817,-0.00005971,-0.00014708,-0.1
 1005273,-0.25407916,0.02060427,0.00236205,0.00173594,-0.00016458,0.000
 00028,-0.00001314,-0.00000723,-0.00003352,0.00000422,-0.00001865,-0.00
 000741,-0.00000524,0.00000656,-0.00000409,0.00000313,0.00000028,-0.000
 00269,-0.00000163,-0.00000157,0.00000147,-0.00000408,-0.00000189,-0.00
 001677,0.00001270,-0.00000136,0.00000260,-0.00000180,0.00000177,0.0000
 0215,0.00000235,-0.00000351,-0.00058310,-0.00039248,0.00028073,0.00022
 968,0.00034965,-0.00000615,-0.00007741,0.00068452,-0.00023363,0.000251
 60,-0.00002841,-0.00012333,-0.00001080,-0.00002027,0.00011325,0.121177
 54,0.27305346,-0.00006827,0.00000746,0.00000564,-0.00000878,-0.0000030
 0,0.00000013,0.00699812,0.00187322,-0.00330395,-0.00002217,0.00002113,
 0.00001321,-0.00000240,-0.00000424,-0.00000497,0.00028082,-0.00011284,
 0.00043574,-0.00255208,-0.00065250,-0.00582999,-0.01466803,-0.02723239
 ,0.00380918,-0.00059943,-0.00052481,-0.00246991,0.01241882,0.02039637,
 -0.04915837,0.00724297,0.02187831,0.00024507,-0.00000166,0.00000270,0.
 00000113,0.00002286,-0.00000795,0.00001179,-0.00003364,0.00001386,0.00
 003983,0.00000201,-0.00000086,-0.00000011,0.00000169,0.00000082,0.0000
 0062,0.00000103,-0.00000151,0.00000007,0.00000439,0.00000035,-0.000000
 30,0.00000422,0.00000417,0.00000133,-0.00000158,0.00000196,-0.00000132
 ,-0.00125935,-0.00151569,0.00026785,0.00020577,0.00007739,-0.00003122,
 0.00046555,0.00069171,0.00128649,0.00094883,0.00030718,0.00114520,0.00
 000588,0.00015016,0.00037700,-0.01207461,-0.02143368,0.05355080,0.0001
 7405,-0.00002176,-0.00005787,0.00001263,0.00000384,-0.00000091,0.00219
 520,-0.00060814,-0.00106018,0.00003085,-0.00000537,0.00001750,-0.00002
 335,0.00000773,0.00001753,-0.00006201,-0.00017822,-0.00004225,0.000147
 01,0.00077002,0.00036470,-0.00947367,0.00931409,-0.00426372,-0.0002885
 5,0.00008676,-0.00003326,-0.16429660,0.11813103,-0.04595604,-0.0177944
 6,0.01826340,-0.00480169,-0.00000204,-0.00001205,-0.00000445,-0.000028
 17,-0.00000421,-0.00001109,0.00000756,0.00000276,0.00001288,-0.0000029
 8,0.00000184,0.00000070,-0.00000228,-0.00000167,-0.00000101,0.00000417
 ,-0.00000910,0.00000268,-0.00000945,0.00000556,-0.00000036,0.00000079,
 0.00000110,0.00000003,-0.00000177,-0.00000102,-0.00000224,0.00021398,-
 0.00020252,0.00002008,-0.00025737,-0.00047640,0.00000054,-0.00015254,-
 0.00090625,-0.00238443,0.00072806,-0.00035229,0.00013784,-0.00008519,-
 0.00001227,0.00001353,0.01141878,-0.01024787,0.00412184,0.17875336,-0.
 00016287,-0.00002799,0.00012001,-0.00001264,-0.00000317,-0.00000041,0.
 00015997,0.00202963,0.00002786,-0.00000811,0.00001708,-0.00002834,0.00
 002229,-0.00000471,-0.00001561,0.00035409,-0.00002106,0.00007694,-0.00
 034253,0.00108734,-0.00009692,-0.00640138,0.00561170,-0.00192806,-0.00
 028144,-0.00007074,-0.00041430,0.11999038,-0.17478319,0.04738784,0.001
 22385,-0.00419513,0.00057677,-0.00000026,0.00000876,0.00000469,0.00002
 672,0.00000024,0.00001411,-0.00001666,0.00000449,-0.00001184,0.0000032
 4,-0.00000212,-0.00000037,0.00000243,0.00000110,0.00000126,-0.00000539
 ,0.00000347,0.00000019,0.00001143,-0.00001012,0.00000143,-0.00000287,-
 0.00000033,-0.00000175,-0.00000073,-0.00000093,0.00000337,0.00015273,0
 .00013684,0.00003830,0.00033232,0.00004134,-0.00008493,-0.00127298,0.0
 0064944,-0.00153464,0.00024689,0.00039571,0.00064192,0.00007274,0.0000
 0541,0.00004174,0.01881852,-0.01851325,0.00665777,-0.13306346,0.186267
 50,-0.00004336,-0.00006900,0.00001051,-0.00000098,-0.00000066,0.000001
 78,-0.00251578,0.00023491,0.00094734,-0.00001330,-0.00000415,-0.000004
 92,-0.00000610,0.00000777,0.00001570,-0.00002561,0.00017714,0.00023005
 ,0.00093333,0.00105535,0.00106346,-0.02099476,0.02141239,-0.01036171,0
 .00002491,-0.00018294,-0.00033705,-0.04649056,0.04854640,-0.06475327,0
 .01895081,-0.02010606,0.00519650,-0.00000097,-0.00000343,-0.00000343,0
 .00000462,0.00000403,0.00000373,-0.00003299,-0.00001153,0.00001596,-0.
 00000014,0.00000040,-0.00000031,0.00000046,0.00000031,-0.00000005,-0.0
 0000296,0.00000374,-0.00000608,-0.00000163,0.00000016,0.00000113,0.000
 00433,-0.00000053,-0.00000207,0.00000123,0.00000170,-0.00000153,0.0004
 1148,-0.00016175,-0.00001196,0.00003931,-0.00068495,0.00024413,-0.0028
 0989,-0.00234068,-0.00478402,0.00084703,0.00030318,0.00111338,-0.00005
 122,0.00003011,0.00011105,-0.00172687,0.00193156,-0.00159596,0.0503549
 8,-0.05028604,0.07476661,0.00057081,-0.00000660,-0.00029277,0.00003999
 ,0.00000976,0.00000222,-0.01171101,-0.01039796,-0.01795861,0.00005789,
 -0.00003596,0.00006811,-0.00010101,0.00002862,0.00005030,-0.00055293,-
 0.00032480,-0.00021104,-0.00039790,-0.00019952,-0.00019191,-0.00398550
 ,0.00009872,0.00298042,-0.00039133,-0.00195247,0.00300611,0.01167272,0
 .00473599,0.02313221,-0.09348894,-0.01300724,-0.09678928,0.00000711,-0
 .00003350,-0.00001755,-0.00009719,0.00000313,-0.00004312,0.00000188,-0
 .00001542,0.00002103,-0.00001242,0.00000850,-0.00000005,-0.00000867,-0
 .00000440,-0.00000414,0.00000710,-0.00002476,-0.00000005,-0.00004397,0
 .00002531,0.00000074,0.00000551,-0.00000319,0.00001285,0.00000910,0.00
 000511,-0.00001290,0.00017824,0.00008198,-0.00015546,0.00005358,0.0000
 5353,-0.00003827,0.00005316,-0.00014192,0.00008945,0.00059866,0.000442
 80,0.00142441,-0.00039751,-0.00040493,-0.00084588,0.00065535,-0.000383
 21,-0.00113065,0.00112031,0.00000468,-0.00093251,0.10362252,0.00019325
 ,0.00010697,-0.00012136,0.00000534,0.00000196,0.00001148,-0.02253828,-
 0.01568390,-0.03238673,-0.00004203,-0.00004955,0.00004827,-0.00000366,
 -0.00001914,0.00002111,-0.00038780,0.00170263,-0.00015591,-0.00039059,
 -0.00011803,0.00008359,-0.00003626,0.00087452,0.00005409,0.00000645,-0
 .00519335,0.00448869,0.00073025,0.00031375,-0.00318045,-0.00850406,-0.
 05286447,-0.02682874,0.00001657,0.00001712,-0.00002165,-0.00002960,0.0
 0001712,-0.00002153,0.00001703,-0.00003214,0.00001850,-0.00000566,0.00
 000617,-0.00000236,-0.00000205,-0.00000067,-0.00000316,-0.00000263,0.0
 0001119,-0.00000596,-0.00002041,0.00001845,-0.00000283,0.00001447,-0.0
 0000814,0.00000563,0.00000468,0.00002708,-0.00002609,0.00014832,0.0000
 9466,-0.00017398,0.00001126,0.00000763,-0.00000336,-0.00017360,0.00001
 941,-0.00035548,-0.00008714,0.00026805,0.00008198,-0.00071754,-0.00060
 013,-0.00130969,0.00017950,0.00010312,-0.00012626,-0.00060582,0.000126
 02,-0.00006681,0.02364625,0.06525635,0.00020835,-0.00002843,-0.0000982
 2,0.00002281,0.00000428,-0.00000027,0.00097767,-0.00079253,0.00590204,
 0.00002424,-0.00002377,0.00003665,-0.00005013,0.00002639,0.00002013,-0
 .00023765,-0.00015244,0.00005705,0.00017555,0.00051897,0.00024972,0.00
 513117,0.00001140,-0.00169222,0.00148942,0.00127966,0.00194641,-0.0098
 5453,-0.00243213,-0.01963215,-0.10159079,-0.03679852,-0.27254867,-0.00
 000051,-0.00002284,-0.00000711,-0.00004587,0.00000388,-0.00002451,-0.0
 0002398,-0.00001428,-0.00002216,-0.00000530,0.00000400,0.00000111,-0.0
 0000386,-0.00000203,-0.00000179,-0.00000087,-0.00000841,-0.00000286,-0
 .00002075,0.00001418,0.,0.00000166,-0.00000134,0.00000239,0.00000496,-
 0.00000163,-0.00000157,-0.00012795,-0.00006860,0.00001149,-0.00000519,
 -0.00008232,0.00002290,0.00003320,0.00013716,0.00026128,-0.00071850,-0
 .00064738,-0.00135609,-0.00002422,0.00008310,0.00005460,0.00010692,0.0
 0036541,0.00029780,-0.00010807,-0.00031060,0.00121785,0.10669522,0.039
 16460,0.28986360,0.00010114,-0.00009207,-0.00013052,-0.00001330,-0.000
 00544,0.00001208,0.01289254,-0.02082823,0.00474791,0.00000265,-0.00002
 865,0.00005323,-0.00002025,-0.00006477,0.00010219,-0.00187272,-0.00115
 744,-0.00097216,-0.00009443,-0.00015243,-0.00001431,0.00080205,-0.0005
 3985,-0.00111462,0.00136189,0.00015205,0.00062790,-0.01674805,0.017313
 88,-0.00481087,-0.16138168,0.12535107,-0.03582336,-0.00000210,0.000002
 24,0.00000689,0.00005054,-0.00000411,0.00000061,0.00007073,0.00003337,
 0.00019814,0.00000353,0.00000006,-0.00000183,0.00000490,0.00000375,-0.
 00000020,0.00024054,0.00008439,0.00001079,0.00001319,0.00001618,-0.000
 01519,0.00002454,0.00003094,0.00000222,-0.00000952,0.00000564,-0.00000
 880,0.00008778,0.00007854,-0.00005717,-0.00006232,-0.00004637,-0.00000
 703,0.00042368,0.00001719,0.00059473,0.00008538,-0.00030066,0.00001345
 ,-0.00017146,0.00016334,-0.00000441,0.00050273,-0.00038728,-0.00030517
 ,-0.00231858,0.00014061,0.00407866,-0.00743195,0.00858549,-0.00203736,
 0.17345566,-0.00048010,-0.00004063,-0.00000020,-0.00002345,-0.00000745
 ,0.00001373,0.00426825,-0.04052314,0.00612758,-0.00016212,-0.00000446,
 -0.00001567,0.00007904,-0.00001695,0.00000619,-0.00080756,0.00314640,-
 0.00046836,-0.00053942,-0.00007953,-0.00050934,-0.00028835,-0.00010123
 ,0.00024243,0.00514779,-0.00098444,0.00557588,0.00290451,0.00020723,0.
 00064348,0.12033324,-0.17807869,0.03403837,0.00001350,0.00003991,-0.00
 001408,0.00005404,0.00003450,0.00001652,-0.00002746,-0.00009524,-0.000
 02837,0.00000335,0.00000089,-0.00000333,0.00000491,0.00000326,0.000000
 08,-0.00013256,0.00000769,-0.00003076,-0.00000504,-0.00000626,0.000004
 43,0.00001723,-0.00000801,-0.00000693,0.00000900,0.00002937,-0.0000174
 2,0.00009535,0.00001516,-0.00024866,-0.00002796,0.00004756,0.00007621,
 -0.00002728,-0.00021876,-0.00039933,-0.00008437,0.00011664,-0.00008932
 ,-0.00037476,0.00004318,-0.00037556,0.00050765,0.00035029,-0.00046840,
 0.00011868,0.00124847,0.00020846,-0.00221655,0.00559459,-0.00022963,-0
 .12837000,0.20928133,-0.00027829,-0.00001462,0.00027666,-0.00002109,-0
 .00000152,-0.00000196,0.00023795,0.00535634,0.00233590,-0.00000511,-0.
 00000414,-0.00004413,0.00005297,-0.00003998,-0.00006217,-0.00024407,-0
 .00094221,-0.00010537,0.00010189,-0.00017353,-0.00007722,0.00031959,-0
 .00045311,0.00194493,-0.00022012,-0.00135377,-0.00097860,0.01741123,-0
 .01816654,0.00458911,-0.03569231,0.03836560,-0.06551842,0.00000887,0.0
 0002978,0.00001082,0.00004527,-0.00000215,0.00001395,0.00002372,0.0000
 4706,-0.00008229,0.00000630,-0.00000344,-0.00000168,0.00000430,0.00000
 217,0.00000270,0.00007520,0.00003452,-0.00000658,0.00003737,-0.0000089
 9,-0.00000395,-0.00001077,-0.00000458,-0.00000355,-0.00000125,0.000004
 26,0.00000179,-0.00005964,-0.00002298,0.00005512,-0.00002702,0.0000856
 0,0.00000824,-0.00039998,0.00045943,-0.00020872,-0.00017820,0.00032801
 ,0.00009670,-0.00000689,0.00012379,0.00000652,-0.00084882,0.00047308,0
 .00090840,0.00366109,-0.00087837,-0.00307645,-0.01886716,0.02081059,-0
 .00456119,0.03485708,-0.04404560,0.06448499,0.00115906,0.00052061,0.00
 122935,-0.00217842,-0.00300813,-0.01154115,-0.00002302,-0.00005908,-0.
 00002780,-0.00006709,-0.00025595,0.00014395,-0.00502095,0.01140782,0.0
 3287344,0.00017054,-0.00030207,-0.00050725,0.00002017,-0.00004073,-0.0
 0000129,-0.00000716,0.00000492,0.00000923,0.00008515,0.00019650,-0.000
 00996,0.00000283,-0.00000175,-0.00000027,-0.00000312,0.00000739,-0.000
 01542,-0.05016940,0.00554720,0.02317535,0.00047280,0.00011808,0.000070
 95,-0.00014066,-0.00013133,-0.00041752,0.00067474,-0.00044671,-0.00017
 156,0.00014228,0.00221092,-0.00184311,0.00001828,0.00004413,-0.0001191
 0,0.00001975,-0.00063036,0.00023079,-0.00636033,0.00142677,0.00079112,
 0.00136293,-0.00011853,-0.00068377,0.00000673,0.00000232,-0.00000278,0
 .00000199,-0.00000158,-0.00000577,-0.00000025,-0.00000275,0.00000098,-
 0.00000228,-0.00000432,0.00000192,0.00003149,-0.00006618,0.00005592,-0
 .00000133,-0.00000049,-0.00000059,0.00000005,0.00000061,0.00000004,-0.
 00000427,-0.00000391,-0.00000075,-0.00000101,-0.00000172,0.,0.05766721
 ,-0.00068696,0.00003526,0.00076272,-0.00075135,0.00786764,0.02435515,0
 .00011118,0.00003532,0.00005972,-0.00017431,-0.00060959,0.00029533,0.0
 0112086,-0.00310712,-0.00795883,0.00031565,-0.00001898,-0.00007940,0.0
 0001886,-0.00000078,0.00002249,0.00000328,-0.00001151,-0.00000900,-0.0
 0023214,0.00009224,-0.00011675,-0.00000379,0.00000698,-0.00000258,-0.0
 0003403,-0.00003894,0.00000961,0.00618684,-0.07701059,-0.08119978,0.00
 003846,-0.00056557,0.00009223,0.00022426,0.00020178,-0.00018299,-0.000
 60366,0.00144236,-0.00048612,0.00103497,-0.00233959,0.00303381,0.00000
 799,0.00011053,-0.00001459,-0.00072667,-0.00084939,0.00026075,0.001845
 23,0.00051213,0.00029715,-0.00030647,-0.00004015,0.00001955,-0.0000026
 8,0.00000140,0.00000246,0.00001717,-0.00000323,-0.00000801,-0.00000015
 ,-0.00000201,0.00000334,0.00000816,0.00000511,-0.00000310,-0.00001699,
 0.00002133,-0.00001020,0.00000495,0.00000289,-0.00000097,0.00000178,-0
 .00000209,0.00000037,0.00000852,0.00000495,0.00000361,-0.00000200,-0.0
 0000147,-0.00000410,-0.01067550,0.08285654,-0.00013708,-0.00065264,0.0
 0061612,-0.00020590,-0.00805830,-0.01878727,0.00007654,0.00002969,0.00
 003918,-0.00035493,-0.00109021,-0.00133490,0.00223677,-0.00152456,-0.0
 0453046,0.00023526,0.00002354,0.00001237,0.00000805,0.00001643,0.00001
 176,0.00000487,-0.00000946,-0.00000928,-0.00014707,0.00004440,-0.00007
 049,-0.00000193,0.00000486,-0.00000200,-0.00002283,-0.00002844,0.00000
 942,0.02196495,-0.07827661,-0.28105490,0.00069644,0.00173924,0.0001256
 0,0.00050695,0.00036337,-0.00023592,0.00023921,0.00008546,0.00158233,-
 0.00079019,0.00323659,-0.00128606,-0.00002306,0.00017022,0.00034478,-0
 .00037479,0.00023041,0.00062026,0.00080878,-0.00035076,0.00115602,0.00
 043937,-0.00007317,0.00037081,0.00000044,0.00000052,0.00000228,0.00000
 811,-0.00000227,-0.00000273,-0.00000100,-0.00000123,0.00000167,0.00000
 660,0.00000404,-0.00000219,-0.00002794,0.00003185,-0.00001566,0.000003
 22,0.00000226,-0.00000077,0.00000136,-0.00000147,0.00000012,0.00000669
 ,0.00000422,0.00000282,-0.00000122,-0.00000088,-0.00000306,-0.02480349
 ,0.08560565,0.30558870,-0.00286218,0.00449216,0.00189337,0.00570871,0.
 00757364,0.00129741,-0.00038129,-0.00002683,-0.00027308,-0.00069814,0.
 00084730,-0.00016347,-0.01900138,-0.02645139,-0.00509856,-0.00328791,-
 0.00124646,0.00045757,-0.00007353,0.00004609,-0.00009047,-0.00000017,0
 .00003429,0.00002938,0.00103321,-0.00096567,0.00059589,0.00001549,-0.0
 0001959,0.00001024,0.00013261,0.00012772,-0.00001793,-0.13745143,-0.12
 719527,-0.01729420,0.00091808,0.00164354,-0.00118948,-0.00003481,-0.00
 029747,-0.00035995,-0.00098760,-0.00028185,0.00045894,0.00118431,0.000
 02467,0.00014326,0.00008794,-0.00008289,0.00012698,0.00016323,-0.00001
 072,0.00001114,0.00140514,0.00000531,0.00028756,0.00141455,0.00011041,
 -0.00054302,0.00000140,-0.00000404,0.00000146,-0.00006453,0.00001997,0
 .00004177,-0.00000051,0.00002155,-0.00001768,-0.00003550,-0.00000958,0
 .00000908,0.00009107,0.00007774,-0.00007644,-0.00001683,-0.00001034,0.
 00000359,-0.00000778,0.00000780,-0.00000154,-0.00002933,-0.00000782,-0
 .00001489,0.00000389,0.00001216,0.00001788,0.00214331,0.00326850,-0.00
 035219,0.15062995,0.00214012,-0.00041020,-0.00049166,-0.01345030,-0.01
 537015,-0.00427135,-0.00000643,-0.00002462,0.00001553,0.00128758,0.000
 23747,0.00059281,0.00698307,0.00950354,0.00203541,0.00078646,0.0004748
 6,-0.00023340,0.00000029,-0.00000983,-0.00000475,-0.00000039,0.0000015
 5,0.00000080,-0.00006038,0.00015906,-0.00004804,-0.00000179,-0.0000003
 5,-0.00000119,-0.00000071,0.00000172,-0.00000216,-0.12897080,-0.225308
 30,-0.02436795,-0.00016519,-0.00374762,0.00253698,-0.00002684,0.000161
 22,0.00012674,0.00102827,-0.00046647,0.00047756,-0.00035273,0.00161271
 ,0.00006033,-0.00011401,0.00000441,0.00001069,-0.00019595,0.00007069,0
 .00008229,-0.00069922,0.00020220,0.00009741,-0.00073099,0.00061393,0.0
 0015137,0.00000065,-0.00000032,0.00000032,0.00000047,-0.00000199,-0.00
 000156,0.00000131,-0.00000349,0.00000107,0.00000130,-0.00000260,0.0000
 0086,-0.00001443,-0.00003198,0.00001769,-0.00000018,-0.00000027,0.0000
 0057,-0.00000019,0.00000029,0.00000055,-0.00000048,-0.00000219,0.00000
 024,0.00000057,-0.00000019,-0.00000061,-0.00573618,-0.00859543,-0.0015
 2277,0.13829709,0.24093237,0.00057015,-0.00052353,0.00072026,0.0136331
 1,0.01585127,0.00125751,0.00002168,-0.00000922,0.00001240,-0.00097633,
 -0.00084999,-0.00131505,0.00380302,0.00522990,-0.00015028,0.00031251,0
 .00009768,-0.00003156,0.00000074,0.00000106,0.00000100,0.00000174,-0.0
 0000067,-0.00000246,-0.00004444,0.00008956,-0.00002182,-0.00000096,0.0
 0000058,0.00000025,-0.00000859,-0.00000539,0.00000184,-0.01919467,-0.0
 2638182,-0.05034776,0.00070300,0.00561483,-0.00316502,0.00028113,0.000
 21948,-0.00003094,-0.00071721,0.00036484,0.00011695,0.00086504,-0.0001
 3986,0.00083079,0.00006516,0.00008071,0.00025593,-0.00017921,0.0001669
 3,0.00040965,-0.00040699,0.00041543,0.00027466,-0.00039594,-0.00019693
 ,0.00010546,0.00000100,-0.00000005,-0.00000022,0.00000129,-0.00000048,
 -0.00000091,0.00000036,-0.00000122,0.00000045,0.00000187,-0.00000033,-
 0.00000012,-0.00001420,-0.00000936,0.,0.00000056,0.00000034,-0.0000004
 1,0.00000028,-0.00000054,-0.00000050,0.00000161,-0.00000039,0.00000099
 ,-0.00000167,-0.00000149,-0.00000050,-0.01843145,-0.02474754,-0.003148
 53,0.02010738,0.02473621,0.05422794\\0.00087369,0.00140823,0.00130589,
 -0.00001755,-0.00001622,0.00001074,-0.00143402,-0.00101241,0.00111589,
 0.00001415,0.00000555,0.00000424,0.00000455,-0.00000541,0.00000139,-0.
 00177064,-0.00234961,-0.00143792,-0.00001394,0.00000221,0.00000061,-0.
 00000075,0.00000299,-0.00001100,0.00232360,0.00193237,-0.00098717,0.00
 000702,0.00000368,0.00000192,-0.00000146,0.00002280,0.00000620,-0.0000
 0099,0.00000396,-0.00000440,0.00000661,0.00001652,0.00000218,0.0000008
 2,0.00000199,-0.00000515,0.00000365,-0.00000556,-0.00000316,0.00000388
 ,-0.00000544,0.00000462,-0.00000223,-0.00000355,-0.00000024,0.00000281
 ,0.00000140,-0.00000618,-0.00000157,-0.00000095,0.00000422,0.00000005,
 0.00000273,-0.00000030,0.00000716,-0.00000211,0.00000202,0.00000097,0.
 00000012,0.00000457,0.00000071,-0.00000192,0.00000048,-0.00000313,-0.0
 0000227,0.00000105,0.00000148,0.00000995,0.00000172,0.00000043,-0.0000
 0258,-0.00000582,-0.00000314,0.00000030,-0.00000196,-0.00000253,-0.000
 00136,-0.00000665,0.00000375,-0.00000834,-0.00000358,0.00000108,-0.000
 00028,0.00000025,-0.00000442,0.00000321,0.00000552\\\@


 ... FOR AFTERWARDS A MAN FINDS PLEASURE IN HIS PAINS,
 WHEN HE HAS SUFFERED LONG AND WANDERED FAR.

                                    -- HOMER
 Job cpu time:       0 days 14 hours 18 minutes 12.7 seconds.
 Elapsed time:       0 days  0 hours 53 minutes 40.3 seconds.
 File lengths (MBytes):  RWF=    693 Int=      0 D2E=      0 Chk=     33 Scr=      1
 Normal termination of Gaussian 16 at Sun Nov  4 22:55:25 2018.
