 Entering Gaussian System, Link 0=g16
 Initial command:
 /apps/gaussian/g16a03/g16/l1.exe "/jobfs/local/2011989.r-man2/Gau-22469.inp" -scrdir="/jobfs/local/2011989.r-man2/"
 Entering Link 1 = /apps/gaussian/g16a03/g16/l1.exe PID=     22470.
  
 Copyright (c) 1988,1990,1992,1993,1995,1998,2003,2009,2016,
            Gaussian, Inc.  All Rights Reserved.
  
 This is part of the Gaussian(R) 16 program.  It is based on
 the Gaussian(R) 09 system (copyright 2009, Gaussian, Inc.),
 the Gaussian(R) 03 system (copyright 2003, Gaussian, Inc.),
 the Gaussian(R) 98 system (copyright 1998, Gaussian, Inc.),
 the Gaussian(R) 94 system (copyright 1995, Gaussian, Inc.),
 the Gaussian 92(TM) system (copyright 1992, Gaussian, Inc.),
 the Gaussian 90(TM) system (copyright 1990, Gaussian, Inc.),
 the Gaussian 88(TM) system (copyright 1988, Gaussian, Inc.),
 the Gaussian 86(TM) system (copyright 1986, Carnegie Mellon
 University), and the Gaussian 82(TM) system (copyright 1983,
 Carnegie Mellon University). Gaussian is a federally registered
 trademark of Gaussian, Inc.
  
 This software contains proprietary and confidential information,
 including trade secrets, belonging to Gaussian, Inc.
  
 This software is provided under written license and may be
 used, copied, transmitted, or stored only in accord with that
 written license.
  
 The following legend is applicable only to US Government
 contracts under FAR:
  
                    RESTRICTED RIGHTS LEGEND
  
 Use, reproduction and disclosure by the US Government is
 subject to restrictions as set forth in subparagraphs (a)
 and (c) of the Commercial Computer Software - Restricted
 Rights clause in FAR 52.227-19.
  
 Gaussian, Inc.
 340 Quinnipiac St., Bldg. 40, Wallingford CT 06492
  
  
 ---------------------------------------------------------------
 Warning -- This program may not be used in any manner that
 competes with the business of Gaussian, Inc. or will provide
 assistance to any competitor of Gaussian, Inc.  The licensee
 of this program is prohibited from giving any competitor of
 Gaussian, Inc. access to this program.  By using this program,
 the user acknowledges that Gaussian, Inc. is engaged in the
 business of creating and licensing software in the field of
 computational chemistry and represents and warrants to the
 licensee that it is not a competitor of Gaussian, Inc. and that
 it will not use this program in any manner prohibited above.
 ---------------------------------------------------------------
  

 Cite this work as:
 Gaussian 16, Revision A.03,
 M. J. Frisch, G. W. Trucks, H. B. Schlegel, G. E. Scuseria, 
 M. A. Robb, J. R. Cheeseman, G. Scalmani, V. Barone, 
 G. A. Petersson, H. Nakatsuji, X. Li, M. Caricato, A. V. Marenich, 
 J. Bloino, B. G. Janesko, R. Gomperts, B. Mennucci, H. P. Hratchian, 
 J. V. Ortiz, A. F. Izmaylov, J. L. Sonnenberg, D. Williams-Young, 
 F. Ding, F. Lipparini, F. Egidi, J. Goings, B. Peng, A. Petrone, 
 T. Henderson, D. Ranasinghe, V. G. Zakrzewski, J. Gao, N. Rega, 
 G. Zheng, W. Liang, M. Hada, M. Ehara, K. Toyota, R. Fukuda, 
 J. Hasegawa, M. Ishida, T. Nakajima, Y. Honda, O. Kitao, H. Nakai, 
 T. Vreven, K. Throssell, J. A. Montgomery, Jr., J. E. Peralta, 
 F. Ogliaro, M. J. Bearpark, J. J. Heyd, E. N. Brothers, K. N. Kudin, 
 V. N. Staroverov, T. A. Keith, R. Kobayashi, J. Normand, 
 K. Raghavachari, A. P. Rendell, J. C. Burant, S. S. Iyengar, 
 J. Tomasi, M. Cossi, J. M. Millam, M. Klene, C. Adamo, R. Cammi, 
 J. W. Ochterski, R. L. Martin, K. Morokuma, O. Farkas, 
 J. B. Foresman, and D. J. Fox, Gaussian, Inc., Wallingford CT, 2016.
 
 ******************************************
 Gaussian 16:  ES64L-G16RevA.03 25-Dec-2016
                 4-Nov-2018 
 ******************************************
 %mem=6000mb
 %nproc=24
 Will use up to   24 processors via shared memory.
 %chk=D_a1-4_2SO_PHI.inp_extract_15.chk
 ----------------------------------------------------------------------
 #M062X/6-311++G(2d,2p) opt=ModRedundant freq=noraman SCRF=(Solvent=Wat
 er)
 ----------------------------------------------------------------------
 1/18=120,19=15,26=3,38=1/1,3;
 2/9=110,12=2,17=6,18=5,40=1/2;
 3/5=4,6=6,7=1212,11=2,25=1,30=1,70=2201,71=1,72=1,74=-55/1,2,3;
 4//1;
 5/5=2,38=5,53=1/2;
 6/7=2,8=2,9=2,10=2,28=1/1;
 7//1,2,3,16;
 1/18=20,19=15,26=3/3(2);
 2/9=110/2;
 99//99;
 2/9=110/2;
 3/5=4,6=6,7=1212,11=2,25=1,30=1,70=2205,71=1,72=1,74=-55/1,2,3;
 4/5=5,16=3,69=1/1;
 5/5=2,38=5,53=1/2;
 7//1,2,3,16;
 1/18=20,19=15,26=3/3(-5);
 2/9=110/2;
 6/7=2,8=2,9=2,10=2,19=2,28=1/1;
 99/9=1/99;
 -----------------------------
 D_a1-4_2SO_PHI.inp_extract_15
 -----------------------------
 Symbolic Z-matrix:
 Charge =  0 Multiplicity = 1
 C                     0.75863   0.22308   0.03029 
 C                     3.65262  -0.31577  -0.33775 
 O                    -2.00601   1.20429   0.66454 
 C                     1.42525  -1.11309  -0.3207 
 C                     1.83213   1.29064   0.25108 
 O                    -0.01154   0.12634   1.2208 
 C                    -2.00791  -1.24641   0.69731 
 C                    -2.32478  -1.24562  -0.79706 
 C                    -1.41743   0.06136   1.22984 
 C                    -3.17657  -0.02043  -1.11358 
 C                    -2.44993   1.24248  -0.69044 
 C                     3.01524   1.03589  -0.68003 
 O                     2.71401  -1.20595   0.24696 
 H                     0.12835   0.51249  -0.79386 
 H                     4.08157  -0.78102  -1.22041 
 H                     4.43627  -0.19475   0.39815 
 H                     0.85306  -1.94306   0.06452 
 H                     1.49834  -1.22066  -1.39922 
 H                     2.16553   1.23965   1.28317 
 H                     1.41097   2.2781    0.0955 
 H                    -1.34455  -2.05804   0.97145 
 H                    -2.93828  -1.40254   1.23713 
 H                    -1.41639  -1.23122  -1.39261 
 H                    -2.85584  -2.1574   -1.05207 
 H                    -1.64092   0.13256   2.282 
 H                    -3.39597   0.04862  -2.17501 
 H                    -4.12568  -0.08973  -0.58742 
 H                    -3.10247   2.10309  -0.7423 
 H                    -1.60659   1.42961  -1.34361 
 H                     2.67672   1.04594  -1.71227 
 H                     3.7606    1.8181   -0.58535 
 
 The following ModRedundant input section has been read:
 D       1       6       9       3 F                                           
 

 GradGradGradGradGradGradGradGradGradGradGradGradGradGradGradGradGradGrad
 Berny optimization.
 Initialization pass.
                           ----------------------------
                           !    Initial Parameters    !
                           ! (Angstroms and Degrees)  !
 --------------------------                            --------------------------
 ! Name  Definition              Value          Derivative Info.                !
 --------------------------------------------------------------------------------
 ! R1    R(1,4)                  1.5339         estimate D2E/DX2                !
 ! R2    R(1,5)                  1.53           estimate D2E/DX2                !
 ! R3    R(1,6)                  1.4212         estimate D2E/DX2                !
 ! R4    R(1,14)                 1.0771         estimate D2E/DX2                !
 ! R5    R(2,12)                 1.5331         estimate D2E/DX2                !
 ! R6    R(2,13)                 1.4196         estimate D2E/DX2                !
 ! R7    R(2,15)                 1.0861         estimate D2E/DX2                !
 ! R8    R(2,16)                 1.0818         estimate D2E/DX2                !
 ! R9    R(3,9)                  1.4044         estimate D2E/DX2                !
 ! R10   R(3,11)                 1.4264         estimate D2E/DX2                !
 ! R11   R(4,13)                 1.4113         estimate D2E/DX2                !
 ! R12   R(4,17)                 1.0792         estimate D2E/DX2                !
 ! R13   R(4,18)                 1.0863         estimate D2E/DX2                !
 ! R14   R(5,12)                 1.527          estimate D2E/DX2                !
 ! R15   R(5,19)                 1.0858         estimate D2E/DX2                !
 ! R16   R(5,20)                 1.0847         estimate D2E/DX2                !
 ! R17   R(6,9)                  1.4074         estimate D2E/DX2                !
 ! R18   R(7,8)                  1.5276         estimate D2E/DX2                !
 ! R19   R(7,9)                  1.5305         estimate D2E/DX2                !
 ! R20   R(7,21)                 1.0835         estimate D2E/DX2                !
 ! R21   R(7,22)                 1.0869         estimate D2E/DX2                !
 ! R22   R(8,10)                 1.5254         estimate D2E/DX2                !
 ! R23   R(8,23)                 1.0863         estimate D2E/DX2                !
 ! R24   R(8,24)                 1.0855         estimate D2E/DX2                !
 ! R25   R(9,25)                 1.078          estimate D2E/DX2                !
 ! R26   R(10,11)                1.5172         estimate D2E/DX2                !
 ! R27   R(10,26)                1.0861         estimate D2E/DX2                !
 ! R28   R(10,27)                1.0874         estimate D2E/DX2                !
 ! R29   R(11,28)                1.0813         estimate D2E/DX2                !
 ! R30   R(11,29)                1.083          estimate D2E/DX2                !
 ! R31   R(12,30)                1.0864         estimate D2E/DX2                !
 ! R32   R(12,31)                1.0846         estimate D2E/DX2                !
 ! A1    A(4,1,5)              109.6276         estimate D2E/DX2                !
 ! A2    A(4,1,6)              111.5856         estimate D2E/DX2                !
 ! A3    A(4,1,14)             108.2559         estimate D2E/DX2                !
 ! A4    A(5,1,6)              107.8685         estimate D2E/DX2                !
 ! A5    A(5,1,14)             109.4812         estimate D2E/DX2                !
 ! A6    A(6,1,14)             110.0065         estimate D2E/DX2                !
 ! A7    A(12,2,13)            111.7106         estimate D2E/DX2                !
 ! A8    A(12,2,15)            111.1272         estimate D2E/DX2                !
 ! A9    A(12,2,16)            110.7568         estimate D2E/DX2                !
 ! A10   A(13,2,15)            109.1022         estimate D2E/DX2                !
 ! A11   A(13,2,16)            105.5995         estimate D2E/DX2                !
 ! A12   A(15,2,16)            108.3415         estimate D2E/DX2                !
 ! A13   A(9,3,11)             122.3174         estimate D2E/DX2                !
 ! A14   A(1,4,13)             111.2309         estimate D2E/DX2                !
 ! A15   A(1,4,17)             110.9669         estimate D2E/DX2                !
 ! A16   A(1,4,18)             110.0391         estimate D2E/DX2                !
 ! A17   A(13,4,17)            106.8577         estimate D2E/DX2                !
 ! A18   A(13,4,18)            109.352          estimate D2E/DX2                !
 ! A19   A(17,4,18)            108.2952         estimate D2E/DX2                !
 ! A20   A(1,5,12)             109.8301         estimate D2E/DX2                !
 ! A21   A(1,5,19)             108.6535         estimate D2E/DX2                !
 ! A22   A(1,5,20)             110.0027         estimate D2E/DX2                !
 ! A23   A(12,5,19)            109.504          estimate D2E/DX2                !
 ! A24   A(12,5,20)            111.423          estimate D2E/DX2                !
 ! A25   A(19,5,20)            107.3554         estimate D2E/DX2                !
 ! A26   A(1,6,9)              123.3562         estimate D2E/DX2                !
 ! A27   A(8,7,9)              114.8317         estimate D2E/DX2                !
 ! A28   A(8,7,21)             112.0185         estimate D2E/DX2                !
 ! A29   A(8,7,22)             107.9618         estimate D2E/DX2                !
 ! A30   A(9,7,21)             108.4101         estimate D2E/DX2                !
 ! A31   A(9,7,22)             106.2702         estimate D2E/DX2                !
 ! A32   A(21,7,22)            106.9059         estimate D2E/DX2                !
 ! A33   A(7,8,10)             108.6164         estimate D2E/DX2                !
 ! A34   A(7,8,23)             111.276          estimate D2E/DX2                !
 ! A35   A(7,8,24)             109.3197         estimate D2E/DX2                !
 ! A36   A(10,8,23)            110.0323         estimate D2E/DX2                !
 ! A37   A(10,8,24)            110.6527         estimate D2E/DX2                !
 ! A38   A(23,8,24)            106.9444         estimate D2E/DX2                !
 ! A39   A(3,9,6)              112.2398         estimate D2E/DX2                !
 ! A40   A(3,9,7)              113.1811         estimate D2E/DX2                !
 ! A41   A(3,9,25)             104.6096         estimate D2E/DX2                !
 ! A42   A(6,9,7)              114.9992         estimate D2E/DX2                !
 ! A43   A(6,9,25)             102.1409         estimate D2E/DX2                !
 ! A44   A(7,9,25)             108.4246         estimate D2E/DX2                !
 ! A45   A(8,10,11)            110.0757         estimate D2E/DX2                !
 ! A46   A(8,10,26)            111.5102         estimate D2E/DX2                !
 ! A47   A(8,10,27)            109.6212         estimate D2E/DX2                !
 ! A48   A(11,10,26)           108.4448         estimate D2E/DX2                !
 ! A49   A(11,10,27)           109.6404         estimate D2E/DX2                !
 ! A50   A(26,10,27)           107.4945         estimate D2E/DX2                !
 ! A51   A(3,11,10)            113.0603         estimate D2E/DX2                !
 ! A52   A(3,11,28)            104.7558         estimate D2E/DX2                !
 ! A53   A(3,11,29)            109.585          estimate D2E/DX2                !
 ! A54   A(10,11,28)           111.1068         estimate D2E/DX2                !
 ! A55   A(10,11,29)           110.3996         estimate D2E/DX2                !
 ! A56   A(28,11,29)           107.6676         estimate D2E/DX2                !
 ! A57   A(2,12,5)             109.456          estimate D2E/DX2                !
 ! A58   A(2,12,30)            110.477          estimate D2E/DX2                !
 ! A59   A(2,12,31)            109.3078         estimate D2E/DX2                !
 ! A60   A(5,12,30)            109.6586         estimate D2E/DX2                !
 ! A61   A(5,12,31)            111.0337         estimate D2E/DX2                !
 ! A62   A(30,12,31)           106.8823         estimate D2E/DX2                !
 ! A63   A(2,13,4)             113.3812         estimate D2E/DX2                !
 ! D1    D(5,1,4,13)            28.0971         estimate D2E/DX2                !
 ! D2    D(5,1,4,17)           146.916          estimate D2E/DX2                !
 ! D3    D(5,1,4,18)           -93.2424         estimate D2E/DX2                !
 ! D4    D(6,1,4,13)           -91.3371         estimate D2E/DX2                !
 ! D5    D(6,1,4,17)            27.4817         estimate D2E/DX2                !
 ! D6    D(6,1,4,18)           147.3233         estimate D2E/DX2                !
 ! D7    D(14,1,4,13)          147.4689         estimate D2E/DX2                !
 ! D8    D(14,1,4,17)          -93.7122         estimate D2E/DX2                !
 ! D9    D(14,1,4,18)           26.1294         estimate D2E/DX2                !
 ! D10   D(4,1,5,12)            33.8886         estimate D2E/DX2                !
 ! D11   D(4,1,5,19)           -85.869          estimate D2E/DX2                !
 ! D12   D(4,1,5,20)           156.8772         estimate D2E/DX2                !
 ! D13   D(6,1,5,12)           155.5804         estimate D2E/DX2                !
 ! D14   D(6,1,5,19)            35.8229         estimate D2E/DX2                !
 ! D15   D(6,1,5,20)           -81.431          estimate D2E/DX2                !
 ! D16   D(14,1,5,12)          -84.7275         estimate D2E/DX2                !
 ! D17   D(14,1,5,19)          155.5149         estimate D2E/DX2                !
 ! D18   D(14,1,5,20)           38.2611         estimate D2E/DX2                !
 ! D19   D(4,1,6,9)           -104.394          estimate D2E/DX2                !
 ! D20   D(5,1,6,9)            135.1356         estimate D2E/DX2                !
 ! D21   D(14,1,6,9)            15.7764         estimate D2E/DX2                !
 ! D22   D(13,2,12,5)           26.782          estimate D2E/DX2                !
 ! D23   D(13,2,12,30)         -94.0664         estimate D2E/DX2                !
 ! D24   D(13,2,12,31)         148.5918         estimate D2E/DX2                !
 ! D25   D(15,2,12,5)          148.8876         estimate D2E/DX2                !
 ! D26   D(15,2,12,30)          28.0392         estimate D2E/DX2                !
 ! D27   D(15,2,12,31)         -89.3027         estimate D2E/DX2                !
 ! D28   D(16,2,12,5)          -90.6334         estimate D2E/DX2                !
 ! D29   D(16,2,12,30)         148.5183         estimate D2E/DX2                !
 ! D30   D(16,2,12,31)          31.1764         estimate D2E/DX2                !
 ! D31   D(12,2,13,4)           37.7524         estimate D2E/DX2                !
 ! D32   D(15,2,13,4)          -85.5092         estimate D2E/DX2                !
 ! D33   D(16,2,13,4)          158.2309         estimate D2E/DX2                !
 ! D34   D(11,3,9,6)            97.4342         estimate D2E/DX2                !
 ! D35   D(11,3,9,7)           -34.7693         estimate D2E/DX2                !
 ! D36   D(11,3,9,25)         -152.6038         estimate D2E/DX2                !
 ! D37   D(9,3,11,10)           42.4387         estimate D2E/DX2                !
 ! D38   D(9,3,11,28)          163.5604         estimate D2E/DX2                !
 ! D39   D(9,3,11,29)          -81.1732         estimate D2E/DX2                !
 ! D40   D(1,4,13,2)           -68.8757         estimate D2E/DX2                !
 ! D41   D(17,4,13,2)          169.8698         estimate D2E/DX2                !
 ! D42   D(18,4,13,2)           52.8645         estimate D2E/DX2                !
 ! D43   D(1,5,12,2)           -62.8863         estimate D2E/DX2                !
 ! D44   D(1,5,12,30)           58.4578         estimate D2E/DX2                !
 ! D45   D(1,5,12,31)          176.3473         estimate D2E/DX2                !
 ! D46   D(19,5,12,2)           56.3513         estimate D2E/DX2                !
 ! D47   D(19,5,12,30)         177.6954         estimate D2E/DX2                !
 ! D48   D(19,5,12,31)         -64.4152         estimate D2E/DX2                !
 ! D49   D(20,5,12,2)          174.9659         estimate D2E/DX2                !
 ! D50   D(20,5,12,30)         -63.69           estimate D2E/DX2                !
 ! D51   D(20,5,12,31)          54.1994         estimate D2E/DX2                !
 ! D52   D(1,6,9,3)            -61.1062         Frozen                          !
 ! D53   D(1,6,9,7)             70.1863         estimate D2E/DX2                !
 ! D54   D(1,6,9,25)          -172.6188         estimate D2E/DX2                !
 ! D55   D(9,7,8,10)           -51.7274         estimate D2E/DX2                !
 ! D56   D(9,7,8,23)            69.5427         estimate D2E/DX2                !
 ! D57   D(9,7,8,24)          -172.5565         estimate D2E/DX2                !
 ! D58   D(21,7,8,10)         -175.9562         estimate D2E/DX2                !
 ! D59   D(21,7,8,23)          -54.6861         estimate D2E/DX2                !
 ! D60   D(21,7,8,24)           63.2146         estimate D2E/DX2                !
 ! D61   D(22,7,8,10)           66.6018         estimate D2E/DX2                !
 ! D62   D(22,7,8,23)         -172.1281         estimate D2E/DX2                !
 ! D63   D(22,7,8,24)          -54.2273         estimate D2E/DX2                !
 ! D64   D(8,7,9,3)             39.2089         estimate D2E/DX2                !
 ! D65   D(8,7,9,6)            -91.6316         estimate D2E/DX2                !
 ! D66   D(8,7,9,25)           154.7945         estimate D2E/DX2                !
 ! D67   D(21,7,9,3)           165.3236         estimate D2E/DX2                !
 ! D68   D(21,7,9,6)            34.4831         estimate D2E/DX2                !
 ! D69   D(21,7,9,25)          -79.0908         estimate D2E/DX2                !
 ! D70   D(22,7,9,3)           -80.0678         estimate D2E/DX2                !
 ! D71   D(22,7,9,6)           149.0917         estimate D2E/DX2                !
 ! D72   D(22,7,9,25)           35.5178         estimate D2E/DX2                !
 ! D73   D(7,8,10,11)           57.2659         estimate D2E/DX2                !
 ! D74   D(7,8,10,26)          177.6711         estimate D2E/DX2                !
 ! D75   D(7,8,10,27)          -63.4119         estimate D2E/DX2                !
 ! D76   D(23,8,10,11)         -64.7648         estimate D2E/DX2                !
 ! D77   D(23,8,10,26)          55.6405         estimate D2E/DX2                !
 ! D78   D(23,8,10,27)         174.5574         estimate D2E/DX2                !
 ! D79   D(24,8,10,11)         177.2692         estimate D2E/DX2                !
 ! D80   D(24,8,10,26)         -62.3255         estimate D2E/DX2                !
 ! D81   D(24,8,10,27)          56.5914         estimate D2E/DX2                !
 ! D82   D(8,10,11,3)          -52.4345         estimate D2E/DX2                !
 ! D83   D(8,10,11,28)        -169.8898         estimate D2E/DX2                !
 ! D84   D(8,10,11,29)          70.7277         estimate D2E/DX2                !
 ! D85   D(26,10,11,3)        -174.6713         estimate D2E/DX2                !
 ! D86   D(26,10,11,28)         67.8734         estimate D2E/DX2                !
 ! D87   D(26,10,11,29)        -51.5091         estimate D2E/DX2                !
 ! D88   D(27,10,11,3)          68.2318         estimate D2E/DX2                !
 ! D89   D(27,10,11,28)        -49.2235         estimate D2E/DX2                !
 ! D90   D(27,10,11,29)       -168.606          estimate D2E/DX2                !
 --------------------------------------------------------------------------------
 Trust Radius=3.00D-01 FncErr=1.00D-07 GrdErr=1.00D-06 EigMax=2.50D+02 EigMin=1.00D-04
 Number of steps in this run=    186 maximum allowed number of steps=    186.
 GradGradGradGradGradGradGradGradGradGradGradGradGradGradGradGradGradGrad

                          Input orientation:                          
 ---------------------------------------------------------------------
 Center     Atomic      Atomic             Coordinates (Angstroms)
 Number     Number       Type             X           Y           Z
 ---------------------------------------------------------------------
      1          6           0        0.758628    0.223076    0.030290
      2          6           0        3.652624   -0.315769   -0.337752
      3          8           0       -2.006010    1.204291    0.664543
      4          6           0        1.425246   -1.113094   -0.320697
      5          6           0        1.832133    1.290644    0.251082
      6          8           0       -0.011535    0.126344    1.220800
      7          6           0       -2.007910   -1.246414    0.697308
      8          6           0       -2.324775   -1.245620   -0.797064
      9          6           0       -1.417425    0.061355    1.229840
     10          6           0       -3.176568   -0.020430   -1.113578
     11          6           0       -2.449933    1.242484   -0.690437
     12          6           0        3.015239    1.035892   -0.680025
     13          8           0        2.714013   -1.205948    0.246957
     14          1           0        0.128349    0.512485   -0.793864
     15          1           0        4.081568   -0.781015   -1.220408
     16          1           0        4.436266   -0.194746    0.398153
     17          1           0        0.853063   -1.943058    0.064519
     18          1           0        1.498340   -1.220656   -1.399220
     19          1           0        2.165529    1.239653    1.283165
     20          1           0        1.410966    2.278102    0.095504
     21          1           0       -1.344548   -2.058039    0.971454
     22          1           0       -2.938275   -1.402542    1.237134
     23          1           0       -1.416389   -1.231221   -1.392609
     24          1           0       -2.855840   -2.157395   -1.052065
     25          1           0       -1.640916    0.132560    2.281995
     26          1           0       -3.395974    0.048623   -2.175007
     27          1           0       -4.125684   -0.089733   -0.587417
     28          1           0       -3.102472    2.103090   -0.742299
     29          1           0       -1.606592    1.429613   -1.343608
     30          1           0        2.676718    1.045938   -1.712268
     31          1           0        3.760595    1.818097   -0.585354
 ---------------------------------------------------------------------
                    Distance matrix (angstroms):
                    1          2          3          4          5
     1  C    0.000000
     2  C    2.966652   0.000000
     3  O    3.001380   5.944352   0.000000
     4  C    1.533924   2.365847   4.256112   0.000000
     5  C    1.529988   2.498295   3.861314   2.504086   0.000000
     6  O    1.421204   4.006321   2.334378   2.444741   2.386432
     7  C    3.202819   5.829159   2.450925   3.583388   4.624036
     8  C    3.514108   6.066703   2.870535   3.782479   4.981077
     9  C    2.490036   5.320241   1.404384   3.444456   3.609535
    10  C    4.105301   6.879462   2.455985   4.795755   5.354278
    11  C    3.442892   6.308228   1.426358   4.549996   4.384617
    12  C    2.501502   1.533101   5.200881   2.697283   1.526957
    13  O    2.431581   1.419610   5.316225   1.411302   2.647773
    14  H    1.077144   3.648912   2.676011   2.132683   2.144836
    15  H    3.689766   1.086061   6.674810   2.824146   3.393672
    16  H    3.719532   1.081803   6.597817   3.228986   3.001587
    17  H    2.168462   3.263040   4.294198   1.079178   3.383816
    18  H    2.162183   2.566413   4.734971   1.086335   3.023498
    19  H    2.140676   2.694097   4.217307   2.942076   1.085794
    20  H    2.157065   3.455562   3.626651   3.416671   1.084739
    21  H    3.242318   5.451720   3.342832   3.199115   4.671607
    22  H    4.214997   6.863038   2.827111   4.642298   5.566178
    23  H    2.978308   5.257915   3.242105   3.039381   4.428817
    24  H    4.461223   6.801613   3.869094   4.466896   5.963577
    25  H    3.291835   5.923313   1.974348   4.210345   4.186626
    26  H    4.706855   7.293217   3.366098   5.294546   5.895899
    27  H    4.933145   7.785596   2.781172   5.650773   6.172852
    28  H    4.363421   7.186505   1.997316   5.569723   5.098745
    29  H    2.989581   5.631825   2.059848   4.087022   3.793043
    30  H    2.718948   2.167010   5.253784   2.857284   2.151267
    31  H    3.454695   2.150895   5.932346   3.757097   2.167210
                    6          7          8          9         10
     6  O    0.000000
     7  C    2.478714   0.000000
     8  C    3.362312   1.527597   0.000000
     9  C    1.407420   1.530530   2.576782   0.000000
    10  C    3.935517   2.479538   1.525393   2.931362   0.000000
    11  C    3.293081   2.883719   2.493531   2.479638   1.517234
    12  C    3.688058   5.686650   5.808162   4.924004   6.296210
    13  O    3.186218   4.743523   5.145963   4.431805   6.160800
    14  H    2.056099   3.143393   3.018072   2.586177   3.362840
    15  H    4.851421   6.401248   6.437104   6.078834   7.298660
    16  H    4.534620   6.536276   6.945830   5.918022   7.763437
    17  H    2.523280   3.011794   3.365620   3.245113   4.617612
    18  H    3.310383   4.085325   3.870326   4.130036   4.834966
    19  H    2.446008   4.892990   5.537758   3.772107   5.989172
    20  H    2.814225   4.947029   5.212394   3.768353   5.271679
    21  H    2.571114   1.083485   2.179111   2.136330   3.443183
    22  H    3.302055   1.086907   2.130485   2.110932   2.737310
    23  H    3.262898   2.172068   1.086299   2.923695   2.154554
    24  H    4.297842   2.146900   1.085536   3.492704   2.161775
    25  H    1.944494   2.132484   3.442041   1.077984   3.729819
    26  H    4.794995   3.442969   2.172846   3.937995   1.086066
    27  H    4.499173   2.733751   2.150186   3.264953   1.087414
    28  H    4.161151   3.806535   3.438266   3.301121   2.157006
    29  H    3.289210   3.389324   2.823361   2.920710   2.149503
    30  H    4.083533   5.745143   5.577075   5.136868   5.979676
    31  H    4.511450   6.656733   6.816371   5.761333   7.196071
                   11         12         13         14         15
    11  C    0.000000
    12  C    5.469085   0.000000
    13  O    5.791361   2.444561   0.000000
    14  H    2.681629   2.936162   3.274443   0.000000
    15  H    6.858274   2.174907   2.050350   4.181270   0.000000
    16  H    7.118314   2.167085   2.002884   4.525398   1.757630
    17  H    4.650529   3.755462   2.009913   2.700319   3.663963
    18  H    4.707259   2.812514   2.046454   2.290657   2.626466
    19  H    5.019721   2.148870   2.712107   2.998821   3.744620
    20  H    4.073911   2.172147   3.722831   2.356583   4.268716
    21  H    3.857099   5.595314   4.209854   3.448676   5.989807
    22  H    3.309104   6.713106   5.741730   4.146862   7.463512
    23  H    2.771367   5.028609   4.443989   2.405249   5.519046
    24  H    3.443067   6.693659   5.797928   4.012519   7.074630
    25  H    3.274415   5.591900   4.989829   3.568690   6.771135
    26  H    2.127027   6.656825   6.691173   3.813604   7.583745
    27  H    2.143258   7.229688   6.980227   4.301405   8.260601
    28  H    1.081268   6.210409   6.764603   3.601512   7.756100
    29  H    1.082993   4.685796   5.305064   2.037980   6.103869
    30  H    5.231187   1.086381   2.985120   2.760837   2.356541
    31  H    6.238031   1.084603   3.306497   3.865399   2.694754
                   16         17         18         19         20
    16  H    0.000000
    17  H    4.000906   0.000000
    18  H    3.593668   1.755215   0.000000
    19  H    2.827896   3.652029   3.700466   0.000000
    20  H    3.919058   4.257982   3.805672   1.748794   0.000000
    21  H    6.100684   2.380178   3.795170   4.826238   5.211743
    22  H    7.519742   4.005175   5.164010   5.747358   5.810883
    23  H    6.207631   2.789327   2.914756   5.108338   4.745921
    24  H    7.689599   3.879260   4.467312   6.496721   6.260685
    25  H    6.370881   3.930054   5.023690   4.088073   4.324127
    26  H    8.247688   5.199672   5.115391   6.656412   5.764761
    27  H    8.619128   5.352360   5.793760   6.696694   6.060323
    28  H    7.963244   5.715639   5.713694   5.709629   4.593873
    29  H    6.495260   4.405410   4.082600   4.600535   3.449150
    30  H    3.014827   3.926422   2.573718   3.044907   2.527528
    31  H    2.339947   4.798163   3.874816   2.523925   2.489162
                   21         22         23         24         25
    21  H    0.000000
    22  H    1.743625   0.000000
    23  H    2.505511   3.043195   0.000000
    24  H    2.527549   2.411852   1.745219   0.000000
    25  H    2.569840   2.265262   3.925943   4.223256   0.000000
    26  H    4.306575   3.736051   2.483728   2.533626   4.790839
    27  H    3.746869   2.542124   3.048214   2.470552   3.802238
    28  H    4.831381   4.029215   3.792546   4.278845   3.894289
    29  H    4.194269   4.056441   2.668073   3.809494   3.850782
    30  H    5.745226   6.798689   4.694801   6.427006   5.952341
    31  H    6.596254   7.653028   6.062274   7.733018   6.343425
                   26         27         28         29         30
    26  H    0.000000
    27  H    1.752730   0.000000
    28  H    2.521831   2.424752   0.000000
    29  H    2.408370   3.037443   1.747227   0.000000
    30  H    6.171414   6.987683   5.954616   4.316232   0.000000
    31  H    7.541519   8.113767   6.870774   5.434387   1.743833
                   31
    31  H    0.000000
 Stoichiometry    C10H18O3
 Framework group  C1[X(C10H18O3)]
 Deg. of freedom    87
 Full point group                 C1      NOp   1
 Largest Abelian subgroup         C1      NOp   1
 Largest concise Abelian subgroup C1      NOp   1
                         Standard orientation:                         
 ---------------------------------------------------------------------
 Center     Atomic      Atomic             Coordinates (Angstroms)
 Number     Number       Type             X           Y           Z
 ---------------------------------------------------------------------
      1          6           0       -0.758628   -0.223076    0.030290
      2          6           0       -3.652624    0.315769   -0.337752
      3          8           0        2.006010   -1.204291    0.664543
      4          6           0       -1.425246    1.113094   -0.320697
      5          6           0       -1.832133   -1.290644    0.251082
      6          8           0        0.011535   -0.126344    1.220800
      7          6           0        2.007910    1.246414    0.697308
      8          6           0        2.324775    1.245620   -0.797064
      9          6           0        1.417425   -0.061355    1.229840
     10          6           0        3.176568    0.020430   -1.113578
     11          6           0        2.449933   -1.242484   -0.690437
     12          6           0       -3.015239   -1.035892   -0.680025
     13          8           0       -2.714013    1.205948    0.246957
     14          1           0       -0.128349   -0.512485   -0.793864
     15          1           0       -4.081568    0.781015   -1.220408
     16          1           0       -4.436266    0.194746    0.398153
     17          1           0       -0.853063    1.943058    0.064519
     18          1           0       -1.498340    1.220656   -1.399220
     19          1           0       -2.165529   -1.239653    1.283165
     20          1           0       -1.410966   -2.278102    0.095504
     21          1           0        1.344548    2.058039    0.971454
     22          1           0        2.938275    1.402542    1.237134
     23          1           0        1.416389    1.231221   -1.392609
     24          1           0        2.855840    2.157395   -1.052065
     25          1           0        1.640916   -0.132560    2.281995
     26          1           0        3.395974   -0.048623   -2.175007
     27          1           0        4.125684    0.089733   -0.587417
     28          1           0        3.102472   -2.103090   -0.742299
     29          1           0        1.606592   -1.429613   -1.343608
     30          1           0       -2.676718   -1.045938   -1.712268
     31          1           0       -3.760595   -1.818097   -0.585354
 ---------------------------------------------------------------------
 Rotational constants (GHZ):           1.6376382           0.4568203           0.4303369
 Standard basis: 6-311++G(2d,2p) (5D, 7F)
 There are   557 symmetry adapted cartesian basis functions of A   symmetry.
 There are   531 symmetry adapted basis functions of A   symmetry.
   531 basis functions,   762 primitive gaussians,   557 cartesian basis functions
    51 alpha electrons       51 beta electrons
       nuclear repulsion energy       902.3570055848 Hartrees.
 NAtoms=   31 NActive=   31 NUniq=   31 SFac= 1.00D+00 NAtFMM=   60 NAOKFM=F Big=F
 Integral buffers will be    131072 words long.
 Raffenetti 2 integral format.
 Two-electron integral symmetry is turned on.
 ------------------------------------------------------------------------------
 Polarizable Continuum Model (PCM)
 =================================
 Model                : PCM.
 Atomic radii         : UFF (Universal Force Field).
 Polarization charges : Total charges.
 Charge compensation  : None.
 Solution method      : On-the-fly selection.
 Cavity type          : Scaled VdW (van der Waals Surface) (Alpha=1.100).
 Cavity algorithm     : GePol (No added spheres)
                        Default sphere list used, NSphG=   31.
                        Lebedev-Laikov grids with approx.  5.0 points / Ang**2.
                        Smoothing algorithm: York/Karplus (Gamma=1.0000).
                        Polarization charges: spherical gaussians, with
                                              point-specific exponents (IZeta= 3).
                        Self-potential: point-specific (ISelfS= 7).
                        Self-field    : sphere-specific E.n sum rule (ISelfD= 2).
 1st derivatives      : Analytical E(r).r(x)/FMM algorithm (CHGder, D1EAlg=3).
                        Cavity 1st derivative terms included.
 Solvent              : Water, Eps=  78.355300 Eps(inf)=   1.777849
 ------------------------------------------------------------------------------
 One-electron integrals computed using PRISM.
 NBasis=   531 RedAO= T EigKep=  4.12D-06  NBF=   531
 NBsUse=   531 1.00D-06 EigRej= -1.00D+00 NBFU=   531
 ExpMin= 3.60D-02 ExpMax= 8.59D+03 ExpMxC= 1.30D+03 IAcc=3 IRadAn=         5 AccDes= 0.00D+00
 Harris functional with IExCor= 1009 and IRadAn=       5 diagonalized for initial guess.
 HarFok:  IExCor= 1009 AccDes= 0.00D+00 IRadAn=         5 IDoV= 1 UseB2=F ITyADJ=14
 ICtDFT=  3500011 ScaDFX=  1.000000  1.000000  1.000000  1.000000
 FoFCou: FMM=F IPFlag=           0 FMFlag=      100000 FMFlg1=           0
         NFxFlg=           0 DoJE=T BraDBF=F KetDBF=T FulRan=T
         wScrn=  0.000000 ICntrl=       500 IOpCl=  0 I1Cent=   200000004 NGrid=           0
         NMat0=    1 NMatS0=      1 NMatT0=    0 NMatD0=    1 NMtDS0=    0 NMtDT0=    0
 Petite list used in FoFCou.
 Requested convergence on RMS density matrix=1.00D-08 within 128 cycles.
 Requested convergence on MAX density matrix=1.00D-06.
 Requested convergence on             energy=1.00D-06.
 No special actions if energy rises.
 Inv3:  Mode=1 IEnd=    12204867.
 Iteration    1 A*A^-1 deviation from unit magnitude is 5.44D-15 for   2007.
 Iteration    1 A*A^-1 deviation from orthogonality  is 1.96D-15 for   1999   1259.
 Iteration    1 A^-1*A deviation from unit magnitude is 5.22D-15 for   2007.
 Iteration    1 A^-1*A deviation from orthogonality  is 3.36D-15 for   1998    541.
 Error on total polarization charges =  0.01477
 SCF Done:  E(RM062X) =  -617.481668551     A.U. after   12 cycles
            NFock= 12  Conv=0.61D-08     -V/T= 2.0035

 **********************************************************************

            Population analysis using the SCF density.

 **********************************************************************

 Orbital symmetries:
       Occupied  (A) (A) (A) (A) (A) (A) (A) (A) (A) (A) (A) (A)
                 (A) (A) (A) (A) (A) (A) (A) (A) (A) (A) (A) (A)
                 (A) (A) (A) (A) (A) (A) (A) (A) (A) (A) (A) (A)
                 (A) (A) (A) (A) (A) (A) (A) (A) (A) (A) (A) (A)
                 (A) (A) (A)
       Virtual   (A) (A) (A) (A) (A) (A) (A) (A) (A) (A) (A) (A)
                 (A) (A) (A) (A) (A) (A) (A) (A) (A) (A) (A) (A)
                 (A) (A) (A) (A) (A) (A) (A) (A) (A) (A) (A) (A)
                 (A) (A) (A) (A) (A) (A) (A) (A) (A) (A) (A) (A)
                 (A) (A) (A) (A) (A) (A) (A) (A) (A) (A) (A) (A)
                 (A) (A) (A) (A) (A) (A) (A) (A) (A) (A) (A) (A)
                 (A) (A) (A) (A) (A) (A) (A) (A) (A) (A) (A) (A)
                 (A) (A) (A) (A) (A) (A) (A) (A) (A) (A) (A) (A)
                 (A) (A) (A) (A) (A) (A) (A) (A) (A) (A) (A) (A)
                 (A) (A) (A) (A) (A) (A) (A) (A) (A) (A) (A) (A)
                 (A) (A) (A) (A) (A) (A) (A) (A) (A) (A) (A) (A)
                 (A) (A) (A) (A) (A) (A) (A) (A) (A) (A) (A) (A)
                 (A) (A) (A) (A) (A) (A) (A) (A) (A) (A) (A) (A)
                 (A) (A) (A) (A) (A) (A) (A) (A) (A) (A) (A) (A)
                 (A) (A) (A) (A) (A) (A) (A) (A) (A) (A) (A) (A)
                 (A) (A) (A) (A) (A) (A) (A) (A) (A) (A) (A) (A)
                 (A) (A) (A) (A) (A) (A) (A) (A) (A) (A) (A) (A)
                 (A) (A) (A) (A) (A) (A) (A) (A) (A) (A) (A) (A)
                 (A) (A) (A) (A) (A) (A) (A) (A) (A) (A) (A) (A)
                 (A) (A) (A) (A) (A) (A) (A) (A) (A) (A) (A) (A)
                 (A) (A) (A) (A) (A) (A) (A) (A) (A) (A) (A) (A)
                 (A) (A) (A) (A) (A) (A) (A) (A) (A) (A) (A) (A)
                 (A) (A) (A) (A) (A) (A) (A) (A) (A) (A) (A) (A)
                 (A) (A) (A) (A) (A) (A) (A) (A) (A) (A) (A) (A)
                 (A) (A) (A) (A) (A) (A) (A) (A) (A) (A) (A) (A)
                 (A) (A) (A) (A) (A) (A) (A) (A) (A) (A) (A) (A)
                 (A) (A) (A) (A) (A) (A) (A) (A) (A) (A) (A) (A)
                 (A) (A) (A) (A) (A) (A) (A) (A) (A) (A) (A) (A)
                 (A) (A) (A) (A) (A) (A) (A) (A) (A) (A) (A) (A)
                 (A) (A) (A) (A) (A) (A) (A) (A) (A) (A) (A) (A)
                 (A) (A) (A) (A) (A) (A) (A) (A) (A) (A) (A) (A)
                 (A) (A) (A) (A) (A) (A) (A) (A) (A) (A) (A) (A)
                 (A) (A) (A) (A) (A) (A) (A) (A) (A) (A) (A) (A)
                 (A) (A) (A) (A) (A) (A) (A) (A) (A) (A) (A) (A)
                 (A) (A) (A) (A) (A) (A) (A) (A) (A) (A) (A) (A)
                 (A) (A) (A) (A) (A) (A) (A) (A) (A) (A) (A) (A)
                 (A) (A) (A) (A) (A) (A) (A) (A) (A) (A) (A) (A)
                 (A) (A) (A) (A) (A) (A) (A) (A) (A) (A) (A) (A)
                 (A) (A) (A) (A) (A) (A) (A) (A) (A) (A) (A) (A)
                 (A) (A) (A) (A) (A) (A) (A) (A) (A) (A) (A) (A)
 The electronic state is 1-A.
 Alpha  occ. eigenvalues --  -19.63008 -19.62588 -19.62447 -10.63795 -10.58820
 Alpha  occ. eigenvalues --  -10.58146 -10.57827 -10.57813 -10.53395 -10.53227
 Alpha  occ. eigenvalues --  -10.53187 -10.53107 -10.53097  -1.19426  -1.16485
 Alpha  occ. eigenvalues --   -1.13254  -0.90770  -0.90455  -0.87416  -0.84812
 Alpha  occ. eigenvalues --   -0.75503  -0.74767  -0.74044  -0.70856  -0.65159
 Alpha  occ. eigenvalues --   -0.63162  -0.59608  -0.58832  -0.57574  -0.56954
 Alpha  occ. eigenvalues --   -0.54958  -0.53335  -0.53002  -0.51497  -0.49647
 Alpha  occ. eigenvalues --   -0.49146  -0.46211  -0.45598  -0.45336  -0.44928
 Alpha  occ. eigenvalues --   -0.43914  -0.42690  -0.40868  -0.40799  -0.40424
 Alpha  occ. eigenvalues --   -0.38574  -0.37055  -0.36540  -0.34561  -0.33697
 Alpha  occ. eigenvalues --   -0.31100
 Alpha virt. eigenvalues --   -0.00270   0.00629   0.00877   0.01172   0.02248
 Alpha virt. eigenvalues --    0.02576   0.02634   0.03273   0.03664   0.04553
 Alpha virt. eigenvalues --    0.04659   0.04986   0.05593   0.05861   0.07356
 Alpha virt. eigenvalues --    0.07616   0.08140   0.08527   0.08966   0.09295
 Alpha virt. eigenvalues --    0.09741   0.10584   0.10729   0.11247   0.11685
 Alpha virt. eigenvalues --    0.12059   0.12448   0.12734   0.13115   0.13532
 Alpha virt. eigenvalues --    0.13845   0.14047   0.14292   0.14666   0.14908
 Alpha virt. eigenvalues --    0.14979   0.15212   0.15782   0.15923   0.16280
 Alpha virt. eigenvalues --    0.16453   0.16868   0.17012   0.17676   0.18069
 Alpha virt. eigenvalues --    0.18214   0.18454   0.18522   0.18835   0.19306
 Alpha virt. eigenvalues --    0.19745   0.20359   0.20669   0.20784   0.21309
 Alpha virt. eigenvalues --    0.21595   0.22470   0.23055   0.23991   0.24249
 Alpha virt. eigenvalues --    0.24886   0.25166   0.25995   0.26200   0.26845
 Alpha virt. eigenvalues --    0.27524   0.28382   0.28432   0.28713   0.29648
 Alpha virt. eigenvalues --    0.30267   0.31014   0.31396   0.31511   0.32471
 Alpha virt. eigenvalues --    0.32558   0.33603   0.34056   0.34467   0.34688
 Alpha virt. eigenvalues --    0.35340   0.35631   0.35781   0.35945   0.36691
 Alpha virt. eigenvalues --    0.36976   0.37181   0.38341   0.38562   0.39104
 Alpha virt. eigenvalues --    0.39280   0.39779   0.40399   0.40484   0.41235
 Alpha virt. eigenvalues --    0.41526   0.41978   0.42151   0.43577   0.45282
 Alpha virt. eigenvalues --    0.47004   0.47864   0.49106   0.49466   0.50127
 Alpha virt. eigenvalues --    0.51771   0.52273   0.54003   0.54722   0.55106
 Alpha virt. eigenvalues --    0.55896   0.56141   0.57142   0.58572   0.59238
 Alpha virt. eigenvalues --    0.59749   0.60099   0.60872   0.61149   0.61361
 Alpha virt. eigenvalues --    0.61752   0.62097   0.63096   0.63457   0.64043
 Alpha virt. eigenvalues --    0.64604   0.65481   0.65950   0.66533   0.67007
 Alpha virt. eigenvalues --    0.68437   0.69246   0.69608   0.70142   0.70696
 Alpha virt. eigenvalues --    0.71025   0.71204   0.71828   0.72664   0.73218
 Alpha virt. eigenvalues --    0.73755   0.73865   0.74933   0.75419   0.76170
 Alpha virt. eigenvalues --    0.76698   0.77032   0.77979   0.78396   0.78917
 Alpha virt. eigenvalues --    0.80961   0.81542   0.82610   0.85006   0.85618
 Alpha virt. eigenvalues --    0.86268   0.87351   0.88081   0.89281   0.90123
 Alpha virt. eigenvalues --    0.91040   0.92753   0.94160   0.95455   0.96078
 Alpha virt. eigenvalues --    0.96545   0.97327   0.98013   0.98943   1.01925
 Alpha virt. eigenvalues --    1.02473   1.03797   1.04533   1.05555   1.06524
 Alpha virt. eigenvalues --    1.07113   1.08080   1.09947   1.10870   1.11957
 Alpha virt. eigenvalues --    1.13127   1.13504   1.14216   1.15326   1.16306
 Alpha virt. eigenvalues --    1.16865   1.18081   1.19438   1.20245   1.21417
 Alpha virt. eigenvalues --    1.22487   1.22968   1.23360   1.23544   1.24957
 Alpha virt. eigenvalues --    1.25696   1.26148   1.26269   1.27570   1.28316
 Alpha virt. eigenvalues --    1.28809   1.29467   1.29809   1.30693   1.31600
 Alpha virt. eigenvalues --    1.32010   1.32554   1.33503   1.34473   1.34990
 Alpha virt. eigenvalues --    1.35265   1.36061   1.36780   1.37826   1.37893
 Alpha virt. eigenvalues --    1.39336   1.40159   1.40752   1.41705   1.42384
 Alpha virt. eigenvalues --    1.43023   1.43226   1.43593   1.44305   1.44943
 Alpha virt. eigenvalues --    1.45938   1.47040   1.47632   1.48447   1.49097
 Alpha virt. eigenvalues --    1.49160   1.49901   1.50361   1.51102   1.52073
 Alpha virt. eigenvalues --    1.53220   1.53559   1.54697   1.55450   1.56051
 Alpha virt. eigenvalues --    1.56450   1.57424   1.58258   1.58473   1.59485
 Alpha virt. eigenvalues --    1.60033   1.60630   1.61069   1.61485   1.62274
 Alpha virt. eigenvalues --    1.63193   1.63767   1.64273   1.66063   1.67195
 Alpha virt. eigenvalues --    1.67422   1.68465   1.69769   1.70780   1.71276
 Alpha virt. eigenvalues --    1.72563   1.73170   1.74293   1.76188   1.77538
 Alpha virt. eigenvalues --    1.77893   1.78788   1.80517   1.82103   1.83569
 Alpha virt. eigenvalues --    1.85337   1.86480   1.87673   1.94166   1.96960
 Alpha virt. eigenvalues --    2.00234   2.07472   2.09786   2.13238   2.17851
 Alpha virt. eigenvalues --    2.22751   2.24659   2.28116   2.30886   2.37335
 Alpha virt. eigenvalues --    2.39980   2.42513   2.44730   2.47185   2.54632
 Alpha virt. eigenvalues --    2.56797   2.76381   2.77123   2.82439   2.84169
 Alpha virt. eigenvalues --    2.85453   2.89740   2.90072   2.92524   2.94371
 Alpha virt. eigenvalues --    2.95025   2.97058   2.97362   3.01475   3.03411
 Alpha virt. eigenvalues --    3.03651   3.07252   3.08834   3.09805   3.11406
 Alpha virt. eigenvalues --    3.12763   3.13179   3.16113   3.17776   3.20474
 Alpha virt. eigenvalues --    3.23194   3.29076   3.30834   3.32214   3.32742
 Alpha virt. eigenvalues --    3.34480   3.36027   3.37792   3.38992   3.39310
 Alpha virt. eigenvalues --    3.40165   3.42741   3.43230   3.44995   3.45574
 Alpha virt. eigenvalues --    3.46382   3.48386   3.50102   3.50279   3.51478
 Alpha virt. eigenvalues --    3.53065   3.53222   3.54549   3.55237   3.55687
 Alpha virt. eigenvalues --    3.56383   3.57225   3.57736   3.59374   3.59649
 Alpha virt. eigenvalues --    3.60990   3.61980   3.62635   3.63871   3.65292
 Alpha virt. eigenvalues --    3.65836   3.66954   3.67312   3.68739   3.69898
 Alpha virt. eigenvalues --    3.70281   3.70824   3.72379   3.73238   3.73848
 Alpha virt. eigenvalues --    3.75507   3.75692   3.76147   3.78108   3.78964
 Alpha virt. eigenvalues --    3.80281   3.81368   3.82114   3.83969   3.84723
 Alpha virt. eigenvalues --    3.85698   3.87514   3.88140   3.89837   3.91411
 Alpha virt. eigenvalues --    3.92781   3.95187   3.96517   3.97911   3.99165
 Alpha virt. eigenvalues --    3.99231   4.01116   4.02204   4.04376   4.04889
 Alpha virt. eigenvalues --    4.05062   4.05744   4.06156   4.07706   4.08969
 Alpha virt. eigenvalues --    4.09226   4.09649   4.11204   4.11779   4.12042
 Alpha virt. eigenvalues --    4.12332   4.12811   4.14017   4.14186   4.15186
 Alpha virt. eigenvalues --    4.15500   4.17099   4.19086   4.19265   4.20763
 Alpha virt. eigenvalues --    4.22296   4.23979   4.25024   4.26717   4.27427
 Alpha virt. eigenvalues --    4.27844   4.30205   4.30637   4.32829   4.33634
 Alpha virt. eigenvalues --    4.35363   4.37701   4.38873   4.39253   4.39990
 Alpha virt. eigenvalues --    4.41885   4.43564   4.45788   4.47088   4.55611
 Alpha virt. eigenvalues --    4.59385   4.60830   4.74283   4.74823   4.82227
 Alpha virt. eigenvalues --    4.86463   4.93067   4.94320   4.99044   5.01953
 Alpha virt. eigenvalues --    5.04830   5.07514   5.08255   5.11262   5.14046
 Alpha virt. eigenvalues --    5.14970   5.16001   5.16886   5.33202   5.33942
 Alpha virt. eigenvalues --    5.42781   5.55853   5.59608   5.61885   5.85399
 Alpha virt. eigenvalues --    5.88823   6.02009   7.00971   7.02438   7.07315
 Alpha virt. eigenvalues --    7.08374   7.10745   7.11824   7.12635   7.13532
 Alpha virt. eigenvalues --    7.28437   7.36045   7.42334   7.46481   7.51463
 Alpha virt. eigenvalues --    7.54228   7.63283  23.96645  23.97798  24.05175
 Alpha virt. eigenvalues --   24.06999  24.09319  24.11281  24.13491  24.15030
 Alpha virt. eigenvalues --   24.16911  24.18581  50.16763  50.18817  50.22220
          Condensed to atoms (all electrons):
               1          2          3          4          5          6
     1  C    8.352470   0.106398   0.119779  -0.542656  -1.807532   0.145707
     2  C    0.106398   5.581303   0.000071  -0.160581  -0.036541   0.012238
     3  O    0.119779   0.000071   8.106231   0.001485  -0.068194  -0.021417
     4  C   -0.542656  -0.160581   0.001485   6.393855  -0.111795  -0.161708
     5  C   -1.807532  -0.036541  -0.068194  -0.111795   7.834584  -0.133346
     6  O    0.145707   0.012238  -0.021417  -0.161708  -0.133346   8.281107
     7  C    0.407300  -0.019030   0.018915  -0.055374   0.132975  -0.028998
     8  C   -0.045816  -0.000653  -0.032060   0.004496  -0.038978  -0.025148
     9  C   -1.023919   0.044412   0.253595   0.207497   0.011168   0.183518
    10  C    0.162556   0.010110  -0.102294   0.037440  -0.169943  -0.033801
    11  C   -0.178684  -0.015404   0.183142  -0.012316   0.173092   0.047716
    12  C    0.177859  -0.227917   0.002964  -0.057448  -0.119180   0.024515
    13  O   -0.027127   0.076365  -0.000176   0.152179  -0.094065   0.020851
    14  H    0.587939   0.040686  -0.003735  -0.123597  -0.287302  -0.010976
    15  H    0.045117   0.530547   0.000095  -0.042424  -0.028713  -0.000001
    16  H   -0.002063   0.397893  -0.000083   0.028524  -0.030627   0.001030
    17  H   -0.003110   0.027459  -0.001576   0.381544  -0.036164  -0.013321
    18  H   -0.105332   0.034692  -0.000392   0.447241   0.038603   0.008909
    19  H   -0.113139  -0.038105  -0.001059  -0.006235   0.490925  -0.002124
    20  H   -0.035537  -0.004234   0.001535   0.031137   0.419098  -0.000723
    21  H    0.013640  -0.003130   0.010460  -0.030453   0.032889   0.008774
    22  H    0.017687  -0.000465  -0.013217  -0.002105  -0.005217  -0.000253
    23  H    0.008909  -0.011717  -0.000823   0.001134   0.027708   0.001009
    24  H    0.011401  -0.000212  -0.000034  -0.000939   0.000104  -0.002700
    25  H   -0.029939   0.000638  -0.048848   0.027353   0.010161  -0.082373
    26  H    0.002390   0.000181   0.007972  -0.000955  -0.004163  -0.000948
    27  H   -0.008292   0.000208  -0.006596   0.002533  -0.000555   0.000955
    28  H    0.001384  -0.000692  -0.055112   0.001817   0.001431  -0.002212
    29  H   -0.060916  -0.000694  -0.051832  -0.003686   0.062573   0.012933
    30  H   -0.060110  -0.108837  -0.000213   0.011903   0.003522   0.000749
    31  H    0.027262  -0.015681  -0.000367  -0.014627  -0.027250  -0.000764
               7          8          9         10         11         12
     1  C    0.407300  -0.045816  -1.023919   0.162556  -0.178684   0.177859
     2  C   -0.019030  -0.000653   0.044412   0.010110  -0.015404  -0.227917
     3  O    0.018915  -0.032060   0.253595  -0.102294   0.183142   0.002964
     4  C   -0.055374   0.004496   0.207497   0.037440  -0.012316  -0.057448
     5  C    0.132975  -0.038978   0.011168  -0.169943   0.173092  -0.119180
     6  O   -0.028998  -0.025148   0.183518  -0.033801   0.047716   0.024515
     7  C    7.105948  -0.434136  -1.622890  -0.207670   0.247165   0.044996
     8  C   -0.434136   5.788039   0.352097  -0.197298   0.075297  -0.000291
     9  C   -1.622890   0.352097   7.580362   0.220970  -0.366436  -0.163238
    10  C   -0.207670  -0.197298   0.220970   6.456127  -0.458252  -0.013923
    11  C    0.247165   0.075297  -0.366436  -0.458252   5.742181   0.024863
    12  C    0.044996  -0.000291  -0.163238  -0.013923   0.024863   5.820816
    13  O   -0.013248   0.003477   0.012082   0.000825  -0.000192   0.042587
    14  H   -0.147580  -0.050177   0.158087   0.201215  -0.158738  -0.009833
    15  H    0.000354   0.000161  -0.001976   0.000421  -0.000575  -0.102898
    16  H   -0.001310  -0.000155   0.001721   0.000197  -0.000038   0.023678
    17  H   -0.002197   0.011429   0.028697   0.005476  -0.010367  -0.021581
    18  H    0.000785   0.002363   0.001799  -0.002732   0.002794  -0.041824
    19  H   -0.004287  -0.000235   0.020308  -0.002732   0.003879   0.002072
    20  H   -0.001175  -0.001676  -0.001462   0.001235   0.000475  -0.018785
    21  H    0.518529  -0.073667  -0.121303  -0.022883   0.027710   0.005393
    22  H    0.496575  -0.010234  -0.102783  -0.025703   0.008537   0.000515
    23  H    0.002832   0.510114  -0.055343  -0.149814   0.041252   0.012441
    24  H   -0.044775   0.414460   0.000886  -0.016653   0.005892   0.000750
    25  H   -0.044134   0.005289   0.483391   0.010369  -0.030745  -0.007111
    26  H    0.007832  -0.047375   0.002463   0.447824  -0.043713   0.000257
    27  H   -0.041391   0.009564   0.029785   0.445372  -0.064626  -0.000691
    28  H    0.002909   0.004591  -0.005411  -0.012884   0.428313   0.000386
    29  H    0.058120   0.051540  -0.055804  -0.233811   0.570751   0.000063
    30  H   -0.000503   0.000775   0.004708  -0.004089   0.005103   0.537385
    31  H    0.002650   0.000793  -0.004531  -0.001831   0.001636   0.396740
              13         14         15         16         17         18
     1  C   -0.027127   0.587939   0.045117  -0.002063  -0.003110  -0.105332
     2  C    0.076365   0.040686   0.530547   0.397893   0.027459   0.034692
     3  O   -0.000176  -0.003735   0.000095  -0.000083  -0.001576  -0.000392
     4  C    0.152179  -0.123597  -0.042424   0.028524   0.381544   0.447241
     5  C   -0.094065  -0.287302  -0.028713  -0.030627  -0.036164   0.038603
     6  O    0.020851  -0.010976  -0.000001   0.001030  -0.013321   0.008909
     7  C   -0.013248  -0.147580   0.000354  -0.001310  -0.002197   0.000785
     8  C    0.003477  -0.050177   0.000161  -0.000155   0.011429   0.002363
     9  C    0.012082   0.158087  -0.001976   0.001721   0.028697   0.001799
    10  C    0.000825   0.201215   0.000421   0.000197   0.005476  -0.002732
    11  C   -0.000192  -0.158738  -0.000575  -0.000038  -0.010367   0.002794
    12  C    0.042587  -0.009833  -0.102898   0.023678  -0.021581  -0.041824
    13  O    8.375797   0.018339  -0.061367  -0.081126  -0.071407  -0.027694
    14  H    0.018339   0.737654   0.004715   0.003080   0.018800  -0.031172
    15  H   -0.061367   0.004715   0.522992  -0.024898  -0.000284   0.008659
    16  H   -0.081126   0.003080  -0.024898   0.509971   0.000164  -0.006255
    17  H   -0.071407   0.018800  -0.000284   0.000164   0.501286  -0.010412
    18  H   -0.027694  -0.031172   0.008659  -0.006255  -0.010412   0.480261
    19  H   -0.001461  -0.004740  -0.003533   0.006784   0.000616   0.000985
    20  H   -0.000271  -0.013201   0.001264  -0.002124   0.000717  -0.001670
    21  H    0.000904  -0.008509  -0.000304   0.000249  -0.019284   0.001892
    22  H   -0.000670  -0.000409  -0.000037   0.000008   0.004845  -0.001271
    23  H    0.001314  -0.050483  -0.001237   0.000368  -0.009879  -0.012336
    24  H   -0.000078  -0.007190   0.000038  -0.000043  -0.000043   0.001159
    25  H    0.000218  -0.003186  -0.000112  -0.000093   0.002290   0.000276
    26  H    0.000078   0.005081   0.000016   0.000002   0.000517  -0.000064
    27  H   -0.000010   0.002122   0.000001   0.000004   0.000009   0.000067
    28  H    0.000059   0.003628  -0.000013   0.000002   0.000520  -0.000069
    29  H   -0.001342  -0.069788  -0.000003  -0.000322  -0.003666   0.005654
    30  H   -0.001466  -0.033827  -0.016098   0.008280  -0.002482  -0.005236
    31  H    0.008748  -0.004330   0.001851  -0.009619   0.001104  -0.000042
              19         20         21         22         23         24
     1  C   -0.113139  -0.035537   0.013640   0.017687   0.008909   0.011401
     2  C   -0.038105  -0.004234  -0.003130  -0.000465  -0.011717  -0.000212
     3  O   -0.001059   0.001535   0.010460  -0.013217  -0.000823  -0.000034
     4  C   -0.006235   0.031137  -0.030453  -0.002105   0.001134  -0.000939
     5  C    0.490925   0.419098   0.032889  -0.005217   0.027708   0.000104
     6  O   -0.002124  -0.000723   0.008774  -0.000253   0.001009  -0.002700
     7  C   -0.004287  -0.001175   0.518529   0.496575   0.002832  -0.044775
     8  C   -0.000235  -0.001676  -0.073667  -0.010234   0.510114   0.414460
     9  C    0.020308  -0.001462  -0.121303  -0.102783  -0.055343   0.000886
    10  C   -0.002732   0.001235  -0.022883  -0.025703  -0.149814  -0.016653
    11  C    0.003879   0.000475   0.027710   0.008537   0.041252   0.005892
    12  C    0.002072  -0.018785   0.005393   0.000515   0.012441   0.000750
    13  O   -0.001461  -0.000271   0.000904  -0.000670   0.001314  -0.000078
    14  H   -0.004740  -0.013201  -0.008509  -0.000409  -0.050483  -0.007190
    15  H   -0.003533   0.001264  -0.000304  -0.000037  -0.001237   0.000038
    16  H    0.006784  -0.002124   0.000249   0.000008   0.000368  -0.000043
    17  H    0.000616   0.000717  -0.019284   0.004845  -0.009879  -0.000043
    18  H    0.000985  -0.001670   0.001892  -0.001271  -0.012336   0.001159
    19  H    0.461941  -0.015723   0.000176   0.000072   0.000877  -0.000099
    20  H   -0.015723   0.485545  -0.000169   0.000006   0.000266  -0.000011
    21  H    0.000176  -0.000169   0.495469  -0.010353   0.002109  -0.005445
    22  H    0.000072   0.000006  -0.010353   0.445183   0.005084  -0.009376
    23  H    0.000877   0.000266   0.002109   0.005084   0.503180  -0.006633
    24  H   -0.000099  -0.000011  -0.005445  -0.009376  -0.006633   0.449961
    25  H   -0.000208   0.000637  -0.016561  -0.006432  -0.001461   0.001825
    26  H   -0.000049   0.000017  -0.000113  -0.001069  -0.006623  -0.006524
    27  H   -0.000059   0.000038  -0.003118  -0.003516  -0.001784   0.000954
    28  H    0.000363   0.000078   0.000194   0.001123  -0.001686   0.001403
    29  H   -0.000171  -0.002287   0.004556  -0.002385   0.004841   0.004046
    30  H    0.006732  -0.002171   0.000311   0.000050   0.003943  -0.000023
    31  H   -0.001044  -0.011695   0.000221  -0.000001   0.000069   0.000069
              25         26         27         28         29         30
     1  C   -0.029939   0.002390  -0.008292   0.001384  -0.060916  -0.060110
     2  C    0.000638   0.000181   0.000208  -0.000692  -0.000694  -0.108837
     3  O   -0.048848   0.007972  -0.006596  -0.055112  -0.051832  -0.000213
     4  C    0.027353  -0.000955   0.002533   0.001817  -0.003686   0.011903
     5  C    0.010161  -0.004163  -0.000555   0.001431   0.062573   0.003522
     6  O   -0.082373  -0.000948   0.000955  -0.002212   0.012933   0.000749
     7  C   -0.044134   0.007832  -0.041391   0.002909   0.058120  -0.000503
     8  C    0.005289  -0.047375   0.009564   0.004591   0.051540   0.000775
     9  C    0.483391   0.002463   0.029785  -0.005411  -0.055804   0.004708
    10  C    0.010369   0.447824   0.445372  -0.012884  -0.233811  -0.004089
    11  C   -0.030745  -0.043713  -0.064626   0.428313   0.570751   0.005103
    12  C   -0.007111   0.000257  -0.000691   0.000386   0.000063   0.537385
    13  O    0.000218   0.000078  -0.000010   0.000059  -0.001342  -0.001466
    14  H   -0.003186   0.005081   0.002122   0.003628  -0.069788  -0.033827
    15  H   -0.000112   0.000016   0.000001  -0.000013  -0.000003  -0.016098
    16  H   -0.000093   0.000002   0.000004   0.000002  -0.000322   0.008280
    17  H    0.002290   0.000517   0.000009   0.000520  -0.003666  -0.002482
    18  H    0.000276  -0.000064   0.000067  -0.000069   0.005654  -0.005236
    19  H   -0.000208  -0.000049  -0.000059   0.000363  -0.000171   0.006732
    20  H    0.000637   0.000017   0.000038   0.000078  -0.002287  -0.002171
    21  H   -0.016561  -0.000113  -0.003118   0.000194   0.004556   0.000311
    22  H   -0.006432  -0.001069  -0.003516   0.001123  -0.002385   0.000050
    23  H   -0.001461  -0.006623  -0.001784  -0.001686   0.004841   0.003943
    24  H    0.001825  -0.006524   0.000954   0.001403   0.004046  -0.000023
    25  H    0.468301   0.000857   0.003452  -0.000266  -0.000951   0.000313
    26  H    0.000857   0.473150  -0.003461  -0.009662  -0.003332  -0.000173
    27  H    0.003452  -0.003461   0.468190  -0.004674   0.003368  -0.000049
    28  H   -0.000266  -0.009662  -0.004674   0.461587  -0.024648   0.000251
    29  H   -0.000951  -0.003332   0.003368  -0.024648   0.570053   0.000870
    30  H    0.000313  -0.000173  -0.000049   0.000251   0.000870   0.480455
    31  H   -0.000094  -0.000026  -0.000022   0.000030   0.001498  -0.008673
              31
     1  C    0.027262
     2  C   -0.015681
     3  O   -0.000367
     4  C   -0.014627
     5  C   -0.027250
     6  O   -0.000764
     7  C    0.002650
     8  C    0.000793
     9  C   -0.004531
    10  C   -0.001831
    11  C    0.001636
    12  C    0.396740
    13  O    0.008748
    14  H   -0.004330
    15  H    0.001851
    16  H   -0.009619
    17  H    0.001104
    18  H   -0.000042
    19  H   -0.001044
    20  H   -0.011695
    21  H    0.000221
    22  H   -0.000001
    23  H    0.000069
    24  H    0.000069
    25  H   -0.000094
    26  H   -0.000026
    27  H   -0.000022
    28  H    0.000030
    29  H    0.001498
    30  H   -0.008673
    31  H    0.478371
 Mulliken charges:
               1
     1  C   -0.143623
     2  C   -0.219306
     3  O   -0.298216
     4  C   -0.403236
     5  C   -0.239268
     6  O   -0.229196
     7  C   -0.379184
     8  C   -0.276586
     9  C   -0.072450
    10  C   -0.343822
    11  C   -0.249714
    12  C   -0.333559
    13  O   -0.332124
    14  H    0.237427
    15  H    0.168243
    16  H    0.176803
    17  H    0.220299
    18  H    0.210365
    19  H    0.199273
    20  H    0.170868
    21  H    0.191819
    22  H    0.215813
    23  H    0.182371
    24  H    0.207830
    25  H    0.257147
    26  H    0.179616
    27  H    0.172224
    28  H    0.207258
    29  H    0.164774
    30  H    0.178599
    31  H    0.179555
 Sum of Mulliken charges =  -0.00000
 Mulliken charges with hydrogens summed into heavy atoms:
               1
     1  C    0.093804
     2  C    0.125740
     3  O   -0.298216
     4  C    0.027428
     5  C    0.130873
     6  O   -0.229196
     7  C    0.028448
     8  C    0.113615
     9  C    0.184698
    10  C    0.008018
    11  C    0.122319
    12  C    0.024595
    13  O   -0.332124
 Electronic spatial extent (au):  <R**2>=           2833.5007
 Charge=             -0.0000 electrons
 Dipole moment (field-independent basis, Debye):
    X=              1.3482    Y=              0.1092    Z=             -4.1207  Tot=              4.3370
 Quadrupole moment (field-independent basis, Debye-Ang):
   XX=            -73.5840   YY=            -82.5436   ZZ=            -80.6841
   XY=              8.6999   XZ=              1.5301   YZ=              1.9014
 Traceless Quadrupole moment (field-independent basis, Debye-Ang):
   XX=              5.3533   YY=             -3.6064   ZZ=             -1.7469
   XY=              8.6999   XZ=              1.5301   YZ=              1.9014
 Octapole moment (field-independent basis, Debye-Ang**2):
  XXX=             -4.2665  YYY=             -0.9972  ZZZ=              2.3428  XYY=              6.1884
  XXY=            -13.1362  XXZ=            -12.9226  XZZ=              4.6051  YZZ=              1.0941
  YYZ=             -4.4610  XYZ=             10.8518
 Hexadecapole moment (field-independent basis, Debye-Ang**3):
 XXXX=          -2588.7573 YYYY=           -609.6290 ZZZZ=           -416.4651 XXXY=             41.8116
 XXXZ=              1.8982 YYYX=              4.5636 YYYZ=              6.0083 ZZZX=             10.8923
 ZZZY=             -1.6934 XXYY=           -571.2672 XXZZ=           -515.0743 YYZZ=           -178.0791
 XXYZ=              1.7299 YYXZ=             -4.2714 ZZXY=             -3.5107
 N-N= 9.023570055848D+02 E-N=-3.246467094953D+03  KE= 6.153127992025D+02
 D1PCM: PCM CHGder 1st derivatives, ID1Alg=3 FixD1E=F DoIter=F DoCFld=F I1PDM=0.
 Calling FoFJK, ICntrl=      2127 FMM=F ISym2X=0 I1Cent= 0 IOpClX= 0 NMat=1 NMatS=1 NMatT=0.
 ***** Axes restored to original set *****
 -------------------------------------------------------------------
 Center     Atomic                   Forces (Hartrees/Bohr)
 Number     Number              X              Y              Z
 -------------------------------------------------------------------
      1        6          -0.001275895   -0.003399815    0.003059324
      2        6          -0.005685363    0.002672437   -0.001521735
      3        8          -0.001774743    0.006938145    0.005700293
      4        6           0.004743111    0.006048608   -0.000551463
      5        6           0.000924510   -0.002084421   -0.003626825
      6        8           0.005993474    0.001765160    0.009333103
      7        6           0.000434453    0.002000121   -0.002702960
      8        6          -0.001038881    0.003301838    0.003600834
      9        6           0.000538198   -0.003491923   -0.014195698
     10        6           0.002911448    0.000433508   -0.000507502
     11        6          -0.000174223   -0.007916434    0.003122940
     12        6          -0.000253347   -0.000892159    0.001757820
     13        8           0.000314027   -0.005340124    0.008067195
     14        1          -0.005311022    0.002745368   -0.006547714
     15        1           0.002194330   -0.001371251   -0.004859934
     16        1           0.003105995    0.000822889    0.003475618
     17        1          -0.004053210   -0.003615860    0.002582037
     18        1          -0.000534055   -0.000399265   -0.006617504
     19        1           0.000345745   -0.001791486    0.003551835
     20        1          -0.001554968    0.002357129   -0.000434639
     21        1           0.002556063   -0.002500532    0.001132514
     22        1          -0.003220216   -0.000666042    0.001361961
     23        1           0.004161029    0.000563363   -0.002291612
     24        1          -0.000926841   -0.002137099   -0.000885889
     25        1          -0.001217383    0.000278255    0.006927356
     26        1          -0.000645230   -0.000189203   -0.002695835
     27        1          -0.002460218   -0.000251098    0.002196893
     28        1          -0.002922432    0.003561265   -0.000573647
     29        1           0.004696956    0.000482948   -0.004783879
     30        1          -0.001461382   -0.000134078   -0.003132907
     31        1           0.001590068    0.002209757    0.000060020
 -------------------------------------------------------------------
 Cartesian Forces:  Max     0.014195698 RMS     0.003632976

 GradGradGradGradGradGradGradGradGradGradGradGradGradGradGradGradGradGrad
 Berny optimization.
 FormGI is forming the generalized inverse of G from B-inverse, IUseBI=4.
 Internal  Forces:  Max     0.022710718 RMS     0.002532852
 Search for a local minimum.
 Step number   1 out of a maximum of  186
 All quantities printed in internal units (Hartrees-Bohrs-Radians)
 Mixed Optimization -- RFO/linear search
 Second derivative matrix not updated -- first step.
 ITU=  0
     Eigenvalues ---    0.00415   0.00575   0.00615   0.00735   0.01218
     Eigenvalues ---    0.01411   0.01431   0.02566   0.02818   0.02983
     Eigenvalues ---    0.03380   0.03970   0.04305   0.04433   0.04690
     Eigenvalues ---    0.04694   0.04815   0.04947   0.04998   0.05110
     Eigenvalues ---    0.05176   0.05646   0.05657   0.05774   0.05973
     Eigenvalues ---    0.06145   0.06387   0.06667   0.07422   0.07712
     Eigenvalues ---    0.07818   0.07855   0.07961   0.08092   0.08660
     Eigenvalues ---    0.08710   0.09363   0.10170   0.11249   0.11685
     Eigenvalues ---    0.11781   0.11810   0.11880   0.12642   0.12653
     Eigenvalues ---    0.14697   0.15832   0.17031   0.18554   0.19907
     Eigenvalues ---    0.19961   0.21901   0.22546   0.25000   0.27154
     Eigenvalues ---    0.27893   0.28321   0.28600   0.28982   0.29190
     Eigenvalues ---    0.29263   0.30161   0.35113   0.35173   0.35234
     Eigenvalues ---    0.35240   0.35244   0.35271   0.35272   0.35303
     Eigenvalues ---    0.35334   0.35428   0.35444   0.35576   0.35635
     Eigenvalues ---    0.35777   0.35842   0.36094   0.36239   0.36342
     Eigenvalues ---    0.40330   0.40339   0.41551   0.42279   0.43643
     Eigenvalues ---    0.444131000.000001000.000001000.000001000.00000
     Eigenvalues --- 1000.000001000.000001000.000001000.000001000.00000
     Eigenvalues --- 1000.000001000.000001000.000001000.000001000.00000
     Eigenvalues --- 1000.000001000.000001000.000001000.000001000.00000
     Eigenvalues --- 1000.000001000.000001000.000001000.000001000.00000
     Eigenvalues --- 1000.000001000.000001000.000001000.000001000.00000
     Eigenvalues --- 1000.000001000.000001000.000001000.000001000.00000
     Eigenvalues --- 1000.000001000.000001000.000001000.000001000.00000
     Eigenvalues --- 1000.000001000.000001000.000001000.000001000.00000
     Eigenvalues --- 1000.000001000.000001000.000001000.000001000.00000
     Eigenvalues --- 1000.000001000.000001000.000001000.000001000.00000
     Eigenvalues --- 1000.000001000.000001000.000001000.000001000.00000
     Eigenvalues --- 1000.000001000.000001000.000001000.000001000.00000
     Eigenvalues --- 1000.000001000.000001000.000001000.000001000.00000
     Eigenvalues --- 1000.000001000.000001000.000001000.000001000.00000
     Eigenvalues --- 1000.000001000.000001000.000001000.000001000.00000
     Eigenvalues --- 1000.000001000.000001000.000001000.000001000.00000
     Eigenvalues --- 1000.000001000.000001000.000001000.000001000.00000
     Eigenvalues --- 1000.000001000.000001000.000001000.000001000.00000
     Eigenvalues --- 1000.000001000.000001000.000001000.000001000.00000
 RFO step:  Lambda=-5.28837415D-03 EMin= 4.15060343D-03
 Linear search not attempted -- first point.
 Iteration  1 RMS(Cart)=  0.13517081 RMS(Int)=  0.00328469
 Iteration  2 RMS(Cart)=  0.01034413 RMS(Int)=  0.00007960
 Iteration  3 RMS(Cart)=  0.00003103 RMS(Int)=  0.00007831
 Iteration  4 RMS(Cart)=  0.00000000 RMS(Int)=  0.00007831
 Iteration  1 RMS(Cart)=  0.00007412 RMS(Int)=  0.00001610
 Iteration  2 RMS(Cart)=  0.00003917 RMS(Int)=  0.00001799
 Iteration  3 RMS(Cart)=  0.00002070 RMS(Int)=  0.00002025
 Iteration  4 RMS(Cart)=  0.00001094 RMS(Int)=  0.00002169
 Iteration  5 RMS(Cart)=  0.00000578 RMS(Int)=  0.00002250
 Iteration  6 RMS(Cart)=  0.00000306 RMS(Int)=  0.00002294
 Iteration  7 RMS(Cart)=  0.00000162 RMS(Int)=  0.00002318
 Iteration  8 RMS(Cart)=  0.00000085 RMS(Int)=  0.00002330
 Variable       Old X    -DE/DX   Delta X   Delta X   Delta X     New X
                                 (Linear)    (Quad)   (Total)
    R1        2.89870   0.00059   0.00000   0.00135   0.00135   2.90005
    R2        2.89126  -0.00173   0.00000  -0.00712  -0.00713   2.88413
    R3        2.68569   0.00009   0.00000   0.00022   0.00022   2.68590
    R4        2.03551   0.00886   0.00000   0.02402   0.02402   2.05953
    R5        2.89714   0.00072   0.00000   0.00373   0.00372   2.90086
    R6        2.68267   0.00358   0.00000   0.00969   0.00968   2.69235
    R7        2.05236   0.00540   0.00000   0.01510   0.01510   2.06745
    R8        2.04431   0.00471   0.00000   0.01296   0.01296   2.05727
    R9        2.65390   0.00259   0.00000   0.00647   0.00656   2.66047
   R10        2.69543   0.00280   0.00000   0.00728   0.00731   2.70274
   R11        2.66697   0.00240   0.00000   0.00543   0.00545   2.67242
   R12        2.03935   0.00585   0.00000   0.01598   0.01598   2.05533
   R13        2.05288   0.00657   0.00000   0.01838   0.01838   2.07125
   R14        2.88553  -0.00030   0.00000  -0.00214  -0.00213   2.88340
   R15        2.05185   0.00356   0.00000   0.00995   0.00995   2.06180
   R16        2.04986   0.00281   0.00000   0.00782   0.00782   2.05768
   R17        2.65964  -0.00097   0.00000  -0.00215  -0.00215   2.65749
   R18        2.88674  -0.00110   0.00000  -0.00451  -0.00454   2.88220
   R19        2.89228  -0.00060   0.00000  -0.00156  -0.00151   2.89078
   R20        2.04749   0.00373   0.00000   0.01032   0.01032   2.05781
   R21        2.05396   0.00353   0.00000   0.00988   0.00988   2.06384
   R22        2.88257  -0.00091   0.00000  -0.00402  -0.00411   2.87847
   R23        2.05281   0.00474   0.00000   0.01326   0.01326   2.06606
   R24        2.05137   0.00246   0.00000   0.00685   0.00685   2.05822
   R25        2.03709   0.00703   0.00000   0.01913   0.01913   2.05622
   R26        2.86716  -0.00031   0.00000  -0.00145  -0.00150   2.86566
   R27        2.05237   0.00275   0.00000   0.00769   0.00769   2.06005
   R28        2.05491   0.00323   0.00000   0.00906   0.00906   2.06397
   R29        2.04330   0.00463   0.00000   0.01272   0.01272   2.05602
   R30        2.04656   0.00663   0.00000   0.01832   0.01832   2.06488
   R31        2.05296   0.00343   0.00000   0.00960   0.00960   2.06256
   R32        2.04960   0.00269   0.00000   0.00748   0.00748   2.05708
    A1        1.91336   0.00058   0.00000  -0.00332  -0.00342   1.90994
    A2        1.94754  -0.00097   0.00000  -0.00233  -0.00231   1.94523
    A3        1.88942   0.00033   0.00000   0.00196   0.00200   1.89142
    A4        1.88266   0.00080   0.00000   0.00256   0.00261   1.88527
    A5        1.91081  -0.00081   0.00000   0.00145   0.00146   1.91227
    A6        1.91998   0.00006   0.00000  -0.00031  -0.00033   1.91964
    A7        1.94972   0.00182   0.00000   0.00661   0.00652   1.95624
    A8        1.93954  -0.00113   0.00000  -0.00662  -0.00664   1.93290
    A9        1.93307  -0.00081   0.00000  -0.00531  -0.00528   1.92779
   A10        1.90419   0.00046   0.00000   0.00660   0.00665   1.91084
   A11        1.84306  -0.00093   0.00000  -0.00289  -0.00286   1.84020
   A12        1.89092   0.00060   0.00000   0.00189   0.00185   1.89277
   A13        2.13484  -0.00544   0.00000  -0.02585  -0.02566   2.10918
   A14        1.94135   0.00063   0.00000  -0.00034  -0.00050   1.94085
   A15        1.93674  -0.00163   0.00000  -0.01661  -0.01660   1.92014
   A16        1.92054  -0.00048   0.00000   0.00153   0.00150   1.92204
   A17        1.86502  -0.00035   0.00000  -0.00020  -0.00025   1.86477
   A18        1.90855   0.00136   0.00000   0.01446   0.01449   1.92304
   A19        1.89011   0.00051   0.00000   0.00154   0.00149   1.89159
   A20        1.91690  -0.00073   0.00000  -0.00622  -0.00634   1.91055
   A21        1.89636  -0.00047   0.00000  -0.01130  -0.01128   1.88508
   A22        1.91991  -0.00025   0.00000  -0.00103  -0.00095   1.91896
   A23        1.91120   0.00104   0.00000   0.00460   0.00456   1.91577
   A24        1.94470   0.00016   0.00000   0.00642   0.00642   1.95112
   A25        1.87371   0.00026   0.00000   0.00740   0.00733   1.88104
   A26        2.15297  -0.02271   0.00000  -0.08896  -0.08896   2.06401
   A27        2.00419  -0.00159   0.00000  -0.01388  -0.01397   1.99022
   A28        1.95509  -0.00007   0.00000  -0.00508  -0.00530   1.94979
   A29        1.88429   0.00094   0.00000   0.01112   0.01119   1.89548
   A30        1.89211   0.00027   0.00000  -0.00791  -0.00808   1.88404
   A31        1.85477   0.00075   0.00000   0.01447   0.01452   1.86929
   A32        1.86586  -0.00017   0.00000   0.00382   0.00387   1.86973
   A33        1.89571   0.00141   0.00000  -0.00396  -0.00409   1.89162
   A34        1.94213  -0.00036   0.00000  -0.00073  -0.00070   1.94143
   A35        1.90799  -0.00052   0.00000   0.00191   0.00196   1.90995
   A36        1.92043  -0.00072   0.00000   0.00037   0.00039   1.92082
   A37        1.93125  -0.00013   0.00000   0.00108   0.00113   1.93239
   A38        1.86653   0.00029   0.00000   0.00147   0.00144   1.86798
   A39        1.95895   0.00055   0.00000  -0.00976  -0.01011   1.94885
   A40        1.97538   0.00355   0.00000   0.00720   0.00665   1.98203
   A41        1.82578  -0.00147   0.00000   0.01009   0.01005   1.83584
   A42        2.00711  -0.00545   0.00000  -0.03437  -0.03455   1.97256
   A43        1.78270   0.00240   0.00000   0.02195   0.02224   1.80494
   A44        1.89237   0.00066   0.00000   0.01261   0.01265   1.90502
   A45        1.92118  -0.00099   0.00000  -0.00654  -0.00673   1.91445
   A46        1.94622  -0.00024   0.00000   0.00000   0.00007   1.94629
   A47        1.91325   0.00051   0.00000  -0.00099  -0.00094   1.91231
   A48        1.89272   0.00036   0.00000   0.00392   0.00398   1.89670
   A49        1.91359   0.00039   0.00000   0.00019   0.00022   1.91381
   A50        1.87613   0.00001   0.00000   0.00371   0.00368   1.87981
   A51        1.97327   0.00267   0.00000   0.01030   0.01029   1.98356
   A52        1.82833  -0.00107   0.00000  -0.00024  -0.00022   1.82811
   A53        1.91262   0.00031   0.00000   0.00562   0.00565   1.91827
   A54        1.93918  -0.00041   0.00000  -0.00483  -0.00485   1.93433
   A55        1.92684  -0.00202   0.00000  -0.00963  -0.00968   1.91716
   A56        1.87915   0.00052   0.00000  -0.00104  -0.00110   1.87806
   A57        1.91037  -0.00032   0.00000  -0.00674  -0.00678   1.90359
   A58        1.92819   0.00055   0.00000   0.00275   0.00273   1.93092
   A59        1.90778  -0.00007   0.00000   0.00352   0.00354   1.91132
   A60        1.91390  -0.00041   0.00000  -0.00124  -0.00124   1.91266
   A61        1.93790   0.00029   0.00000   0.00039   0.00042   1.93832
   A62        1.86545  -0.00001   0.00000   0.00162   0.00161   1.86705
   A63        1.97888  -0.00476   0.00000  -0.02864  -0.02865   1.95022
    D1        0.49039   0.00196   0.00000   0.02242   0.02243   0.51282
    D2        2.56417   0.00087   0.00000   0.01109   0.01111   2.57528
    D3       -1.62739   0.00016   0.00000   0.00336   0.00340  -1.62399
    D4       -1.59413   0.00120   0.00000   0.02288   0.02287  -1.57126
    D5        0.47965   0.00011   0.00000   0.01154   0.01155   0.49120
    D6        2.57128  -0.00061   0.00000   0.00382   0.00384   2.57512
[...]
 00293,-0.00018802,-0.00003966,0.00024204,0.00000901,-0.00000581,-0.000
 01321,0.00001523,0.00000540,-0.00000030,-0.00002372,0.00006433,-0.0000
 0524,0.00001233,-0.00000499,-0.00003938,0.00001268,0.00000043,-0.00002
 393,-0.00000379,0.00001968,-0.00000440,-0.00009817,-0.00057301,-0.0002
 1616,-0.00040798,0.00009037,0.00068784,0.00008470,0.00005689,0.0001293
 5,-0.00014125,0.00008498,-0.00063856,-0.06664951,0.01988875,0.32258880
 ,0.00014511,0.00001620,-0.00013395,0.00001932,0.00000866,-0.00001417,-
 0.00074068,-0.00295089,-0.00208245,0.00004721,-0.00000689,0.00001651,-
 0.00001088,0.00002188,0.00001665,-0.00037214,-0.00002763,0.00002957,-0
 .00206749,0.00338498,0.00032553,-0.00414237,-0.00005384,-0.01990927,0.
 00075233,-0.00025768,0.00068399,-0.05506963,0.00051360,-0.04139051,-0.
 00386130,0.00184547,-0.01387482,-0.00000889,-0.00001443,-0.00000874,-0
 .00005669,0.00000042,0.00000731,0.00000293,0.00002099,-0.00000954,-0.0
 0000332,0.00000181,0.00000485,-0.00000559,-0.00000235,0.00000040,0.000
 04971,-0.00001798,-0.00001740,-0.00002120,0.00000448,0.00001365,-0.000
 00233,-0.00000376,0.00000034,-0.00000196,-0.00000425,-0.00000127,0.000
 11967,-0.00003656,-0.00116407,0.00025149,0.00006512,-0.00031831,0.0004
 9148,-0.00079805,0.00016975,0.00071161,-0.00042599,0.00065260,-0.00001
 361,-0.00000909,-0.00003664,0.05744924,0.00005922,-0.00007122,-0.00009
 427,-0.00000214,-0.00001085,0.00001358,-0.00446384,-0.00511334,-0.0047
 4122,-0.00004961,-0.00005779,0.00000024,-0.00000754,0.00000884,0.00000
 655,-0.00039359,0.00055484,-0.00006067,0.00424773,-0.00447127,0.000664
 08,0.00307434,0.00016882,0.02702522,0.00093686,-0.00256713,0.00092657,
 0.00033791,-0.04787306,0.00897499,-0.00312797,0.00415001,-0.02836886,-
 0.00000185,-0.00000274,-0.00000304,0.00003595,0.00003092,-0.00000324,0
 .00003818,-0.00002087,-0.00001021,0.00000019,0.00000154,-0.00000239,0.
 00000388,0.00000286,-0.00000160,-0.00005221,0.00003755,0.00000836,0.00
 000134,0.00001425,0.00000391,0.00000097,-0.00000196,0.00000111,0.00000
 519,0.00000442,0.00000113,0.00054362,0.00020442,0.00184033,-0.00006155
 ,-0.00002270,-0.00040895,-0.00038420,0.00092733,-0.00068042,-0.0010817
 7,0.00094076,-0.00028742,-0.00004257,0.00031013,-0.00005442,-0.0014615
 6,0.05205238,0.00017349,0.00001635,-0.00016139,0.00003342,0.00001590,-
 0.00002613,-0.00158968,-0.00181653,0.00010355,0.00007407,0.00000576,0.
 00001770,-0.00001224,0.00003292,0.00001862,-0.00051632,-0.00003967,0.0
 0002160,-0.00130566,0.00145021,0.00093448,-0.00018604,0.00002235,-0.00
 473675,0.00115587,-0.00011898,0.00094091,-0.04400398,0.00831380,-0.308
 98091,-0.00008511,0.00205052,-0.00943891,-0.00001036,-0.00002008,-0.00
 001252,-0.00010614,-0.00000651,0.00000195,0.00001079,0.00002302,-0.000
 01943,-0.00000510,0.00000246,0.00000787,-0.00001011,-0.00000450,0.0000
 0142,0.00003189,-0.00003869,0.00000273,-0.00001502,0.00000908,0.000009
 36,-0.00000826,-0.00000644,-0.00000107,-0.00000056,-0.00000933,0.00000
 021,-0.00018459,-0.00028694,-0.00048567,0.00002291,-0.00005552,0.00031
 881,-0.00032984,0.00011191,0.00035874,0.00011601,0.00030560,0.00025601
 ,0.00001331,-0.00003658,-0.00005186,0.04906250,-0.00969709,0.33365157,
 0.00003540,-0.00003885,0.00022125,0.00004310,0.00002749,-0.00004102,0.
 00050512,0.00099204,-0.00061208,0.00011963,-0.00000190,-0.00001329,0.0
 0000508,0.00005047,-0.00004702,0.00004365,0.00009782,-0.00003411,0.000
 53007,-0.00092397,0.00119264,-0.01909079,-0.00063373,0.00917304,-0.000
 10108,-0.00023048,-0.00019328,-0.24835630,-0.02598420,0.10488736,-0.01
 249961,-0.00264781,0.00742426,-0.00000362,-0.00001054,-0.00001201,-0.0
 0016065,-0.00002397,-0.00001986,0.00007383,0.00007678,-0.00007486,-0.0
 0000510,0.00000137,0.00001096,-0.00001493,-0.00000728,0.00000362,0.000
 02087,-0.00004680,0.00004838,0.00002492,0.00001330,-0.00003556,-0.0000
 2972,-0.00001590,-0.00001047,-0.00000355,-0.00001287,0.00000136,0.0004
 3189,0.00012340,-0.00009843,0.00014063,0.00011118,-0.00086363,-0.00128
 477,0.00332051,-0.00129125,0.00085433,0.00003806,-0.00005270,-0.000073
 96,-0.00002454,-0.00009506,0.00587652,0.00088803,-0.00214422,0.2717344
 6,0.00003600,-0.00000722,0.00011422,-0.00000491,-0.00002598,0.00003380
 ,0.00206524,0.00193261,-0.00038737,-0.00010515,-0.00016404,-0.00003161
 ,-0.00000260,0.00003040,0.00002158,-0.00004941,0.00002899,-0.00005656,
 -0.00040881,0.00103469,-0.00136850,0.02523644,0.00151151,-0.01218056,0
 .00016683,-0.00042502,-0.00001652,-0.02540307,-0.05036932,0.01260479,-
 0.02812234,-0.00638669,0.01734971,0.00000036,-0.00000661,-0.00000331,0
 .00007271,0.00012018,0.00001053,0.00013982,-0.00010202,-0.00003258,0.0
 0000111,0.00000210,-0.00000540,0.00001122,0.00000845,-0.00000659,0.000
 02241,0.00009738,-0.00006979,-0.00004633,-0.00000671,0.00004097,-0.000
 00169,-0.00000019,-0.00000547,0.00001154,0.00000226,0.00000830,-0.0003
 0383,-0.00005992,-0.00015717,-0.00039081,-0.00002325,0.00042265,0.0035
 0368,-0.00349567,0.00197401,-0.00081930,0.00091689,-0.00050349,-0.0000
 4823,0.00015314,-0.00003665,-0.00032667,-0.00093418,0.00016502,0.02717
 408,0.05952549,-0.00006412,0.00002856,0.00008795,-0.00000559,0.0000022
 2,-0.00000635,0.00092462,0.00047089,0.00170222,-0.00000711,0.00005590,
 -0.00006393,0.00002016,-0.00001317,-0.00001413,0.00025134,-0.00001721,
 -0.00000499,-0.00128435,0.00007449,0.00077078,-0.00661605,-0.00105200,
 0.00236356,-0.00038831,0.00020923,-0.00019978,0.10681885,0.01376717,-0
 .10756059,-0.00943318,-0.00130265,0.00341706,0.00000545,0.00000836,0.0
 0000323,-0.00001149,-0.00002025,0.00000541,-0.00000542,-0.00000015,-0.
 00001177,0.00000088,-0.00000100,-0.00000025,-0.00000088,-0.00000115,0.
 00000128,-0.00005977,-0.00002133,0.00002592,0.00001691,0.00000081,0.00
 000086,-0.00000204,-0.00000145,0.00000005,0.00000070,-0.00000161,0.000
 00091,0.00002710,-0.00008010,0.00018060,-0.00006165,0.00023783,0.00008
 693,-0.00129049,0.00094808,0.00048088,0.00038160,-0.00032392,0.0001751
 4,0.00005740,-0.00000897,0.00004913,0.02762610,0.00371265,-0.01355817,
 -0.11605535,-0.01588525,0.11113223,0.00023741,-0.00029268,0.00100784,0
 .00009911,0.00003099,-0.00004908,-0.00496420,0.00842999,-0.01009833,0.
 00000767,-0.00021979,-0.00019458,0.00000042,0.00019728,-0.00008577,-0.
 00068100,0.00053011,-0.00060685,-0.00017486,0.00015336,-0.00009573,-0.
 00104554,-0.00265846,-0.00118787,0.00087982,-0.00357726,0.00102513,0.0
 1121615,-0.01354842,0.00233968,-0.16593046,0.13256910,-0.00826262,-0.0
 0000372,-0.00004122,-0.00003725,-0.00029047,0.00015238,-0.00000727,-0.
 00025650,0.00022143,-0.00047288,-0.00001351,0.00000644,0.00001771,-0.0
 0001779,-0.00000478,-0.00000159,-0.00000018,0.00002987,-0.00000812,-0.
 00002535,0.00002194,0.00002350,-0.00008082,-0.00004111,-0.00003504,0.0
 0000502,-0.00003031,0.00000665,0.00001293,0.00008351,0.00006218,0.0000
 1734,0.00003212,0.00002304,0.00018812,-0.00016828,-0.00009527,0.000559
 97,-0.00077586,0.00011867,-0.00004973,0.00032913,-0.00019388,0.0002303
 0,0.00104237,0.00006571,0.00105550,0.00058186,0.00026757,0.17577046,-0
 .00021220,-0.00005273,0.00025171,-0.00001614,-0.00001128,0.00001752,0.
 00043247,0.00174493,0.00280459,-0.00006759,-0.00001879,-0.00005271,0.0
 0000726,0.00000027,-0.00003586,0.00038187,0.00000304,-0.00012356,-0.00
 004298,0.00040448,-0.00047904,-0.00417394,-0.00382001,-0.00262813,-0.0
 0116083,0.00158193,-0.00070750,0.01867271,-0.02133048,0.00151594,0.132
 23623,-0.20445739,0.01378995,0.00001057,0.00001386,0.00000547,0.000051
 35,0.00003383,0.00000108,-0.00001908,-0.00001635,-0.00005816,0.0000023
 1,-0.00000103,-0.00000465,0.00000688,0.00000363,-0.00000152,-0.0000241
 7,0.00004267,-0.00001152,0.00000262,-0.00000659,-0.00000077,-0.0000094
 2,-0.00000220,-0.00000784,0.00000171,0.00000593,-0.00000056,0.00007512
 ,0.00000786,0.00009919,-0.00003849,0.00001422,0.00006495,0.00001200,0.
 00024800,-0.00011484,0.00109100,-0.00143716,0.00066192,0.00009669,-0.0
 0002938,0.00008496,-0.00008835,0.00048719,-0.00031461,0.00008099,0.001
 40928,0.00069591,-0.14313261,0.21915067,0.00055570,0.00003440,-0.00112
 496,-0.00000205,-0.00000988,0.00000263,-0.02878936,0.03300934,-0.02123
 676,0.00000548,0.00003108,0.00018973,-0.00001479,-0.00004596,0.0002070
 6,-0.00290446,0.00118952,-0.00024550,-0.00022041,-0.00005128,-0.000451
 00,-0.00180707,-0.00186666,-0.00030548,0.00004130,-0.00478562,-0.00195
 669,0.00745065,-0.00592885,0.00245663,-0.00125774,0.00503512,-0.045756
 54,-0.00003095,-0.00003460,-0.00000214,0.00005360,-0.00004814,0.000007
 18,-0.00012398,-0.00016099,0.00030721,-0.00000033,0.00000313,0.0000000
 6,-0.00000051,0.00000043,-0.00000053,0.00001119,-0.00002678,-0.0000266
 7,-0.00003792,0.00003387,0.00003996,0.00006847,0.00004035,0.00001404,-
 0.00000316,0.00000574,-0.00000262,0.00006290,0.00016556,0.00019366,0.0
 0001002,0.00006494,0.00006621,-0.00025134,0.00032782,-0.00003164,0.000
 27728,-0.00075750,0.00042041,-0.00018968,0.00075819,-0.00054209,0.0001
 3454,0.00064731,0.00005359,-0.00043986,0.00045722,0.00021645,0.0162010
 1,-0.01456411,0.06454037,-0.00151757,-0.00008080,0.00100517,0.00003055
 ,0.00001260,-0.00001841,0.01323212,0.00142219,-0.00763787,-0.00010648,
 -0.00011929,-0.00015812,-0.00005946,0.00027569,-0.00009732,0.00201515,
 -0.00041440,-0.00053032,0.00004744,-0.00004008,-0.00014681,0.00066070,
 0.00077591,-0.00021848,0.00000503,0.00130474,-0.00126484,-0.01297424,-
 0.00291867,0.00718792,-0.21655428,-0.03909682,0.11717025,-0.00000071,-
 0.00002573,-0.00001101,-0.00013193,0.00012532,0.00000022,-0.00371446,0
 .00222881,-0.00265636,-0.00000026,-0.00000244,0.00000402,-0.00000045,-
 0.00000230,-0.00000099,-0.00002236,0.00002753,0.00000257,0.00002063,-0
 .00000105,0.00002730,-0.00003436,-0.00005132,-0.00004255,0.00005849,-0
 .00010067,0.00002499,0.00005013,-0.00003152,0.00008978,-0.00004042,0.0
 0002203,-0.00006680,0.00041559,-0.00050258,0.00017760,0.00014921,-0.00
 004836,-0.00010698,-0.00011391,0.00029910,-0.00015615,0.00023788,-0.00
 008405,-0.00023518,0.00013533,-0.00298699,-0.00111732,-0.01672248,-0.0
 0418234,0.01121844,0.23493711,0.00039893,0.00002143,0.00065012,0.00007
 654,0.00002885,-0.00003925,0.00057080,0.00352583,0.00051673,0.00004294
 ,-0.00019527,-0.00010583,0.00001612,0.00013146,-0.00012389,-0.00022118
 ,0.00014734,-0.00034801,0.00014838,-0.00006072,0.00022125,-0.00094592,
 0.00204981,0.00055040,-0.00068954,-0.00059189,0.00081105,-0.02615913,-
 0.00681117,0.01532889,-0.03816263,-0.06453781,0.02841196,0.00001544,-0
 .00002949,-0.00001889,-0.00022540,0.00011366,-0.00001704,0.00183167,0.
 00012938,0.00080672,-0.00001038,0.00000236,0.00001352,-0.00001386,-0.0
 0000403,-0.00000061,0.00000181,0.00002075,-0.00000081,-0.00001260,0.00
 001191,-0.00000437,-0.00006851,-0.00005051,-0.00001405,0.00001050,-0.0
 0005701,0.00001605,0.00002595,-0.00000913,0.00004275,0.00003480,0.0000
 4950,-0.00009139,0.00059245,-0.00020526,-0.00016685,0.00027151,0.00021
 748,-0.00028893,0.00001255,-0.00009032,-0.00000743,0.00060122,0.001249
 07,-0.00007540,-0.00239289,-0.00477073,-0.00147976,0.02007086,0.006033
 33,-0.01352653,0.04419197,0.06367596,0.00018114,0.00014365,-0.00208248
 ,-0.00008491,-0.00003712,0.00004072,0.01457452,0.00756604,-0.03965473,
 0.00001251,0.00024883,0.00043581,-0.00012869,-0.00017481,0.00028448,-0
 .00225233,0.00011366,0.00108421,-0.00048443,0.00009764,-0.00030808,-0.
 00013884,0.00040558,-0.00020959,0.00615915,-0.00406061,0.00030460,-0.0
 0751147,-0.00268245,0.00651051,0.11395499,0.02998127,-0.12353387,-0.00
 004556,-0.00002016,0.00002734,0.00030591,-0.00021077,0.00001003,-0.001
 07279,0.00062301,0.00067361,0.00001171,-0.00000139,-0.00001395,0.00001
 306,0.00000225,0.00000135,0.00002262,-0.00008318,-0.00002831,-0.000018
 46,0.00001937,0.00001152,0.00014111,0.00007062,0.00005693,-0.00001356,
 0.00002842,-0.00002575,0.00004416,0.00025445,0.00008764,0.00006642,-0.
 00000654,-0.00001851,0.00011514,0.00030110,-0.00012704,-0.00005026,0.0
 0012801,0.00000793,-0.00096494,0.00111902,-0.00073048,0.00020888,0.000
 58582,0.00076332,-0.00083358,-0.00245800,0.00072324,0.00025176,-0.0008
 8193,0.00295702,-0.12245837,-0.03107158,0.15275428,0.00146965,-0.00040
 323,0.00099344,-0.00802411,0.00088355,-0.01105694,0.00002776,-0.000017
 76,0.00001471,-0.00052492,-0.00053909,-0.00040046,0.00961813,-0.001596
 05,0.02552127,0.00014253,0.00008730,-0.00041252,-0.00001822,-0.0000055
 5,0.00001188,-0.00001362,0.00000855,0.00000964,-0.00015169,-0.00002010
 ,-0.00013755,-0.00000262,0.00000008,-0.00000539,-0.00002655,-0.0000134
 5,0.00000614,-0.08530742,0.00320850,-0.09057617,0.00082865,0.00061683,
 -0.00003783,-0.00003571,0.00023595,-0.00041843,0.00069260,-0.00023710,
 0.00005517,-0.00007335,0.00315453,-0.00038291,0.00005888,0.00009975,0.
 00006006,-0.00013842,-0.00054218,0.00035446,-0.00356169,0.00078509,0.0
 0364000,0.00087751,0.00008110,-0.00099912,-0.00000424,-0.00000147,0.00
 000596,0.00000324,-0.00000248,-0.00000273,0.00000677,-0.00000441,-0.00
 001842,0.00001028,0.00000354,-0.00000071,0.00004276,0.00000194,-0.0000
 0522,0.00000295,0.00000096,0.00000210,0.00000511,0.00000069,-0.0000001
 7,0.00001270,-0.00000118,-0.00000397,0.00000456,0.00001114,-0.00001776
 ,0.09279107,-0.00026873,0.00016313,0.00078145,0.01401757,-0.00157327,0
 .02843181,0.00005800,-0.00002988,0.00003325,0.00027373,-0.00033533,0.0
 0060295,-0.00316486,0.00014283,-0.00670983,0.00015255,0.00004088,-0.00
 017283,0.00001721,-0.00000544,0.00000476,-0.00001316,0.00001431,0.0000
 0865,-0.00017157,0.00001520,0.00001329,-0.00000291,0.00000223,-0.00000
 105,-0.00001271,-0.00000875,-0.00001660,0.00271469,-0.05011313,0.01118
 939,-0.00038780,-0.00123846,-0.00015136,-0.00003142,0.00007563,-0.0000
 6453,-0.00075859,0.00166860,-0.00010033,0.00177085,-0.00447251,0.00113
 428,-0.00004574,0.00008405,-0.00009927,-0.00048562,-0.00052192,-0.0000
 2351,0.00145337,0.00051531,-0.00067729,-0.00045481,0.00000657,0.000176
 25,-0.00000158,-0.00000358,0.00000314,0.00000923,0.00000622,0.00000155
 ,0.00000414,-0.00000594,-0.00001091,0.00000977,0.00000237,0.00000134,0
 .00001719,0.00000011,-0.00000771,0.00000115,-0.00000003,0.00000279,0.0
 0000333,-0.00000005,-0.00000138,0.00000951,-0.00000192,-0.00000022,-0.
 00000069,0.00000835,-0.00000547,-0.00733254,0.05438093,-0.00076910,-0.
 00061957,0.00031822,-0.00099053,-0.00178082,-0.00321186,0.00004929,-0.
 00003726,0.00003124,-0.00089951,-0.00042593,-0.00110109,-0.00681477,0.
 00113157,-0.02220621,0.00025052,-0.00002376,0.00025237,0.00004289,-0.0
 0001395,0.00000123,0.00000305,0.00001150,-0.00000241,-0.00011397,0.000
 09624,0.00006138,-0.00000569,0.00000011,0.00000552,-0.00000437,0.00000
 079,-0.00003608,-0.09132587,0.01419923,-0.27250720,0.00065337,0.001173
 26,0.00026171,0.00067499,0.00038656,-0.00009401,0.00036095,0.00024316,
 0.00140906,0.00018628,0.00057513,0.00105630,0.00013092,0.00003299,0.00
 032465,-0.00016170,0.00010280,0.00063149,0.00383170,-0.00108235,-0.001
 58797,-0.00002813,-0.00029720,0.00061317,-0.00000010,0.00000162,-0.000
 00189,0.00000931,0.00001722,0.00000787,0.00001760,0.00000138,-0.000004
 55,0.00000390,0.00000109,0.00000411,0.00000222,0.00000073,-0.00001005,
 0.00000260,0.00000087,0.00000257,-0.00000071,-0.00000022,-0.00000082,0
 .00000295,-0.00000109,0.00000293,0.00000709,0.00000124,0.00000053,0.09
 614724,-0.01319100,0.29774475,-0.00002785,0.00263781,0.00368082,0.0093
 9637,0.00881747,0.00026660,-0.00025315,0.00020500,-0.00023139,-0.00077
 197,0.00070633,-0.00011121,-0.01776313,-0.01621234,-0.00366435,-0.0027
 8632,-0.00103362,0.00060128,-0.00012088,0.00003976,-0.00000653,0.00001
 306,-0.00004760,-0.00000762,0.00103488,-0.00039134,0.00050560,0.000012
 90,-0.00000197,-0.00000671,0.00006639,0.00004311,0.00010254,-0.1911887
 4,-0.13604718,-0.01650747,0.00086189,0.00333244,-0.00104325,0.00004004
 ,0.00007915,-0.00018310,-0.00067886,-0.00026658,0.00084715,0.00153629,
 0.00005178,-0.00009932,0.00012997,-0.00010392,0.00012794,0.00010768,-0
 .00003831,0.00014680,0.00099053,0.00003463,-0.00001097,0.00072016,0.00
 031281,-0.00073519,0.00001542,0.00001388,-0.00001440,-0.00004818,-0.00
 004892,-0.00002494,-0.00000289,0.00001806,0.00003127,-0.00002762,-0.00
 001277,-0.00001769,-0.00021488,-0.00000462,0.00002434,-0.00000968,-0.0
 0000227,-0.00001365,-0.00001133,-0.00000385,0.00000458,-0.00003632,0.0
 0000754,-0.00001303,-0.00000656,-0.00002352,0.00001285,-0.00871258,-0.
 00737957,-0.00126241,0.20773535,0.00128129,-0.00006399,-0.00169861,-0.
 02177547,-0.01660077,-0.00209506,0.00000221,-0.00001809,0.00002270,0.0
 0189441,0.00009725,0.00033219,0.00753973,0.00633041,0.00173996,0.00069
 085,0.00035017,-0.00016651,0.00001020,-0.00001580,0.00000024,0.0000158
 8,0.00001113,-0.00000845,-0.00002419,0.00007545,-0.00016547,-0.0000071
 3,-0.00000597,0.00000652,-0.00000289,-0.00000419,-0.00000837,-0.135931
 86,-0.17368896,-0.01508581,-0.00006518,-0.00654763,0.00150612,-0.00008
 621,0.00001522,0.00013900,0.00117118,-0.00081118,-0.00040493,-0.000436
 36,0.00158601,0.00058826,-0.00015375,0.00002096,-0.00002159,-0.0001544
 9,0.00003734,-0.00001523,-0.00049759,0.00004348,0.00022756,-0.00037344
 ,0.00050500,0.00058258,0.00000122,0.00001196,-0.00001034,-0.00000443,0
 .00001287,0.00000533,0.00001213,0.00000101,0.00001864,-0.00000596,-0.0
 0000128,0.00000322,0.00004450,-0.00000401,-0.00000657,0.00000002,0.000
 00181,-0.00000080,-0.00000312,0.00000423,-0.00000075,-0.00000146,0.000
 00019,0.00000308,0.00000420,-0.00000311,0.00000525,0.00153709,0.001183
 50,-0.00050432,0.14531863,0.18747699,0.00127398,-0.00207742,-0.0024492
 4,0.00457752,0.00455013,-0.00127396,0.00012998,-0.00011705,0.00013091,
 -0.00057550,-0.00060983,-0.00088715,0.01733904,0.01683225,0.00254619,0
 .00202452,0.00067402,-0.00040292,0.00007402,-0.00002308,0.00000822,-0.
 00000229,0.00003014,0.00000403,-0.00053775,0.00028028,-0.00034006,-0.0
 0000839,0.00000115,0.00000483,-0.00003641,-0.00001960,-0.00006132,-0.0
 1897789,-0.01718523,-0.04871714,0.00009488,0.00303365,-0.00035487,0.00
 031561,0.00013017,0.00010175,0.00025592,0.00023540,0.00005778,0.000403
 91,0.00015434,0.00067431,0.00005683,0.00004039,0.00016495,-0.00007489,
 0.00005353,0.00044499,-0.00091661,0.00033079,0.00074623,-0.00089397,-0
 .00020854,0.00086762,-0.00000418,-0.00000706,0.00000581,0.00003030,0.0
 0003192,0.00001920,0.00000853,-0.00000761,-0.00001366,0.00001553,0.000
 00726,0.00001166,0.00013348,0.00000093,-0.00002383,0.00000536,0.000001
 07,0.00000780,0.00000546,0.00000223,-0.00000304,0.00001873,-0.00000480
 ,0.00000747,0.00000854,0.00000995,-0.00000230,-0.02234577,-0.02115158,
 -0.00196495,0.01760149,0.01501218,0.05069069\\-0.00010302,0.00170632,0
 .00002632,0.00001838,0.00002240,-0.00002143,0.00012135,-0.00071866,-0.
 00145754,-0.00000570,0.00001712,0.00001243,0.00000157,0.00000143,0.000
 00377,0.00022104,-0.00284451,-0.00061182,0.00000546,0.00000820,-0.0000
 0027,-0.00000291,-0.00000579,0.00000190,-0.00021358,0.00185556,0.00202
 498,0.00000222,0.00000206,0.00000153,-0.00001194,0.00000116,-0.0000067
 1,-0.00000024,-0.00001427,0.00000733,-0.00001349,-0.00002401,0.0000037
 6,-0.00000038,0.00000053,0.00000257,-0.00000110,-0.00000864,0.00000792
 ,-0.00000557,-0.00000447,0.00000887,-0.00000209,-0.00000220,0.00000456
 ,-0.00000130,-0.00000227,0.00000108,0.00000091,-0.00000115,-0.00000034
 ,-0.00000086,0.00000046,-0.00000194,-0.00000032,-0.00000066,0.00000197
 ,-0.00000335,0.00000027,-0.00000022,-0.00000787,-0.00000060,0.00000134
 ,-0.00000200,0.00000017,0.00000265,-0.00000040,0.00000584,-0.00000110,
 0.00000005,0.00000150,-0.00000361,-0.00000122,0.00000437,-0.00000433,-
 0.00000075,0.00000215,0.00000242,0.00000461,0.00000379,-0.00000074,0.0
 0000005,-0.00000259,-0.00000189,0.00000243,-0.00000351,-0.00000343\\\@


 IN SO FAR AS QUANTUM MECHANICS IS CORRECT, CHEMICAL 
 QUESTIONS ARE PROBLEMS IN APPLIED MATHEMATICS.

                    -- EYRING, WALTER, & KIMBALL, 1944
 Job cpu time:       0 days 14 hours 29 minutes  8.2 seconds.
 Elapsed time:       0 days  0 hours 54 minutes 20.9 seconds.
 File lengths (MBytes):  RWF=    687 Int=      0 D2E=      0 Chk=     33 Scr=      1
 Normal termination of Gaussian 16 at Sun Nov  4 22:59:11 2018.
