 Entering Gaussian System, Link 0=g16
 Initial command:
 /sw/Projects/G16/g16/l1.exe "/nvme/pbs/tmpdir/pbs.74202[21].flm1/Gau-12156.inp" -scrdir="/nvme/pbs/tmpdir/pbs.74202[21].flm1/"
 Entering Link 1 = /sw/Projects/G16/g16/l1.exe PID=     12157.
  
 Copyright (c) 1988-2017, Gaussian, Inc.  All Rights Reserved.
  
 This is part of the Gaussian(R) 16 program.  It is based on
 the Gaussian(R) 09 system (copyright 2009, Gaussian, Inc.),
 the Gaussian(R) 03 system (copyright 2003, Gaussian, Inc.),
 the Gaussian(R) 98 system (copyright 1998, Gaussian, Inc.),
 the Gaussian(R) 94 system (copyright 1995, Gaussian, Inc.),
 the Gaussian 92(TM) system (copyright 1992, Gaussian, Inc.),
 the Gaussian 90(TM) system (copyright 1990, Gaussian, Inc.),
 the Gaussian 88(TM) system (copyright 1988, Gaussian, Inc.),
 the Gaussian 86(TM) system (copyright 1986, Carnegie Mellon
 University), and the Gaussian 82(TM) system (copyright 1983,
 Carnegie Mellon University). Gaussian is a federally registered
 trademark of Gaussian, Inc.
  
 This software contains proprietary and confidential information,
 including trade secrets, belonging to Gaussian, Inc.
  
 This software is provided under written license and may be
 used, copied, transmitted, or stored only in accord with that
 written license.
  
 The following legend is applicable only to US Government
 contracts under FAR:
  
                    RESTRICTED RIGHTS LEGEND
  
 Use, reproduction and disclosure by the US Government is
 subject to restrictions as set forth in subparagraphs (a)
 and (c) of the Commercial Computer Software - Restricted
 Rights clause in FAR 52.227-19.
  
 Gaussian, Inc.
 340 Quinnipiac St., Bldg. 40, Wallingford CT 06492
  
  
 ---------------------------------------------------------------
 Warning -- This program may not be used in any manner that
 competes with the business of Gaussian, Inc. or will provide
 assistance to any competitor of Gaussian, Inc.  The licensee
 of this program is prohibited from giving any competitor of
 Gaussian, Inc. access to this program.  By using this program,
 the user acknowledges that Gaussian, Inc. is engaged in the
 business of creating and licensing software in the field of
 computational chemistry and represents and warrants to the
 licensee that it is not a competitor of Gaussian, Inc. and that
 it will not use this program in any manner prohibited above.
 ---------------------------------------------------------------
  

 Cite this work as:
 Gaussian 16, Revision B.01,
 M. J. Frisch, G. W. Trucks, H. B. Schlegel, G. E. Scuseria, 
 M. A. Robb, J. R. Cheeseman, G. Scalmani, V. Barone, 
 G. A. Petersson, H. Nakatsuji, X. Li, M. Caricato, A. V. Marenich, 
 J. Bloino, B. G. Janesko, R. Gomperts, B. Mennucci, H. P. Hratchian, 
 J. V. Ortiz, A. F. Izmaylov, J. L. Sonnenberg, D. Williams-Young, 
 F. Ding, F. Lipparini, F. Egidi, J. Goings, B. Peng, A. Petrone, 
 T. Henderson, D. Ranasinghe, V. G. Zakrzewski, J. Gao, N. Rega, 
 G. Zheng, W. Liang, M. Hada, M. Ehara, K. Toyota, R. Fukuda, 
 J. Hasegawa, M. Ishida, T. Nakajima, Y. Honda, O. Kitao, H. Nakai, 
 T. Vreven, K. Throssell, J. A. Montgomery, Jr., J. E. Peralta, 
 F. Ogliaro, M. J. Bearpark, J. J. Heyd, E. N. Brothers, K. N. Kudin, 
 V. N. Staroverov, T. A. Keith, R. Kobayashi, J. Normand, 
 K. Raghavachari, A. P. Rendell, J. C. Burant, S. S. Iyengar, 
 J. Tomasi, M. Cossi, J. M. Millam, M. Klene, C. Adamo, R. Cammi, 
 J. W. Ochterski, R. L. Martin, K. Morokuma, O. Farkas, 
 J. B. Foresman, and D. J. Fox, Gaussian, Inc., Wallingford CT, 2016.
 
 ******************************************
 Gaussian 16:  ES64L-G16RevB.01 20-Dec-2017
                 8-Mar-2019 
 ******************************************
 %mem=20gb
 %nproc=12
 Will use up to   12 processors via shared memory.
 %chk=4c1_a1_a4_4c1_PHI.inp_extract_21.chk
 ----------------------------------------------------------------------
 #M062X/6-311++G(2d,2p) opt=ModRedundant freq=noraman SCRF=(SMD,solvent
 =water)
 ----------------------------------------------------------------------
 1/18=120,19=15,26=3,38=1/1,3;
 2/9=110,12=2,17=6,18=5,40=1/2;
 3/5=4,6=6,7=1212,11=2,25=1,30=1,70=32201,71=1,72=1,74=-55/1,2,3;
 4//1;
 5/5=2,38=5,53=1/2;
 6/7=2,8=2,9=2,10=2,28=1/1;
 7//1,2,3,16;
 1/18=20,19=15,26=3/3(2);
 2/9=110/2;
 99//99;
 2/9=110/2;
 3/5=4,6=6,7=1212,11=2,25=1,30=1,70=32205,71=1,72=1,74=-55/1,2,3;
 4/5=5,16=3,69=1/1;
 5/5=2,38=5,53=1/2;
 7//1,2,3,16;
 1/18=20,19=15,26=3/3(-5);
 2/9=110/2;
 6/7=2,8=2,9=2,10=2,19=2,28=1/1;
 99/9=1/99;
 --------------------------------
 4c1_a1_a4_4c1_PHI.inp_extract_21
 --------------------------------
 Symbolic Z-matrix:
 Charge =  0 Multiplicity = 1
 C                    -1.74334   0.8536   -1.2087 
 C                     1.05649  -0.26565   0.9317 
 C                    -0.86634  -0.23675  -0.61678 
 C                     3.50713   0.02621  -0.58655 
 C                    -3.58879   0.31976   0.16413 
 O                    -2.70188   1.32717  -0.28728 
 C                     2.9176    1.2493    0.11119 
 C                     2.3906   -0.92083  -0.98575 
 C                     2.09155   0.78369   1.30722 
 C                    -2.83295  -0.79871   0.86419 
 O                     1.5634   -1.28366   0.11858 
 O                    -0.07625   0.37786   0.3887 
 C                    -1.74009  -1.35778  -0.04961 
 H                    -2.24797   0.46188  -2.08867 
 H                    -1.14558   1.70504  -1.50271 
 H                     0.73069  -0.78637   1.82228 
 H                    -0.23723  -0.62042  -1.40427 
 H                     4.19994  -0.48185   0.08006 
 H                     4.058     0.30682  -1.4796 
 H                    -4.28689   0.80558   0.8322 
 H                    -4.14366  -0.06902  -0.68735 
 H                     2.29637   1.8061   -0.58626 
 H                     3.70281   1.92018   0.44526 
 H                     2.77683  -1.85579  -1.36674 
 H                     1.78492  -0.46544  -1.76079 
 H                     2.75338   0.33466   2.04298 
 H                     1.58184   1.60859   1.7926 
 H                    -3.5316   -1.5827    1.14221 
 H                    -2.39701  -0.41501   1.78202 
 H                    -1.1291   -2.08207   0.4778 
 H                    -2.199    -1.87825  -0.88731 
 
 The following ModRedundant input section has been read:
 D      11       2      12       3 F                                           
 

 GradGradGradGradGradGradGradGradGradGradGradGradGradGradGradGradGradGrad
 Berny optimization.
 Initialization pass.
                           ----------------------------
                           !    Initial Parameters    !
                           ! (Angstroms and Degrees)  !
 --------------------------                            --------------------------
 ! Name  Definition              Value          Derivative Info.                !
 --------------------------------------------------------------------------------
 ! R1    R(1,3)                  1.5193         estimate D2E/DX2                !
 ! R2    R(1,6)                  1.4114         estimate D2E/DX2                !
 ! R3    R(1,14)                 1.0874         estimate D2E/DX2                !
 ! R4    R(1,15)                 1.0811         estimate D2E/DX2                !
 ! R5    R(2,9)                  1.521          estimate D2E/DX2                !
 ! R6    R(2,11)                 1.398          estimate D2E/DX2                !
 ! R7    R(2,12)                 1.4114         estimate D2E/DX2                !
 ! R8    R(2,16)                 1.0819         estimate D2E/DX2                !
 ! R9    R(3,12)                 1.4188         estimate D2E/DX2                !
 ! R10   R(3,13)                 1.5303         estimate D2E/DX2                !
 ! R11   R(3,17)                 1.0785         estimate D2E/DX2                !
 ! R12   R(4,7)                  1.5265         estimate D2E/DX2                !
 ! R13   R(4,8)                  1.5175         estimate D2E/DX2                !
 ! R14   R(4,18)                 1.0874         estimate D2E/DX2                !
 ! R15   R(4,19)                 1.0862         estimate D2E/DX2                !
 ! R16   R(5,6)                  1.4161         estimate D2E/DX2                !
 ! R17   R(5,10)                 1.5206         estimate D2E/DX2                !
 ! R18   R(5,20)                 1.0815         estimate D2E/DX2                !
 ! R19   R(5,21)                 1.0881         estimate D2E/DX2                !
 ! R20   R(7,9)                  1.5263         estimate D2E/DX2                !
 ! R21   R(7,22)                 1.0874         estimate D2E/DX2                !
 ! R22   R(7,23)                 1.0855         estimate D2E/DX2                !
 ! R23   R(8,11)                 1.4267         estimate D2E/DX2                !
 ! R24   R(8,24)                 1.081          estimate D2E/DX2                !
 ! R25   R(8,25)                 1.0839         estimate D2E/DX2                !
 ! R26   R(9,26)                 1.0867         estimate D2E/DX2                !
 ! R27   R(9,27)                 1.0844         estimate D2E/DX2                !
 ! R28   R(10,13)                1.5303         estimate D2E/DX2                !
 ! R29   R(10,28)                1.0863         estimate D2E/DX2                !
 ! R30   R(10,29)                1.0861         estimate D2E/DX2                !
 ! R31   R(13,30)                1.0845         estimate D2E/DX2                !
 ! R32   R(13,31)                1.0878         estimate D2E/DX2                !
 ! A1    A(3,1,6)              112.2388         estimate D2E/DX2                !
 ! A2    A(3,1,14)             108.9427         estimate D2E/DX2                !
 ! A3    A(3,1,15)             110.6098         estimate D2E/DX2                !
 ! A4    A(6,1,14)             109.5123         estimate D2E/DX2                !
 ! A5    A(6,1,15)             106.7865         estimate D2E/DX2                !
 ! A6    A(14,1,15)            108.6771         estimate D2E/DX2                !
 ! A7    A(9,2,11)             113.5297         estimate D2E/DX2                !
 ! A8    A(9,2,12)             109.0613         estimate D2E/DX2                !
 ! A9    A(9,2,16)             109.4966         estimate D2E/DX2                !
 ! A10   A(11,2,12)            113.5311         estimate D2E/DX2                !
 ! A11   A(11,2,16)            103.7389         estimate D2E/DX2                !
 ! A12   A(12,2,16)            107.1249         estimate D2E/DX2                !
 ! A13   A(1,3,12)             106.6581         estimate D2E/DX2                !
 ! A14   A(1,3,13)             109.9095         estimate D2E/DX2                !
 ! A15   A(1,3,17)             107.9112         estimate D2E/DX2                !
 ! A16   A(12,3,13)            111.8786         estimate D2E/DX2                !
 ! A17   A(12,3,17)            110.2878         estimate D2E/DX2                !
 ! A18   A(13,3,17)            110.0645         estimate D2E/DX2                !
 ! A19   A(7,4,8)              109.64           estimate D2E/DX2                !
 ! A20   A(7,4,18)             109.8886         estimate D2E/DX2                !
 ! A21   A(7,4,19)             111.3876         estimate D2E/DX2                !
 ! A22   A(8,4,18)             109.7827         estimate D2E/DX2                !
 ! A23   A(8,4,19)             108.5472         estimate D2E/DX2                !
 ! A24   A(18,4,19)            107.5547         estimate D2E/DX2                !
 ! A25   A(6,5,10)             111.0208         estimate D2E/DX2                !
 ! A26   A(6,5,20)             106.3574         estimate D2E/DX2                !
 ! A27   A(6,5,21)             108.9121         estimate D2E/DX2                !
 ! A28   A(10,5,20)            111.5218         estimate D2E/DX2                !
 ! A29   A(10,5,21)            110.5425         estimate D2E/DX2                !
 ! A30   A(20,5,21)            108.3433         estimate D2E/DX2                !
 ! A31   A(1,6,5)              113.251          estimate D2E/DX2                !
 ! A32   A(4,7,9)              108.8295         estimate D2E/DX2                !
 ! A33   A(4,7,22)             109.7389         estimate D2E/DX2                !
 ! A34   A(4,7,23)             110.8857         estimate D2E/DX2                !
 ! A35   A(9,7,22)             110.4641         estimate D2E/DX2                !
 ! A36   A(9,7,23)             109.8086         estimate D2E/DX2                !
 ! A37   A(22,7,23)            107.1092         estimate D2E/DX2                !
 ! A38   A(4,8,11)             112.4377         estimate D2E/DX2                !
 ! A39   A(4,8,24)             111.6918         estimate D2E/DX2                !
 ! A40   A(4,8,25)             109.6963         estimate D2E/DX2                !
 ! A41   A(11,8,24)            105.0713         estimate D2E/DX2                !
 ! A42   A(11,8,25)            109.6529         estimate D2E/DX2                !
 ! A43   A(24,8,25)            108.1205         estimate D2E/DX2                !
 ! A44   A(2,9,7)              112.6615         estimate D2E/DX2                !
 ! A45   A(2,9,26)             107.249          estimate D2E/DX2                !
 ! A46   A(2,9,27)             108.3885         estimate D2E/DX2                !
 ! A47   A(7,9,26)             109.0854         estimate D2E/DX2                !
 ! A48   A(7,9,27)             111.9062         estimate D2E/DX2                !
 ! A49   A(26,9,27)            107.3097         estimate D2E/DX2                !
 ! A50   A(5,10,13)            110.4119         estimate D2E/DX2                !
 ! A51   A(5,10,28)            109.2072         estimate D2E/DX2                !
 ! A52   A(5,10,29)            109.1893         estimate D2E/DX2                !
 ! A53   A(13,10,28)           110.3931         estimate D2E/DX2                !
 ! A54   A(13,10,29)           110.3056         estimate D2E/DX2                !
 ! A55   A(28,10,29)           107.2666         estimate D2E/DX2                !
 ! A56   A(2,11,8)             118.3757         estimate D2E/DX2                !
 ! A57   A(2,12,3)             121.4706         estimate D2E/DX2                !
 ! A58   A(3,13,10)            111.1881         estimate D2E/DX2                !
 ! A59   A(3,13,30)            110.3541         estimate D2E/DX2                !
 ! A60   A(3,13,31)            107.8168         estimate D2E/DX2                !
 ! A61   A(10,13,30)           110.8504         estimate D2E/DX2                !
 ! A62   A(10,13,31)           109.4736         estimate D2E/DX2                !
 ! A63   A(30,13,31)           107.0171         estimate D2E/DX2                !
 ! D1    D(6,1,3,12)           -67.5731         estimate D2E/DX2                !
 ! D2    D(6,1,3,13)            53.8975         estimate D2E/DX2                !
 ! D3    D(6,1,3,17)           173.9327         estimate D2E/DX2                !
 ! D4    D(14,1,3,12)          170.9708         estimate D2E/DX2                !
 ! D5    D(14,1,3,13)          -67.5586         estimate D2E/DX2                !
 ! D6    D(14,1,3,17)           52.4766         estimate D2E/DX2                !
 ! D7    D(15,1,3,12)           51.5783         estimate D2E/DX2                !
 ! D8    D(15,1,3,13)          173.0489         estimate D2E/DX2                !
 ! D9    D(15,1,3,17)          -66.9159         estimate D2E/DX2                !
 ! D10   D(3,1,6,5)            -60.2024         estimate D2E/DX2                !
 ! D11   D(14,1,6,5)            60.9269         estimate D2E/DX2                !
 ! D12   D(15,1,6,5)           178.4278         estimate D2E/DX2                !
 ! D13   D(11,2,9,7)            46.3803         estimate D2E/DX2                !
 ! D14   D(11,2,9,26)          -73.663          estimate D2E/DX2                !
 ! D15   D(11,2,9,27)          170.7724         estimate D2E/DX2                !
 ! D16   D(12,2,9,7)           -81.2936         estimate D2E/DX2                !
 ! D17   D(12,2,9,26)          158.6631         estimate D2E/DX2                !
 ! D18   D(12,2,9,27)           43.0985         estimate D2E/DX2                !
 ! D19   D(16,2,9,7)           161.7816         estimate D2E/DX2                !
 ! D20   D(16,2,9,26)           41.7383         estimate D2E/DX2                !
 ! D21   D(16,2,9,27)          -73.8263         estimate D2E/DX2                !
 ! D22   D(9,2,11,8)           -45.179          estimate D2E/DX2                !
 ! D23   D(12,2,11,8)           80.139          estimate D2E/DX2                !
 ! D24   D(16,2,11,8)         -163.9427         estimate D2E/DX2                !
 ! D25   D(9,2,12,3)           147.8181         estimate D2E/DX2                !
 ! D26   D(11,2,12,3)           20.145          Frozen                          !
 ! D27   D(16,2,12,3)          -93.7603         estimate D2E/DX2                !
 ! D28   D(1,3,12,2)          -165.3919         estimate D2E/DX2                !
 ! D29   D(13,3,12,2)           74.3965         estimate D2E/DX2                !
 ! D30   D(17,3,12,2)          -48.4646         estimate D2E/DX2                !
 ! D31   D(1,3,13,10)          -49.8872         estimate D2E/DX2                !
 ! D32   D(1,3,13,30)         -173.3204         estimate D2E/DX2                !
 ! D33   D(1,3,13,31)           70.1218         estimate D2E/DX2                !
 ! D34   D(12,3,13,10)          68.4061         estimate D2E/DX2                !
 ! D35   D(12,3,13,30)         -55.0271         estimate D2E/DX2                !
 ! D36   D(12,3,13,31)        -171.585          estimate D2E/DX2                !
 ! D37   D(17,3,13,10)        -168.6061         estimate D2E/DX2                !
 ! D38   D(17,3,13,30)          67.9607         estimate D2E/DX2                !
 ! D39   D(17,3,13,31)         -48.5971         estimate D2E/DX2                !
 ! D40   D(8,4,7,9)             56.5841         estimate D2E/DX2                !
 ! D41   D(8,4,7,22)           -64.4003         estimate D2E/DX2                !
 ! D42   D(8,4,7,23)           177.4707         estimate D2E/DX2                !
 ! D43   D(18,4,7,9)           -64.1636         estimate D2E/DX2                !
 ! D44   D(18,4,7,22)          174.852          estimate D2E/DX2                !
 ! D45   D(18,4,7,23)           56.723          estimate D2E/DX2                !
 ! D46   D(19,4,7,9)           176.7483         estimate D2E/DX2                !
 ! D47   D(19,4,7,22)           55.7638         estimate D2E/DX2                !
 ! D48   D(19,4,7,23)          -62.3651         estimate D2E/DX2                !
 ! D49   D(7,4,8,11)           -54.7646         estimate D2E/DX2                !
 ! D50   D(7,4,8,24)          -172.6056         estimate D2E/DX2                !
 ! D51   D(7,4,8,25)            67.5321         estimate D2E/DX2                !
 ! D52   D(18,4,8,11)           66.0472         estimate D2E/DX2                !
 ! D53   D(18,4,8,24)          -51.7938         estimate D2E/DX2                !
 ! D54   D(18,4,8,25)         -171.6561         estimate D2E/DX2                !
 ! D55   D(19,4,8,11)         -176.645          estimate D2E/DX2                !
 ! D56   D(19,4,8,24)           65.514          estimate D2E/DX2                !
 ! D57   D(19,4,8,25)          -54.3483         estimate D2E/DX2                !
 ! D58   D(10,5,6,1)            60.2625         estimate D2E/DX2                !
 ! D59   D(20,5,6,1)          -178.2456         estimate D2E/DX2                !
 ! D60   D(21,5,6,1)           -61.6775         estimate D2E/DX2                !
 ! D61   D(6,5,10,13)          -54.9166         estimate D2E/DX2                !
 ! D62   D(6,5,10,28)         -176.4748         estimate D2E/DX2                !
 ! D63   D(6,5,10,29)           66.5212         estimate D2E/DX2                !
 ! D64   D(20,5,10,13)        -173.332          estimate D2E/DX2                !
 ! D65   D(20,5,10,28)          65.1098         estimate D2E/DX2                !
 ! D66   D(20,5,10,29)         -51.8942         estimate D2E/DX2                !
 ! D67   D(21,5,10,13)          66.0679         estimate D2E/DX2                !
 ! D68   D(21,5,10,28)         -55.4904         estimate D2E/DX2                !
 ! D69   D(21,5,10,29)        -172.4943         estimate D2E/DX2                !
 ! D70   D(4,7,9,2)            -52.875          estimate D2E/DX2                !
 ! D71   D(4,7,9,26)            66.1036         estimate D2E/DX2                !
 ! D72   D(4,7,9,27)          -175.3104         estimate D2E/DX2                !
 ! D73   D(22,7,9,2)            67.6636         estimate D2E/DX2                !
 ! D74   D(22,7,9,26)         -173.3578         estimate D2E/DX2                !
 ! D75   D(22,7,9,27)          -54.7718         estimate D2E/DX2                !
 ! D76   D(23,7,9,2)          -174.4207         estimate D2E/DX2                !
 ! D77   D(23,7,9,26)          -55.4421         estimate D2E/DX2                !
 ! D78   D(23,7,9,27)           63.144          estimate D2E/DX2                !
 ! D79   D(4,8,11,2)            50.0633         estimate D2E/DX2                !
 ! D80   D(24,8,11,2)          171.7539         estimate D2E/DX2                !
 ! D81   D(25,8,11,2)          -72.2579         estimate D2E/DX2                !
 ! D82   D(5,10,13,3)           50.8513         estimate D2E/DX2                !
 ! D83   D(5,10,13,30)         174.0004         estimate D2E/DX2                !
 ! D84   D(5,10,13,31)         -68.1701         estimate D2E/DX2                !
 ! D85   D(28,10,13,3)         171.7047         estimate D2E/DX2                !
 ! D86   D(28,10,13,30)        -65.1462         estimate D2E/DX2                !
 ! D87   D(28,10,13,31)         52.6833         estimate D2E/DX2                !
 ! D88   D(29,10,13,3)         -69.9223         estimate D2E/DX2                !
 ! D89   D(29,10,13,30)         53.2267         estimate D2E/DX2                !
 ! D90   D(29,10,13,31)        171.0563         estimate D2E/DX2                !
 --------------------------------------------------------------------------------
 Trust Radius=3.00D-01 FncErr=1.00D-07 GrdErr=1.00D-06 EigMax=2.50D+02 EigMin=1.00D-04
 Number of steps in this run=    186 maximum allowed number of steps=    186.
 GradGradGradGradGradGradGradGradGradGradGradGradGradGradGradGradGradGrad

                          Input orientation:                          
 ---------------------------------------------------------------------
 Center     Atomic      Atomic             Coordinates (Angstroms)
 Number     Number       Type             X           Y           Z
 ---------------------------------------------------------------------
      1          6           0       -1.743344    0.853603   -1.208699
      2          6           0        1.056495   -0.265653    0.931695
      3          6           0       -0.866342   -0.236749   -0.616776
      4          6           0        3.507134    0.026206   -0.586545
      5          6           0       -3.588789    0.319764    0.164130
      6          8           0       -2.701880    1.327175   -0.287278
      7          6           0        2.917598    1.249300    0.111192
      8          6           0        2.390604   -0.920833   -0.985750
      9          6           0        2.091546    0.783689    1.307219
     10          6           0       -2.832952   -0.798711    0.864189
     11          8           0        1.563398   -1.283656    0.118582
     12          8           0       -0.076253    0.377864    0.388700
     13          6           0       -1.740090   -1.357780   -0.049614
     14          1           0       -2.247974    0.461877   -2.088671
     15          1           0       -1.145584    1.705039   -1.502713
     16          1           0        0.730692   -0.786371    1.822282
     17          1           0       -0.237229   -0.620418   -1.404269
     18          1           0        4.199943   -0.481847    0.080063
     19          1           0        4.057995    0.306816   -1.479598
     20          1           0       -4.286892    0.805575    0.832201
     21          1           0       -4.143663   -0.069023   -0.687346
     22          1           0        2.296372    1.806097   -0.586258
     23          1           0        3.702805    1.920182    0.445256
     24          1           0        2.776825   -1.855790   -1.366744
     25          1           0        1.784918   -0.465439   -1.760793
     26          1           0        2.753379    0.334655    2.042983
     27          1           0        1.581837    1.608585    1.792599
     28          1           0       -3.531595   -1.582695    1.142213
     29          1           0       -2.397012   -0.415007    1.782022
     30          1           0       -1.129098   -2.082072    0.477802
     31          1           0       -2.198995   -1.878248   -0.887306
 ---------------------------------------------------------------------
                    Distance matrix (angstroms):
                    1          2          3          4          5
     1  C    0.000000
     2  C    3.697718   0.000000
     3  C    1.519333   2.468988   0.000000
     4  C    5.351559   2.897562   4.381478   0.000000
     5  C    2.361210   4.744527   2.886388   7.141555   0.000000
     6  O    1.411410   4.260091   2.433850   6.350900   1.416070
     7  C    4.860357   2.536141   4.129949   1.526548   6.572664
     8  C    4.504204   2.426047   3.348404   1.517527   6.214052
     9  C    4.587059   1.521009   3.673166   2.482743   5.812752
    10  C    2.866052   3.926386   2.525196   6.556051   1.520644
    11  O    4.155008   1.398011   2.745979   2.447663   5.396115
    12  O    2.357372   1.411409   1.418792   3.730339   3.520187
    13  C    2.496739   3.158575   1.530300   5.453171   2.505500
    14  H    1.087406   4.535573   2.136226   5.963846   2.625470
    15  H    1.081066   3.828723   2.152534   5.030470   3.265977
    16  H    4.242312   1.081869   2.966750   3.764487   4.757197
    17  H    2.116452   2.693753   1.078485   3.886779   3.817954
    18  H    6.226315   3.263937   5.119854   1.087414   7.830325
    19  H    5.833344   3.892436   5.028819   1.086155   7.821465
    20  H    3.261475   5.450616   3.858256   7.960345   1.081517
    21  H    2.623848   5.449917   3.282369   7.652054   1.088141
    22  H    4.196902   2.851951   3.765224   2.152663   6.116158
    23  H    5.790829   3.466620   5.163077   2.165651   7.470456
    24  H    5.272354   3.281904   4.056650   2.164248   6.899105
    25  H    3.807008   2.796427   2.896593   2.141635   5.761823
    26  H    5.573442   2.115360   4.528046   2.752763   6.614636
    27  H    4.542534   2.128358   3.899221   3.445434   5.572104
    28  H    3.828861   4.778021   3.465427   7.424343   2.139922
    29  H    3.313769   3.559786   2.851133   6.376811   2.139578
    30  H    3.440897   2.877884   2.161564   5.203107   3.452142
    31  H    2.788175   4.062935   2.131588   6.023065   2.805049
                    6          7          8          9         10
     6  O    0.000000
     7  C    5.634126   0.000000
     8  C    5.610240   2.488068   0.000000
     9  C    5.080820   1.526315   2.872723   0.000000
    10  C    2.421249   6.150624   5.542808   5.191430   0.000000
    11  O    5.017346   2.872243   1.426695   2.442481   4.485420
    12  O    2.872639   3.130424   3.108233   2.389084   3.034767
    13  C    2.861906   5.340111   4.257923   4.594379   1.530340
    14  H    2.049338   5.669441   4.964346   5.519698   3.263535
    15  H    2.010503   4.395661   4.434758   4.384474   3.836431
    16  H    4.549711   3.443014   3.264725   2.140631   3.690210
    17  H    3.333960   3.968047   2.677856   3.840166   3.451879
    18  H    7.144415   2.154588   2.145314   2.748241   7.083563
    19  H    6.939645   2.172417   2.128662   3.443934   7.362111
    20  H    2.009369   7.254062   7.132628   6.396139   2.165340
    21  H    2.046500   7.227520   6.596307   6.601760   2.158163
    22  H    5.030038   1.087374   2.757648   2.161603   5.932856
    23  H    6.473658   1.085464   3.441078   2.151918   7.091121
    24  H    6.427497   3.441758   1.080957   3.819232   6.128954
    25  H    5.051343   2.779860   1.083942   3.326716   5.322248
    26  H    6.014571   2.143679   3.298648   1.086740   5.820753
    27  H    4.770253   2.177263   3.843343   1.084366   5.113451
    28  H    3.346523   7.118658   6.327616   6.103009   1.086292
    29  H    2.722158   5.814350   5.553169   4.670060   1.086135
    30  H    3.831704   5.254350   3.984817   4.390110   2.167817
    31  H    3.299646   6.079316   4.689430   5.505505   2.152913
                   11         12         13         14         15
    11  O    0.000000
    12  O    2.349908   0.000000
    13  C    3.308597   2.443958   0.000000
    14  H    4.737658   3.295572   2.779721   0.000000
    15  H    4.347353   2.546037   3.441772   1.761835   0.000000
    16  H    1.960430   2.015381   3.152026   5.072093   4.558852
    17  H    2.449738   2.058450   2.153459   2.383876   2.498510
    18  H    2.756039   4.372666   6.005670   6.868017   5.988515
    19  H    3.362558   4.537355   6.199478   6.337212   5.388209
    20  H    6.253002   4.255480   3.455995   3.578660   4.016052
    21  H    5.890280   4.231005   2.800850   2.416444   3.577792
    22  H    3.252787   2.935940   5.156659   4.971444   3.563308
    23  H    3.866310   4.082061   6.372993   6.630174   5.229507
    24  H    2.001483   4.026270   4.731318   5.580445   5.299366
    25  H    2.061698   2.965710   4.018717   4.151101   3.655875
    26  H    2.781781   3.278008   5.237801   6.488473   5.445349
    27  H    3.341816   2.496972   4.819571   5.571952   4.278693
    28  H    5.205401   4.043632   2.163453   4.033183   4.847461
    29  H    4.382514   2.820623   2.162234   3.971574   4.104894
    30  H    2.831262   2.677257   1.084471   3.782901   4.273748
    31  H    3.939664   3.350264   1.087754   2.630943   3.785280
                   16         17         18         19         20
    16  H    0.000000
    17  H    3.372691   0.000000
    18  H    3.894068   4.680912   0.000000
    19  H    4.813358   4.394814   1.753477   0.000000
    20  H    5.356370   4.840974   8.616817   8.673541   0.000000
    21  H    5.529209   4.009768   8.388987   8.248401   1.759108
    22  H    3.869536   3.602256   3.049960   2.479761   6.808262
    23  H    4.249128   5.039768   2.479971   2.536567   8.076344
    24  H    3.937030   3.257618   2.450762   2.516147   7.862208
    25  H    3.748709   2.059176   3.036670   2.417091   6.723539
    26  H    2.323074   4.662558   2.571435   3.756511   7.159132
    27  H    2.541878   4.300863   3.762601   4.305024   6.000764
    28  H    4.389045   4.273569   7.881415   8.249001   2.523968
    29  H    3.149931   3.854777   6.813292   7.268171   2.442054
    30  H    2.635391   2.544416   5.578315   6.036898   4.293689
    31  H    4.137285   2.387030   6.620585   6.653964   3.810371
                   21         22         23         24         25
    21  H    0.000000
    22  H    6.708230   0.000000
    23  H    8.173542   1.747882   0.000000
    24  H    7.179643   3.774839   4.289376   0.000000
    25  H    6.038005   2.607871   3.773080   1.752778   0.000000
    26  H    7.428785   3.047442   2.442957   4.052757   4.005843
    27  H    6.461103   2.491693   2.531982   4.838526   4.119395
    28  H    2.452166   6.959650   8.067989   6.794528   6.159628
    29  H    3.044384   5.707005   6.666920   6.225686   5.481115
    30  H    3.807563   5.289984   6.274264   4.325481   4.014511
    31  H    2.663647   5.820082   7.143881   4.998915   4.316315
                   26         27         28         29         30
    26  H    0.000000
    27  H    1.748743   0.000000
    28  H    6.632384   6.062545   0.000000
    29  H    5.211202   4.463886   1.749323   0.000000
    30  H    4.833631   4.764327   2.542206   2.467327   0.000000
    31  H    6.165188   5.799533   2.445838   3.050508   1.746352
                   31
    31  H    0.000000
 Stoichiometry    C10H18O3
 Framework group  C1[X(C10H18O3)]
 Deg. of freedom    87
 Full point group                 C1      NOp   1
 Largest Abelian subgroup         C1      NOp   1
 Largest concise Abelian subgroup C1      NOp   1
                         Standard orientation:                         
 ---------------------------------------------------------------------
 Center     Atomic      Atomic             Coordinates (Angstroms)
 Number     Number       Type             X           Y           Z
 ---------------------------------------------------------------------
      1          6           0        1.743344   -0.853603   -1.208699
      2          6           0       -1.056495    0.265653    0.931695
      3          6           0        0.866342    0.236749   -0.616776
      4          6           0       -3.507134   -0.026206   -0.586545
      5          6           0        3.588789   -0.319764    0.164130
      6          8           0        2.701880   -1.327175   -0.287278
      7          6           0       -2.917598   -1.249300    0.111192
      8          6           0       -2.390604    0.920833   -0.985750
      9          6           0       -2.091546   -0.783689    1.307219
     10          6           0        2.832952    0.798711    0.864189
     11          8           0       -1.563398    1.283656    0.118582
     12          8           0        0.076253   -0.377864    0.388700
     13          6           0        1.740090    1.357780   -0.049614
     14          1           0        2.247974   -0.461877   -2.088671
     15          1           0        1.145584   -1.705039   -1.502713
     16          1           0       -0.730692    0.786371    1.822282
     17          1           0        0.237229    0.620418   -1.404269
     18          1           0       -4.199943    0.481847    0.080063
     19          1           0       -4.057995   -0.306816   -1.479598
     20          1           0        4.286892   -0.805575    0.832201
     21          1           0        4.143663    0.069023   -0.687346
     22          1           0       -2.296372   -1.806097   -0.586258
     23          1           0       -3.702805   -1.920182    0.445256
     24          1           0       -2.776825    1.855790   -1.366744
     25          1           0       -1.784918    0.465439   -1.760793
     26          1           0       -2.753379   -0.334655    2.042983
     27          1           0       -1.581837   -1.608585    1.792599
     28          1           0        3.531595    1.582695    1.142213
     29          1           0        2.397012    0.415007    1.782022
     30          1           0        1.129098    2.082072    0.477802
     31          1           0        2.198995    1.878248   -0.887306
 ---------------------------------------------------------------------
 Rotational constants (GHZ):           1.8085677           0.4467680           0.4288764
 Standard basis: 6-311++G(2d,2p) (5D, 7F)
 There are   557 symmetry adapted cartesian basis functions of A   symmetry.
 There are   531 symmetry adapted basis functions of A   symmetry.
   531 basis functions,   762 primitive gaussians,   557 cartesian basis functions
    51 alpha electrons       51 beta electrons
       nuclear repulsion energy       905.9610375025 Hartrees.
 NAtoms=   31 NActive=   31 NUniq=   31 SFac= 1.00D+00 NAtFMM=   60 NAOKFM=F Big=F
 Integral buffers will be    131072 words long.
 Raffenetti 2 integral format.
 Two-electron integral symmetry is turned on.
 ------------------------------------------------------------------------------
 Polarizable Continuum Model (PCM)
 =================================
 Model                : PCM.
 Atomic radii         : SMD-Coulomb.
 Polarization charges : Total charges.
 Charge compensation  : None.
 Solution method      : On-the-fly selection.
 Cavity type          : VdW (van der Waals Surface) (Alpha=1.000).
 Cavity algorithm     : GePol (No added spheres)
                        Default sphere list used, NSphG=   31.
                        Lebedev-Laikov grids with approx.  5.0 points / Ang**2.
                        Smoothing algorithm: York/Karplus (Gamma=1.0000).
                        Polarization charges: spherical gaussians, with
                                              point-specific exponents (IZeta= 3).
                        Self-potential: point-specific (ISelfS= 7).
                        Self-field    : sphere-specific E.n sum rule (ISelfD= 2).
 1st derivatives      : Analytical E(r).r(x)/FMM algorithm (CHGder, D1EAlg=3).
                        Cavity 1st derivative terms included.
 Solvent              : Water, Eps=  78.355300 Eps(inf)=   1.777849
 ------------------------------------------------------------------------------
 ------------------------------------------------------------------------------
 Atomic radii for non-electrostatic terms: SMD-CDS.
 ------------------------------------------------------------------------------
 Nuclear repulsion after PCM non-electrostatic terms =      905.9674055464 Hartrees.
 One-electron integrals computed using PRISM.
 NBasis=   531 RedAO= T EigKep=  4.66D-06  NBF=   531
 NBsUse=   531 1.00D-06 EigRej= -1.00D+00 NBFU=   531
 ExpMin= 3.60D-02 ExpMax= 8.59D+03 ExpMxC= 1.30D+03 IAcc=3 IRadAn=         5 AccDes= 0.00D+00
 Harris functional with IExCor= 1009 and IRadAn=       5 diagonalized for initial guess.
 HarFok:  IExCor= 1009 AccDes= 0.00D+00 IRadAn=         5 IDoV= 1 UseB2=F ITyADJ=14
 ICtDFT=  3500011 ScaDFX=  1.000000  1.000000  1.000000  1.000000
 FoFCou: FMM=F IPFlag=           0 FMFlag=      100000 FMFlg1=           0
         NFxFlg=           0 DoJE=T BraDBF=F KetDBF=T FulRan=T
         wScrn=  0.000000 ICntrl=       500 IOpCl=  0 I1Cent=   200000004 NGrid=           0
         NMat0=    1 NMatS0=      1 NMatT0=    0 NMatD0=    1 NMtDS0=    0 NMtDT0=    0
 Petite list used in FoFCou.
 Requested convergence on RMS density matrix=1.00D-08 within 128 cycles.
 Requested convergence on MAX density matrix=1.00D-06.
 Requested convergence on             energy=1.00D-06.
 No special actions if energy rises.
 Inv3:  Mode=1 IEnd=    12000000.
 Iteration    1 A*A^-1 deviation from unit magnitude is 7.77D-15 for    207.
 Iteration    1 A*A^-1 deviation from orthogonality  is 5.28D-15 for   1423    224.
 Iteration    1 A^-1*A deviation from unit magnitude is 6.44D-15 for    207.
 Iteration    1 A^-1*A deviation from orthogonality  is 4.81D-12 for   1648   1594.
 Error on total polarization charges =  0.06085
 SCF Done:  E(RM062X) =  -617.499901569     A.U. after   12 cycles
            NFock= 12  Conv=0.86D-08     -V/T= 2.0035
 SMD-CDS (non-electrostatic) energy       (kcal/mol) =       4.00
 (included in total energy above)

 **********************************************************************

            Population analysis using the SCF Density.

 **********************************************************************

 Orbital symmetries:
       Occupied  (A) (A) (A) (A) (A) (A) (A) (A) (A) (A) (A) (A)
                 (A) (A) (A) (A) (A) (A) (A) (A) (A) (A) (A) (A)
                 (A) (A) (A) (A) (A) (A) (A) (A) (A) (A) (A) (A)
                 (A) (A) (A) (A) (A) (A) (A) (A) (A) (A) (A) (A)
                 (A) (A) (A)
       Virtual   (A) (A) (A) (A) (A) (A) (A) (A) (A) (A) (A) (A)
                 (A) (A) (A) (A) (A) (A) (A) (A) (A) (A) (A) (A)
                 (A) (A) (A) (A) (A) (A) (A) (A) (A) (A) (A) (A)
                 (A) (A) (A) (A) (A) (A) (A) (A) (A) (A) (A) (A)
                 (A) (A) (A) (A) (A) (A) (A) (A) (A) (A) (A) (A)
                 (A) (A) (A) (A) (A) (A) (A) (A) (A) (A) (A) (A)
                 (A) (A) (A) (A) (A) (A) (A) (A) (A) (A) (A) (A)
                 (A) (A) (A) (A) (A) (A) (A) (A) (A) (A) (A) (A)
                 (A) (A) (A) (A) (A) (A) (A) (A) (A) (A) (A) (A)
                 (A) (A) (A) (A) (A) (A) (A) (A) (A) (A) (A) (A)
                 (A) (A) (A) (A) (A) (A) (A) (A) (A) (A) (A) (A)
                 (A) (A) (A) (A) (A) (A) (A) (A) (A) (A) (A) (A)
                 (A) (A) (A) (A) (A) (A) (A) (A) (A) (A) (A) (A)
                 (A) (A) (A) (A) (A) (A) (A) (A) (A) (A) (A) (A)
                 (A) (A) (A) (A) (A) (A) (A) (A) (A) (A) (A) (A)
                 (A) (A) (A) (A) (A) (A) (A) (A) (A) (A) (A) (A)
                 (A) (A) (A) (A) (A) (A) (A) (A) (A) (A) (A) (A)
                 (A) (A) (A) (A) (A) (A) (A) (A) (A) (A) (A) (A)
                 (A) (A) (A) (A) (A) (A) (A) (A) (A) (A) (A) (A)
                 (A) (A) (A) (A) (A) (A) (A) (A) (A) (A) (A) (A)
                 (A) (A) (A) (A) (A) (A) (A) (A) (A) (A) (A) (A)
                 (A) (A) (A) (A) (A) (A) (A) (A) (A) (A) (A) (A)
                 (A) (A) (A) (A) (A) (A) (A) (A) (A) (A) (A) (A)
                 (A) (A) (A) (A) (A) (A) (A) (A) (A) (A) (A) (A)
                 (A) (A) (A) (A) (A) (A) (A) (A) (A) (A) (A) (A)
                 (A) (A) (A) (A) (A) (A) (A) (A) (A) (A) (A) (A)
                 (A) (A) (A) (A) (A) (A) (A) (A) (A) (A) (A) (A)
                 (A) (A) (A) (A) (A) (A) (A) (A) (A) (A) (A) (A)
                 (A) (A) (A) (A) (A) (A) (A) (A) (A) (A) (A) (A)
                 (A) (A) (A) (A) (A) (A) (A) (A) (A) (A) (A) (A)
                 (A) (A) (A) (A) (A) (A) (A) (A) (A) (A) (A) (A)
                 (A) (A) (A) (A) (A) (A) (A) (A) (A) (A) (A) (A)
                 (A) (A) (A) (A) (A) (A) (A) (A) (A) (A) (A) (A)
                 (A) (A) (A) (A) (A) (A) (A) (A) (A) (A) (A) (A)
                 (A) (A) (A) (A) (A) (A) (A) (A) (A) (A) (A) (A)
                 (A) (A) (A) (A) (A) (A) (A) (A) (A) (A) (A) (A)
                 (A) (A) (A) (A) (A) (A) (A) (A) (A) (A) (A) (A)
                 (A) (A) (A) (A) (A) (A) (A) (A) (A) (A) (A) (A)
                 (A) (A) (A) (A) (A) (A) (A) (A) (A) (A) (A) (A)
                 (A) (A) (A) (A) (A) (A) (A) (A) (A) (A) (A) (A)
 The electronic state is 1-A.
 Alpha  occ. eigenvalues --  -19.63347 -19.62684 -19.62401 -10.63147 -10.58068
 Alpha  occ. eigenvalues --  -10.57346 -10.57304 -10.57076 -10.52358 -10.52318
 Alpha  occ. eigenvalues --  -10.52240 -10.52176 -10.52105  -1.19868  -1.16578
 Alpha  occ. eigenvalues --   -1.13230  -0.90483  -0.89221  -0.87224  -0.84212
 Alpha  occ. eigenvalues --   -0.74548  -0.73756  -0.72802  -0.70910  -0.65758
 Alpha  occ. eigenvalues --   -0.62092  -0.59402  -0.58082  -0.57350  -0.55599
 Alpha  occ. eigenvalues --   -0.53308  -0.53032  -0.52020  -0.50904  -0.50037
 Alpha  occ. eigenvalues --   -0.47299  -0.46387  -0.45982  -0.45236  -0.44854
 Alpha  occ. eigenvalues --   -0.43361  -0.42596  -0.40448  -0.39526  -0.38944
 Alpha  occ. eigenvalues --   -0.38150  -0.37068  -0.35476  -0.34665  -0.32980
 Alpha  occ. eigenvalues --   -0.31387
 Alpha virt. eigenvalues --    0.00293   0.01296   0.01354   0.01582   0.02721
 Alpha virt. eigenvalues --    0.02946   0.03119   0.03888   0.03958   0.05008
 Alpha virt. eigenvalues --    0.05092   0.05311   0.05968   0.06272   0.07523
 Alpha virt. eigenvalues --    0.08154   0.08310   0.09020   0.09145   0.09848
 Alpha virt. eigenvalues --    0.10111   0.10715   0.11206   0.12048   0.12722
 Alpha virt. eigenvalues --    0.12963   0.13188   0.13665   0.13752   0.13943
 Alpha virt. eigenvalues --    0.14267   0.14495   0.14899   0.15082   0.15263
 Alpha virt. eigenvalues --    0.15526   0.16020   0.16261   0.16546   0.16830
 Alpha virt. eigenvalues --    0.17052   0.17223   0.17534   0.18145   0.18314
 Alpha virt. eigenvalues --    0.18867   0.19145   0.19386   0.19685   0.20090
 Alpha virt. eigenvalues --    0.20122   0.20594   0.21071   0.21596   0.22008
 Alpha virt. eigenvalues --    0.22898   0.23155   0.23477   0.24163   0.24931
 Alpha virt. eigenvalues --    0.25861   0.25918   0.27022   0.27442   0.27642
 Alpha virt. eigenvalues --    0.27839   0.28785   0.28887   0.29162   0.29763
 Alpha virt. eigenvalues --    0.30492   0.31220   0.31329   0.31538   0.32622
 Alpha virt. eigenvalues --    0.33001   0.33315   0.34117   0.34451   0.35038
 Alpha virt. eigenvalues --    0.35561   0.35744   0.36183   0.36433   0.36545
 Alpha virt. eigenvalues --    0.37256   0.37542   0.38117   0.38389   0.38412
 Alpha virt. eigenvalues --    0.39180   0.39370   0.39814   0.40698   0.41680
 Alpha virt. eigenvalues --    0.42069   0.42598   0.43918   0.45042   0.45414
 Alpha virt. eigenvalues --    0.47671   0.48486   0.50183   0.51223   0.51801
 Alpha virt. eigenvalues --    0.52523   0.53083   0.54027   0.54470   0.56641
 Alpha virt. eigenvalues --    0.57446   0.57612   0.58681   0.59817   0.60080
 Alpha virt. eigenvalues --    0.60397   0.61034   0.61463   0.61801   0.62341
 Alpha virt. eigenvalues --    0.62850   0.63478   0.63962   0.64938   0.65365
 Alpha virt. eigenvalues --    0.65529   0.66149   0.67029   0.67362   0.67895
 Alpha virt. eigenvalues --    0.68100   0.68798   0.69946   0.70079   0.71040
 Alpha virt. eigenvalues --    0.71478   0.71655   0.72204   0.73032   0.73091
 Alpha virt. eigenvalues --    0.74398   0.75108   0.75287   0.75681   0.76376
 Alpha virt. eigenvalues --    0.77015   0.77809   0.78526   0.78979   0.79423
 Alpha virt. eigenvalues --    0.81121   0.82482   0.83359   0.84935   0.85819
 Alpha virt. eigenvalues --    0.86673   0.88110   0.88600   0.89496   0.90004
 Alpha virt. eigenvalues --    0.91374   0.93323   0.94955   0.96255   0.97864
 Alpha virt. eigenvalues --    0.98447   0.99189   1.01040   1.01559   1.02994
 Alpha virt. eigenvalues --    1.03277   1.04162   1.05606   1.06471   1.07044
 Alpha virt. eigenvalues --    1.07725   1.08612   1.10696   1.11160   1.12222
 Alpha virt. eigenvalues --    1.13952   1.14575   1.15246   1.16755   1.17127
 Alpha virt. eigenvalues --    1.17908   1.18339   1.18832   1.19897   1.20424
 Alpha virt. eigenvalues --    1.22424   1.23159   1.23932   1.24374   1.24855
 Alpha virt. eigenvalues --    1.25646   1.26119   1.26909   1.27435   1.28323
 Alpha virt. eigenvalues --    1.29236   1.30373   1.31166   1.31586   1.32522
 Alpha virt. eigenvalues --    1.33571   1.34204   1.34364   1.35085   1.35857
 Alpha virt. eigenvalues --    1.36166   1.37625   1.38207   1.38507   1.39741
 Alpha virt. eigenvalues --    1.40151   1.40352   1.41336   1.41737   1.42062
 Alpha virt. eigenvalues --    1.43486   1.43880   1.44833   1.45324   1.46054
 Alpha virt. eigenvalues --    1.46472   1.46962   1.47904   1.48856   1.49938
 Alpha virt. eigenvalues --    1.50357   1.50570   1.50904   1.51300   1.52372
 Alpha virt. eigenvalues --    1.52856   1.53985   1.54353   1.54987   1.56848
 Alpha virt. eigenvalues --    1.57018   1.57631   1.58734   1.59214   1.59710
 Alpha virt. eigenvalues --    1.60081   1.61087   1.61367   1.62167   1.64020
 Alpha virt. eigenvalues --    1.64095   1.64828   1.66108   1.66193   1.66868
 Alpha virt. eigenvalues --    1.67550   1.68313   1.70187   1.70900   1.71727
 Alpha virt. eigenvalues --    1.73469   1.75067   1.75805   1.76843   1.77185
 Alpha virt. eigenvalues --    1.78284   1.80724   1.82775   1.83196   1.84359
 Alpha virt. eigenvalues --    1.85053   1.90591   1.92499   1.97245   2.00014
 Alpha virt. eigenvalues --    2.04389   2.08691   2.13626   2.18676   2.22037
 Alpha virt. eigenvalues --    2.25139   2.27002   2.28380   2.33696   2.40732
 Alpha virt. eigenvalues --    2.41369   2.43475   2.45411   2.49123   2.52772
 Alpha virt. eigenvalues --    2.58269   2.77047   2.77951   2.79787   2.82059
 Alpha virt. eigenvalues --    2.84071   2.87413   2.92394   2.93866   2.94852
 Alpha virt. eigenvalues --    2.97081   2.97708   3.00159   3.01957   3.04645
 Alpha virt. eigenvalues --    3.06777   3.07309   3.09259   3.10198   3.11995
 Alpha virt. eigenvalues --    3.13512   3.14594   3.17153   3.21639   3.23476
 Alpha virt. eigenvalues --    3.25550   3.29163   3.31374   3.34023   3.35202
 Alpha virt. eigenvalues --    3.36748   3.37097   3.39148   3.41034   3.41601
 Alpha virt. eigenvalues --    3.42952   3.43554   3.44821   3.45923   3.48084
 Alpha virt. eigenvalues --    3.49528   3.50009   3.51530   3.52094   3.52990
 Alpha virt. eigenvalues --    3.53692   3.54169   3.55370   3.55729   3.57005
 Alpha virt. eigenvalues --    3.57429   3.57995   3.58444   3.59160   3.60333
 Alpha virt. eigenvalues --    3.62078   3.63073   3.63690   3.65221   3.65763
 Alpha virt. eigenvalues --    3.66679   3.67937   3.68864   3.69667   3.70264
 Alpha virt. eigenvalues --    3.70824   3.71809   3.72182   3.73353   3.74995
 Alpha virt. eigenvalues --    3.75617   3.76087   3.76767   3.77226   3.78470
 Alpha virt. eigenvalues --    3.79230   3.80417   3.81991   3.82476   3.85699
 Alpha virt. eigenvalues --    3.86544   3.88563   3.89669   3.90098   3.91301
 Alpha virt. eigenvalues --    3.93072   3.95289   3.97346   3.97696   3.99036
 Alpha virt. eigenvalues --    3.99776   4.01591   4.02468   4.03611   4.04904
 Alpha virt. eigenvalues --    4.05274   4.05851   4.06639   4.07678   4.08017
 Alpha virt. eigenvalues --    4.08244   4.09156   4.10473   4.11175   4.11865
 Alpha virt. eigenvalues --    4.13178   4.13672   4.14663   4.15468   4.16383
 Alpha virt. eigenvalues --    4.17316   4.18242   4.18684   4.20201   4.21222
 Alpha virt. eigenvalues --    4.22194   4.23555   4.24686   4.26406   4.27677
 Alpha virt. eigenvalues --    4.28277   4.30493   4.31072   4.31901   4.33202
 Alpha virt. eigenvalues --    4.33959   4.35076   4.35347   4.37506   4.42178
 Alpha virt. eigenvalues --    4.43164   4.43784   4.46012   4.48929   4.51048
 Alpha virt. eigenvalues --    4.59030   4.62287   4.74958   4.76346   4.83203
 Alpha virt. eigenvalues --    4.86646   4.94468   4.95679   5.01046   5.04464
 Alpha virt. eigenvalues --    5.07710   5.08292   5.09134   5.09293   5.11857
 Alpha virt. eigenvalues --    5.13340   5.14919   5.15590   5.31759   5.38937
 Alpha virt. eigenvalues --    5.44830   5.57014   5.59631   5.64099   5.85730
 Alpha virt. eigenvalues --    5.87665   6.05366   7.02021   7.04540   7.06408
 Alpha virt. eigenvalues --    7.10015   7.10623   7.12543   7.14356   7.21827
 Alpha virt. eigenvalues --    7.24292   7.36915   7.40123   7.47131   7.54131
 Alpha virt. eigenvalues --    7.55098   7.62864  23.96101  23.98304  24.05974
 Alpha virt. eigenvalues --   24.08694  24.10968  24.13127  24.14750  24.16316
 Alpha virt. eigenvalues --   24.19155  24.20424  50.15633  50.18668  50.25324
          Condensed to atoms (all electrons):
               1          2          3          4          5          6
     1  C    6.193014   0.089524  -0.539573   0.001660  -0.259255   0.084874
     2  C    0.089524   7.083517  -0.624959   0.283198   0.058422  -0.011424
     3  C   -0.539573  -0.624959   7.149369   0.021833   0.260726  -0.017164
     4  C    0.001660   0.283198   0.021833   5.756895  -0.003017   0.000003
     5  C   -0.259255   0.058422   0.260726  -0.003017   5.468405   0.078586
     6  O    0.084874  -0.011424  -0.017164   0.000003   0.078586   8.389621
     7  C    0.020225  -0.201960   0.017248  -0.061999   0.002381  -0.000444
     8  C   -0.019227  -0.428724   0.045447  -0.042097  -0.000751   0.000286
     9  C   -0.046677  -0.928651   0.306206  -0.205213   0.000727   0.006015
    10  C    0.093343   0.093671  -0.281486   0.000466   0.149478   0.001649
    11  O    0.026693   0.244263   0.055994  -0.074538  -0.000524   0.000084
    12  O   -0.139636   0.230397  -0.016841  -0.029674  -0.015500   0.042284
    13  C    0.082957  -0.064526  -0.667597   0.046155  -0.236628   0.018852
    14  H    0.471982  -0.000501  -0.059079   0.001570   0.001535  -0.055920
    15  H    0.432916  -0.005661  -0.032520   0.004618   0.007347  -0.077523
    16  H    0.000122   0.565007  -0.025851   0.004540   0.008586  -0.000592
    17  H    0.009120  -0.111681   0.389506  -0.012662  -0.045350   0.012052
    18  H    0.000657   0.009807  -0.004328   0.471485  -0.000034  -0.000020
    19  H   -0.001398  -0.007435   0.001267   0.451915  -0.000176  -0.000031
    20  H    0.007831   0.003266   0.000617  -0.000291   0.446158  -0.063119
    21  H   -0.024575  -0.004414   0.022834   0.000210   0.452394  -0.053231
    22  H   -0.003071  -0.005365  -0.002953  -0.079834   0.000264   0.000711
    23  H   -0.001215   0.018051   0.003542  -0.021625   0.000144  -0.000004
    24  H    0.003143   0.003290  -0.005513  -0.026435  -0.000122   0.000006
    25  H    0.002081   0.016176   0.000644  -0.063816   0.005970   0.000092
    26  H    0.002668  -0.126718   0.001834  -0.032624  -0.000618   0.000283
    27  H   -0.003455  -0.028571  -0.009143   0.002193   0.000791  -0.000141
    28  H    0.000822   0.002590  -0.004160   0.000120  -0.017210   0.010630
    29  H    0.016897  -0.016611  -0.024055   0.000158  -0.101079  -0.008594
    30  H    0.000908  -0.030774  -0.026801   0.005300  -0.017783  -0.002315
    31  H   -0.016095   0.008064  -0.054592  -0.000355  -0.005218  -0.000478
               7          8          9         10         11         12
     1  C    0.020225  -0.019227  -0.046677   0.093343   0.026693  -0.139636
     2  C   -0.201960  -0.428724  -0.928651   0.093671   0.244263   0.230397
     3  C    0.017248   0.045447   0.306206  -0.281486   0.055994  -0.016841
     4  C   -0.061999  -0.042097  -0.205213   0.000466  -0.074538  -0.029674
     5  C    0.002381  -0.000751   0.000727   0.149478  -0.000524  -0.015500
     6  O   -0.000444   0.000286   0.006015   0.001649   0.000084   0.042284
     7  C    5.693627   0.020552   0.039070   0.000649  -0.000313  -0.030292
     8  C    0.020552   5.470865   0.191621  -0.003448   0.089621   0.044514
     9  C    0.039070   0.191621   6.440804   0.005755   0.004032  -0.093117
    10  C    0.000649  -0.003448   0.005755   5.671302   0.000288  -0.003534
    11  O   -0.000313   0.089621   0.004032   0.000288   8.241911  -0.048068
    12  O   -0.030292   0.044514  -0.093117  -0.003534  -0.048068   8.419923
    13  C   -0.057070  -0.026304  -0.123724  -0.183648  -0.097257   0.014894
    14  H   -0.000315  -0.002157   0.001665   0.039540   0.001410   0.015600
    15  H   -0.004045  -0.001997  -0.002220  -0.002384  -0.001629  -0.001328
    16  H   -0.010621  -0.020464  -0.100897   0.013709  -0.061113  -0.060644
    17  H   -0.001131   0.009092   0.030623  -0.072105   0.001120  -0.023586
    18  H   -0.010659  -0.080886  -0.016702  -0.000141  -0.001625  -0.000688
    19  H   -0.054554  -0.033540   0.006985   0.000092   0.007041   0.001195
    20  H    0.000289  -0.000057   0.000343  -0.057092  -0.000035   0.001313
    21  H   -0.000320   0.000429   0.000943  -0.019650   0.000077   0.001337
    22  H    0.530402   0.001692  -0.055359   0.000682   0.001319   0.003548
    23  H    0.420294   0.010941  -0.051902   0.000115  -0.003274  -0.002427
    24  H    0.016380   0.426399  -0.007348  -0.000135  -0.056315   0.001603
    25  H   -0.006411   0.471247   0.017294   0.006827  -0.031433   0.000440
    26  H   -0.005932   0.018787   0.522281   0.000007  -0.008908   0.008883
    27  H   -0.035301   0.002326   0.439790   0.000354   0.007547  -0.003323
    28  H    0.000038  -0.000577  -0.000698   0.436918  -0.000684   0.000156
    29  H    0.000228   0.000776   0.003005   0.493228  -0.000217   0.009320
    30  H   -0.003150   0.001979   0.006577  -0.040323   0.006237  -0.004885
    31  H    0.000490  -0.000426  -0.004528  -0.026480  -0.002370   0.005103
              13         14         15         16         17         18
     1  C    0.082957   0.471982   0.432916   0.000122   0.009120   0.000657
     2  C   -0.064526  -0.000501  -0.005661   0.565007  -0.111681   0.009807
     3  C   -0.667597  -0.059079  -0.032520  -0.025851   0.389506  -0.004328
     4  C    0.046155   0.001570   0.004618   0.004540  -0.012662   0.471485
     5  C   -0.236628   0.001535   0.007347   0.008586  -0.045350  -0.000034
     6  O    0.018852  -0.055920  -0.077523  -0.000592   0.012052  -0.000020
     7  C   -0.057070  -0.000315  -0.004045  -0.010621  -0.001131  -0.010659
     8  C   -0.026304  -0.002157  -0.001997  -0.020464   0.009092  -0.080886
     9  C   -0.123724   0.001665  -0.002220  -0.100897   0.030623  -0.016702
    10  C   -0.183648   0.039540  -0.002384   0.013709  -0.072105  -0.000141
    11  O   -0.097257   0.001410  -0.001629  -0.061113   0.001120  -0.001625
    12  O    0.014894   0.015600  -0.001328  -0.060644  -0.023586  -0.000688
    13  C    6.695817  -0.058688   0.019611  -0.012943   0.108609  -0.000145
    14  H   -0.058688   0.462754  -0.005858  -0.000328  -0.030291  -0.000090
    15  H    0.019611  -0.005858   0.469355   0.001354  -0.001111   0.000129
    16  H   -0.012943  -0.000328   0.001354   0.483433  -0.003880   0.002259
    17  H    0.108609  -0.030291  -0.001111  -0.003880   0.523713   0.001753
    18  H   -0.000145  -0.000090   0.000129   0.002259   0.001753   0.474002
    19  H    0.001885  -0.000066   0.000274   0.000692   0.000564  -0.010101
    20  H    0.005251   0.000147   0.000715   0.000890  -0.001906  -0.000004
    21  H   -0.025806   0.005115  -0.001937  -0.000156   0.002841   0.000005
    22  H   -0.000501   0.000590  -0.004650  -0.000866   0.000581   0.000283
    23  H   -0.001516   0.000014   0.000001   0.001675   0.000648  -0.001055
    24  H    0.001498  -0.000096   0.000070   0.000039  -0.000251  -0.002983
    25  H   -0.032742   0.003679  -0.004901   0.000557  -0.020541   0.002233
    26  H    0.000298   0.000171  -0.000031  -0.006888  -0.000184  -0.004807
    27  H    0.002922  -0.000047  -0.000250  -0.011820  -0.001797  -0.001647
    28  H   -0.051290   0.000683   0.001156   0.000385  -0.001072   0.000005
    29  H   -0.005683  -0.000746  -0.001747  -0.008958   0.003372  -0.000072
    30  H    0.471405  -0.001375   0.000817  -0.012120   0.002177  -0.000038
    31  H    0.469924   0.000719  -0.002967  -0.000399  -0.011682  -0.000126
              19         20         21         22         23         24
     1  C   -0.001398   0.007831  -0.024575  -0.003071  -0.001215   0.003143
     2  C   -0.007435   0.003266  -0.004414  -0.005365   0.018051   0.003290
     3  C    0.001267   0.000617   0.022834  -0.002953   0.003542  -0.005513
     4  C    0.451915  -0.000291   0.000210  -0.079834  -0.021625  -0.026435
     5  C   -0.000176   0.446158   0.452394   0.000264   0.000144  -0.000122
     6  O   -0.000031  -0.063119  -0.053231   0.000711  -0.000004   0.000006
     7  C   -0.054554   0.000289  -0.000320   0.530402   0.420294   0.016380
     8  C   -0.033540  -0.000057   0.000429   0.001692   0.010941   0.426399
     9  C    0.006985   0.000343   0.000943  -0.055359  -0.051902  -0.007348
    10  C    0.000092  -0.057092  -0.019650   0.000682   0.000115  -0.000135
    11  O    0.007041  -0.000035   0.000077   0.001319  -0.003274  -0.056315
    12  O    0.001195   0.001313   0.001337   0.003548  -0.002427   0.001603
    13  C    0.001885   0.005251  -0.025806  -0.000501  -0.001516   0.001498
    14  H   -0.000066   0.000147   0.005115   0.000590   0.000014  -0.000096
    15  H    0.000274   0.000715  -0.001937  -0.004650   0.000001   0.000070
    16  H    0.000692   0.000890  -0.000156  -0.000866   0.001675   0.000039
    17  H    0.000564  -0.001906   0.002841   0.000581   0.000648  -0.000251
    18  H   -0.010101  -0.000004   0.000005   0.000283  -0.001055  -0.002983
    19  H    0.473366  -0.000013   0.000016  -0.002935  -0.006715  -0.010580
    20  H   -0.000013   0.464604  -0.003047   0.000084   0.000027  -0.000019
    21  H    0.000016  -0.003047   0.484205  -0.000066  -0.000006   0.000016
    22  H   -0.002935   0.000084  -0.000066   0.462289  -0.005273  -0.002397
    23  H   -0.006715   0.000027  -0.000006  -0.005273   0.458599   0.001240
    24  H   -0.010580  -0.000019   0.000016  -0.002397   0.001240   0.465594
    25  H   -0.002669   0.000468  -0.000576   0.000191  -0.001969  -0.013685
    26  H   -0.002069  -0.000019  -0.000016   0.000998  -0.002312   0.000814
    27  H    0.000929   0.000045  -0.000077  -0.001289  -0.008299   0.000866
    28  H    0.000000  -0.008941   0.003326   0.000064  -0.000003  -0.000019
    29  H    0.000030  -0.004282   0.001887  -0.000007  -0.000015   0.000048
    30  H   -0.000042  -0.000595   0.000359  -0.000233  -0.000051  -0.000458
    31  H    0.000066  -0.001371  -0.002311   0.000105  -0.000007  -0.000140
              25         26         27         28         29         30
     1  C    0.002081   0.002668  -0.003455   0.000822   0.016897   0.000908
     2  C    0.016176  -0.126718  -0.028571   0.002590  -0.016611  -0.030774
     3  C    0.000644   0.001834  -0.009143  -0.004160  -0.024055  -0.026801
     4  C   -0.063816  -0.032624   0.002193   0.000120   0.000158   0.005300
     5  C    0.005970  -0.000618   0.000791  -0.017210  -0.101079  -0.017783
     6  O    0.000092   0.000283  -0.000141   0.010630  -0.008594  -0.002315
     7  C   -0.006411  -0.005932  -0.035301   0.000038   0.000228  -0.003150
     8  C    0.471247   0.018787   0.002326  -0.000577   0.000776   0.001979
     9  C    0.017294   0.522281   0.439790  -0.000698   0.003005   0.006577
    10  C    0.006827   0.000007   0.000354   0.436918   0.493228  -0.040323
    11  O   -0.031433  -0.008908   0.007547  -0.000684  -0.000217   0.006237
    12  O    0.000440   0.008883  -0.003323   0.000156   0.009320  -0.004885
    13  C   -0.032742   0.000298   0.002922  -0.051290  -0.005683   0.471405
    14  H    0.003679   0.000171  -0.000047   0.000683  -0.000746  -0.001375
    15  H   -0.004901  -0.000031  -0.000250   0.001156  -0.001747   0.000817
    16  H    0.000557  -0.006888  -0.011820   0.000385  -0.008958  -0.012120
    17  H   -0.020541  -0.000184  -0.001797  -0.001072   0.003372   0.002177
    18  H    0.002233  -0.004807  -0.001647   0.000005  -0.000072  -0.000038
    19  H   -0.002669  -0.002069   0.000929   0.000000   0.000030  -0.000042
    20  H    0.000468  -0.000019   0.000045  -0.008941  -0.004282  -0.000595
    21  H   -0.000576  -0.000016  -0.000077   0.003326   0.001887   0.000359
    22  H    0.000191   0.000998  -0.001289   0.000064  -0.000007  -0.000233
    23  H   -0.001969  -0.002312  -0.008299  -0.000003  -0.000015  -0.000051
    24  H   -0.013685   0.000814   0.000866  -0.000019   0.000048  -0.000458
    25  H    0.504150  -0.000418   0.000079   0.000066  -0.000465  -0.002070
    26  H   -0.000418   0.437845  -0.005853  -0.000005   0.000461   0.000761
    27  H    0.000079  -0.005853   0.465227   0.000186  -0.000438  -0.001025
    28  H    0.000066  -0.000005   0.000186   0.474693  -0.013126  -0.008768
    29  H   -0.000465   0.000461  -0.000438  -0.013126   0.480355   0.003559
    30  H   -0.002070   0.000761  -0.001025  -0.008768   0.003559   0.459053
    31  H    0.000704  -0.000009   0.000131  -0.007745   0.002932  -0.000079
              31
     1  C   -0.016095
     2  C    0.008064
     3  C   -0.054592
     4  C   -0.000355
     5  C   -0.005218
     6  O   -0.000478
     7  C    0.000490
     8  C   -0.000426
     9  C   -0.004528
    10  C   -0.026480
    11  O   -0.002370
    12  O    0.005103
    13  C    0.469924
    14  H    0.000719
    15  H   -0.002967
    16  H   -0.000399
    17  H   -0.011682
    18  H   -0.000126
    19  H    0.000066
    20  H   -0.001371
    21  H   -0.002311
    22  H    0.000105
    23  H   -0.000007
    24  H   -0.000140
    25  H    0.000704
    26  H   -0.000009
    27  H    0.000131
    28  H   -0.007745
    29  H    0.002932
    30  H   -0.000079
    31  H    0.424522
 Mulliken charges:
               1
     1  C   -0.487260
     2  C   -0.111271
     3  C    0.119546
     4  C   -0.398141
     5  C   -0.238648
     6  O   -0.355024
     7  C   -0.277358
     8  C   -0.145921
     9  C   -0.386700
    10  C   -0.317649
    11  O   -0.299332
    12  O   -0.326967
    13  C   -0.294009
    14  H    0.208381
    15  H    0.214396
    16  H    0.255287
    17  H    0.243456
    18  H    0.173532
    19  H    0.186008
    20  H    0.208741
    21  H    0.160192
    22  H    0.160995
    23  H    0.192378
    24  H    0.205492
    25  H    0.148799
    26  H    0.201318
    27  H    0.189094
    28  H    0.182458
    29  H    0.169838
    30  H    0.193754
    31  H    0.224616
 Sum of Mulliken charges =  -0.00000
 Mulliken charges with hydrogens summed into heavy atoms:
               1
     1  C   -0.064483
     2  C    0.144016
     3  C    0.363002
     4  C   -0.038600
     5  C    0.130285
     6  O   -0.355024
     7  C    0.076015
     8  C    0.208370
     9  C    0.003711
    10  C    0.034647
    11  O   -0.299332
    12  O   -0.326967
    13  C    0.124360
 Electronic spatial extent (au):  <R**2>=           2843.6059
 Charge=             -0.0000 electrons
 Dipole moment (field-independent basis, Debye):
    X=             -1.5368    Y=              1.8649    Z=             -1.7224  Tot=              2.9675
 Quadrupole moment (field-independent basis, Debye-Ang):
   XX=            -70.1759   YY=            -86.4634   ZZ=            -73.9799
   XY=              9.2896   XZ=              0.6573   YZ=             -0.5444
 Traceless Quadrupole moment (field-independent basis, Debye-Ang):
   XX=              6.6972   YY=             -9.5903   ZZ=              2.8931
   XY=              9.2896   XZ=              0.6573   YZ=             -0.5444
 Octapole moment (field-independent basis, Debye-Ang**2):
  XXX=             -0.3665  YYY=              2.2345  ZZZ=             -2.3631  XYY=             -7.5127
  XXY=             15.8959  XXZ=             -0.7480  XZZ=             -0.8949  YZZ=              0.4672
  YYZ=             -2.1190  XYZ=              2.9125
 Hexadecapole moment (field-independent basis, Debye-Ang**3):
 XXXX=          -2667.3994 YYYY=           -548.2747 ZZZZ=           -424.2664 XXXY=             35.0122
 XXXZ=             29.9351 YYYX=             13.0535 YYYZ=             -3.6873 ZZZX=             -7.7133
 ZZZY=              1.8662 XXYY=           -585.9333 XXZZ=           -515.7302 YYZZ=           -154.8358
 XXYZ=            -18.8665 YYXZ=              7.9274 ZZXY=             -8.9729
 N-N= 9.059674055464D+02 E-N=-3.254337532914D+03  KE= 6.153503384839D+02
 D1PCM: PCM CHGder 1st derivatives, ID1Alg=3 FixD1E=F DoIter=F DoCFld=F I1PDM=0.
 Calling FoFJK, ICntrl=      2127 FMM=F ISym2X=0 I1Cent= 0 IOpClX= 0 NMat=1 NMatS=1 NMatT=0.
 ***** Axes restored to original set *****
 -------------------------------------------------------------------
 Center     Atomic                   Forces (Hartrees/Bohr)
 Number     Number              X              Y              Z
 -------------------------------------------------------------------
      1        6           0.001534944   -0.006089278    0.001820263
      2        6          -0.001052392   -0.004130149    0.004680238
      3        6          -0.006689602   -0.005436076    0.006338574
      4        6          -0.002988647    0.001115662   -0.000384373
      5        6           0.003881785   -0.005709809    0.001509923
      6        8          -0.000068618    0.011506924    0.004361044
      7        6          -0.001033671   -0.004201177    0.000964401
      8        6           0.003406611    0.006409910    0.002889532
      9        6          -0.000170400   -0.000100723   -0.003002029
     10        6           0.000306504    0.000085811   -0.003340533
     11        8           0.001414200   -0.008424195   -0.001038629
     12        8           0.002468186    0.020314693   -0.007224335
     13        6          -0.001746030    0.003688489    0.000117645
     14        1          -0.002000530   -0.003067637   -0.004384036
     15        1           0.003405349    0.003733055   -0.000920645
     16        1          -0.001628826   -0.004202842    0.006070210
     17        1           0.004122949   -0.003018434   -0.005298075
     18        1           0.001482546   -0.001785751    0.002531674
     19        1           0.001249143    0.000776773   -0.002345416
     20        1          -0.002776927    0.001895334    0.002964315
     21        1          -0.002381404   -0.002940681   -0.004353808
     22        1          -0.002698998    0.001138784   -0.002425677
     23        1           0.001833179    0.001472704    0.000963800
     24        1           0.001812618   -0.003920125   -0.001674756
     25        1          -0.003449667    0.003556348   -0.004500583
     26        1           0.001981453   -0.001943568    0.001965773
     27        1          -0.002065138    0.002421146    0.001273194
     28        1          -0.001646072   -0.002000308    0.000648268
     29        1           0.001950610    0.001957470    0.002690709
     30        1           0.003156829   -0.001921540    0.001894959
     31        1          -0.001609982   -0.001180807   -0.002791627
 -------------------------------------------------------------------
 Cartesian Forces:  Max     0.020314693 RMS     0.003984388

 GradGradGradGradGradGradGradGradGradGradGradGradGradGradGradGradGradGrad
 Berny optimization.
 FormGI is forming the generalized inverse of G from B-inverse, IUseBI=4.
 Internal  Forces:  Max     0.016462155 RMS     0.002439258
 Search for a local minimum.
 Step number   1 out of a maximum of  186
 All quantities printed in internal units (Hartrees-Bohrs-Radians)
 Mixed Optimization -- RFO/linear search
 Second derivative matrix not updated -- first step.
 ITU=  0
     Eigenvalues ---    0.00596   0.00662   0.00735   0.00744   0.01328
     Eigenvalues ---    0.01443   0.01445   0.02675   0.02801   0.03075
     Eigenvalues ---    0.03101   0.04120   0.04336   0.04720   0.04752
     Eigenvalues ---    0.04808   0.04885   0.05054   0.05071   0.05224
     Eigenvalues ---    0.05306   0.05756   0.05862   0.06167   0.06212
     Eigenvalues ---    0.06295   0.06561   0.06883   0.07354   0.07737
     Eigenvalues ---    0.07886   0.07960   0.07992   0.08136   0.08254
     Eigenvalues ---    0.08368   0.08991   0.09410   0.10809   0.11679
     Eigenvalues ---    0.11712   0.11730   0.11789   0.12498   0.12536
     Eigenvalues ---    0.14618   0.15005   0.16352   0.16432   0.17436
     Eigenvalues ---    0.19380   0.21773   0.21811   0.25000   0.28580
     Eigenvalues ---    0.28688   0.28782   0.28910   0.29032   0.29174
     Eigenvalues ---    0.30369   0.30440   0.35028   0.35073   0.35113
     Eigenvalues ---    0.35114   0.35118   0.35192   0.35245   0.35261
     Eigenvalues ---    0.35263   0.35342   0.35459   0.35472   0.35522
     Eigenvalues ---    0.35769   0.35812   0.35866   0.35879   0.36178
     Eigenvalues ---    0.40247   0.41507   0.42273   0.42643   0.43781
     Eigenvalues ---    0.444701000.000001000.000001000.000001000.00000
     Eigenvalues --- 1000.000001000.000001000.000001000.000001000.00000
     Eigenvalues --- 1000.000001000.000001000.000001000.000001000.00000
     Eigenvalues --- 1000.000001000.000001000.000001000.000001000.00000
     Eigenvalues --- 1000.000001000.000001000.000001000.000001000.00000
     Eigenvalues --- 1000.000001000.000001000.000001000.000001000.00000
     Eigenvalues --- 1000.000001000.000001000.000001000.000001000.00000
     Eigenvalues --- 1000.000001000.000001000.000001000.000001000.00000
     Eigenvalues --- 1000.000001000.000001000.000001000.000001000.00000
     Eigenvalues --- 1000.000001000.000001000.000001000.000001000.00000
     Eigenvalues --- 1000.000001000.000001000.000001000.000001000.00000
     Eigenvalues --- 1000.000001000.000001000.000001000.000001000.00000
     Eigenvalues --- 1000.000001000.000001000.000001000.000001000.00000
     Eigenvalues --- 1000.000001000.000001000.000001000.000001000.00000
     Eigenvalues --- 1000.000001000.000001000.000001000.000001000.00000
     Eigenvalues --- 1000.000001000.000001000.000001000.000001000.00000
     Eigenvalues --- 1000.000001000.000001000.000001000.000001000.00000
     Eigenvalues --- 1000.000001000.000001000.000001000.000001000.00000
     Eigenvalues --- 1000.000001000.000001000.000001000.000001000.00000
     Eigenvalues --- 1000.000001000.000001000.000001000.000001000.00000
 RFO step:  Lambda=-4.23484148D-03 EMin= 5.95899607D-03
 Linear search not attempted -- first point.
 Iteration  1 RMS(Cart)=  0.06368993 RMS(Int)=  0.00086089
 Iteration  2 RMS(Cart)=  0.00283437 RMS(Int)=  0.00005147
 Iteration  3 RMS(Cart)=  0.00000356 RMS(Int)=  0.00005144
 Iteration  4 RMS(Cart)=  0.00000000 RMS(Int)=  0.00005144
 Iteration  1 RMS(Cart)=  0.00005553 RMS(Int)=  0.00001137
 Iteration  2 RMS(Cart)=  0.00002903 RMS(Int)=  0.00001271
 Iteration  3 RMS(Cart)=  0.00001518 RMS(Int)=  0.00001429
 Iteration  4 RMS(Cart)=  0.00000794 RMS(Int)=  0.00001528
 Iteration  5 RMS(Cart)=  0.00000415 RMS(Int)=  0.00001583
 Iteration  6 RMS(Cart)=  0.00000217 RMS(Int)=  0.00001613
 Iteration  7 RMS(Cart)=  0.00000113 RMS(Int)=  0.00001629
 Iteration  8 RMS(Cart)=  0.00000059 RMS(Int)=  0.00001637
 Variable       Old X    -DE/DX   Delta X   Delta X   Delta X     New X
                                 (Linear)    (Quad)   (Total)
    R1        2.87112  -0.00116   0.00000  -0.00366  -0.00364   2.86748
    R2        2.66718   0.00615   0.00000   0.01473   0.01476   2.68193
    R3        2.05490   0.00558   0.00000   0.01571   0.01571   2.07061
    R4        2.04292   0.00507   0.00000   0.01398   0.01398   2.05690
    R5        2.87429  -0.00127   0.00000  -0.00512  -0.00508   2.86921
    R6        2.64186   0.00688   0.00000   0.01416   0.01420   2.65606
    R7        2.66718   0.00616   0.00000   0.01393   0.01393   2.68111
    R8        2.04444   0.00751   0.00000   0.02075   0.02075   2.06518
    R9        2.68113   0.00307   0.00000   0.00714   0.00714   2.68827
   R10        2.89185  -0.00166   0.00000  -0.00650  -0.00653   2.88532
   R11        2.03804   0.00735   0.00000   0.02007   0.02007   2.05811
   R12        2.88476  -0.00153   0.00000  -0.00394  -0.00398   2.88077
   R13        2.86771  -0.00120   0.00000  -0.00297  -0.00300   2.86471
   R14        2.05491   0.00333   0.00000   0.00938   0.00938   2.06429
   R15        2.05254   0.00276   0.00000   0.00774   0.00774   2.06028
   R16        2.67598   0.00637   0.00000   0.01529   0.01532   2.69130
   R17        2.87360  -0.00054   0.00000  -0.00171  -0.00173   2.87187
   R18        2.04377   0.00448   0.00000   0.01236   0.01236   2.05613
   R19        2.05629   0.00567   0.00000   0.01599   0.01599   2.07228
   R20        2.88432  -0.00128   0.00000  -0.00465  -0.00465   2.87966
   R21        2.05484   0.00368   0.00000   0.01036   0.01036   2.06520
   R22        2.05123   0.00253   0.00000   0.00708   0.00708   2.05831
   R23        2.69606   0.00537   0.00000   0.01306   0.01306   2.70913
   R24        2.04271   0.00463   0.00000   0.01276   0.01276   2.05547
   R25        2.04835   0.00664   0.00000   0.01846   0.01846   2.06682
   R26        2.05364   0.00334   0.00000   0.00937   0.00937   2.06301
   R27        2.04916   0.00338   0.00000   0.00942   0.00942   2.05858
   R28        2.89192  -0.00116   0.00000  -0.00508  -0.00511   2.88682
   R29        2.05279   0.00267   0.00000   0.00747   0.00747   2.06027
   R30        2.05250   0.00375   0.00000   0.01052   0.01052   2.06302
   R31        2.04935   0.00398   0.00000   0.01110   0.01110   2.06046
   R32        2.05556   0.00339   0.00000   0.00955   0.00955   2.06511
    A1        1.95894   0.00023   0.00000   0.00002   0.00005   1.95899
    A2        1.90141  -0.00139   0.00000  -0.00673  -0.00677   1.89464
    A3        1.93050  -0.00037   0.00000  -0.00678  -0.00679   1.92371
    A4        1.91135   0.00137   0.00000   0.00999   0.00999   1.92134
    A5        1.86378  -0.00047   0.00000  -0.00127  -0.00130   1.86248
    A6        1.89677   0.00069   0.00000   0.00531   0.00528   1.90205
    A7        1.98147   0.00146   0.00000   0.00999   0.00963   1.99110
    A8        1.90348  -0.00323   0.00000  -0.01472  -0.01480   1.88868
    A9        1.91108  -0.00089   0.00000   0.00599   0.00600   1.91707
   A10        1.98149  -0.00101   0.00000  -0.02034  -0.02027   1.96123
   A11        1.81058   0.00085   0.00000  -0.00001   0.00005   1.81064
   A12        1.86968   0.00321   0.00000   0.02217   0.02227   1.89195
   A13        1.86154   0.00000   0.00000  -0.00054  -0.00051   1.86102
   A14        1.91828   0.00114   0.00000   0.00257   0.00247   1.92076
   A15        1.88341  -0.00003   0.00000   0.00637   0.00637   1.88978
   A16        1.95265  -0.00105   0.00000  -0.01220  -0.01218   1.94047
   A17        1.92489   0.00088   0.00000   0.00851   0.00846   1.93335
   A18        1.92099  -0.00086   0.00000  -0.00390  -0.00388   1.91710
   A19        1.91358  -0.00078   0.00000  -0.00487  -0.00507   1.90851
   A20        1.91792   0.00069   0.00000   0.00158   0.00167   1.91959
   A21        1.94408  -0.00029   0.00000  -0.00058  -0.00056   1.94352
   A22        1.91607   0.00009   0.00000  -0.00115  -0.00111   1.91496
   A23        1.89451   0.00017   0.00000  -0.00012  -0.00004   1.89446
   A24        1.87718   0.00014   0.00000   0.00527   0.00524   1.88242
   A25        1.93768   0.00086   0.00000   0.00595   0.00588   1.94356
   A26        1.85629  -0.00088   0.00000  -0.00281  -0.00278   1.85350
   A27        1.90088   0.00090   0.00000   0.00492   0.00497   1.90585
   A28        1.94642  -0.00034   0.00000  -0.00338  -0.00338   1.94305
   A29        1.92933  -0.00107   0.00000  -0.00749  -0.00748   1.92185
   A30        1.89095   0.00057   0.00000   0.00318   0.00316   1.89410
   A31        1.97660  -0.00415   0.00000  -0.02418  -0.02411   1.95250
   A32        1.89943   0.00250   0.00000   0.00047   0.00049   1.89993
   A33        1.91530  -0.00114   0.00000  -0.00315  -0.00319   1.91211
   A34        1.93532  -0.00041   0.00000   0.00149   0.00152   1.93684
   A35        1.92796  -0.00084   0.00000  -0.00359  -0.00362   1.92434
   A36        1.91652  -0.00090   0.00000  -0.00029  -0.00028   1.91624
   A37        1.86941   0.00071   0.00000   0.00505   0.00506   1.87446
   A38        1.96241   0.00169   0.00000   0.00400   0.00388   1.96629
   A39        1.94939  -0.00048   0.00000  -0.00334  -0.00329   1.94610
   A40        1.91456  -0.00104   0.00000  -0.00445  -0.00446   1.91010
   A41        1.83384  -0.00094   0.00000  -0.00161  -0.00160   1.83224
   A42        1.91380   0.00025   0.00000   0.00304   0.00312   1.91693
   A43        1.88706   0.00053   0.00000   0.00262   0.00260   1.88966
   A44        1.96631  -0.00031   0.00000  -0.01168  -0.01176   1.95455
   A45        1.87185  -0.00033   0.00000   0.00307   0.00309   1.87494
   A46        1.89174   0.00004   0.00000  -0.00446  -0.00449   1.88725
   A47        1.90390   0.00108   0.00000   0.00984   0.00991   1.91381
   A48        1.95313  -0.00065   0.00000  -0.00213  -0.00226   1.95087
   A49        1.87291   0.00019   0.00000   0.00642   0.00641   1.87932
   A50        1.92705  -0.00007   0.00000  -0.00629  -0.00636   1.92069
   A51        1.90603   0.00043   0.00000   0.00233   0.00238   1.90840
   A52        1.90571  -0.00049   0.00000  -0.00148  -0.00151   1.90420
   A53        1.92672  -0.00066   0.00000  -0.00013  -0.00013   1.92660
   A54        1.92520   0.00055   0.00000   0.00072   0.00073   1.92593
   A55        1.87216   0.00024   0.00000   0.00520   0.00519   1.87735
   A56        2.06605  -0.00478   0.00000  -0.03358  -0.03343   2.03262
   A57        2.12006  -0.01646   0.00000  -0.06475  -0.06475   2.05531
   A58        1.94060   0.00104   0.00000  -0.00883  -0.00893   1.93167
   A59        1.92604  -0.00094   0.00000  -0.00995  -0.00992   1.91612
   A60        1.88176  -0.00041   0.00000   0.00459   0.00462   1.88637
   A61        1.93471  -0.00000   0.00000   0.00190   0.00179   1.93650
   A62        1.91067  -0.00020   0.00000   0.00586   0.00590   1.91657
   A63        1.86780   0.00049   0.00000   0.00730   0.00729   1.87509
    D1       -1.17937   0.00161   0.00000   0.03292   0.03292  -1.14645
[...]
 07188,-0.00017248,0.00003107,-0.00174215,0.01633738,-0.03176684,0.0014
 6940,-0.00089532,0.00096604,-0.00019235,0.00033807,0.00024545,0.000006
 72,-0.00000454,0.00000471,0.00003207,0.00004286,-0.00002823,0.00047711
 ,-0.00059590,-0.00029656,0.00051586,0.00027852,0.00104499,-0.00136278,
 -0.00082420,0.00076962,-0.00014456,-0.00024286,0.00051211,-0.00001009,
 0.00000020,0.00000010,-0.00000606,-0.00000484,-0.00000584,0.00013053,-
 0.00033526,-0.00016599,0.00008564,-0.00009528,0.00017951,0.00614887,-0
 .00501868,0.01025085,0.10349165,-0.09170421,0.18467822,-0.00006296,-0.
 00046165,-0.00032896,-0.01323714,0.01321114,-0.01310699,-0.00034838,0.
 00106039,0.00128086,0.00092418,-0.00063584,-0.00017149,0.00008441,0.00
 004250,0.00000495,-0.00013552,0.00005136,0.00005976,0.01099484,-0.0084
 9029,0.01411481,-0.00027734,-0.00012762,0.00016153,-0.14359656,0.06829
 819,-0.10656696,0.00002306,-0.00005691,-0.00003074,0.00113064,-0.00011
 018,0.00051308,-0.00555472,-0.00384121,-0.00464480,-0.00017029,-0.0000
 6693,-0.00035041,-0.00014621,0.00013311,-0.00007837,0.00001523,0.00002
 214,0.00001261,0.00048034,0.00039716,0.00040455,0.00001225,-0.00008445
 ,-0.00010954,-0.00015000,-0.00003806,-0.00033758,0.00001210,-0.0001493
 0,-0.00020044,-0.00001910,0.00000398,0.00000308,-0.00000726,-0.0000095
 7,-0.00000833,-0.00138187,-0.00083246,0.00361080,0.00099659,0.00025965
 ,-0.00086608,0.00005374,0.00001812,-0.00003105,-0.00001730,0.00005862,
 -0.00002043,0.15880184,-0.00009456,-0.00034201,-0.00027619,-0.01293018
 ,0.00910176,-0.01458059,-0.00060831,0.00102653,0.00039628,0.00002766,0
 .00038927,-0.00112485,0.00004949,0.00002549,-0.00000011,-0.00007093,0.
 00002853,0.00004052,0.00580589,-0.00605160,0.00820440,-0.00029042,-0.0
 0001106,0.00006979,0.07246129,-0.10007602,0.07674111,0.00000806,-0.000
 02964,-0.00001296,0.00044038,0.00044404,0.00094750,-0.00445157,-0.0022
 7759,-0.00273538,-0.00003652,0.00000586,-0.00011483,-0.00010420,0.0000
 9727,-0.00006696,0.00001396,0.00001191,0.00000552,0.00043224,0.0010191
 3,0.00015446,0.00004100,-0.00003297,-0.00004986,-0.00007642,0.00043173
 ,-0.00003110,-0.00017687,0.00002271,-0.00012988,-0.00001065,0.00000090
 ,0.00000244,-0.00000408,-0.00000525,-0.00000504,-0.00165799,0.00045085
 ,0.00181181,0.00024739,0.00018363,-0.00034425,0.00005465,0.00003558,-0
 .00001015,-0.00000931,-0.00003033,0.00002379,-0.07329838,0.10558437,0.
 00001112,-0.00010582,-0.00003618,-0.00418246,0.00507801,-0.00735248,-0
 .00003601,0.00028859,0.00074892,-0.00115063,0.00052161,0.00082079,0.00
 002488,0.00001025,0.00000124,-0.00003809,0.00001012,0.00001014,-0.0145
 4884,0.01209211,-0.01922644,-0.00001305,-0.00000308,-0.00002650,-0.106
 95768,0.07437123,-0.16405074,0.00000522,-0.00001449,-0.00000991,0.0003
 3735,-0.00027531,0.00032892,-0.00130433,-0.00098651,0.00007627,-0.0000
 5582,-0.00001836,-0.00011508,-0.00001997,0.00002558,-0.00001666,0.0000
 0725,0.00000777,0.00000123,0.00043922,-0.00036371,0.00077750,0.0000297
 7,-0.00001906,-0.00001675,0.00027399,-0.00047457,0.00001341,0.00025261
 ,-0.00001783,0.00030291,-0.00000526,0.00000176,0.00000080,-0.00000252,
 -0.00000181,-0.00000230,0.00314415,0.00129942,-0.00331689,-0.00002106,
 -0.00032350,0.00129969,-0.00004617,-0.00005669,-0.00003288,0.00002696,
 0.00004153,0.00001885,0.11489384,-0.08577899,0.17925184,0.00000982,0.0
 0006193,0.00003546,0.01071220,-0.01595235,-0.01041414,0.00053975,-0.00
 004282,0.00010552,-0.00135805,-0.00233819,0.00344959,-0.00001015,-0.00
 000424,0.00000320,0.00000337,0.00000261,-0.00000260,-0.00761117,0.0139
 8163,0.00596112,-0.00104863,-0.00040897,0.00091281,-0.10393486,0.09638
 012,0.05561794,-0.00000673,0.00000554,-0.00000527,-0.00248580,-0.00568
 698,-0.00385844,0.00023768,-0.00044333,-0.00030850,0.00001769,-0.00000
 351,0.00003854,0.00001191,-0.00001406,0.00001251,-0.00000074,-0.000002
 14,-0.00000482,0.00051147,0.00079532,0.00063699,0.00002753,-0.00004465
 ,-0.00000703,0.00013948,-0.00035391,-0.00014117,-0.00014011,0.00108831
 ,0.00088048,0.00000145,0.00000137,-0.00000084,0.00000086,0.00000167,0.
 00000164,0.00077403,-0.00034014,-0.00029215,0.00024682,0.00015676,-0.0
 0073132,0.00019077,0.00014882,-0.00010639,0.00010876,0.00005589,-0.000
 10029,-0.00828393,0.01430379,0.00896496,0.11133757,-0.00002633,-0.0000
 2517,-0.00001151,0.01310966,-0.01622212,-0.00896497,0.00001416,0.00034
 729,-0.00017508,-0.00140854,-0.00011584,0.00206494,-0.00000251,0.00000
 472,-0.00000067,-0.00001300,0.00000556,0.00000360,-0.00553646,0.010975
 40,0.00547064,-0.00073331,-0.00020376,0.00140736,0.09263780,-0.2098351
 3,-0.09470722,-0.00000920,-0.00000129,-0.00000922,-0.00333751,-0.00425
 256,-0.00295185,0.00123616,0.00124169,0.00146889,0.00006499,0.00002505
 ,0.00011237,-0.00000350,-0.00000028,-0.00000362,-0.00000051,-0.0000049
 3,-0.00000190,-0.00025580,0.00054401,0.00051013,0.00004858,0.00001589,
 0.00008143,-0.00005682,0.00004969,-0.00001097,-0.00034000,0.00050242,0
 .00046741,-0.00000142,0.00000129,0.00000063,0.00000020,0.00000027,0.00
 000164,0.00049858,0.00042504,-0.00060991,0.00047956,0.00043787,-0.0007
 4413,0.00014852,0.00005221,-0.00012761,0.00007858,0.00007263,-0.000168
 05,0.00477147,-0.00993289,-0.00527677,-0.10137571,0.22583876,0.0000007
 7,0.00002383,0.00003717,0.00377644,-0.00677818,-0.00627607,0.00007396,
 0.00001060,0.00002539,0.00276279,0.00330524,-0.00350027,-0.00000968,-0
 .00000699,0.00000367,0.00000441,0.00000786,-0.00000481,0.01049483,-0.0
 2058781,-0.01130644,0.00018503,0.00040421,0.00070751,0.05334912,-0.092
 04256,-0.10049531,-0.00000385,0.00000375,-0.00000003,-0.00121225,-0.00
 193082,0.00012946,0.00054582,0.00021743,0.00059301,0.00002191,0.000012
 32,0.00004324,0.00001411,-0.00000989,0.00000618,0.00000319,0.00000082,
 -0.00000597,-0.00037839,-0.00011200,0.00004016,0.00003557,0.00001332,0
 .00004943,0.00011557,-0.00016987,0.00018060,0.00054378,-0.00139323,-0.
 00066909,0.00000051,0.00000107,-0.00000048,0.00000167,0.00000123,0.000
 00082,-0.00085289,-0.00023379,0.00089246,-0.00041484,0.00024269,0.0010
 6030,-0.00006347,-0.00007589,0.00001112,-0.00005916,0.00002219,-0.0000
 5875,-0.00830608,0.01683194,0.01052537,-0.06064095,0.10221118,0.108026
 75,-0.00101390,0.00072694,0.00017962,0.00045861,-0.00022613,0.00021310
 ,-0.00194760,0.00377063,0.00308655,-0.00001114,0.00001664,-0.00000210,
 0.01204298,0.01129890,-0.00392481,0.00000559,0.00514207,-0.00328556,-0
 .00000334,0.00000128,-0.00001706,0.00004809,-0.00001931,-0.00001933,-0
 .00004002,0.00004671,-0.00001921,-0.14818370,-0.12165743,0.04662423,-0
 .00019912,0.00007956,0.00004334,-0.00022644,0.00004855,-0.00018262,-0.
 01379392,-0.01739354,0.00649258,0.00012756,-0.00005695,-0.00004425,0.0
 0020704,-0.00019798,-0.00012103,-0.00004944,0.00003056,-0.00002143,-0.
 00068282,-0.00128081,0.00056947,-0.00001159,-0.00000714,-0.00000685,-0
 .00000830,-0.00000347,0.00000227,0.00040431,-0.00066981,0.00079272,0.0
 0057192,-0.00085946,0.00021041,0.00000182,0.00000078,0.00000107,-0.000
 00795,-0.00000801,0.00000609,-0.00002159,0.00001191,0.00000184,-0.0000
 0475,0.00002842,-0.00004782,-0.00003159,-0.00001637,-0.00000871,0.0000
 0151,-0.00000036,0.00000106,0.15900034,0.00128583,-0.00060877,-0.00118
 908,-0.00002224,-0.00000535,-0.00001076,0.00210047,-0.00076801,-0.0021
 7976,0.00000349,-0.00000809,0.00000683,-0.01662565,-0.01427575,0.00339
 202,0.00179401,-0.00540487,0.00501259,-0.00000007,-0.00000109,-0.00000
 031,0.00001252,0.00001157,-0.00002079,-0.00000002,-0.00000013,0.000001
 16,-0.12074993,-0.19321111,0.05927016,-0.00001749,0.00001010,0.0000100
 8,-0.00006824,0.00008636,0.00022429,0.00902419,0.01130947,-0.00475526,
 -0.00014787,0.00008639,0.00015262,-0.00021000,0.00010760,0.00012494,-0
 .00000167,-0.00000980,0.00001169,0.00042185,0.00052978,-0.00045996,0.0
 0000302,0.00000329,0.00000160,-0.00000031,-0.00000043,0.00000021,0.000
 09670,0.00049365,-0.00072715,0.00010689,0.00091531,0.00007622,-0.00000
 095,0.00000010,-0.00000056,-0.00000044,0.00000051,0.00000032,0.0000039
 1,-0.00000333,0.00000340,-0.00000049,-0.00001151,0.00001843,0.00000055
 ,-0.00000047,-0.00000069,0.00000049,-0.00000083,0.00000059,0.13052638,
 0.20852434,-0.00047669,-0.00028165,0.00092794,-0.00028750,0.00013653,-
 0.00010107,0.00207163,-0.00376249,-0.00252329,0.00001066,-0.00001568,0
 .00000640,0.01072907,0.00927444,-0.00500612,-0.00112767,0.00386798,-0.
 00139243,0.00000388,-0.00000198,0.00000866,-0.00003186,0.00002868,0.00
 000128,0.00003147,-0.00003876,0.00001659,0.04505034,0.05718747,-0.0691
 6593,0.00014114,-0.00001415,-0.00000701,0.00006443,0.00033152,0.000876
 28,0.01274344,0.01549732,-0.00765193,-0.00000918,-0.00003494,-0.000089
 92,0.00004100,0.00005299,-0.00001591,0.00003416,-0.00003188,0.00003411
 ,0.00063624,0.00101971,-0.00046078,0.00000920,0.00000630,0.00000588,0.
 00000508,0.00000275,-0.00000183,-0.00014360,-0.00010836,0.00036502,0.0
 0019276,-0.00077696,0.00031062,-0.00000250,-0.00000068,-0.00000151,0.0
 0000462,0.00000555,-0.00000298,0.00001519,-0.00001008,0.00000052,0.000
 00263,-0.00002180,0.00004113,0.00002369,0.00000971,0.00000627,-0.00000
 047,-0.00000122,-0.00000170,-0.05319591,-0.06331276,0.07362494,-0.0004
 0436,0.00023706,0.00035534,0.00024579,-0.00022408,0.00025620,0.0008587
 4,-0.00031756,-0.00055725,0.00000135,-0.00000221,0.00000051,-0.0110560
 2,-0.00814930,-0.01589881,0.00181488,-0.00013588,0.00137786,0.00000233
 ,0.00000421,0.00000176,0.00002231,-0.00001452,-0.00001311,-0.00000489,
 0.00000383,-0.00002439,-0.09550172,-0.04434196,-0.09134310,0.00000204,
 0.00010197,-0.00003098,-0.00127281,-0.00044675,0.00047322,0.01092262,0
 .01047325,0.01991307,-0.00009814,-0.00007406,-0.00003629,0.00006852,-0
 .00004258,-0.00001912,0.00003791,0.00008153,-0.00015869,-0.00001956,0.
 00010944,-0.00019075,-0.00000077,0.00000086,-0.00000061,-0.00000054,0.
 00000006,0.00000070,0.00049813,-0.00057179,0.00049014,-0.00089891,0.00
 337774,-0.00186933,0.00000072,0.00000097,-0.00000159,-0.00000079,0.000
 00012,-0.00000146,0.00000103,-0.00000098,-0.00000087,0.00000587,-0.000
 00483,0.00000231,-0.00000705,-0.00000568,-0.00000330,0.00000316,-0.000
 00017,-0.00000054,-0.00833125,-0.00632712,-0.01522893,0.10494199,0.000
 02922,-0.00003195,0.00006617,0.00006405,-0.00008107,0.00009977,-0.0004
 5377,-0.00047937,0.00004978,0.00000343,-0.00000232,0.00000044,0.012114
 45,0.00836586,0.02177431,0.00001765,0.00223800,-0.00185726,0.00000078,
 -0.00000327,-0.00000345,0.00000436,0.00000267,-0.00000587,0.00001159,-
 0.00000390,0.00000027,-0.04612841,-0.08955642,-0.08490683,0.00001797,0
 .00005011,0.00000414,-0.00078998,0.00024027,0.00098951,-0.00457249,-0.
 00605970,-0.01057563,0.00003911,-0.00001249,-0.00003655,-0.00003826,0.
 00005205,-0.00001365,0.00009937,-0.00000950,-0.00003706,0.00007764,0.0
 0006425,-0.00000428,0.00000180,0.00000042,0.00000053,0.00000092,0.0000
 0080,-0.00000032,-0.00081912,0.00111486,-0.00067475,0.00241619,-0.0028
 5823,0.00295212,-0.00000037,0.00000082,-0.00000093,-0.00000114,0.00000
 162,-0.00000002,0.00000202,-0.00000147,0.,-0.00000044,-0.00000427,0.00
 000718,0.00000533,-0.00000186,-0.00000063,0.00000012,-0.00000515,-0.00
 000163,-0.00939607,-0.00881829,-0.01923794,0.04524287,0.09539706,0.000
 12927,0.00003521,0.00005689,0.00020745,-0.00013196,0.00010180,-0.00113
 802,-0.00068828,-0.00036442,0.00000354,-0.00000375,0.00000289,-0.00781
 568,-0.00560541,-0.01336153,0.00095543,-0.00064031,0.00098627,0.000001
 36,-0.00000257,-0.00000298,0.00000746,0.00000672,-0.00001435,0.0000019
 1,-0.00000615,0.00000039,-0.09000912,-0.08287171,-0.22161130,0.0000030
 8,0.00009091,0.00002016,-0.00023924,0.00032835,0.00085927,-0.00783798,
 -0.00814035,-0.01635739,-0.00004045,-0.00005827,0.00000766,-0.00001322
 ,0.00007473,-0.00004865,0.00010988,0.00003344,-0.00007902,0.00014582,0
 .00012931,0.00003698,0.00000199,0.00000203,0.00000133,-0.00000057,0.00
 000089,0.00000049,0.00035653,0.00031550,0.00089430,-0.00170368,0.00224
 337,-0.00035188,-0.00000123,0.00000051,-0.00000250,-0.00000201,0.00000
 047,0.00000116,0.00000132,-0.00000028,0.00000182,-0.00000046,-0.000006
 69,0.00000847,0.00000101,-0.00000330,-0.00000224,0.00000637,0.00000072
 ,-0.00000059,0.00386535,0.00313467,0.00877906,0.09990711,0.09275103,0.
 24106703,-0.00280319,-0.00272202,0.00182360,-0.00063605,0.00019248,-0.
 00045722,0.01215448,-0.01336237,0.00967745,-0.00004359,-0.00001940,0.0
 0003587,-0.00297075,0.00028575,0.00516545,0.00085388,0.00038824,-0.000
 87186,-0.00000227,0.00000939,0.00003356,-0.00008414,-0.00003948,-0.000
 13284,0.00000809,0.00003471,-0.00003206,-0.01346566,0.01386296,-0.0117
 8799,-0.00151195,-0.00085794,0.00051250,0.00149086,0.00196468,0.000194
 60,-0.14319146,0.10478729,-0.07797504,-0.00002003,0.00002410,-0.000000
 43,0.00065368,-0.00093618,0.00035085,-0.00040943,-0.00026955,-0.000130
 97,0.00057822,0.00098167,-0.00057739,-0.00000020,0.00000175,-0.0000003
 8,-0.00001015,-0.00001265,0.00000085,-0.00059781,0.00142204,-0.0006997
 2,0.00018906,-0.00026200,0.00012700,0.00000049,-0.00000267,0.00000501,
 0.00000596,-0.00000100,-0.00000786,0.00000264,0.00000404,0.00000309,0.
 00000823,-0.00000723,-0.00000770,0.00000936,-0.00000050,0.00000873,0.0
 0000335,0.00000068,0.00000019,0.00047199,-0.00064093,-0.00050816,0.001
 12576,-0.00031987,0.00001569,0.15650844,-0.00526093,-0.00199117,0.0014
 8190,-0.00077417,-0.00097574,-0.00053748,0.01528873,-0.01824392,0.0134
 9044,0.00005434,0.00004851,-0.00012995,0.00112158,0.00090412,-0.002445
 88,0.00019868,0.00043280,-0.00028231,0.00004054,0.00000273,0.00003843,
 -0.00003541,-0.00000667,0.00046518,-0.00005822,0.00001903,-0.00010658,
 0.00653504,-0.00740649,0.00451364,0.00105904,0.00064525,-0.00022166,0.
 00089062,0.00227511,-0.00053740,0.10278926,-0.15932089,0.08166629,0.00
 012492,0.00018961,0.00010334,0.00101174,-0.00108720,0.00045631,-0.0002
 9050,-0.00001034,-0.00023713,-0.00009603,0.00082491,-0.00050606,-0.000
 00550,-0.00000963,0.00000263,0.00004041,0.00003185,0.00000437,0.000298
 16,-0.00042891,0.00045928,0.00010608,-0.00003757,0.00020308,-0.0000040
 5,0.00000319,-0.00000421,0.00001659,0.00001280,-0.00001506,0.00001676,
 0.00000008,-0.00004000,-0.00000680,0.00003507,-0.00006802,0.00000122,-
 0.00000661,0.00000880,0.00001088,0.00002644,0.00001545,-0.00011529,0.0
 0044601,-0.00023845,-0.00036390,0.00025080,0.00022487,-0.11301597,0.17
 201389,0.00315191,0.00166357,-0.00057816,-0.00038841,0.00032497,0.0002
 4509,-0.00913201,0.00669678,-0.00759065,-0.00002996,-0.00001955,0.0000
 4142,0.00366655,-0.00043305,-0.00338565,-0.00110278,-0.00002961,0.0005
 0414,-0.00001215,0.00000752,0.00001540,-0.00002188,-0.00001521,-0.0001
 4082,0.00007845,-0.00007542,0.00001855,0.01378549,-0.01554504,0.011419
 35,-0.00022051,-0.00032178,-0.00002985,0.00049206,-0.00074731,0.000848
 07,-0.07682571,0.08366040,-0.10914234,0.00023254,-0.00018817,0.0002398
 3,-0.00063099,0.00087575,-0.00003819,-0.00014650,-0.00018140,-0.000063
 69,-0.00030094,-0.00037493,0.00011704,0.00000020,0.00000318,-0.0000017
 6,-0.00001028,-0.00001008,-0.00000351,0.00071985,-0.00100285,0.0005701
 1,0.00013757,-0.00007832,0.00013600,0.00000106,-0.00000255,-0.00000091
 ,0.00000109,0.00000052,-0.00000619,0.00000525,-0.00000419,0.00000547,0
 .00000617,-0.00001188,0.00001408,0.00002731,0.00001663,0.00001013,-0.0
 0001328,-0.00001409,-0.00000601,-0.00081485,0.00064680,0.00066361,-0.0
 0097556,0.00031383,0.00094296,0.08137165,-0.09066641,0.11638302,0.0001
 1697,0.00074297,-0.00057172,0.00177929,-0.00073592,0.00084825,-0.00789
 214,-0.00561897,-0.01468405,-0.00001991,-0.00003147,0.00005504,0.00151
 471,-0.00033376,0.00036479,-0.00007838,-0.00008187,0.00002083,0.000001
 67,0.00001012,-0.00005567,0.00015803,0.00002216,-0.00026675,-0.0001354
 1,0.00018295,-0.00014613,0.01002467,0.01252961,0.01967488,-0.00078666,
 0.00021751,0.00028560,-0.00374537,-0.00515583,0.00021428,-0.09816629,-
 0.05608739,-0.08810229,0.00036840,0.00014387,0.00017456,-0.00001371,0.
 00006350,0.00023271,0.00001649,0.00015157,-0.00006540,0.00027905,0.000
 67566,-0.00006326,-0.00000179,0.00000501,-0.00000346,-0.00002705,-0.00
 001448,0.00000357,0.00000670,-0.00031542,-0.00000453,-0.00008636,-0.00
 032414,-0.00038171,0.00000289,0.00000237,0.00000043,-0.00002296,-0.000
 01463,0.00001673,-0.00002564,0.00000979,0.00003018,-0.00000411,-0.0000
 2461,0.00002253,-0.00011136,-0.00004286,-0.00002618,0.00000100,0.00001
 219,0.00001138,0.00122667,-0.00056685,-0.00079820,-0.00295633,0.002371
 04,0.00308109,-0.00831781,-0.00957782,-0.01305136,0.10689475,0.0003026
 3,0.00057872,-0.00058892,0.00126173,-0.00136397,0.00081553,-0.00829682
 ,-0.00995073,-0.01961931,-0.00000118,-0.00000158,0.00000211,-0.0009494
 9,0.00008279,-0.00043431,0.00018004,-0.00040464,0.00018873,0.00001935,
 0.00001941,-0.00004468,0.00011049,0.00001307,-0.00006907,-0.00023537,0
 .00025638,-0.00021536,-0.00446173,-0.00565048,-0.00804695,-0.00021409,
 0.00039445,0.00007593,-0.00540891,-0.00484878,0.00018332,-0.05459888,-
 0.10955559,-0.09308707,0.00024307,-0.00030889,0.00027481,-0.00009258,0
 .00025884,0.00015935,0.00004738,0.00022863,-0.00018789,0.00012265,0.00
 106896,0.00015691,-0.00000630,0.00000216,-0.00000243,-0.00001024,0.000
 00213,0.00000625,0.00009231,0.00011306,0.00011553,0.00018903,-0.000147
 82,0.00018080,0.00000006,0.00000410,-0.00000117,-0.00001521,-0.0000115
 2,0.00001248,-0.00001453,0.00000445,0.00001986,-0.00001098,-0.00000175
 ,-0.00000482,-0.00013209,-0.00006125,-0.00003896,0.00001574,0.00003372
 ,0.00001694,0.00017881,0.00060337,0.00046884,0.00138944,0.00014967,-0.
 00121369,0.00850999,0.01136294,0.01551192,0.06178568,0.11713014,-0.000
 54786,0.00007065,-0.00036678,-0.00019987,0.00048713,-0.00021926,0.0049
 2643,0.00495942,0.00893866,-0.00000945,-0.00000026,0.00001282,-0.00074
 367,0.00106674,0.00052132,0.00012321,-0.00026705,0.00007278,-0.0000041
 4,-0.00000248,0.00000776,-0.00001775,-0.00001419,-0.00003766,0.0000843
 6,-0.00007910,0.00005718,-0.00800347,-0.01024037,-0.01775321,-0.000099
 17,-0.00021611,0.00002624,0.00240483,0.00336346,0.00105522,-0.08870838
 ,-0.09554320,-0.19710173,0.00014361,0.00034333,0.00012153,0.00011207,-
 0.00019151,0.00016686,0.00001912,-0.00004094,0.00007036,-0.00019725,-0
 .00073516,0.00061268,-0.00000036,-0.00000043,-0.00000053,-0.00000247,-
 0.00000492,-0.00000187,0.00021782,0.00016897,0.00016208,0.00021337,-0.
 00030248,0.00051512,-0.00000049,-0.00000135,0.00000096,0.00000139,0.00
 000152,-0.00000151,-0.00000361,0.00000619,0.00000018,-0.00000083,0.000
 00161,-0.00000118,0.00004636,0.00000853,0.00001078,0.00000052,-0.00002
 212,-0.00000712,-0.00037817,0.00056848,0.00075408,0.00357645,-0.001652
 28,-0.00157208,-0.00613647,-0.00709743,-0.01118650,0.09318386,0.105365
 33,0.21514285\\0.00000038,-0.00000222,-0.00000315,0.00999861,0.0090165
 4,-0.00830239,0.00527765,0.00333026,-0.00613090,-0.00000158,-0.0000055
 9,-0.00000310,0.00000115,0.00000509,0.00000121,0.00000226,0.00000491,-
 0.00000358,0.00000189,-0.00000512,-0.00000425,-0.00000012,-0.00000442,
 0.00000007,0.00000122,0.00000369,-0.00000378,-0.00000140,0.00000525,0.
 00000257,-0.00538215,-0.00534269,0.00387505,-0.00989875,-0.00700576,0.
 01056136,-0.00000020,0.00000503,0.00000574,-0.00000127,-0.00000298,-0.
 00000026,0.00000164,-0.00000289,-0.00000448,0.,0.00000507,0.00000208,-
 0.00000105,-0.00000492,0.00000262,-0.00000067,-0.00000562,-0.00000055,
 -0.00000010,-0.00001016,-0.00000311,0.00000150,0.00000903,-0.00000035,
 -0.00000055,0.00000328,0.00000283,0.00000201,-0.00000465,-0.00000718,0
 .00000290,-0.00000353,-0.00000806,-0.00000272,-0.00000776,0.00000497,-
 0.00000071,-0.00000771,0.00000029,0.00000211,0.00000361,-0.00000252,0.
 00000302,0.00000443,-0.00000562,-0.00000096,0.00000781,0.00000733,0.00
 000021,0.00000949,0.00000219,-0.00000140,0.00000240,0.00000788,-0.0000
 0289,0.00000011,0.00000709\\\@


 MICRO CREDO - NEVER TRUST A COMPUTER BIGGER
               BIGGER THAN YOU CAN LIFT.
 Job cpu time:       0 days 13 hours 26 minutes 14.9 seconds.
 Elapsed time:       0 days  1 hours  7 minutes 27.2 seconds.
 File lengths (MBytes):  RWF=    720 Int=      0 D2E=      0 Chk=     34 Scr=      1
 Normal termination of Gaussian 16 at Fri Mar  8 22:21:46 2019.
