 Entering Gaussian System, Link 0=g16
 Initial command:
 /sw/Projects/G16/g16/l1.exe "/nvme/pbs/tmpdir/pbs.74202[23].flm1/Gau-642.inp" -scrdir="/nvme/pbs/tmpdir/pbs.74202[23].flm1/"
 Entering Link 1 = /sw/Projects/G16/g16/l1.exe PID=       643.
  
 Copyright (c) 1988-2017, Gaussian, Inc.  All Rights Reserved.
  
 This is part of the Gaussian(R) 16 program.  It is based on
 the Gaussian(R) 09 system (copyright 2009, Gaussian, Inc.),
 the Gaussian(R) 03 system (copyright 2003, Gaussian, Inc.),
 the Gaussian(R) 98 system (copyright 1998, Gaussian, Inc.),
 the Gaussian(R) 94 system (copyright 1995, Gaussian, Inc.),
 the Gaussian 92(TM) system (copyright 1992, Gaussian, Inc.),
 the Gaussian 90(TM) system (copyright 1990, Gaussian, Inc.),
 the Gaussian 88(TM) system (copyright 1988, Gaussian, Inc.),
 the Gaussian 86(TM) system (copyright 1986, Carnegie Mellon
 University), and the Gaussian 82(TM) system (copyright 1983,
 Carnegie Mellon University). Gaussian is a federally registered
 trademark of Gaussian, Inc.
  
 This software contains proprietary and confidential information,
 including trade secrets, belonging to Gaussian, Inc.
  
 This software is provided under written license and may be
 used, copied, transmitted, or stored only in accord with that
 written license.
  
 The following legend is applicable only to US Government
 contracts under FAR:
  
                    RESTRICTED RIGHTS LEGEND
  
 Use, reproduction and disclosure by the US Government is
 subject to restrictions as set forth in subparagraphs (a)
 and (c) of the Commercial Computer Software - Restricted
 Rights clause in FAR 52.227-19.
  
 Gaussian, Inc.
 340 Quinnipiac St., Bldg. 40, Wallingford CT 06492
  
  
 ---------------------------------------------------------------
 Warning -- This program may not be used in any manner that
 competes with the business of Gaussian, Inc. or will provide
 assistance to any competitor of Gaussian, Inc.  The licensee
 of this program is prohibited from giving any competitor of
 Gaussian, Inc. access to this program.  By using this program,
 the user acknowledges that Gaussian, Inc. is engaged in the
 business of creating and licensing software in the field of
 computational chemistry and represents and warrants to the
 licensee that it is not a competitor of Gaussian, Inc. and that
 it will not use this program in any manner prohibited above.
 ---------------------------------------------------------------
  

 Cite this work as:
 Gaussian 16, Revision B.01,
 M. J. Frisch, G. W. Trucks, H. B. Schlegel, G. E. Scuseria, 
 M. A. Robb, J. R. Cheeseman, G. Scalmani, V. Barone, 
 G. A. Petersson, H. Nakatsuji, X. Li, M. Caricato, A. V. Marenich, 
 J. Bloino, B. G. Janesko, R. Gomperts, B. Mennucci, H. P. Hratchian, 
 J. V. Ortiz, A. F. Izmaylov, J. L. Sonnenberg, D. Williams-Young, 
 F. Ding, F. Lipparini, F. Egidi, J. Goings, B. Peng, A. Petrone, 
 T. Henderson, D. Ranasinghe, V. G. Zakrzewski, J. Gao, N. Rega, 
 G. Zheng, W. Liang, M. Hada, M. Ehara, K. Toyota, R. Fukuda, 
 J. Hasegawa, M. Ishida, T. Nakajima, Y. Honda, O. Kitao, H. Nakai, 
 T. Vreven, K. Throssell, J. A. Montgomery, Jr., J. E. Peralta, 
 F. Ogliaro, M. J. Bearpark, J. J. Heyd, E. N. Brothers, K. N. Kudin, 
 V. N. Staroverov, T. A. Keith, R. Kobayashi, J. Normand, 
 K. Raghavachari, A. P. Rendell, J. C. Burant, S. S. Iyengar, 
 J. Tomasi, M. Cossi, J. M. Millam, M. Klene, C. Adamo, R. Cammi, 
 J. W. Ochterski, R. L. Martin, K. Morokuma, O. Farkas, 
 J. B. Foresman, and D. J. Fox, Gaussian, Inc., Wallingford CT, 2016.
 
 ******************************************
 Gaussian 16:  ES64L-G16RevB.01 20-Dec-2017
                 8-Mar-2019 
 ******************************************
 %mem=20gb
 %nproc=12
 Will use up to   12 processors via shared memory.
 %chk=4c1_a1_a4_4c1_PHI.inp_extract_23.chk
 ----------------------------------------------------------------------
 #M062X/6-311++G(2d,2p) opt=ModRedundant freq=noraman SCRF=(SMD,solvent
 =water)
 ----------------------------------------------------------------------
 1/18=120,19=15,26=3,38=1/1,3;
 2/9=110,12=2,17=6,18=5,40=1/2;
 3/5=4,6=6,7=1212,11=2,25=1,30=1,70=32201,71=1,72=1,74=-55/1,2,3;
 4//1;
 5/5=2,38=5,53=1/2;
 6/7=2,8=2,9=2,10=2,28=1/1;
 7//1,2,3,16;
 1/18=20,19=15,26=3/3(2);
 2/9=110/2;
 99//99;
 2/9=110/2;
 3/5=4,6=6,7=1212,11=2,25=1,30=1,70=32205,71=1,72=1,74=-55/1,2,3;
 4/5=5,16=3,69=1/1;
 5/5=2,38=5,53=1/2;
 7//1,2,3,16;
 1/18=20,19=15,26=3/3(-5);
 2/9=110/2;
 6/7=2,8=2,9=2,10=2,19=2,28=1/1;
 99/9=1/99;
 --------------------------------
 4c1_a1_a4_4c1_PHI.inp_extract_23
 --------------------------------
 Symbolic Z-matrix:
 Charge =  0 Multiplicity = 1
 C                    -1.74388   1.2385   -0.81821 
 C                     1.03582  -0.84215   0.38556 
 C                    -0.94028  -0.04989  -0.77918 
 C                     3.49249   0.53905  -0.25881 
 C                    -3.51078   0.3439    0.46933 
 O                    -2.56338   1.38609   0.32159 
 C                     2.80885   0.82266   1.07858 
 C                     2.46516   0.10204  -1.28914 
 C                     1.97134  -0.38708   1.49477 
 C                    -2.82245  -1.00575   0.6031 
 O                     1.71091  -1.01391  -0.83097 
 O                    -0.00412   0.0896    0.28023 
 C                    -1.87909  -1.24083  -0.57841 
 H                    -2.36042   1.24643  -1.71368 
 H                    -1.08621   2.09615  -0.84275 
 H                     0.62916  -1.81749   0.61081 
 H                    -0.40976  -0.14603  -1.71705 
 H                     4.23323  -0.24762  -0.13545 
 H                     4.01023   1.41983  -0.62788 
 H                    -4.09063   0.58239   1.35053 
 H                    -4.17723   0.3484   -0.39077 
 H                     2.17702   1.70194   0.98672 
 H                     3.5455    1.04048   1.84576 
 H                     2.93592  -0.22431  -2.20611 
 H                     1.79244   0.91942  -1.52665 
 H                     2.62881  -1.22097   1.72518 
 H                     1.38593  -0.17981   2.38411 
 H                    -3.57523  -1.78757   0.64784 
 H                    -2.27051  -1.03517   1.53807 
 H                    -1.31786  -2.15949  -0.45073 
 H                    -2.46078  -1.3535   -1.49031 
 
 The following ModRedundant input section has been read:
 D      11       2      12       3 F                                           
 

 GradGradGradGradGradGradGradGradGradGradGradGradGradGradGradGradGradGrad
 Berny optimization.
 Initialization pass.
                           ----------------------------
                           !    Initial Parameters    !
                           ! (Angstroms and Degrees)  !
 --------------------------                            --------------------------
 ! Name  Definition              Value          Derivative Info.                !
 --------------------------------------------------------------------------------
 ! R1    R(1,3)                  1.519          estimate D2E/DX2                !
 ! R2    R(1,6)                  1.4116         estimate D2E/DX2                !
 ! R3    R(1,14)                 1.0872         estimate D2E/DX2                !
 ! R4    R(1,15)                 1.0811         estimate D2E/DX2                !
 ! R5    R(2,9)                  1.5207         estimate D2E/DX2                !
 ! R6    R(2,11)                 1.4019         estimate D2E/DX2                !
 ! R7    R(2,12)                 1.4003         estimate D2E/DX2                !
 ! R8    R(2,16)                 1.0805         estimate D2E/DX2                !
 ! R9    R(3,12)                 1.4206         estimate D2E/DX2                !
 ! R10   R(3,13)                 1.5297         estimate D2E/DX2                !
 ! R11   R(3,17)                 1.0818         estimate D2E/DX2                !
 ! R12   R(4,7)                  1.5285         estimate D2E/DX2                !
 ! R13   R(4,8)                  1.5192         estimate D2E/DX2                !
 ! R14   R(4,18)                 1.0875         estimate D2E/DX2                !
 ! R15   R(4,19)                 1.0863         estimate D2E/DX2                !
 ! R16   R(5,6)                  1.4162         estimate D2E/DX2                !
 ! R17   R(5,10)                 1.5209         estimate D2E/DX2                !
 ! R18   R(5,20)                 1.0815         estimate D2E/DX2                !
 ! R19   R(5,21)                 1.0881         estimate D2E/DX2                !
 ! R20   R(7,9)                  1.5291         estimate D2E/DX2                !
 ! R21   R(7,22)                 1.0866         estimate D2E/DX2                !
 ! R22   R(7,23)                 1.0857         estimate D2E/DX2                !
 ! R23   R(8,11)                 1.4227         estimate D2E/DX2                !
 ! R24   R(8,24)                 1.0812         estimate D2E/DX2                !
 ! R25   R(8,25)                 1.0849         estimate D2E/DX2                !
 ! R26   R(9,26)                 1.0866         estimate D2E/DX2                !
 ! R27   R(9,27)                 1.0847         estimate D2E/DX2                !
 ! R28   R(10,13)                1.5301         estimate D2E/DX2                !
 ! R29   R(10,28)                1.0862         estimate D2E/DX2                !
 ! R30   R(10,29)                1.0861         estimate D2E/DX2                !
 ! R31   R(13,30)                1.0841         estimate D2E/DX2                !
 ! R32   R(13,31)                1.0875         estimate D2E/DX2                !
 ! A1    A(3,1,6)              112.0295         estimate D2E/DX2                !
 ! A2    A(3,1,14)             109.108          estimate D2E/DX2                !
 ! A3    A(3,1,15)             110.5885         estimate D2E/DX2                !
 ! A4    A(6,1,14)             109.5771         estimate D2E/DX2                !
 ! A5    A(6,1,15)             106.7724         estimate D2E/DX2                !
 ! A6    A(14,1,15)            108.6933         estimate D2E/DX2                !
 ! A7    A(9,2,11)             111.9239         estimate D2E/DX2                !
 ! A8    A(9,2,12)             108.2179         estimate D2E/DX2                !
 ! A9    A(9,2,16)             110.4633         estimate D2E/DX2                !
 ! A10   A(11,2,12)            111.9563         estimate D2E/DX2                !
 ! A11   A(11,2,16)            104.5695         estimate D2E/DX2                !
 ! A12   A(12,2,16)            109.6842         estimate D2E/DX2                !
 ! A13   A(1,3,12)             106.5287         estimate D2E/DX2                !
 ! A14   A(1,3,13)             109.819          estimate D2E/DX2                !
 ! A15   A(1,3,17)             108.2131         estimate D2E/DX2                !
 ! A16   A(12,3,13)            112.5194         estimate D2E/DX2                !
 ! A17   A(12,3,17)            109.3947         estimate D2E/DX2                !
 ! A18   A(13,3,17)            110.2164         estimate D2E/DX2                !
 ! A19   A(7,4,8)              110.1405         estimate D2E/DX2                !
 ! A20   A(7,4,18)             109.8524         estimate D2E/DX2                !
 ! A21   A(7,4,19)             111.099          estimate D2E/DX2                !
 ! A22   A(8,4,18)             109.2353         estimate D2E/DX2                !
 ! A23   A(8,4,19)             108.9726         estimate D2E/DX2                !
 ! A24   A(18,4,19)            107.4818         estimate D2E/DX2                !
 ! A25   A(6,5,10)             111.0669         estimate D2E/DX2                !
 ! A26   A(6,5,20)             106.3439         estimate D2E/DX2                !
 ! A27   A(6,5,21)             108.9198         estimate D2E/DX2                !
 ! A28   A(10,5,20)            111.5104         estimate D2E/DX2                !
 ! A29   A(10,5,21)            110.511          estimate D2E/DX2                !
 ! A30   A(20,5,21)            108.3465         estimate D2E/DX2                !
 ! A31   A(1,6,5)              113.3085         estimate D2E/DX2                !
 ! A32   A(4,7,9)              109.6527         estimate D2E/DX2                !
 ! A33   A(4,7,22)             109.6474         estimate D2E/DX2                !
 ! A34   A(4,7,23)             110.6116         estimate D2E/DX2                !
 ! A35   A(9,7,22)             110.1649         estimate D2E/DX2                !
 ! A36   A(9,7,23)             109.7574         estimate D2E/DX2                !
 ! A37   A(22,7,23)            106.9728         estimate D2E/DX2                !
 ! A38   A(4,8,11)             111.4522         estimate D2E/DX2                !
 ! A39   A(4,8,24)             111.567          estimate D2E/DX2                !
 ! A40   A(4,8,25)             110.5524         estimate D2E/DX2                !
 ! A41   A(11,8,24)            105.4973         estimate D2E/DX2                !
 ! A42   A(11,8,25)            109.4339         estimate D2E/DX2                !
 ! A43   A(24,8,25)            108.1626         estimate D2E/DX2                !
 ! A44   A(2,9,7)              112.0343         estimate D2E/DX2                !
 ! A45   A(2,9,26)             107.292          estimate D2E/DX2                !
 ! A46   A(2,9,27)             108.8557         estimate D2E/DX2                !
 ! A47   A(7,9,26)             109.479          estimate D2E/DX2                !
 ! A48   A(7,9,27)             111.5666         estimate D2E/DX2                !
 ! A49   A(26,9,27)            107.418          estimate D2E/DX2                !
 ! A50   A(5,10,13)            110.3312         estimate D2E/DX2                !
 ! A51   A(5,10,28)            109.1889         estimate D2E/DX2                !
 ! A52   A(5,10,29)            109.2524         estimate D2E/DX2                !
 ! A53   A(13,10,28)           110.3954         estimate D2E/DX2                !
 ! A54   A(13,10,29)           110.319          estimate D2E/DX2                !
 ! A55   A(28,10,29)           107.2904         estimate D2E/DX2                !
 ! A56   A(2,11,8)             116.0181         estimate D2E/DX2                !
 ! A57   A(2,12,3)             118.6962         estimate D2E/DX2                !
 ! A58   A(3,13,10)            111.1075         estimate D2E/DX2                !
 ! A59   A(3,13,30)            110.9456         estimate D2E/DX2                !
 ! A60   A(3,13,31)            107.3904         estimate D2E/DX2                !
 ! A61   A(10,13,30)           111.0038         estimate D2E/DX2                !
 ! A62   A(10,13,31)           109.4898         estimate D2E/DX2                !
 ! A63   A(30,13,31)           106.7314         estimate D2E/DX2                !
 ! D1    D(6,1,3,12)           -67.7461         estimate D2E/DX2                !
 ! D2    D(6,1,3,13)            54.3681         estimate D2E/DX2                !
 ! D3    D(6,1,3,17)           174.7182         estimate D2E/DX2                !
 ! D4    D(14,1,3,12)          170.739          estimate D2E/DX2                !
 ! D5    D(14,1,3,13)          -67.1468         estimate D2E/DX2                !
 ! D6    D(14,1,3,17)           53.2033         estimate D2E/DX2                !
 ! D7    D(15,1,3,12)           51.2358         estimate D2E/DX2                !
 ! D8    D(15,1,3,13)          173.35           estimate D2E/DX2                !
 ! D9    D(15,1,3,17)          -66.2999         estimate D2E/DX2                !
 ! D10   D(3,1,6,5)            -60.3324         estimate D2E/DX2                !
 ! D11   D(14,1,6,5)            60.9125         estimate D2E/DX2                !
 ! D12   D(15,1,6,5)           178.4589         estimate D2E/DX2                !
 ! D13   D(11,2,9,7)            50.834          estimate D2E/DX2                !
 ! D14   D(11,2,9,26)          -69.3488         estimate D2E/DX2                !
 ! D15   D(11,2,9,27)          174.6999         estimate D2E/DX2                !
 ! D16   D(12,2,9,7)           -72.9999         estimate D2E/DX2                !
 ! D17   D(12,2,9,26)          166.8173         estimate D2E/DX2                !
 ! D18   D(12,2,9,27)           50.8661         estimate D2E/DX2                !
 ! D19   D(16,2,9,7)           166.9134         estimate D2E/DX2                !
 ! D20   D(16,2,9,26)           46.7306         estimate D2E/DX2                !
 ! D21   D(16,2,9,27)          -69.2207         estimate D2E/DX2                !
 ! D22   D(9,2,11,8)           -54.0231         estimate D2E/DX2                !
 ! D23   D(12,2,11,8)           67.6866         estimate D2E/DX2                !
 ! D24   D(16,2,11,8)         -173.6264         estimate D2E/DX2                !
 ! D25   D(9,2,12,3)           173.9594         estimate D2E/DX2                !
 ! D26   D(11,2,12,3)           50.145          Frozen                          !
 ! D27   D(16,2,12,3)          -65.4672         estimate D2E/DX2                !
 ! D28   D(1,3,12,2)          -168.0287         estimate D2E/DX2                !
 ! D29   D(13,3,12,2)           71.5804         estimate D2E/DX2                !
 ! D30   D(17,3,12,2)          -51.2778         estimate D2E/DX2                !
 ! D31   D(1,3,13,10)          -50.4577         estimate D2E/DX2                !
 ! D32   D(1,3,13,30)         -174.4548         estimate D2E/DX2                !
 ! D33   D(1,3,13,31)           69.2559         estimate D2E/DX2                !
 ! D34   D(12,3,13,10)          68.0186         estimate D2E/DX2                !
 ! D35   D(12,3,13,30)         -55.9786         estimate D2E/DX2                !
 ! D36   D(12,3,13,31)        -172.2678         estimate D2E/DX2                !
 ! D37   D(17,3,13,10)        -169.5855         estimate D2E/DX2                !
 ! D38   D(17,3,13,30)          66.4174         estimate D2E/DX2                !
 ! D39   D(17,3,13,31)         -49.8719         estimate D2E/DX2                !
 ! D40   D(8,4,7,9)             53.2376         estimate D2E/DX2                !
 ! D41   D(8,4,7,22)           -67.8382         estimate D2E/DX2                !
 ! D42   D(8,4,7,23)           174.4231         estimate D2E/DX2                !
 ! D43   D(18,4,7,9)           -67.1267         estimate D2E/DX2                !
 ! D44   D(18,4,7,22)          171.7975         estimate D2E/DX2                !
 ! D45   D(18,4,7,23)           54.0589         estimate D2E/DX2                !
 ! D46   D(19,4,7,9)           174.0804         estimate D2E/DX2                !
 ! D47   D(19,4,7,22)           53.0045         estimate D2E/DX2                !
 ! D48   D(19,4,7,23)          -64.7341         estimate D2E/DX2                !
 ! D49   D(7,4,8,11)           -55.1547         estimate D2E/DX2                !
 ! D50   D(7,4,8,24)          -172.8009         estimate D2E/DX2                !
 ! D51   D(7,4,8,25)            66.7907         estimate D2E/DX2                !
 ! D52   D(18,4,8,11)           65.5807         estimate D2E/DX2                !
 ! D53   D(18,4,8,24)          -52.0655         estimate D2E/DX2                !
 ! D54   D(18,4,8,25)         -172.4739         estimate D2E/DX2                !
 ! D55   D(19,4,8,11)         -177.2642         estimate D2E/DX2                !
 ! D56   D(19,4,8,24)           65.0896         estimate D2E/DX2                !
 ! D57   D(19,4,8,25)          -55.3188         estimate D2E/DX2                !
 ! D58   D(10,5,6,1)            60.1362         estimate D2E/DX2                !
 ! D59   D(20,5,6,1)          -178.3676         estimate D2E/DX2                !
 ! D60   D(21,5,6,1)           -61.7992         estimate D2E/DX2                !
 ! D61   D(6,5,10,13)          -54.7642         estimate D2E/DX2                !
 ! D62   D(6,5,10,28)         -176.262          estimate D2E/DX2                !
 ! D63   D(6,5,10,29)           66.68           estimate D2E/DX2                !
 ! D64   D(20,5,10,13)        -173.1853         estimate D2E/DX2                !
 ! D65   D(20,5,10,28)          65.3168         estimate D2E/DX2                !
 ! D66   D(20,5,10,29)         -51.7412         estimate D2E/DX2                !
 ! D67   D(21,5,10,13)          66.2395         estimate D2E/DX2                !
 ! D68   D(21,5,10,28)         -55.2584         estimate D2E/DX2                !
 ! D69   D(21,5,10,29)        -172.3164         estimate D2E/DX2                !
 ! D70   D(4,7,9,2)            -51.3908         estimate D2E/DX2                !
 ! D71   D(4,7,9,26)            67.5093         estimate D2E/DX2                !
 ! D72   D(4,7,9,27)          -173.7256         estimate D2E/DX2                !
 ! D73   D(22,7,9,2)            69.3722         estimate D2E/DX2                !
 ! D74   D(22,7,9,26)         -171.7277         estimate D2E/DX2                !
 ! D75   D(22,7,9,27)          -52.9626         estimate D2E/DX2                !
 ! D76   D(23,7,9,2)          -173.09           estimate D2E/DX2                !
 ! D77   D(23,7,9,26)          -54.1898         estimate D2E/DX2                !
 ! D78   D(23,7,9,27)           64.5752         estimate D2E/DX2                !
 ! D79   D(4,8,11,2)            56.7521         estimate D2E/DX2                !
 ! D80   D(24,8,11,2)          178.0043         estimate D2E/DX2                !
 ! D81   D(25,8,11,2)          -65.8378         estimate D2E/DX2                !
 ! D82   D(5,10,13,3)           51.0625         estimate D2E/DX2                !
 ! D83   D(5,10,13,30)         175.0265         estimate D2E/DX2                !
 ! D84   D(5,10,13,31)         -67.3925         estimate D2E/DX2                !
 ! D85   D(28,10,13,3)         171.8417         estimate D2E/DX2                !
 ! D86   D(28,10,13,30)        -64.1943         estimate D2E/DX2                !
 ! D87   D(28,10,13,31)         53.3866         estimate D2E/DX2                !
 ! D88   D(29,10,13,3)         -69.7463         estimate D2E/DX2                !
 ! D89   D(29,10,13,30)         54.2178         estimate D2E/DX2                !
 ! D90   D(29,10,13,31)        171.7987         estimate D2E/DX2                !
 --------------------------------------------------------------------------------
 Trust Radius=3.00D-01 FncErr=1.00D-07 GrdErr=1.00D-06 EigMax=2.50D+02 EigMin=1.00D-04
 Number of steps in this run=    186 maximum allowed number of steps=    186.
 GradGradGradGradGradGradGradGradGradGradGradGradGradGradGradGradGradGrad

                          Input orientation:                          
 ---------------------------------------------------------------------
 Center     Atomic      Atomic             Coordinates (Angstroms)
 Number     Number       Type             X           Y           Z
 ---------------------------------------------------------------------
      1          6           0       -1.743878    1.238503   -0.818207
      2          6           0        1.035817   -0.842146    0.385564
      3          6           0       -0.940281   -0.049894   -0.779184
      4          6           0        3.492487    0.539045   -0.258811
      5          6           0       -3.510776    0.343903    0.469329
      6          8           0       -2.563380    1.386090    0.321591
      7          6           0        2.808845    0.822658    1.078581
      8          6           0        2.465162    0.102040   -1.289135
      9          6           0        1.971344   -0.387082    1.494771
     10          6           0       -2.822450   -1.005751    0.603098
     11          8           0        1.710910   -1.013913   -0.830966
     12          8           0       -0.004117    0.089602    0.280225
     13          6           0       -1.879090   -1.240829   -0.578412
     14          1           0       -2.360417    1.246429   -1.713681
     15          1           0       -1.086207    2.096155   -0.842748
     16          1           0        0.629161   -1.817488    0.610809
     17          1           0       -0.409762   -0.146034   -1.717054
     18          1           0        4.233232   -0.247615   -0.135452
     19          1           0        4.010226    1.419834   -0.627877
     20          1           0       -4.090627    0.582391    1.350525
     21          1           0       -4.177227    0.348403   -0.390767
     22          1           0        2.177020    1.701935    0.986721
     23          1           0        3.545502    1.040483    1.845763
     24          1           0        2.935921   -0.224312   -2.206109
     25          1           0        1.792436    0.919418   -1.526654
     26          1           0        2.628813   -1.220971    1.725179
     27          1           0        1.385929   -0.179812    2.384113
     28          1           0       -3.575225   -1.787572    0.647843
     29          1           0       -2.270508   -1.035171    1.538065
     30          1           0       -1.317862   -2.159493   -0.450729
     31          1           0       -2.460784   -1.353498   -1.490309
 ---------------------------------------------------------------------
                    Distance matrix (angstroms):
                    1          2          3          4          5
     1  C    0.000000
     2  C    3.674897   0.000000
     3  C    1.518966   2.426781   0.000000
     4  C    5.312408   2.891044   4.501896   0.000000
     5  C    2.362200   4.699493   2.884667   7.043718   0.000000
     6  O    1.411561   4.233597   2.430680   6.142302   1.416171
     7  C    4.949547   2.528927   4.274176   1.528535   6.366946
     8  C    4.385127   2.395648   3.446763   1.519190   6.233982
     9  C    4.668540   1.520735   3.709734   2.499327   5.624901
    10  C    2.867072   3.867856   2.523277   6.558026   1.520938
    11  O    4.124209   1.401856   2.821494   2.431678   5.549814
    12  O    2.356543   1.400255   1.420637   3.566342   3.520950
    13  C    2.494568   3.095946   1.529705   5.667798   2.504303
    14  H    1.087224   4.505927   2.137878   6.072357   2.627434
    15  H    1.081064   3.826924   2.151944   4.871346   3.266568
    16  H    4.124619   1.080461   2.742192   3.808953   4.672334
    17  H    2.122436   2.644858   1.081801   4.221771   3.825781
    18  H    6.196817   3.293689   5.217156   1.087545   7.790078
    19  H    5.760106   3.871786   5.166286   1.086302   7.676390
    20  H    3.262072   5.407484   3.854883   7.752126   1.081485
    21  H    2.626056   5.403325   3.284407   7.673218   1.088091
    22  H    4.341195   2.852382   3.988094   2.152700   5.870517
    23  H    5.925664   3.460490   5.310510   2.164135   7.222939
    24  H    5.095745   3.272443   4.134184   2.164359   7.002909
    25  H    3.620667   2.707796   2.994331   2.154596   5.695544
    26  H    5.624789   2.115588   4.514608   2.789230   6.459144
    27  H    4.697038   2.134353   3.928687   3.455342   5.283786
    28  H    3.828872   4.714269   3.463937   7.495847   2.139908
    29  H    3.316467   3.506751   2.847792   6.238512   2.140632
    30  H    3.444257   2.823932   2.168146   5.518913   3.452879
    31  H    2.772029   4.000825   2.125326   6.367083   2.797112
                    6          7          8          9         10
     6  O    0.000000
     7  C    5.454474   0.000000
     8  C    5.434101   2.498697   0.000000
     9  C    5.008414   1.529082   2.869360   0.000000
    10  C    2.422244   5.939751   5.724211   4.915109   0.000000
    11  O    5.035668   2.867895   1.422732   2.422766   4.754783
    12  O    2.869219   3.014548   2.925813   2.367445   3.040896
    13  C    2.859888   5.383339   4.602277   4.455650   1.530084
    14  H    2.050130   5.890465   4.977557   5.632644   3.263932
    15  H    2.010452   4.526006   4.097313   4.580292   3.837555
    16  H    4.531984   3.455460   3.265773   2.151489   3.545786
    17  H    3.337896   4.371884   2.917164   4.005445   3.455905
    18  H    7.005128   2.155977   2.139933   2.791633   7.134625
    19  H    6.641907   2.170699   2.135665   3.453639   7.354198
    20  H    2.009259   6.909008   7.083566   6.140698   2.165436
    21  H    2.046644   7.154656   6.707391   6.473107   2.157990
    22  H    4.797244   1.086632   2.796821   2.159724   5.698546
    23  H    6.305631   1.085670   3.446070   2.153859   6.803095
    24  H    6.262984   3.449853   1.081185   3.827978   6.454543
    25  H    4.754674   2.798160   1.084934   3.296659   5.435006
    26  H    5.977097   2.151028   3.295941   1.086611   5.569709
    27  H    4.722614   2.175787   3.838872   1.084712   4.643775
    28  H    3.346999   6.910513   6.618821   5.783000   1.086240
    29  H    2.725452   5.427935   5.631419   4.291294   1.086126
    30  H    3.836529   5.316176   4.486505   4.212516   2.169207
    31  H    3.286160   6.253306   5.140429   5.430324   2.152692
                   11         12         13         14         15
    11  O    0.000000
    12  O    2.322457   0.000000
    13  C    3.606019   2.454145   0.000000
    14  H    4.739624   3.296371   2.776142   0.000000
    15  H    4.182885   2.541307   3.440058   1.761865   0.000000
    16  H    1.973481   2.036497   2.835155   4.871182   4.513526
    17  H    2.456749   2.051632   2.157315   2.396668   2.499880
    18  H    2.726364   4.271022   6.208314   6.942563   5.855763
    19  H    3.354284   4.325404   6.462632   6.464838   5.145601
    20  H    6.400384   4.252993   3.454826   3.581052   4.016026
    21  H    6.059690   4.234626   2.800411   2.420196   3.579571
    22  H    3.301072   2.802876   5.249908   5.299810   3.761784
    23  H    3.840722   3.994356   6.364527   6.898691   5.458504
    24  H    2.003781   3.863188   5.183342   5.518764   4.839508
    25  H    2.056307   2.679740   4.364165   4.169904   3.184183
    26  H    2.723839   3.276860   5.062422   6.542648   5.603476
    27  H    3.337375   2.535972   4.534607   5.732468   4.658767
    28  H    5.543343   4.051140   2.163216   4.032086   4.847722
    29  H    4.632974   2.825563   2.162170   3.973366   4.108046
    30  H    3.260428   2.705300   1.084077   3.779190   4.279940
    31  H    4.237108   3.354481   1.087483   2.611434   3.769470
                   16         17         18         19         20
    16  H    0.000000
    17  H    3.048289   0.000000
    18  H    4.001342   4.906035   0.000000
    19  H    4.842127   4.813995   1.752883   0.000000
    20  H    5.346307   4.846588   8.496097   8.380883   0.000000
    21  H    5.366154   4.024587   8.435416   8.260664   1.759076
    22  H    3.863097   4.173348   3.047626   2.459096   6.377235
    23  H    4.265929   5.453953   2.461175   2.545343   7.665871
    24  H    3.974214   3.382144   2.443600   2.519556   7.916615
    25  H    3.662323   2.453796   3.042186   2.444751   6.557604
    26  H    2.365642   4.715654   2.642637   3.797239   6.967306
    27  H    2.529681   4.477189   3.802623   4.303241   5.625115
    28  H    4.204656   4.278731   7.997313   8.333906   2.525099
    29  H    3.143231   3.853406   6.761622   7.082794   2.442235
    30  H    2.243820   2.546025   5.879568   6.421175   4.295424
    31  H    3.765334   2.390831   6.918704   7.092893   3.804523
                   21         22         23         24         25
    21  H    0.000000
    22  H    6.641233   0.000000
    23  H    8.069795   1.745914   0.000000
    24  H    7.363446   3.805328   4.288235   0.000000
    25  H    6.103538   2.660318   3.802774   1.754234   0.000000
    26  H    7.298105   3.048412   2.443161   4.067268   3.981860
    27  H    6.239205   2.473763   2.538247   4.845059   4.082604
    28  H    2.450205   6.736455   7.754848   7.279000   6.392810
    29  H    3.044708   5.251308   6.182960   6.463995   5.451645
    30  H    3.803828   5.402878   6.258277   4.992089   4.506802
    31  H    2.655492   6.081166   7.275713   5.559843   4.822587
                   26         27         28         29         30
    26  H    0.000000
    27  H    1.750133   0.000000
    28  H    6.322324   5.496597   0.000000
    29  H    4.906412   3.849281   1.749540   0.000000
    30  H    4.603438   4.389300   2.537888   2.475265   0.000000
    31  H    6.021704   5.584432   2.449917   3.050998   1.742592
                   31
    31  H    0.000000
 Stoichiometry    C10H18O3
 Framework group  C1[X(C10H18O3)]
 Deg. of freedom    87
 Full point group                 C1      NOp   1
 Largest Abelian subgroup         C1      NOp   1
 Largest concise Abelian subgroup C1      NOp   1
                         Standard orientation:                         
 ---------------------------------------------------------------------
 Center     Atomic      Atomic             Coordinates (Angstroms)
 Number     Number       Type             X           Y           Z
 ---------------------------------------------------------------------
      1          6           0       -1.743878    1.238503   -0.818207
      2          6           0        1.035817   -0.842146    0.385564
      3          6           0       -0.940281   -0.049894   -0.779184
      4          6           0        3.492487    0.539045   -0.258811
      5          6           0       -3.510776    0.343903    0.469329
      6          8           0       -2.563380    1.386090    0.321591
      7          6           0        2.808845    0.822658    1.078581
      8          6           0        2.465162    0.102040   -1.289135
      9          6           0        1.971344   -0.387082    1.494771
     10          6           0       -2.822450   -1.005751    0.603098
     11          8           0        1.710910   -1.013913   -0.830966
     12          8           0       -0.004117    0.089602    0.280225
     13          6           0       -1.879090   -1.240829   -0.578412
     14          1           0       -2.360417    1.246429   -1.713681
     15          1           0       -1.086207    2.096155   -0.842748
     16          1           0        0.629161   -1.817488    0.610809
     17          1           0       -0.409762   -0.146034   -1.717054
     18          1           0        4.233232   -0.247615   -0.135452
     19          1           0        4.010226    1.419834   -0.627877
     20          1           0       -4.090627    0.582391    1.350525
     21          1           0       -4.177227    0.348403   -0.390767
     22          1           0        2.177020    1.701935    0.986721
     23          1           0        3.545502    1.040483    1.845763
     24          1           0        2.935921   -0.224312   -2.206109
     25          1           0        1.792436    0.919418   -1.526654
     26          1           0        2.628813   -1.220971    1.725179
     27          1           0        1.385929   -0.179812    2.384113
     28          1           0       -3.575225   -1.787572    0.647843
     29          1           0       -2.270508   -1.035171    1.538065
     30          1           0       -1.317862   -2.159493   -0.450729
     31          1           0       -2.460784   -1.353498   -1.490309
 ---------------------------------------------------------------------
 Rotational constants (GHZ):           1.7583402           0.4449185           0.4397016
 Standard basis: 6-311++G(2d,2p) (5D, 7F)
 There are   557 symmetry adapted cartesian basis functions of A   symmetry.
 There are   531 symmetry adapted basis functions of A   symmetry.
   531 basis functions,   762 primitive gaussians,   557 cartesian basis functions
    51 alpha electrons       51 beta electrons
       nuclear repulsion energy       906.8905995416 Hartrees.
 NAtoms=   31 NActive=   31 NUniq=   31 SFac= 1.00D+00 NAtFMM=   60 NAOKFM=F Big=F
 Integral buffers will be    131072 words long.
 Raffenetti 2 integral format.
 Two-electron integral symmetry is turned on.
 ------------------------------------------------------------------------------
 Polarizable Continuum Model (PCM)
 =================================
 Model                : PCM.
 Atomic radii         : SMD-Coulomb.
 Polarization charges : Total charges.
 Charge compensation  : None.
 Solution method      : On-the-fly selection.
 Cavity type          : VdW (van der Waals Surface) (Alpha=1.000).
 Cavity algorithm     : GePol (No added spheres)
                        Default sphere list used, NSphG=   31.
                        Lebedev-Laikov grids with approx.  5.0 points / Ang**2.
                        Smoothing algorithm: York/Karplus (Gamma=1.0000).
                        Polarization charges: spherical gaussians, with
                                              point-specific exponents (IZeta= 3).
                        Self-potential: point-specific (ISelfS= 7).
                        Self-field    : sphere-specific E.n sum rule (ISelfD= 2).
 1st derivatives      : Analytical E(r).r(x)/FMM algorithm (CHGder, D1EAlg=3).
                        Cavity 1st derivative terms included.
 Solvent              : Water, Eps=  78.355300 Eps(inf)=   1.777849
 ------------------------------------------------------------------------------
 ------------------------------------------------------------------------------
 Atomic radii for non-electrostatic terms: SMD-CDS.
 ------------------------------------------------------------------------------
 Nuclear repulsion after PCM non-electrostatic terms =      906.8969772282 Hartrees.
 One-electron integrals computed using PRISM.
 NBasis=   531 RedAO= T EigKep=  4.71D-06  NBF=   531
 NBsUse=   531 1.00D-06 EigRej= -1.00D+00 NBFU=   531
 ExpMin= 3.60D-02 ExpMax= 8.59D+03 ExpMxC= 1.30D+03 IAcc=3 IRadAn=         5 AccDes= 0.00D+00
 Harris functional with IExCor= 1009 and IRadAn=       5 diagonalized for initial guess.
 HarFok:  IExCor= 1009 AccDes= 0.00D+00 IRadAn=         5 IDoV= 1 UseB2=F ITyADJ=14
 ICtDFT=  3500011 ScaDFX=  1.000000  1.000000  1.000000  1.000000
 FoFCou: FMM=F IPFlag=           0 FMFlag=      100000 FMFlg1=           0
         NFxFlg=           0 DoJE=T BraDBF=F KetDBF=T FulRan=T
         wScrn=  0.000000 ICntrl=       500 IOpCl=  0 I1Cent=   200000004 NGrid=           0
         NMat0=    1 NMatS0=      1 NMatT0=    0 NMatD0=    1 NMtDS0=    0 NMtDT0=    0
 Petite list used in FoFCou.
 Requested convergence on RMS density matrix=1.00D-08 within 128 cycles.
 Requested convergence on MAX density matrix=1.00D-06.
 Requested convergence on             energy=1.00D-06.
 No special actions if energy rises.
 Inv3:  Mode=1 IEnd=    12216972.
 Iteration    1 A*A^-1 deviation from unit magnitude is 8.55D-15 for   2018.
 Iteration    1 A*A^-1 deviation from orthogonality  is 2.23D-15 for   1872    706.
 Iteration    1 A^-1*A deviation from unit magnitude is 8.66D-15 for   2018.
 Iteration    1 A^-1*A deviation from orthogonality  is 3.09D-13 for   1314   1268.
 Error on total polarization charges =  0.06069
 SCF Done:  E(RM062X) =  -617.506865910     A.U. after   12 cycles
            NFock= 12  Conv=0.73D-08     -V/T= 2.0035
 SMD-CDS (non-electrostatic) energy       (kcal/mol) =       4.00
 (included in total energy above)

 **********************************************************************

            Population analysis using the SCF Density.

 **********************************************************************

 Orbital symmetries:
       Occupied  (A) (A) (A) (A) (A) (A) (A) (A) (A) (A) (A) (A)
                 (A) (A) (A) (A) (A) (A) (A) (A) (A) (A) (A) (A)
                 (A) (A) (A) (A) (A) (A) (A) (A) (A) (A) (A) (A)
                 (A) (A) (A) (A) (A) (A) (A) (A) (A) (A) (A) (A)
                 (A) (A) (A)
       Virtual   (A) (A) (A) (A) (A) (A) (A) (A) (A) (A) (A) (A)
                 (A) (A) (A) (A) (A) (A) (A) (A) (A) (A) (A) (A)
                 (A) (A) (A) (A) (A) (A) (A) (A) (A) (A) (A) (A)
                 (A) (A) (A) (A) (A) (A) (A) (A) (A) (A) (A) (A)
                 (A) (A) (A) (A) (A) (A) (A) (A) (A) (A) (A) (A)
                 (A) (A) (A) (A) (A) (A) (A) (A) (A) (A) (A) (A)
                 (A) (A) (A) (A) (A) (A) (A) (A) (A) (A) (A) (A)
                 (A) (A) (A) (A) (A) (A) (A) (A) (A) (A) (A) (A)
                 (A) (A) (A) (A) (A) (A) (A) (A) (A) (A) (A) (A)
                 (A) (A) (A) (A) (A) (A) (A) (A) (A) (A) (A) (A)
                 (A) (A) (A) (A) (A) (A) (A) (A) (A) (A) (A) (A)
                 (A) (A) (A) (A) (A) (A) (A) (A) (A) (A) (A) (A)
                 (A) (A) (A) (A) (A) (A) (A) (A) (A) (A) (A) (A)
                 (A) (A) (A) (A) (A) (A) (A) (A) (A) (A) (A) (A)
                 (A) (A) (A) (A) (A) (A) (A) (A) (A) (A) (A) (A)
                 (A) (A) (A) (A) (A) (A) (A) (A) (A) (A) (A) (A)
                 (A) (A) (A) (A) (A) (A) (A) (A) (A) (A) (A) (A)
                 (A) (A) (A) (A) (A) (A) (A) (A) (A) (A) (A) (A)
                 (A) (A) (A) (A) (A) (A) (A) (A) (A) (A) (A) (A)
                 (A) (A) (A) (A) (A) (A) (A) (A) (A) (A) (A) (A)
                 (A) (A) (A) (A) (A) (A) (A) (A) (A) (A) (A) (A)
                 (A) (A) (A) (A) (A) (A) (A) (A) (A) (A) (A) (A)
                 (A) (A) (A) (A) (A) (A) (A) (A) (A) (A) (A) (A)
                 (A) (A) (A) (A) (A) (A) (A) (A) (A) (A) (A) (A)
                 (A) (A) (A) (A) (A) (A) (A) (A) (A) (A) (A) (A)
                 (A) (A) (A) (A) (A) (A) (A) (A) (A) (A) (A) (A)
                 (A) (A) (A) (A) (A) (A) (A) (A) (A) (A) (A) (A)
                 (A) (A) (A) (A) (A) (A) (A) (A) (A) (A) (A) (A)
                 (A) (A) (A) (A) (A) (A) (A) (A) (A) (A) (A) (A)
                 (A) (A) (A) (A) (A) (A) (A) (A) (A) (A) (A) (A)
                 (A) (A) (A) (A) (A) (A) (A) (A) (A) (A) (A) (A)
                 (A) (A) (A) (A) (A) (A) (A) (A) (A) (A) (A) (A)
                 (A) (A) (A) (A) (A) (A) (A) (A) (A) (A) (A) (A)
                 (A) (A) (A) (A) (A) (A) (A) (A) (A) (A) (A) (A)
                 (A) (A) (A) (A) (A) (A) (A) (A) (A) (A) (A) (A)
                 (A) (A) (A) (A) (A) (A) (A) (A) (A) (A) (A) (A)
                 (A) (A) (A) (A) (A) (A) (A) (A) (A) (A) (A) (A)
                 (A) (A) (A) (A) (A) (A) (A) (A) (A) (A) (A) (A)
                 (A) (A) (A) (A) (A) (A) (A) (A) (A) (A) (A) (A)
                 (A) (A) (A) (A) (A) (A) (A) (A) (A) (A) (A) (A)
 The electronic state is 1-A.
 Alpha  occ. eigenvalues --  -19.62975 -19.62848 -19.62715 -10.62943 -10.58064
 Alpha  occ. eigenvalues --  -10.57347 -10.57181 -10.57108 -10.52379 -10.52331
 Alpha  occ. eigenvalues --  -10.52269 -10.52162 -10.52102  -1.20236  -1.16597
 Alpha  occ. eigenvalues --   -1.13350  -0.90421  -0.89027  -0.87213  -0.84238
 Alpha  occ. eigenvalues --   -0.74539  -0.73635  -0.72563  -0.71004  -0.65927
 Alpha  occ. eigenvalues --   -0.62019  -0.59573  -0.58284  -0.57333  -0.55562
 Alpha  occ. eigenvalues --   -0.53611  -0.53073  -0.51652  -0.51156  -0.49524
 Alpha  occ. eigenvalues --   -0.47201  -0.46614  -0.45947  -0.45302  -0.44901
 Alpha  occ. eigenvalues --   -0.43083  -0.42691  -0.40846  -0.39395  -0.38864
 Alpha  occ. eigenvalues --   -0.37997  -0.37188  -0.35429  -0.34560  -0.33207
 Alpha  occ. eigenvalues --   -0.31854
 Alpha virt. eigenvalues --    0.00332   0.01311   0.01366   0.01543   0.02719
 Alpha virt. eigenvalues --    0.02942   0.03142   0.03786   0.04059   0.05020
 Alpha virt. eigenvalues --    0.05126   0.05256   0.05800   0.06372   0.07733
 Alpha virt. eigenvalues --    0.08145   0.08220   0.08777   0.09531   0.09869
 Alpha virt. eigenvalues --    0.10494   0.11060   0.11294   0.12100   0.12592
 Alpha virt. eigenvalues --    0.12860   0.13310   0.13554   0.13881   0.14118
 Alpha virt. eigenvalues --    0.14393   0.14493   0.14914   0.15006   0.15352
 Alpha virt. eigenvalues --    0.15494   0.15765   0.15872   0.16781   0.17038
 Alpha virt. eigenvalues --    0.17090   0.17510   0.17907   0.18082   0.18223
 Alpha virt. eigenvalues --    0.18684   0.19222   0.19369   0.19677   0.19896
 Alpha virt. eigenvalues --    0.20583   0.20821   0.21223   0.21288   0.22046
 Alpha virt. eigenvalues --    0.22453   0.22988   0.23482   0.24025   0.24756
 Alpha virt. eigenvalues --    0.25019   0.26199   0.26622   0.27435   0.27734
 Alpha virt. eigenvalues --    0.28215   0.28790   0.29078   0.29273   0.29946
 Alpha virt. eigenvalues --    0.29972   0.30918   0.31388   0.32380   0.32788
 Alpha virt. eigenvalues --    0.33114   0.33605   0.34285   0.34619   0.35199
 Alpha virt. eigenvalues --    0.35522   0.35839   0.36042   0.36355   0.36596
 Alpha virt. eigenvalues --    0.37003   0.37560   0.37639   0.38140   0.38597
 Alpha virt. eigenvalues --    0.38767   0.39771   0.40030   0.40724   0.41478
 Alpha virt. eigenvalues --    0.41825   0.42790   0.43663   0.45371   0.45980
 Alpha virt. eigenvalues --    0.47404   0.47920   0.49961   0.50754   0.51543
 Alpha virt. eigenvalues --    0.52232   0.52826   0.54169   0.54982   0.55985
 Alpha virt. eigenvalues --    0.57094   0.57762   0.59099   0.59715   0.60229
 Alpha virt. eigenvalues --    0.60604   0.61327   0.61440   0.61923   0.62483
 Alpha virt. eigenvalues --    0.62728   0.63518   0.64241   0.65094   0.65176
 Alpha virt. eigenvalues --    0.65689   0.65945   0.66530   0.67269   0.67570
 Alpha virt. eigenvalues --    0.68412   0.68450   0.69562   0.70269   0.70779
 Alpha virt. eigenvalues --    0.71215   0.72118   0.72465   0.72711   0.73012
 Alpha virt. eigenvalues --    0.73941   0.74550   0.75327   0.76033   0.76754
 Alpha virt. eigenvalues --    0.77357   0.77842   0.78762   0.79362   0.79635
 Alpha virt. eigenvalues --    0.80331   0.82473   0.84109   0.85090   0.86699
 Alpha virt. eigenvalues --    0.87286   0.87541   0.88766   0.89145   0.90288
 Alpha virt. eigenvalues --    0.91504   0.92978   0.93810   0.96383   0.97416
 Alpha virt. eigenvalues --    0.98250   1.00275   1.00570   1.01386   1.02453
 Alpha virt. eigenvalues --    1.03492   1.03697   1.05048   1.06602   1.07168
 Alpha virt. eigenvalues --    1.07699   1.08845   1.09771   1.11328   1.12651
 Alpha virt. eigenvalues --    1.14595   1.15249   1.15882   1.17103   1.17364
 Alpha virt. eigenvalues --    1.17605   1.18859   1.19937   1.20562   1.21169
 Alpha virt. eigenvalues --    1.21767   1.23777   1.23802   1.24445   1.24881
 Alpha virt. eigenvalues --    1.26203   1.26961   1.27126   1.27737   1.28200
 Alpha virt. eigenvalues --    1.29504   1.29965   1.31208   1.31700   1.31990
 Alpha virt. eigenvalues --    1.32734   1.33536   1.34269   1.35182   1.35713
 Alpha virt. eigenvalues --    1.37159   1.37417   1.38030   1.38389   1.39599
 Alpha virt. eigenvalues --    1.39693   1.40606   1.41182   1.41477   1.42177
 Alpha virt. eigenvalues --    1.42421   1.43135   1.44608   1.45473   1.46198
 Alpha virt. eigenvalues --    1.46800   1.47721   1.48477   1.48681   1.49289
 Alpha virt. eigenvalues --    1.49604   1.50412   1.51140   1.51690   1.52593
 Alpha virt. eigenvalues --    1.52925   1.54002   1.54996   1.55783   1.56427
 Alpha virt. eigenvalues --    1.57159   1.57862   1.58233   1.58681   1.58909
 Alpha virt. eigenvalues --    1.60622   1.61142   1.61903   1.62497   1.62647
 Alpha virt. eigenvalues --    1.63981   1.64782   1.66263   1.66552   1.66999
 Alpha virt. eigenvalues --    1.67777   1.68398   1.70220   1.71133   1.72708
 Alpha virt. eigenvalues --    1.74228   1.74978   1.76377   1.77309   1.78289
 Alpha virt. eigenvalues --    1.78667   1.80830   1.82058   1.82787   1.83295
 Alpha virt. eigenvalues --    1.84655   1.89508   1.91319   1.97565   2.01597
 Alpha virt. eigenvalues --    2.05617   2.08222   2.14984   2.19218   2.22200
 Alpha virt. eigenvalues --    2.25769   2.27380   2.29288   2.34978   2.41354
 Alpha virt. eigenvalues --    2.41988   2.42930   2.44863   2.45824   2.52294
 Alpha virt. eigenvalues --    2.60628   2.77478   2.77872   2.79344   2.82857
 Alpha virt. eigenvalues --    2.84159   2.87150   2.92728   2.93820   2.94823
 Alpha virt. eigenvalues --    2.97091   2.97645   2.99347   3.02043   3.04263
 Alpha virt. eigenvalues --    3.06920   3.07891   3.09528   3.09989   3.12786
 Alpha virt. eigenvalues --    3.13812   3.16624   3.17432   3.20751   3.23656
 Alpha virt. eigenvalues --    3.27188   3.31577   3.32348   3.34189   3.34781
 Alpha virt. eigenvalues --    3.36715   3.37376   3.38136   3.39960   3.42162
 Alpha virt. eigenvalues --    3.43060   3.44112   3.45123   3.46542   3.48536
 Alpha virt. eigenvalues --    3.49624   3.50114   3.51251   3.51823   3.53419
 Alpha virt. eigenvalues --    3.54032   3.54191   3.55196   3.55840   3.56759
 Alpha virt. eigenvalues --    3.57646   3.58507   3.59140   3.59624   3.60048
 Alpha virt. eigenvalues --    3.61777   3.62517   3.63411   3.65074   3.66305
 Alpha virt. eigenvalues --    3.67064   3.68345   3.68477   3.69233   3.70532
 Alpha virt. eigenvalues --    3.70813   3.71356   3.72208   3.73133   3.74805
 Alpha virt. eigenvalues --    3.75193   3.75476   3.77235   3.77968   3.78341
 Alpha virt. eigenvalues --    3.79397   3.80366   3.81552   3.83977   3.84227
 Alpha virt. eigenvalues --    3.86949   3.88739   3.89702   3.91542   3.91846
 Alpha virt. eigenvalues --    3.93212   3.95224   3.95744   3.97270   3.99134
 Alpha virt. eigenvalues --    4.00670   4.01283   4.03017   4.03873   4.05009
 Alpha virt. eigenvalues --    4.06015   4.06618   4.06844   4.07707   4.08222
 Alpha virt. eigenvalues --    4.08645   4.08876   4.09440   4.10715   4.11784
 Alpha virt. eigenvalues --    4.12268   4.13647   4.14310   4.15324   4.16286
 Alpha virt. eigenvalues --    4.17439   4.17970   4.18500   4.19845   4.21827
 Alpha virt. eigenvalues --    4.22165   4.23192   4.26095   4.26931   4.27413
 Alpha virt. eigenvalues --    4.29570   4.29816   4.30258   4.31918   4.32824
 Alpha virt. eigenvalues --    4.33576   4.33890   4.35853   4.37791   4.39995
 Alpha virt. eigenvalues --    4.40871   4.43371   4.45310   4.46973   4.47801
 Alpha virt. eigenvalues --    4.58539   4.62448   4.74215   4.76181   4.83145
 Alpha virt. eigenvalues --    4.85806   4.95050   4.96099   5.01813   5.04577
 Alpha virt. eigenvalues --    5.07180   5.07749   5.08365   5.09511   5.12014
 Alpha virt. eigenvalues --    5.12990   5.14682   5.15009   5.31766   5.38894
 Alpha virt. eigenvalues --    5.44861   5.57932   5.59696   5.65130   5.85746
 Alpha virt. eigenvalues --    5.87530   6.06200   7.03676   7.05622   7.06462
 Alpha virt. eigenvalues --    7.08689   7.10850   7.12575   7.13689   7.20687
 Alpha virt. eigenvalues --    7.25034   7.36777   7.38010   7.47971   7.54474
 Alpha virt. eigenvalues --    7.55131   7.66366  23.96428  23.97965  24.05870
 Alpha virt. eigenvalues --   24.08778  24.11841  24.12230  24.14956  24.16039
 Alpha virt. eigenvalues --   24.17816  24.22091  50.15942  50.18933  50.25530
          Condensed to atoms (all electrons):
               1          2          3          4          5          6
     1  C    6.051620   0.064798  -0.479923   0.018903  -0.261808   0.098891
     2  C    0.064798   7.291317  -0.692887   0.346963   0.063971  -0.015395
     3  C   -0.479923  -0.692887   7.261338  -0.029803   0.292867   0.000650
     4  C    0.018903   0.346963  -0.029803   5.718605  -0.001346   0.000337
     5  C   -0.261808   0.063971   0.292867  -0.001346   5.532902   0.073062
     6  O    0.098891  -0.015395   0.000650   0.000337   0.073062   8.380313
     7  C   -0.023055  -0.202858   0.041914  -0.044947   0.004804   0.004683
     8  C    0.001980  -0.512884   0.139832  -0.032288  -0.002986  -0.001105
     9  C   -0.030192  -1.081280   0.341778  -0.221981   0.003461   0.000309
    10  C    0.132073   0.083640  -0.392355   0.007725   0.086795   0.005435
    11  O    0.017588   0.249542   0.077641  -0.068658   0.002100  -0.000212
    12  O   -0.133867   0.203613  -0.036327  -0.021522  -0.021624   0.033276
    13  C    0.055228   0.016046  -0.752819   0.002235  -0.258289   0.016260
    14  H    0.494775  -0.005476  -0.072756   0.000730  -0.001801  -0.052935
    15  H    0.411925  -0.004150  -0.022557   0.004189   0.006698  -0.080899
    16  H   -0.008360   0.555308  -0.026617   0.004630   0.009805  -0.001601
    17  H   -0.028231  -0.088505   0.439292  -0.012050  -0.031408   0.008071
    18  H   -0.000110   0.003361  -0.002612   0.490524   0.000065  -0.000030
    19  H   -0.000352  -0.002176   0.000770   0.445806  -0.000185   0.000034
    20  H    0.007552   0.002174   0.001027  -0.000222   0.446513  -0.063186
    21  H   -0.018276  -0.003167   0.010853   0.000255   0.449977  -0.056417
    22  H   -0.006117  -0.013842  -0.003445  -0.072205   0.000139  -0.000099
    23  H   -0.002349   0.020011   0.004851  -0.029073   0.000066   0.000140
    24  H    0.001873  -0.008765   0.006368  -0.019142  -0.000058  -0.000103
    25  H    0.002033   0.000198  -0.011578  -0.074113   0.003669   0.001109
    26  H    0.003062  -0.141384   0.003356  -0.018816  -0.000921   0.000070
    27  H   -0.001432  -0.029572  -0.003703  -0.000765   0.002143   0.000036
    28  H    0.000879   0.001887  -0.011523  -0.000208  -0.023820   0.010258
    29  H    0.008804  -0.010849  -0.034435  -0.000168  -0.107207  -0.009170
    30  H    0.004884  -0.023358   0.001993   0.004011  -0.016835  -0.002457
    31  H   -0.010835   0.002899  -0.063768  -0.000697  -0.010914   0.000779
               7          8          9         10         11         12
     1  C   -0.023055   0.001980  -0.030192   0.132073   0.017588  -0.133867
     2  C   -0.202858  -0.512884  -1.081280   0.083640   0.249542   0.203613
     3  C    0.041914   0.139832   0.341778  -0.392355   0.077641  -0.036327
     4  C   -0.044947  -0.032288  -0.221981   0.007725  -0.068658  -0.021522
     5  C    0.004804  -0.002986   0.003461   0.086795   0.002100  -0.021624
     6  O    0.004683  -0.001105   0.000309   0.005435  -0.000212   0.033276
     7  C    5.732832  -0.025608   0.000168   0.006508  -0.004532   0.000268
     8  C   -0.025608   5.507693   0.257363  -0.009006   0.092791  -0.007522
     9  C    0.000168   0.257363   6.581411  -0.034488  -0.002897  -0.083197
    10  C    0.006508  -0.009006  -0.034488   5.579452  -0.004389   0.001692
    11  O   -0.004532   0.092791  -0.002897  -0.004389   8.255477  -0.054502
    12  O    0.000268  -0.007522  -0.083197   0.001692  -0.054502   8.398523
    13  C   -0.013181  -0.026794  -0.135255   0.039937  -0.097256   0.039543
    14  H    0.001291   0.003035   0.002115   0.033198   0.001101   0.013759
    15  H   -0.005542  -0.002248  -0.001653   0.002748  -0.002013   0.005487
    16  H   -0.003194  -0.027719  -0.100038  -0.001285  -0.052826  -0.040445
    17  H   -0.008537   0.012062   0.018064  -0.039525  -0.000278  -0.034196
    18  H   -0.023351  -0.093090  -0.008274  -0.000347  -0.000914  -0.000312
    19  H   -0.044378  -0.038809   0.002382   0.000404   0.009125   0.001163
    20  H    0.000611  -0.000061   0.000246  -0.063430   0.000058   0.000907
    21  H   -0.000425   0.000044  -0.000711  -0.014747  -0.000036   0.001621
    22  H    0.527060   0.000479  -0.052796   0.000509   0.001408   0.000455
    23  H    0.433314   0.009946  -0.058875   0.000275  -0.004452  -0.000136
    24  H    0.006357   0.431596   0.002539  -0.000167  -0.066182   0.001386
    25  H    0.000954   0.448319   0.018047  -0.001104  -0.023938   0.015233
    26  H   -0.002302   0.015410   0.526265   0.000199  -0.008424   0.010433
    27  H   -0.042989   0.000548   0.446606  -0.001894   0.007193  -0.003697
    28  H    0.000585   0.000235  -0.001135   0.445484  -0.000480   0.000557
    29  H   -0.001057   0.000691   0.000242   0.504690  -0.000585   0.011009
    30  H   -0.000091   0.002010   0.002090  -0.019320   0.000390  -0.005280
    31  H    0.001367  -0.000089  -0.000208  -0.033953  -0.000392   0.004289
              13         14         15         16         17         18
     1  C    0.055228   0.494775   0.411925  -0.008360  -0.028231  -0.000110
     2  C    0.016046  -0.005476  -0.004150   0.555308  -0.088505   0.003361
     3  C   -0.752819  -0.072756  -0.022557  -0.026617   0.439292  -0.002612
     4  C    0.002235   0.000730   0.004189   0.004630  -0.012050   0.490524
     5  C   -0.258289  -0.001801   0.006698   0.009805  -0.031408   0.000065
     6  O    0.016260  -0.052935  -0.080899  -0.001601   0.008071  -0.000030
     7  C   -0.013181   0.001291  -0.005542  -0.003194  -0.008537  -0.023351
     8  C   -0.026794   0.003035  -0.002248  -0.027719   0.012062  -0.093090
     9  C   -0.135255   0.002115  -0.001653  -0.100038   0.018064  -0.008274
    10  C    0.039937   0.033198   0.002748  -0.001285  -0.039525  -0.000347
    11  O   -0.097256   0.001101  -0.002013  -0.052826  -0.000278  -0.000914
    12  O    0.039543   0.013759   0.005487  -0.040445  -0.034196  -0.000312
    13  C    6.587236  -0.056767   0.017550   0.009693   0.077827   0.000110
    14  H   -0.056767   0.454164  -0.005778  -0.001564  -0.013894  -0.000104
    15  H    0.017550  -0.005778   0.477426   0.001799  -0.004669   0.000078
    16  H    0.009693  -0.001564   0.001799   0.448585  -0.001678   0.001548
    17  H    0.077827  -0.013894  -0.004669  -0.001678   0.461985   0.000108
    18  H    0.000110  -0.000104   0.000078   0.001548   0.000108   0.477090
    19  H    0.001510   0.000038   0.000203   0.000828   0.000285  -0.011624
    20  H    0.013356  -0.000248   0.000519   0.000605  -0.000675  -0.000004
    21  H   -0.022906   0.004977  -0.001280  -0.000138   0.001919   0.000003
    22  H    0.003470   0.000050  -0.002519  -0.001999  -0.000241   0.001791
    23  H   -0.000717  -0.000009   0.000248   0.002380   0.000490  -0.002342
    24  H   -0.000174   0.000084   0.000914  -0.001812  -0.002034  -0.005165
    25  H   -0.013146   0.000346  -0.010300   0.001344  -0.012923   0.005431
    26  H   -0.001246   0.000204   0.000003  -0.013899  -0.000220  -0.002805
    27  H    0.001528   0.000015  -0.000494  -0.007387  -0.001364  -0.001468
    28  H   -0.045345   0.000123   0.001353   0.000954  -0.000366  -0.000015
    29  H    0.000508  -0.000642  -0.001524  -0.005427   0.002475  -0.000069
    30  H    0.418676  -0.000285   0.000966  -0.016225  -0.002811  -0.000264
    31  H    0.485460  -0.001336  -0.002752  -0.000275  -0.005445  -0.000049
              19         20         21         22         23         24
     1  C   -0.000352   0.007552  -0.018276  -0.006117  -0.002349   0.001873
     2  C   -0.002176   0.002174  -0.003167  -0.013842   0.020011  -0.008765
     3  C    0.000770   0.001027   0.010853  -0.003445   0.004851   0.006368
     4  C    0.445806  -0.000222   0.000255  -0.072205  -0.029073  -0.019142
     5  C   -0.000185   0.446513   0.449977   0.000139   0.000066  -0.000058
     6  O    0.000034  -0.063186  -0.056417  -0.000099   0.000140  -0.000103
     7  C   -0.044378   0.000611  -0.000425   0.527060   0.433314   0.006357
     8  C   -0.038809  -0.000061   0.000044   0.000479   0.009946   0.431596
     9  C    0.002382   0.000246  -0.000711  -0.052796  -0.058875   0.002539
    10  C    0.000404  -0.063430  -0.014747   0.000509   0.000275  -0.000167
    11  O    0.009125   0.000058  -0.000036   0.001408  -0.004452  -0.066182
    12  O    0.001163   0.000907   0.001621   0.000455  -0.000136   0.001386
    13  C    0.001510   0.013356  -0.022906   0.003470  -0.000717  -0.000174
    14  H    0.000038  -0.000248   0.004977   0.000050  -0.000009   0.000084
    15  H    0.000203   0.000519  -0.001280  -0.002519   0.000248   0.000914
    16  H    0.000828   0.000605  -0.000138  -0.001999   0.002380  -0.001812
    17  H    0.000285  -0.000675   0.001919  -0.000241   0.000490  -0.002034
    18  H   -0.011624  -0.000004   0.000003   0.001791  -0.002342  -0.005165
    19  H    0.477301  -0.000009   0.000018  -0.004470  -0.005819  -0.010334
    20  H   -0.000009   0.463614  -0.003357   0.000063   0.000038  -0.000018
    21  H    0.000018  -0.003357   0.484284  -0.000057  -0.000009   0.000001
    22  H   -0.004470   0.000063  -0.000057   0.457383  -0.007108  -0.002551
    23  H   -0.005819   0.000038  -0.000009  -0.007108   0.461687   0.001222
    24  H   -0.010334  -0.000018   0.000001  -0.002551   0.001222   0.463016
    25  H   -0.001691   0.000320  -0.000508   0.001543  -0.002150  -0.016104
    26  H   -0.002194  -0.000018  -0.000053   0.001155  -0.002903   0.000576
    27  H    0.000821   0.000105  -0.000061  -0.002097  -0.008223   0.000962
    28  H    0.000013  -0.008927   0.003541   0.000070   0.000012   0.000005
    29  H    0.000046  -0.004020   0.002107  -0.000088   0.000070   0.000011
    30  H    0.000073  -0.000202   0.000563  -0.000228  -0.000030   0.000406
    31  H    0.000026  -0.001553  -0.002978   0.000070   0.000030  -0.000096
              25         26         27         28         29         30
     1  C    0.002033   0.003062  -0.001432   0.000879   0.008804   0.004884
     2  C    0.000198  -0.141384  -0.029572   0.001887  -0.010849  -0.023358
     3  C   -0.011578   0.003356  -0.003703  -0.011523  -0.034435   0.001993
     4  C   -0.074113  -0.018816  -0.000765  -0.000208  -0.000168   0.004011
     5  C    0.003669  -0.000921   0.002143  -0.023820  -0.107207  -0.016835
     6  O    0.001109   0.000070   0.000036   0.010258  -0.009170  -0.002457
     7  C    0.000954  -0.002302  -0.042989   0.000585  -0.001057  -0.000091
     8  C    0.448319   0.015410   0.000548   0.000235   0.000691   0.002010
     9  C    0.018047   0.526265   0.446606  -0.001135   0.000242   0.002090
    10  C   -0.001104   0.000199  -0.001894   0.445484   0.504690  -0.019320
    11  O   -0.023938  -0.008424   0.007193  -0.000480  -0.000585   0.000390
    12  O    0.015233   0.010433  -0.003697   0.000557   0.011009  -0.005280
    13  C   -0.013146  -0.001246   0.001528  -0.045345   0.000508   0.418676
    14  H    0.000346   0.000204   0.000015   0.000123  -0.000642  -0.000285
    15  H   -0.010300   0.000003  -0.000494   0.001353  -0.001524   0.000966
    16  H    0.001344  -0.013899  -0.007387   0.000954  -0.005427  -0.016225
    17  H   -0.012923  -0.000220  -0.001364  -0.000366   0.002475  -0.002811
    18  H    0.005431  -0.002805  -0.001468  -0.000015  -0.000069  -0.000264
    19  H   -0.001691  -0.002194   0.000821   0.000013   0.000046   0.000073
    20  H    0.000320  -0.000018   0.000105  -0.008927  -0.004020  -0.000202
    21  H   -0.000508  -0.000053  -0.000061   0.003541   0.002107   0.000563
    22  H    0.001543   0.001155  -0.002097   0.000070  -0.000088  -0.000228
    23  H   -0.002150  -0.002903  -0.008223   0.000012   0.000070  -0.000030
    24  H   -0.016104   0.000576   0.000962   0.000005   0.000011   0.000406
    25  H    0.526825  -0.001131   0.000893  -0.000132  -0.000360  -0.002434
    26  H   -0.001131   0.438945  -0.004192   0.000039   0.000454   0.001039
    27  H    0.000893  -0.004192   0.463739   0.000098  -0.002371  -0.000835
    28  H   -0.000132   0.000039   0.000098   0.473551  -0.012825  -0.008935
    29  H   -0.000360   0.000454  -0.002371  -0.012825   0.484198   0.003209
    30  H   -0.002434   0.001039  -0.000835  -0.008935   0.003209   0.464626
    31  H    0.000142   0.000049  -0.000000  -0.006273   0.002981   0.000546
              31
     1  C   -0.010835
     2  C    0.002899
     3  C   -0.063768
     4  C   -0.000697
     5  C   -0.010914
     6  O    0.000779
     7  C    0.001367
     8  C   -0.000089
     9  C   -0.000208
    10  C   -0.033953
    11  O   -0.000392
    12  O    0.004289
    13  C    0.485460
    14  H   -0.001336
    15  H   -0.002752
    16  H   -0.000275
    17  H   -0.005445
    18  H   -0.000049
    19  H    0.000026
    20  H   -0.001553
    21  H   -0.002978
    22  H    0.000070
    23  H    0.000030
    24  H   -0.000096
    25  H    0.000142
    26  H    0.000049
    27  H   -0.000000
    28  H   -0.006273
    29  H    0.002981
    30  H    0.000546
    31  H    0.421553
 Mulliken charges:
               1
     1  C   -0.371960
     2  C   -0.069180
     3  C    0.012577
     4  C   -0.396908
     5  C   -0.239832
     6  O   -0.350104
     7  C   -0.316670
     8  C   -0.143823
     9  C   -0.390108
    10  C   -0.314753
    11  O   -0.321448
    12  O   -0.300588
    13  C   -0.362275
    14  H    0.203590
    15  H    0.216273
    16  H    0.275010
    17  H    0.266470
    18  H    0.172840
    19  H    0.181195
    20  H    0.208222
    21  H    0.164965
    22  H    0.174218
    23  H    0.189416
    24  H    0.215388
    25  H    0.145205
    26  H    0.199249
    27  H    0.187857
    28  H    0.180340
    29  H    0.169304
    30  H    0.194107
    31  H    0.221423
 Sum of Mulliken charges =  -0.00000
 Mulliken charges with hydrogens summed into heavy atoms:
               1
     1  C    0.047903
     2  C    0.205829
     3  C    0.279047
     4  C   -0.042873
     5  C    0.133355
     6  O   -0.350104
     7  C    0.046964
     8  C    0.216770
     9  C   -0.003002
    10  C    0.034891
    11  O   -0.321448
    12  O   -0.300588
    13  C    0.053255
 Electronic spatial extent (au):  <R**2>=           2827.7968
 Charge=              0.0000 electrons
 Dipole moment (field-independent basis, Debye):
    X=              0.3586    Y=             -1.3105    Z=             -1.4357  Tot=              1.9767
 Quadrupole moment (field-independent basis, Debye-Ang):
   XX=            -70.0073   YY=            -83.4367   ZZ=            -76.9024
   XY=              8.8816   XZ=              3.9545   YZ=             -5.9056
 Traceless Quadrupole moment (field-independent basis, Debye-Ang):
   XX=              6.7748   YY=             -6.6545   ZZ=             -0.1203
   XY=              8.8816   XZ=              3.9545   YZ=             -5.9056
 Octapole moment (field-independent basis, Debye-Ang**2):
  XXX=             -7.9100  YYY=             -3.6248  ZZZ=             -3.9209  XYY=              4.9078
  XXY=             -8.1694  XXZ=             -3.4579  XZZ=              0.1317  YZZ=              2.3815
  YYZ=             -1.1754  XYZ=             -0.2434
 Hexadecapole moment (field-independent basis, Debye-Ang**3):
 XXXX=          -2625.0108 YYYY=           -501.3018 ZZZZ=           -476.9776 XXXY=             38.7034
 XXXZ=            -17.3735 YYYX=             15.6717 YYYZ=            -13.7550 ZZZX=            -10.5463
 ZZZY=              1.0931 XXYY=           -576.7657 XXZZ=           -512.5632 YYZZ=           -169.0526
 XXYZ=            -15.8294 YYXZ=             11.0216 ZZXY=             -5.4933
 N-N= 9.068969772282D+02 E-N=-3.256217786659D+03  KE= 6.153588922646D+02
 D1PCM: PCM CHGder 1st derivatives, ID1Alg=3 FixD1E=F DoIter=F DoCFld=F I1PDM=0.
 Calling FoFJK, ICntrl=      2127 FMM=F ISym2X=0 I1Cent= 0 IOpClX= 0 NMat=1 NMatS=1 NMatT=0.
 ***** Axes restored to original set *****
 -------------------------------------------------------------------
 Center     Atomic                   Forces (Hartrees/Bohr)
 Number     Number              X              Y              Z
 -------------------------------------------------------------------
      1        6           0.001017231   -0.006420039   -0.000709753
      2        6           0.002096405    0.000363952    0.002864164
      3        6          -0.004797752   -0.003835870    0.001193783
      4        6          -0.003079945    0.000887396    0.000410470
      5        6           0.003496635   -0.006140168   -0.001248623
      6        8           0.001497076    0.008904657    0.008365168
      7        6          -0.000642026   -0.003472071   -0.002492562
      8        6           0.002998305    0.002515979    0.006237886
      9        6          -0.000122906    0.002445337   -0.001857683
     10        6          -0.000074433    0.001474781   -0.003022638
     11        8           0.001283331   -0.009961086   -0.007220697
     12        8          -0.000305929    0.014951807    0.006970404
     13        6          -0.000927219    0.003448746    0.002030545
     14        1          -0.002668652   -0.000993100   -0.004932576
     15        1           0.003809466    0.003646199    0.000136786
     16        1          -0.002569404   -0.007331021    0.001122440
     17        1           0.003239639   -0.000657427   -0.005911152
     18        1           0.001640983   -0.002954370    0.000446885
     19        1           0.001172182    0.002302469   -0.000920244
     20        1          -0.002283748    0.000826309    0.003767154
     21        1          -0.003066651   -0.000882143   -0.004817529
     22        1          -0.002668636    0.002496814   -0.000906632
     23        1           0.001730156    0.000292501    0.001828133
     24        1           0.002028253   -0.001266816   -0.003776713
     25        1          -0.004083009    0.005296599   -0.000644072
     26        1           0.001882584   -0.002685156   -0.000044270
     27        1          -0.002124673    0.000731275    0.002442372
     28        1          -0.001800601   -0.001981267    0.000031871
     29        1           0.002394273    0.000621660    0.002960103
     30        1           0.002849736   -0.002783447    0.000573687
     31        1          -0.001920670    0.000157503   -0.002876708
 -------------------------------------------------------------------
 Cartesian Forces:  Max     0.014951807 RMS     0.003654382

 GradGradGradGradGradGradGradGradGradGradGradGradGradGradGradGradGradGrad
 Berny optimization.
 FormGI is forming the generalized inverse of G from B-inverse, IUseBI=4.
 Internal  Forces:  Max     0.014148775 RMS     0.002266112
 Search for a local minimum.
 Step number   1 out of a maximum of  186
 All quantities printed in internal units (Hartrees-Bohrs-Radians)
 Mixed Optimization -- RFO/linear search
 Second derivative matrix not updated -- first step.
 ITU=  0
     Eigenvalues ---    0.00604   0.00627   0.00731   0.00738   0.01408
     Eigenvalues ---    0.01419   0.01445   0.02696   0.02803   0.03077
     Eigenvalues ---    0.03086   0.04090   0.04330   0.04750   0.04755
     Eigenvalues ---    0.04862   0.04882   0.05050   0.05112   0.05244
     Eigenvalues ---    0.05298   0.05686   0.05861   0.06179   0.06208
     Eigenvalues ---    0.06564   0.06750   0.06916   0.07370   0.07854
     Eigenvalues ---    0.07944   0.07954   0.07978   0.08104   0.08157
     Eigenvalues ---    0.08257   0.08874   0.09409   0.10794   0.11593
     Eigenvalues ---    0.11705   0.11724   0.11758   0.12407   0.12535
     Eigenvalues ---    0.14540   0.14623   0.16118   0.16352   0.17425
     Eigenvalues ---    0.19053   0.21649   0.21823   0.25000   0.28553
     Eigenvalues ---    0.28609   0.28805   0.28880   0.28917   0.28964
     Eigenvalues ---    0.30369   0.30375   0.35034   0.35098   0.35105
     Eigenvalues ---    0.35135   0.35205   0.35207   0.35243   0.35251
     Eigenvalues ---    0.35264   0.35318   0.35405   0.35431   0.35506
     Eigenvalues ---    0.35778   0.35815   0.35852   0.35866   0.35939
     Eigenvalues ---    0.40701   0.41494   0.42247   0.42365   0.43721
     Eigenvalues ---    0.455781000.000001000.000001000.000001000.00000
     Eigenvalues --- 1000.000001000.000001000.000001000.000001000.00000
     Eigenvalues --- 1000.000001000.000001000.000001000.000001000.00000
     Eigenvalues --- 1000.000001000.000001000.000001000.000001000.00000
     Eigenvalues --- 1000.000001000.000001000.000001000.000001000.00000
     Eigenvalues --- 1000.000001000.000001000.000001000.000001000.00000
     Eigenvalues --- 1000.000001000.000001000.000001000.000001000.00000
     Eigenvalues --- 1000.000001000.000001000.000001000.000001000.00000
     Eigenvalues --- 1000.000001000.000001000.000001000.000001000.00000
     Eigenvalues --- 1000.000001000.000001000.000001000.000001000.00000
     Eigenvalues --- 1000.000001000.000001000.000001000.000001000.00000
     Eigenvalues --- 1000.000001000.000001000.000001000.000001000.00000
     Eigenvalues --- 1000.000001000.000001000.000001000.000001000.00000
     Eigenvalues --- 1000.000001000.000001000.000001000.000001000.00000
     Eigenvalues --- 1000.000001000.000001000.000001000.000001000.00000
     Eigenvalues --- 1000.000001000.000001000.000001000.000001000.00000
     Eigenvalues --- 1000.000001000.000001000.000001000.000001000.00000
     Eigenvalues --- 1000.000001000.000001000.000001000.000001000.00000
     Eigenvalues --- 1000.000001000.000001000.000001000.000001000.00000
     Eigenvalues --- 1000.000001000.000001000.000001000.000001000.00000
 RFO step:  Lambda=-3.86397105D-03 EMin= 6.04228572D-03
 Linear search not attempted -- first point.
 Iteration  1 RMS(Cart)=  0.04608802 RMS(Int)=  0.00052546
 Iteration  2 RMS(Cart)=  0.00186312 RMS(Int)=  0.00004517
 Iteration  3 RMS(Cart)=  0.00000140 RMS(Int)=  0.00004517
 Iteration  4 RMS(Cart)=  0.00000000 RMS(Int)=  0.00004517
 Iteration  1 RMS(Cart)=  0.00002525 RMS(Int)=  0.00000534
 Iteration  2 RMS(Cart)=  0.00001322 RMS(Int)=  0.00000597
 Iteration  3 RMS(Cart)=  0.00000692 RMS(Int)=  0.00000671
 Iteration  4 RMS(Cart)=  0.00000363 RMS(Int)=  0.00000718
 Iteration  5 RMS(Cart)=  0.00000190 RMS(Int)=  0.00000744
 Iteration  6 RMS(Cart)=  0.00000099 RMS(Int)=  0.00000758
 Variable       Old X    -DE/DX   Delta X   Delta X   Delta X     New X
                                 (Linear)    (Quad)   (Total)
    R1        2.87043  -0.00119   0.00000  -0.00370  -0.00368   2.86675
    R2        2.66746   0.00614   0.00000   0.01470   0.01472   2.68219
    R3        2.05456   0.00557   0.00000   0.01569   0.01569   2.07025
    R4        2.04292   0.00520   0.00000   0.01435   0.01435   2.05727
    R5        2.87377  -0.00127   0.00000  -0.00421  -0.00420   2.86957
    R6        2.64912   0.00712   0.00000   0.01545   0.01547   2.66459
    R7        2.64610   0.00631   0.00000   0.01372   0.01372   2.65982
    R8        2.04178   0.00782   0.00000   0.02152   0.02152   2.06330
    R9        2.68461   0.00330   0.00000   0.00771   0.00771   2.69233
   R10        2.89072  -0.00173   0.00000  -0.00667  -0.00669   2.88403
   R11        2.04431   0.00677   0.00000   0.01873   0.01873   2.06304
   R12        2.88851  -0.00106   0.00000  -0.00335  -0.00337   2.88515
   R13        2.87085  -0.00080   0.00000  -0.00255  -0.00256   2.86829
   R14        2.05516   0.00330   0.00000   0.00931   0.00931   2.06447
   R15        2.05281   0.00274   0.00000   0.00769   0.00769   2.06051
   R16        2.67617   0.00629   0.00000   0.01508   0.01510   2.69128
   R17        2.87416  -0.00060   0.00000  -0.00201  -0.00203   2.87213
   R18        2.04371   0.00447   0.00000   0.01235   0.01235   2.05607
   R19        2.05619   0.00569   0.00000   0.01605   0.01605   2.07225
   R20        2.88955  -0.00121   0.00000  -0.00404  -0.00404   2.88550
   R21        2.05344   0.00366   0.00000   0.01027   0.01027   2.06371
   R22        2.05162   0.00252   0.00000   0.00707   0.00707   2.05869
   R23        2.68857   0.00541   0.00000   0.01275   0.01276   2.70133
   R24        2.04314   0.00447   0.00000   0.01233   0.01233   2.05547
   R25        2.05023   0.00666   0.00000   0.01861   0.01861   2.06884
   R26        2.05340   0.00318   0.00000   0.00895   0.00895   2.06235
   R27        2.04981   0.00329   0.00000   0.00919   0.00919   2.05900
   R28        2.89144  -0.00114   0.00000  -0.00496  -0.00499   2.88645
   R29        2.05270   0.00268   0.00000   0.00751   0.00751   2.06020
   R30        2.05248   0.00375   0.00000   0.01052   0.01052   2.06300
   R31        2.04861   0.00391   0.00000   0.01088   0.01088   2.05949
   R32        2.05504   0.00342   0.00000   0.00964   0.00964   2.06468
    A1        1.95528   0.00021   0.00000   0.00004   0.00008   1.95536
    A2        1.90429  -0.00137   0.00000  -0.00658  -0.00662   1.89767
    A3        1.93013  -0.00039   0.00000  -0.00721  -0.00722   1.92292
    A4        1.91248   0.00138   0.00000   0.01002   0.01001   1.92249
    A5        1.86353  -0.00045   0.00000  -0.00104  -0.00107   1.86246
    A6        1.89706   0.00069   0.00000   0.00529   0.00526   1.90231
    A7        1.95344   0.00240   0.00000   0.00799   0.00768   1.96113
    A8        1.88876  -0.00275   0.00000  -0.01632  -0.01633   1.87243
    A9        1.92795  -0.00001   0.00000   0.00668   0.00672   1.93467
   A10        1.95401  -0.00061   0.00000  -0.01359  -0.01353   1.94048
   A11        1.82508  -0.00103   0.00000  -0.00098  -0.00096   1.82412
   A12        1.91435   0.00216   0.00000   0.01774   0.01780   1.93215
   A13        1.85928  -0.00018   0.00000  -0.00226  -0.00223   1.85705
   A14        1.91670   0.00123   0.00000   0.00348   0.00338   1.92008
   A15        1.88867  -0.00013   0.00000   0.00504   0.00505   1.89372
   A16        1.96383  -0.00096   0.00000  -0.01171  -0.01169   1.95215
   A17        1.90930   0.00083   0.00000   0.00750   0.00747   1.91677
   A18        1.92364  -0.00073   0.00000  -0.00141  -0.00141   1.92223
   A19        1.92231  -0.00053   0.00000  -0.00424  -0.00443   1.91789
   A20        1.91729   0.00077   0.00000   0.00166   0.00173   1.91902
   A21        1.93904  -0.00050   0.00000  -0.00075  -0.00073   1.93831
   A22        1.90652  -0.00010   0.00000  -0.00196  -0.00192   1.90460
   A23        1.90193   0.00020   0.00000   0.00038   0.00045   1.90238
   A24        1.87591   0.00017   0.00000   0.00508   0.00506   1.88097
   A25        1.93848   0.00089   0.00000   0.00597   0.00589   1.94437
   A26        1.85605  -0.00091   0.00000  -0.00294  -0.00291   1.85314
   A27        1.90101   0.00090   0.00000   0.00496   0.00502   1.90603
   A28        1.94622  -0.00034   0.00000  -0.00331  -0.00330   1.94293
   A29        1.92878  -0.00106   0.00000  -0.00747  -0.00746   1.92132
   A30        1.89100   0.00056   0.00000   0.00315   0.00312   1.89413
   A31        1.97761  -0.00418   0.00000  -0.02471  -0.02464   1.95297
   A32        1.91380   0.00254   0.00000   0.00070   0.00069   1.91450
   A33        1.91371  -0.00119   0.00000  -0.00313  -0.00318   1.91053
   A34        1.93054  -0.00037   0.00000   0.00152   0.00156   1.93210
   A35        1.92274  -0.00092   0.00000  -0.00404  -0.00406   1.91868
   A36        1.91563  -0.00085   0.00000  -0.00003  -0.00001   1.91562
   A37        1.86703   0.00071   0.00000   0.00499   0.00500   1.87203
   A38        1.94521   0.00163   0.00000   0.00327   0.00316   1.94837
   A39        1.94721  -0.00023   0.00000  -0.00210  -0.00204   1.94518
   A40        1.92950  -0.00111   0.00000  -0.00420  -0.00422   1.92529
   A41        1.84128  -0.00105   0.00000  -0.00121  -0.00121   1.84007
   A42        1.90998   0.00025   0.00000   0.00141   0.00148   1.91147
   A43        1.88779   0.00052   0.00000   0.00308   0.00306   1.89086
   A44        1.95537  -0.00109   0.00000  -0.01183  -0.01195   1.94342
   A45        1.87260  -0.00030   0.00000   0.00123   0.00127   1.87387
   A46        1.89989   0.00049   0.00000  -0.00273  -0.00272   1.89717
   A47        1.91077   0.00130   0.00000   0.00932   0.00939   1.92016
   A48        1.94720  -0.00044   0.00000  -0.00176  -0.00185   1.94536
   A49        1.87480   0.00009   0.00000   0.00662   0.00659   1.88139
   A50        1.92564  -0.00006   0.00000  -0.00633  -0.00639   1.91925
   A51        1.90571   0.00043   0.00000   0.00234   0.00239   1.90810
   A52        1.90681  -0.00048   0.00000  -0.00129  -0.00131   1.90550
   A53        1.92676  -0.00067   0.00000  -0.00024  -0.00023   1.92653
   A54        1.92543   0.00054   0.00000   0.00052   0.00054   1.92597
   A55        1.87257   0.00025   0.00000   0.00532   0.00531   1.87788
   A56        2.02490  -0.00560   0.00000  -0.03546  -0.03537   1.98953
   A57        2.07164  -0.01415   0.00000  -0.05573  -0.05573   2.01591
   A58        1.93919   0.00100   0.00000  -0.00883  -0.00892   1.93027
   A59        1.93637  -0.00078   0.00000  -0.00809  -0.00806   1.92830
   A60        1.87432  -0.00049   0.00000   0.00350   0.00351   1.87783
   A61        1.93738  -0.00006   0.00000   0.00191   0.00182   1.93920
   A62        1.91096  -0.00016   0.00000   0.00568   0.00571   1.91667
   A63        1.86281   0.00045   0.00000   0.00677   0.00676   1.86957
    D1       -1.18239   0.00153   0.00000   0.03152   0.03151  -1.15088
    D2        0.94890   0.00096   0.00000   0.01798   0.01797   0.96688
[...]
 00022317,-0.00002367,-0.00006265,0.00005479,0.00008163,-0.00000496,0.0
 0000260,0.00000034,0.00000650,0.00000722,-0.00000289,0.00018179,-0.000
 16385,-0.00012626,-0.00029930,-0.00008968,0.00017501,-0.00322133,-0.00
 102502,-0.00214884,0.00047775,-0.00023668,0.00077963,-0.00000205,0.000
 00030,0.00000011,-0.00000203,-0.00000117,-0.00000151,0.00019052,-0.000
 26876,0.00007402,0.00009575,-0.00019732,0.00018611,0.01500318,-0.02029
 929,0.00809238,0.03775884,-0.05336488,0.06759539,-0.00013795,-0.000247
 91,-0.00054764,-0.01144024,0.01814828,-0.00182489,0.00044681,0.0011414
 4,0.00090596,0.00106811,-0.00015892,-0.00060306,0.00008166,0.00004062,
 0.00001049,-0.00012363,0.00000889,0.00010925,0.01121155,-0.01790007,0.
 00614466,-0.00019738,-0.00017167,-0.00001566,-0.12646054,0.11464084,-0
 .03856745,0.00001259,-0.00004109,-0.00004249,0.00117377,-0.00041841,0.
 00087161,-0.00509187,-0.00085739,-0.00591492,-0.00007332,0.00007952,-0
 .00015769,-0.00016389,0.00015796,0.00001825,0.00001778,0.00000656,0.00
 001408,0.00042687,-0.00001357,0.00061626,-0.00009665,-0.00001789,-0.00
 023735,-0.00016418,0.00029221,-0.00025309,-0.00003010,0.00006863,-0.00
 027303,-0.00001650,0.00000071,0.00000660,-0.00000776,-0.00000399,-0.00
 001146,-0.00193515,-0.00330934,0.00204481,0.00109972,0.00084911,-0.000
 43456,0.00005715,0.00002587,0.00000792,-0.00003844,0.00002287,0.000026
 26,0.13918597,-0.00009956,-0.00006770,-0.00019077,-0.00542062,0.006183
 85,-0.00281784,-0.00028906,0.00061973,-0.00014261,0.00071984,0.0008795
 7,-0.00077344,0.00001499,0.00000856,0.00000072,-0.00001997,0.00000294,
 0.00003146,0.01216039,-0.02141045,0.00626106,-0.00031033,-0.00009399,0
 .00005115,0.11769817,-0.21524067,0.05495929,-0.00000129,-0.00001077,-0
 .00000164,-0.00025189,0.00035406,0.00054847,-0.00191067,0.00061548,-0.
 00216222,0.00003022,0.00002095,0.00003295,-0.00006159,0.00004921,-0.00
 000187,0.00000492,-0.00000348,0.00000017,0.00021636,0.00080159,0.00050
 113,0.00000131,-0.00000503,-0.00002475,-0.00021144,0.00041468,0.000414
 40,-0.00027520,0.00018828,-0.00016922,-0.00000294,-0.00000125,0.000001
 05,-0.00000066,-0.00000043,-0.00000265,-0.00357979,-0.00254129,0.00195
 079,0.00026402,0.00100827,-0.00056114,0.00006891,0.00003265,0.00006291
 ,0.00000294,-0.00003807,-0.00002449,-0.12333144,0.23547287,-0.00015145
 ,-0.00022071,-0.00048318,-0.01146625,0.02000377,-0.00637464,-0.0002630
 8,0.00095782,0.00105106,-0.00075932,0.00038017,0.00021577,0.00006436,0
 .00003150,0.00000447,-0.00009076,0.00000009,0.00008893,-0.00544269,0.0
 0790407,-0.00317251,-0.00009129,0.00004632,-0.00004756,-0.03578405,0.0
 5199429,-0.06694836,0.00000624,-0.00002659,-0.00003172,0.00036223,-0.0
 0027143,0.00117354,-0.00449766,-0.00113628,-0.00414234,-0.00006050,0.0
 0008154,-0.00014182,-0.00013343,0.00014098,0.00000294,0.00001967,0.000
 00684,0.00001177,0.00056971,-0.00023432,0.00086196,0.00002309,-0.00000
 756,-0.00007893,0.00014861,-0.00002123,-0.00002813,0.00007441,-0.00008
 821,0.00007592,-0.00001331,-0.00000020,0.00000522,-0.00000623,-0.00000
 294,-0.00000907,0.00107888,0.00142833,0.00021596,0.00017294,-0.0005253
 0,0.00045610,0.00000028,-0.00000208,-0.00003730,0.00000806,-0.00002629
 ,0.00004335,0.04253746,-0.06005914,0.06900419,0.00002671,0.00002968,0.
 00006456,0.01131608,-0.00499511,-0.01542384,0.00051421,-0.00010087,0.0
 0015354,-0.00166215,-0.00439854,0.00065763,0.,0.00000407,0.00000584,-0
 .00000104,-0.00000242,-0.00000656,-0.00957468,0.00733145,0.01486691,-0
 .00105244,-0.00086452,0.00009432,-0.12079279,0.04283545,0.11307676,-0.
 00000738,0.00001039,-0.00003121,-0.00121996,-0.00156878,-0.00663329,0.
 00034304,-0.00012133,-0.00018988,0.00000865,-0.00002588,0.00002638,0.0
 0001154,-0.00002050,-0.00000215,-0.00000328,-0.00000302,-0.00000070,0.
 00051530,0.00013910,0.00105822,0.00001556,-0.00004036,-0.00005566,0.00
 013282,-0.00009028,-0.00035086,-0.00031563,0.00029295,0.00146465,0.000
 00153,0.00000004,-0.00000062,0.00000127,-0.00000294,0.00000123,0.00097
 161,-0.00000422,-0.00043613,0.00030496,0.00060585,-0.00049859,0.000205
 96,0.00019381,0.00003289,0.00010236,0.00010245,-0.00001129,-0.00870422
 ,0.00459910,0.01376656,0.12880675,-0.00001753,-0.00002189,-0.00002597,
 0.00719456,-0.00420561,-0.00508402,-0.00024016,0.00005657,0.00009101,-
 0.00309609,-0.00398143,0.00096647,0.00000406,0.00000864,0.00000031,-0.
 00001629,-0.00000096,0.00000202,-0.01259179,0.00852046,0.02164910,-0.0
 0070189,-0.00077302,0.00002781,0.04181785,-0.07223489,-0.06752926,-0.0
 0000294,-0.00000160,-0.00001267,-0.00124910,0.00025147,-0.00348275,0.0
 0053216,0.00041757,0.00089775,-0.00000140,-0.00001089,-0.00001183,-0.0
 0001012,0.00000673,-0.00000439,0.00000038,-0.00000240,0.00000210,0.000
 07049,0.00009227,0.00048314,0.00003796,-0.00000295,0.00006744,-0.00012
 979,0.00017423,0.00005706,-0.00069330,0.00038879,0.00134012,-0.0000016
 0,0.00000055,0.00000145,-0.00000038,-0.00000235,0.00000049,0.00097553,
 0.00113451,-0.00035395,0.00068409,0.00086546,-0.00074749,0.00016098,0.
 00015130,-0.00002317,0.00010417,0.00010623,-0.00002362,0.01110555,-0.0
 0720301,-0.02025174,-0.04392348,0.07626219,-0.00000564,-0.00001076,-0.
 00000150,0.01461579,-0.00577090,-0.01772910,-0.00010086,-0.00000637,0.
 00030493,0.00096805,0.00216118,0.00093551,-0.00000884,-0.00000546,-0.0
 0000389,-0.00000709,0.00000656,0.00000779,0.00415823,-0.00232752,-0.00
 733643,-0.00063737,-0.00102167,0.00119446,0.10925677,-0.06502008,-0.22
 078788,0.00000496,0.00000797,-0.00000175,-0.00272344,-0.00208930,-0.00
 572715,0.00080718,0.00012075,0.00153483,0.00000806,-0.00003976,-0.0000
 0330,0.00000079,-0.00000182,-0.00000414,0.00000144,-0.00000054,-0.0000
 0410,-0.00036529,0.00004920,0.00059502,0.00008484,-0.00001040,0.000105
 81,0.00008160,-0.00015692,-0.00004002,0.00022054,-0.00036302,-0.000460
 77,-0.00000296,0.00000214,0.00000243,0.00000057,0.00000089,0.00000197,
 -0.00028498,-0.00010612,0.00025222,0.00003980,0.00022349,0.00044084,0.
 00008678,0.00006813,-0.00006913,0.00001549,0.00016522,-0.00007730,-0.0
 0448721,0.00211893,0.00824942,-0.12168263,0.07196825,0.23865414,-0.000
 95153,0.00045778,0.00065079,0.00047171,-0.00023075,-0.00000263,-0.0010
 2076,0.00169436,0.00390024,-0.00000364,-0.00000044,0.00000614,0.012341
 97,0.01228275,-0.00070415,-0.00018557,0.00617259,-0.00053296,-0.000006
 26,0.00000827,-0.00002162,0.00005395,0.00003572,-0.00002321,-0.0000351
 9,0.00003813,0.00003036,-0.14866399,-0.13025355,0.00353651,-0.00019726
 ,0.00001185,0.00010740,-0.00014786,0.00014949,0.00002903,-0.01159243,-
 0.01526576,-0.00004992,0.00010907,-0.00003140,-0.00008509,0.00017295,-
 0.00011527,-0.00020942,-0.00002778,-0.00002494,0.00004279,-0.00058868,
 -0.00122089,0.00006064,-0.00000641,0.00000083,-0.00000512,-0.00000810,
 -0.00000401,-0.00000092,0.00044748,-0.00093087,0.00037585,0.00060614,-
 0.00090871,-0.00024165,-0.00000039,0.00000088,0.00000058,-0.00001109,-
 0.00001070,-0.00000010,-0.00001659,0.00000016,0.00000967,0.00000366,0.
 00002525,-0.00000931,-0.00002900,-0.00000475,-0.00001985,0.00000341,-0
 .00000197,-0.00000228,0.15848358,0.00114565,0.00028982,-0.00168016,0.0
 0009579,-0.00008672,-0.00000521,0.00089722,0.00126900,-0.00052340,0.00
 000080,-0.00000390,0.00000150,-0.01966902,-0.01746031,0.00024082,0.002
 43119,-0.00807874,0.00142037,-0.00000074,0.00000167,-0.00000539,0.0000
 2576,0.00001483,-0.00001044,-0.00001483,0.00001556,0.00000718,-0.12860
 270,-0.21641645,0.00693729,-0.00006299,0.00001795,0.00002022,-0.000099
 47,0.00002347,-0.00018217,0.00256433,0.00342725,0.00029521,-0.00010624
 ,0.00000369,0.00021396,-0.00018543,0.00001719,0.00016397,-0.00001757,-
 0.00000592,0.00001591,0.00008627,0.00011763,-0.00018746,-0.00000101,0.
 00000120,-0.00000014,-0.00000231,-0.00000135,-0.00000029,0.00005656,0.
 00081010,-0.00053158,0.00005358,0.00112110,0.00043736,-0.00000050,0.00
 000098,0.00000025,-0.00000345,-0.00000261,-0.00000013,-0.00000302,-0.0
 0000143,0.00000220,-0.00000024,-0.00000207,-0.00000144,-0.00000935,-0.
 00000050,-0.00000757,-0.00000071,-0.00000136,0.00000062,0.14097869,0.2
 3349646,0.00026167,-0.00065344,-0.00005951,-0.00028940,0.00023251,0.00
 001841,0.00243929,-0.00210805,-0.00546139,0.00000709,-0.00000429,-0.00
 000270,0.00028947,0.00140970,-0.00202086,-0.00001862,-0.00025206,0.001
 42150,0.00000561,-0.00000636,0.00000935,-0.00004610,-0.00000436,0.0000
 2965,0.00003913,-0.00004854,-0.00001560,0.00254012,0.00498333,-0.04651
 648,0.00012259,-0.00001471,-0.00001803,0.00012416,-0.00014313,0.000821
 54,0.01700235,0.02343420,-0.00176531,-0.00009129,0.00001756,0.00001133
 ,-0.00007016,0.00007702,0.00010798,0.00000328,-0.00005147,-0.00000875,
 0.00087211,0.00152155,-0.00019448,0.00000559,0.00000034,0.00000476,0.0
 0000503,0.00000263,0.00000057,-0.00014559,0.00025078,0.00001766,0.0001
 7174,-0.00026437,0.00016493,0.00000207,-0.00000137,-0.00000072,0.00000
 691,0.00000508,0.00000116,0.00000945,-0.00000237,-0.00000597,-0.000012
 45,-0.00002380,0.00001031,0.00002195,0.00000409,0.00001730,0.00000494,
 0.00000140,-0.00000071,-0.00671843,-0.00662387,0.04965771,-0.00032040,
 0.00006644,0.00048867,0.00015898,-0.00044318,0.00017143,0.00063101,-0.
 00012539,-0.00073357,0.00000599,0.00000534,-0.00000193,-0.01371772,-0.
 00059357,-0.01633551,0.00206023,-0.00059881,0.00089728,0.00000981,-0.0
 0001007,0.00000464,0.00001869,-0.00000359,-0.00001242,0.00003023,0.000
 04133,-0.00000138,-0.12845175,-0.00020612,-0.12093782,-0.00000166,0.00
 009249,0.00004204,-0.00132099,-0.00063347,0.00033982,0.01241825,0.0004
 9590,0.01738705,-0.00010880,-0.00006081,-0.00006381,0.00005604,-0.0000
 1723,-0.00004786,0.00012441,0.00022627,-0.00004901,-0.00001126,0.00021
 697,-0.00011004,-0.00000048,0.00000100,0.00000084,0.00000042,-0.000000
 80,-0.00000162,0.00055870,-0.00068495,0.00023918,-0.00098943,0.0038931
 5,0.00008137,0.00000127,0.00000171,-0.00000033,0.00000100,0.00000136,-
 0.00000107,-0.00000071,0.00000369,-0.00000234,0.00000551,-0.00000307,-
 0.00000128,-0.00000033,-0.00000336,-0.00000796,0.00005163,-0.00000216,
 -0.00003446,-0.01050066,0.00084042,-0.01489222,0.14038421,-0.00002066,
 -0.00008272,0.00002650,-0.00001700,-0.00006171,-0.00001130,0.00013356,
 -0.00024369,0.00019517,0.00000139,0.00000350,-0.00000177,0.01792206,-0
 .00185905,0.02466323,-0.00059941,0.00292977,-0.00083249,0.00000290,0.0
 0000004,-0.00000240,-0.00000151,-0.00000659,0.00000195,0.00000844,-0.0
 0001018,0.00000529,-0.00251249,-0.04884421,-0.00123612,0.00003146,0.00
 001563,-0.00000693,-0.00060801,-0.00012734,0.00056796,-0.00112810,-0.0
 0060988,-0.00251776,0.00003880,0.00002630,-0.00003587,-0.00002513,0.00
 000969,0.00001867,0.00004795,-0.00002317,-0.00004342,0.00000917,0.0000
 1875,-0.00002741,0.00000052,-0.00000104,-0.00000086,0.00000142,0.00000
 057,0.00000005,-0.00098596,0.00122594,-0.00038928,0.00305439,-0.004370
 07,0.00056279,0.00000137,-0.00000146,0.00000207,0.00000100,0.00000150,
 0.00000072,0.00000167,0.00000151,-0.00000198,-0.00000015,0.00000198,0.
 00000070,0.00000725,-0.00000035,0.00000164,0.00000876,-0.00000249,-0.0
 0001063,-0.01339539,0.00089294,-0.02143301,-0.00240637,0.05008611,0.00
 017053,-0.00000118,-0.00001815,0.00035549,-0.00012151,0.00001155,-0.00
 141160,-0.00065048,-0.00035408,0.00000630,0.00000010,0.00000416,-0.000
 09014,-0.00009176,-0.00014839,0.00057963,0.00044492,-0.00006007,-0.000
 00066,-0.00001005,-0.00001767,0.00000042,0.00002931,0.00000463,0.00002
 550,-0.00000037,0.00002785,-0.12089670,0.00048435,-0.22902649,-0.00008
 063,-0.00001028,0.00012294,-0.00019518,0.00003009,0.00120993,-0.014116
 94,-0.00047025,-0.02318603,0.00000255,-0.00004204,-0.00001637,-0.00003
 769,0.00010096,0.00000693,0.00021461,0.00000161,-0.00005274,0.00018093
 ,0.00006834,0.00007995,0.00000020,0.00000075,0.00000022,-0.00000155,-0
 .00000113,-0.00000160,0.00000109,0.00056624,0.00076620,-0.00013068,-0.
 00031761,0.00124835,0.00000022,0.00000133,-0.00000027,-0.00000349,-0.0
 0000306,0.00000133,-0.00000750,-0.00000147,0.00000337,-0.00000520,-0.0
 0000022,0.00000040,0.00000307,-0.00000244,-0.00000382,0.00005307,-0.00
 000167,-0.00003090,0.00085318,-0.00083084,0.00144363,0.13092462,0.0008
 9168,0.25034027,-0.00277270,-0.00312134,0.00071348,-0.00144115,0.00025
 339,-0.00159984,0.01379414,-0.01605659,0.00073091,0.00001180,0.0000181
 2,-0.00004476,-0.00188503,-0.00175968,0.00462081,0.00068018,0.00069954
 ,-0.00066808,-0.00003063,-0.00002314,-0.00004033,-0.00000694,-0.000066
 65,0.00008670,-0.00002805,-0.00012101,0.00010728,-0.01138678,0.0147731
 9,-0.00215074,0.00004139,-0.00013306,-0.00022095,0.00096808,0.00191218
 ,0.00062146,-0.14224683,0.12924370,-0.00350679,0.00002781,-0.00000383,
 0.00004092,0.00058976,-0.00099788,-0.00013044,-0.00231952,-0.00110864,
 -0.00157591,0.00057069,0.00116360,-0.00017568,-0.00000329,-0.00000013,
 -0.00000096,0.00001069,0.00000473,0.00001414,-0.00050187,0.00142569,0.
 00009447,0.00022748,-0.00030835,-0.00001318,0.00000123,-0.00001277,0.0
 0000724,-0.00000864,-0.00001282,0.00000741,0.00001141,0.00000312,-0.00
 000319,-0.00000246,0.00001406,-0.00000700,0.00000740,-0.00000229,0.000
 01475,0.00000126,0.00000134,-0.00000107,0.00032252,-0.00027057,-0.0007
 0742,0.00083017,-0.00028244,-0.00014526,0.15541324,-0.00604341,-0.0029
 9120,0.00115173,0.00002454,-0.00060692,0.00025438,0.01818471,-0.022907
 88,0.00213818,0.00001424,0.00007011,-0.00000707,-0.00069553,0.00122037
 ,0.00000779,0.00061365,0.00059218,-0.00035629,0.00012292,-0.00001234,0
 .00015846,-0.00003286,-0.00020486,0.00014417,0.00004806,0.00043452,-0.
 00033263,-0.00056199,0.00102782,-0.00078451,0.00004840,0.00033175,0.00
 013764,0.00036129,0.00170996,0.00001771,0.12776619,-0.22386154,0.00495
 757,0.00002061,0.00022435,0.00008730,0.00117212,-0.00137975,-0.0003440
 6,-0.00013457,0.00102245,-0.00052574,-0.00001721,0.00108637,-0.0000306
 2,0.00000244,-0.00000777,-0.00000207,0.00002392,0.00000998,0.00000585,
 -0.00004737,0.00001064,0.00018182,0.00005535,-0.00005788,0.00011104,-0
 .00000869,0.00000980,-0.00000216,0.00005188,0.00005068,-0.00001898,0.0
 0001910,0.00002716,-0.00002466,0.00000463,0.00004169,-0.00001257,-0.00
 002379,-0.00002498,-0.00001920,0.00000315,0.00000776,0.00003086,0.0001
 9146,0.00038115,-0.00044888,0.00013448,0.00013843,-0.00017012,-0.13955
 068,0.24102841,0.00091154,0.00112978,0.00021831,-0.00093131,-0.0003798
 0,-0.00023944,-0.00292507,0.00090913,-0.00156014,0.00000425,0.00002631
 ,-0.00001780,0.00338025,0.00213563,-0.00508972,-0.00094759,-0.00012592
 ,0.00060934,0.00000642,-0.00001309,0.00002487,-0.00001233,-0.00009881,
 0.00005832,0.00005254,-0.00004711,-0.00006179,0.01673504,-0.02349226,0
 .00135665,0.00036392,0.00018514,-0.00021756,0.00036270,0.00020599,0.00
 028753,-0.00401587,0.00670576,-0.04805309,0.00030541,-0.00019085,0.000
 17735,-0.00018799,0.00036055,0.00032290,-0.00177969,-0.00061069,-0.001
 16191,-0.00042724,-0.00007807,-0.00002433,-0.00000109,-0.00000223,-0.0
 0000145,0.00001264,0.00000571,0.00000472,0.00091420,-0.00152938,0.0000
 8031,0.00015837,-0.00011657,0.00014060,0.00000275,0.00000198,-0.000003
 12,0.00000841,0.00001482,-0.00000099,0.00001605,0.00000982,-0.00001473
 ,-0.00000433,0.00001294,-0.00000190,0.00002448,0.00000023,0.00002603,-
 0.00000468,-0.00000407,0.00000116,-0.00076004,0.00053481,0.00109208,-0
 .00108066,0.00004658,0.00109537,0.00430743,-0.00705184,0.05129483,0.00
 017712,0.00118187,-0.00031194,0.00158799,-0.00123744,0.00001026,-0.010
 70151,0.00128268,-0.01484994,-0.00000006,-0.00005201,0.00000271,0.0013
 8079,-0.00024128,0.00015823,-0.00006912,-0.00021541,-0.00002980,-0.000
 04685,0.00003969,-0.00011369,0.00017103,0.00018049,-0.00009909,-0.0001
 2318,0.00004256,0.00012077,0.01142665,0.00170810,0.01821706,-0.0005194
 3,0.00001849,0.00027295,-0.00365035,-0.00365588,-0.00117548,-0.1326929
 5,-0.01060857,-0.12316920,0.00046141,0.00006406,0.00022626,0.00001265,
 -0.00000556,0.00030381,0.00009452,-0.00007769,0.00020586,0.00027050,0.
 00057849,0.00029383,-0.00000593,0.00000827,0.00000045,-0.00002573,-0.0
 0001048,-0.00000168,0.00005504,-0.00027016,-0.00008853,-0.00010822,-0.
 00027599,-0.00042436,-0.00000390,0.00001600,-0.00000376,-0.00005365,-0
 .00003151,0.00001001,-0.00003377,-0.00001166,0.00002752,-0.00000694,-0
 .00002107,-0.00000310,-0.00007823,-0.00000431,-0.00005942,-0.00000108,
 -0.00000914,-0.00000677,0.00097673,-0.00012613,-0.00094287,-0.00192236
 ,0.00071051,0.00375180,-0.01087538,-0.00174705,-0.01448852,0.14430419,
 0.00045241,0.00039907,-0.00046759,0.00149057,-0.00197171,0.00069627,-0
 .01435135,-0.00072577,-0.02303369,0.00000361,-0.00000416,0.00000150,-0
 .00058742,-0.00007050,-0.00069275,0.00011648,-0.00030198,0.00007138,0.
 00003339,0.00002181,0.00003211,0.00007989,0.00002227,-0.00002182,-0.00
 006611,0.00037949,-0.00011323,-0.00008572,-0.00081398,0.00018453,-0.00
 028750,0.00030555,0.00023091,-0.00579943,-0.00541260,-0.00164810,-0.00
 861236,-0.04936582,-0.01308053,0.00011581,-0.00056321,0.00003703,-0.00
 010768,0.00031831,0.00020306,0.00028388,0.00057389,-0.00003070,0.00026
 741,0.00112800,0.00043779,-0.00000493,0.00000274,0.00000029,-0.0000079
 1,-0.00000355,0.00000096,-0.00002207,0.00001485,0.00004962,0.00001250,
 0.00009322,-0.00004423,-0.00001589,0.00002701,-0.00000827,-0.00000795,
 0.00001281,-0.00000929,-0.00000867,0.00000775,0.00000330,-0.00001913,0
 .00001099,-0.00000634,-0.00009147,-0.00001075,-0.00007658,0.00000672,0
 .00000012,0.00001706,0.00035120,0.00015936,0.00014387,-0.00022761,0.00
 089131,0.00010680,0.01431921,0.00262951,0.02145551,0.01277011,0.052245
 98,-0.00035633,0.00056020,-0.00024837,0.00023056,-0.00001021,-0.000005
 58,0.00166536,-0.00022257,0.00075167,-0.00000078,0.00000051,0.00000209
 ,-0.00128290,0.00082402,0.00095720,0.00022362,-0.00046231,-0.00011150,
 0.00000521,0.00000613,-0.00000290,0.00000367,0.00000322,-0.00000615,-0
 .00002195,-0.00001062,-0.00000626,-0.01409097,-0.00171588,-0.02429203,
 -0.00000834,-0.00001443,0.00003791,0.00062210,0.00114872,0.00158662,-0
 .12332637,-0.01543937,-0.22217268,0.00026361,0.00008708,0.00024245,0.0
 0008732,-0.00010436,0.00018798,0.00011731,-0.00001154,0.00003451,-0.00
 007985,-0.00050459,0.00044819,-0.00000154,0.00000092,-0.00000090,-0.00
 000126,-0.00000063,0.00000053,0.00025149,0.00019555,0.00027016,0.00038
 203,-0.00050104,0.00039462,-0.00000047,-0.00000011,0.00000032,-0.00000
 043,-0.00000233,0.00000147,-0.00000424,-0.00000010,0.00000332,0.000002
 10,0.00000491,-0.00000247,0.00000738,-0.00000455,-0.00000455,0.0000005
 7,0.00000069,-0.00000248,-0.00021648,0.00029843,0.00124062,0.00373836,
 -0.00043376,-0.00345046,-0.00037541,0.00074687,-0.00034240,0.13216662,
 0.01556114,0.24448907\\-0.00001296,0.00000161,0.00000428,0.00117127,0.
 00103395,-0.00001946,0.00061725,0.00042668,-0.00058023,0.00000465,0.00
 000026,0.00000125,0.00000114,0.00000359,-0.00000025,0.00000689,-0.0000
 0827,-0.00001132,0.00001038,0.00000285,0.00000041,-0.00001077,-0.00001
 543,0.00000413,-0.00001110,-0.00000358,0.00000500,-0.00000584,0.000000
 22,0.00000243,-0.00065603,-0.00060415,-0.00017316,-0.00111068,-0.00084
 247,0.00078078,-0.00000311,-0.00000374,-0.00000694,0.00000212,0.000000
 54,0.00000145,0.00000006,0.00000022,-0.00000076,0.00000071,0.00000370,
 -0.00000234,0.00000292,0.00000104,-0.00000125,0.00000071,0.00000066,0.
 00000099,0.00000076,0.00000064,0.00000216,-0.00000062,0.00000053,-0.00
 000387,0.00000089,0.00000175,-0.00000296,-0.00000032,0.00000092,0.0000
 0424,0.00000008,0.00000248,0.00000027,0.00000057,-0.00000031,0.0000015
 5,-0.00000157,0.00000143,-0.00000194,-0.00000203,-0.00000044,-0.000000
 46,-0.00000305,-0.00000225,0.00000024,0.00000029,0.00000135,-0.0000014
 2,-0.00000211,-0.00000055,-0.00000153,-0.00000137,-0.00000158,-0.00000
 318,0.00000085,-0.00000162,0.00000192\\\@


 SEEN ON A WALL AT THE UNIVERSITY OF ILLINOIS AT CHICAGO CIRCLE:

 TO DO IS TO BE  -- SOCRATES
 TO BE IS TO DO  -- SARTRE
 OO BE DO BE DO  -- SINATRA
 Job cpu time:       0 days 13 hours 18 minutes  7.2 seconds.
 Elapsed time:       0 days  1 hours  6 minutes 46.7 seconds.
 File lengths (MBytes):  RWF=    721 Int=      0 D2E=      0 Chk=     34 Scr=      1
 Normal termination of Gaussian 16 at Fri Mar  8 23:05:49 2019.
