 Entering Gaussian System, Link 0=g16
 Initial command:
 /sw/Projects/G16/g16/l1.exe "/nvme/pbs/tmpdir/pbs.74202[19].flm1/Gau-10519.inp" -scrdir="/nvme/pbs/tmpdir/pbs.74202[19].flm1/"
 Entering Link 1 = /sw/Projects/G16/g16/l1.exe PID=     10520.
  
 Copyright (c) 1988-2017, Gaussian, Inc.  All Rights Reserved.
  
 This is part of the Gaussian(R) 16 program.  It is based on
 the Gaussian(R) 09 system (copyright 2009, Gaussian, Inc.),
 the Gaussian(R) 03 system (copyright 2003, Gaussian, Inc.),
 the Gaussian(R) 98 system (copyright 1998, Gaussian, Inc.),
 the Gaussian(R) 94 system (copyright 1995, Gaussian, Inc.),
 the Gaussian 92(TM) system (copyright 1992, Gaussian, Inc.),
 the Gaussian 90(TM) system (copyright 1990, Gaussian, Inc.),
 the Gaussian 88(TM) system (copyright 1988, Gaussian, Inc.),
 the Gaussian 86(TM) system (copyright 1986, Carnegie Mellon
 University), and the Gaussian 82(TM) system (copyright 1983,
 Carnegie Mellon University). Gaussian is a federally registered
 trademark of Gaussian, Inc.
  
 This software contains proprietary and confidential information,
 including trade secrets, belonging to Gaussian, Inc.
  
 This software is provided under written license and may be
 used, copied, transmitted, or stored only in accord with that
 written license.
  
 The following legend is applicable only to US Government
 contracts under FAR:
  
                    RESTRICTED RIGHTS LEGEND
  
 Use, reproduction and disclosure by the US Government is
 subject to restrictions as set forth in subparagraphs (a)
 and (c) of the Commercial Computer Software - Restricted
 Rights clause in FAR 52.227-19.
  
 Gaussian, Inc.
 340 Quinnipiac St., Bldg. 40, Wallingford CT 06492
  
  
 ---------------------------------------------------------------
 Warning -- This program may not be used in any manner that
 competes with the business of Gaussian, Inc. or will provide
 assistance to any competitor of Gaussian, Inc.  The licensee
 of this program is prohibited from giving any competitor of
 Gaussian, Inc. access to this program.  By using this program,
 the user acknowledges that Gaussian, Inc. is engaged in the
 business of creating and licensing software in the field of
 computational chemistry and represents and warrants to the
 licensee that it is not a competitor of Gaussian, Inc. and that
 it will not use this program in any manner prohibited above.
 ---------------------------------------------------------------
  

 Cite this work as:
 Gaussian 16, Revision B.01,
 M. J. Frisch, G. W. Trucks, H. B. Schlegel, G. E. Scuseria, 
 M. A. Robb, J. R. Cheeseman, G. Scalmani, V. Barone, 
 G. A. Petersson, H. Nakatsuji, X. Li, M. Caricato, A. V. Marenich, 
 J. Bloino, B. G. Janesko, R. Gomperts, B. Mennucci, H. P. Hratchian, 
 J. V. Ortiz, A. F. Izmaylov, J. L. Sonnenberg, D. Williams-Young, 
 F. Ding, F. Lipparini, F. Egidi, J. Goings, B. Peng, A. Petrone, 
 T. Henderson, D. Ranasinghe, V. G. Zakrzewski, J. Gao, N. Rega, 
 G. Zheng, W. Liang, M. Hada, M. Ehara, K. Toyota, R. Fukuda, 
 J. Hasegawa, M. Ishida, T. Nakajima, Y. Honda, O. Kitao, H. Nakai, 
 T. Vreven, K. Throssell, J. A. Montgomery, Jr., J. E. Peralta, 
 F. Ogliaro, M. J. Bearpark, J. J. Heyd, E. N. Brothers, K. N. Kudin, 
 V. N. Staroverov, T. A. Keith, R. Kobayashi, J. Normand, 
 K. Raghavachari, A. P. Rendell, J. C. Burant, S. S. Iyengar, 
 J. Tomasi, M. Cossi, J. M. Millam, M. Klene, C. Adamo, R. Cammi, 
 J. W. Ochterski, R. L. Martin, K. Morokuma, O. Farkas, 
 J. B. Foresman, and D. J. Fox, Gaussian, Inc., Wallingford CT, 2016.
 
 ******************************************
 Gaussian 16:  ES64L-G16RevB.01 20-Dec-2017
                 8-Mar-2019 
 ******************************************
 %mem=20gb
 %nproc=12
 Will use up to   12 processors via shared memory.
 %chk=4c1_a1_a4_4c1_PHI.inp_extract_19.chk
 ----------------------------------------------------------------------
 #M062X/6-311++G(2d,2p) opt=ModRedundant freq=noraman SCRF=(SMD,solvent
 =water)
 ----------------------------------------------------------------------
 1/18=120,19=15,26=3,38=1/1,3;
 2/9=110,12=2,17=6,18=5,40=1/2;
 3/5=4,6=6,7=1212,11=2,25=1,30=1,70=32201,71=1,72=1,74=-55/1,2,3;
 4//1;
 5/5=2,38=5,53=1/2;
 6/7=2,8=2,9=2,10=2,28=1/1;
 7//1,2,3,16;
 1/18=20,19=15,26=3/3(2);
 2/9=110/2;
 99//99;
 2/9=110/2;
 3/5=4,6=6,7=1212,11=2,25=1,30=1,70=32205,71=1,72=1,74=-55/1,2,3;
 4/5=5,16=3,69=1/1;
 5/5=2,38=5,53=1/2;
 7//1,2,3,16;
 1/18=20,19=15,26=3/3(-5);
 2/9=110/2;
 6/7=2,8=2,9=2,10=2,19=2,28=1/1;
 99/9=1/99;
 --------------------------------
 4c1_a1_a4_4c1_PHI.inp_extract_19
 --------------------------------
 Symbolic Z-matrix:
 Charge =  0 Multiplicity = 1
 C                    -1.7028    1.04653  -1.02049 
 C                     1.1101   -0.1145    1.07097 
 C                    -0.79941  -0.08326  -0.55109 
 C                     3.44077  -0.09622  -0.67752 
 C                    -3.60886   0.17785   0.06722 
 O                    -2.75989   1.29588  -0.11893 
 C                     2.82077   1.22715  -0.24006 
 C                     2.36596  -1.16345  -0.77184 
 C                     2.13593   1.01109   1.10516 
 C                    -2.83487  -1.00625   0.62446 
 O                     1.55694  -1.25753   0.40134 
 O                    -0.13702   0.37763   0.61418 
 C                    -1.63746  -1.3327   -0.27139 
 H                    -2.11134   0.79077  -1.99539 
 H                    -1.14421   1.96761  -1.10952 
 H                     0.92212  -0.45439   2.0789 
 H                    -0.08834  -0.27576  -1.33833 
 H                     4.20045  -0.39721   0.03969 
 H                     3.9223   -0.01186  -1.64734 
 H                    -4.38875   0.49697   0.7452 
 H                    -4.06751  -0.07934  -0.88548 
 H                     2.10458   1.5678   -0.98463 
 H                     3.57961   1.99799  -0.14964 
 H                     2.79842  -2.14755  -0.88691 
 H                     1.73633  -0.97588  -1.63191 
 H                     2.88834   0.7443    1.84313 
 H                     1.64099   1.90803   1.45975 
 H                    -3.49728  -1.86414   0.69734 
 H                    -2.49968  -0.77168   1.63057 
 H                    -1.02278  -2.10546   0.17456 
 H                    -1.99426  -1.71554  -1.22526 
 
 The following ModRedundant input section has been read:
 D      11       2      12       3 F                                           
 

 GradGradGradGradGradGradGradGradGradGradGradGradGradGradGradGradGradGrad
 Berny optimization.
 Initialization pass.
                           ----------------------------
                           !    Initial Parameters    !
                           ! (Angstroms and Degrees)  !
 --------------------------                            --------------------------
 ! Name  Definition              Value          Derivative Info.                !
 --------------------------------------------------------------------------------
 ! R1    R(1,3)                  1.5208         estimate D2E/DX2                !
 ! R2    R(1,6)                  1.4115         estimate D2E/DX2                !
 ! R3    R(1,14)                 1.0875         estimate D2E/DX2                !
 ! R4    R(1,15)                 1.0809         estimate D2E/DX2                !
 ! R5    R(2,9)                  1.5233         estimate D2E/DX2                !
 ! R6    R(2,11)                 1.3981         estimate D2E/DX2                !
 ! R7    R(2,12)                 1.4164         estimate D2E/DX2                !
 ! R8    R(2,16)                 1.0802         estimate D2E/DX2                !
 ! R9    R(3,12)                 1.4174         estimate D2E/DX2                !
 ! R10   R(3,13)                 1.5302         estimate D2E/DX2                !
 ! R11   R(3,17)                 1.0782         estimate D2E/DX2                !
 ! R12   R(4,7)                  1.5255         estimate D2E/DX2                !
 ! R13   R(4,8)                  1.5176         estimate D2E/DX2                !
 ! R14   R(4,18)                 1.0872         estimate D2E/DX2                !
 ! R15   R(4,19)                 1.0861         estimate D2E/DX2                !
 ! R16   R(5,6)                  1.4161         estimate D2E/DX2                !
 ! R17   R(5,10)                 1.5204         estimate D2E/DX2                !
 ! R18   R(5,20)                 1.0815         estimate D2E/DX2                !
 ! R19   R(5,21)                 1.0882         estimate D2E/DX2                !
 ! R20   R(7,9)                  1.5249         estimate D2E/DX2                !
 ! R21   R(7,22)                 1.0878         estimate D2E/DX2                !
 ! R22   R(7,23)                 1.0854         estimate D2E/DX2                !
 ! R23   R(8,11)                 1.4282         estimate D2E/DX2                !
 ! R24   R(8,24)                 1.0811         estimate D2E/DX2                !
 ! R25   R(8,25)                 1.0823         estimate D2E/DX2                !
 ! R26   R(9,26)                 1.0872         estimate D2E/DX2                !
 ! R27   R(9,27)                 1.0841         estimate D2E/DX2                !
 ! R28   R(10,13)                1.5307         estimate D2E/DX2                !
 ! R29   R(10,28)                1.0863         estimate D2E/DX2                !
 ! R30   R(10,29)                1.0861         estimate D2E/DX2                !
 ! R31   R(13,30)                1.0834         estimate D2E/DX2                !
 ! R32   R(13,31)                1.088          estimate D2E/DX2                !
 ! A1    A(3,1,6)              112.2691         estimate D2E/DX2                !
 ! A2    A(3,1,14)             108.9731         estimate D2E/DX2                !
 ! A3    A(3,1,15)             110.5783         estimate D2E/DX2                !
 ! A4    A(6,1,14)             109.437          estimate D2E/DX2                !
 ! A5    A(6,1,15)             106.8034         estimate D2E/DX2                !
 ! A6    A(14,1,15)            108.7052         estimate D2E/DX2                !
 ! A7    A(9,2,11)             113.5553         estimate D2E/DX2                !
 ! A8    A(9,2,12)             110.0873         estimate D2E/DX2                !
 ! A9    A(9,2,16)             109.1939         estimate D2E/DX2                !
 ! A10   A(11,2,12)            114.2685         estimate D2E/DX2                !
 ! A11   A(11,2,16)            104.1989         estimate D2E/DX2                !
 ! A12   A(12,2,16)            104.8941         estimate D2E/DX2                !
 ! A13   A(1,3,12)             106.8452         estimate D2E/DX2                !
 ! A14   A(1,3,13)             109.7343         estimate D2E/DX2                !
 ! A15   A(1,3,17)             107.4003         estimate D2E/DX2                !
 ! A16   A(12,3,13)            111.7872         estimate D2E/DX2                !
 ! A17   A(12,3,17)            110.4949         estimate D2E/DX2                !
 ! A18   A(13,3,17)            110.4184         estimate D2E/DX2                !
 ! A19   A(7,4,8)              109.8796         estimate D2E/DX2                !
 ! A20   A(7,4,18)             109.5707         estimate D2E/DX2                !
 ! A21   A(7,4,19)             111.6476         estimate D2E/DX2                !
 ! A22   A(8,4,18)             109.9477         estimate D2E/DX2                !
 ! A23   A(8,4,19)             108.2486         estimate D2E/DX2                !
 ! A24   A(18,4,19)            107.5033         estimate D2E/DX2                !
 ! A25   A(6,5,10)             110.9685         estimate D2E/DX2                !
 ! A26   A(6,5,20)             106.3651         estimate D2E/DX2                !
 ! A27   A(6,5,21)             108.9166         estimate D2E/DX2                !
 ! A28   A(10,5,20)            111.5386         estimate D2E/DX2                !
 ! A29   A(10,5,21)            110.5707         estimate D2E/DX2                !
 ! A30   A(20,5,21)            108.3383         estimate D2E/DX2                !
 ! A31   A(1,6,5)              113.1698         estimate D2E/DX2                !
 ! A32   A(4,7,9)              108.2156         estimate D2E/DX2                !
 ! A33   A(4,7,22)             110.0572         estimate D2E/DX2                !
 ! A34   A(4,7,23)             110.8439         estimate D2E/DX2                !
 ! A35   A(9,7,22)             110.6401         estimate D2E/DX2                !
 ! A36   A(9,7,23)             109.9446         estimate D2E/DX2                !
 ! A37   A(22,7,23)            107.1514         estimate D2E/DX2                !
 ! A38   A(4,8,11)             113.3574         estimate D2E/DX2                !
 ! A39   A(4,8,24)             111.313          estimate D2E/DX2                !
 ! A40   A(4,8,25)             109.8481         estimate D2E/DX2                !
 ! A41   A(11,8,24)            104.7189         estimate D2E/DX2                !
 ! A42   A(11,8,25)            109.552          estimate D2E/DX2                !
 ! A43   A(24,8,25)            107.8118         estimate D2E/DX2                !
 ! A44   A(2,9,7)              112.7893         estimate D2E/DX2                !
 ! A45   A(2,9,26)             107.4563         estimate D2E/DX2                !
 ! A46   A(2,9,27)             108.1345         estimate D2E/DX2                !
 ! A47   A(7,9,26)             108.8307         estimate D2E/DX2                !
 ! A48   A(7,9,27)             112.1087         estimate D2E/DX2                !
 ! A49   A(26,9,27)            107.2765         estimate D2E/DX2                !
 ! A50   A(5,10,13)            110.4769         estimate D2E/DX2                !
 ! A51   A(5,10,28)            109.2206         estimate D2E/DX2                !
 ! A52   A(5,10,29)            109.1726         estimate D2E/DX2                !
 ! A53   A(13,10,28)           110.3562         estimate D2E/DX2                !
 ! A54   A(13,10,29)           110.2917         estimate D2E/DX2                !
 ! A55   A(28,10,29)           107.2536         estimate D2E/DX2                !
 ! A56   A(2,11,8)             121.3751         estimate D2E/DX2                !
 ! A57   A(2,12,3)             124.3078         estimate D2E/DX2                !
 ! A58   A(3,13,10)            111.1776         estimate D2E/DX2                !
 ! A59   A(3,13,30)            110.2968         estimate D2E/DX2                !
 ! A60   A(3,13,31)            107.8581         estimate D2E/DX2                !
 ! A61   A(10,13,30)           110.7955         estimate D2E/DX2                !
 ! A62   A(10,13,31)           109.3676         estimate D2E/DX2                !
 ! A63   A(30,13,31)           107.2139         estimate D2E/DX2                !
 ! D1    D(6,1,3,12)           -67.2598         estimate D2E/DX2                !
 ! D2    D(6,1,3,13)            54.1135         estimate D2E/DX2                !
 ! D3    D(6,1,3,17)           174.1689         estimate D2E/DX2                !
 ! D4    D(14,1,3,12)          171.3384         estimate D2E/DX2                !
 ! D5    D(14,1,3,13)          -67.2882         estimate D2E/DX2                !
 ! D6    D(14,1,3,17)           52.7672         estimate D2E/DX2                !
 ! D7    D(15,1,3,12)           51.9115         estimate D2E/DX2                !
 ! D8    D(15,1,3,13)          173.2848         estimate D2E/DX2                !
 ! D9    D(15,1,3,17)          -66.6598         estimate D2E/DX2                !
 ! D10   D(3,1,6,5)            -60.4127         estimate D2E/DX2                !
 ! D11   D(14,1,6,5)            60.7229         estimate D2E/DX2                !
 ! D12   D(15,1,6,5)           178.227          estimate D2E/DX2                !
 ! D13   D(11,2,9,7)            44.2825         estimate D2E/DX2                !
 ! D14   D(11,2,9,26)          -75.6595         estimate D2E/DX2                !
 ! D15   D(11,2,9,27)          168.836          estimate D2E/DX2                !
 ! D16   D(12,2,9,7)           -85.2744         estimate D2E/DX2                !
 ! D17   D(12,2,9,26)          154.7836         estimate D2E/DX2                !
 ! D18   D(12,2,9,27)           39.279          estimate D2E/DX2                !
 ! D19   D(16,2,9,7)           160.0742         estimate D2E/DX2                !
 ! D20   D(16,2,9,26)           40.1322         estimate D2E/DX2                !
 ! D21   D(16,2,9,27)          -75.3723         estimate D2E/DX2                !
 ! D22   D(9,2,11,8)           -37.6353         estimate D2E/DX2                !
 ! D23   D(12,2,11,8)           89.777          estimate D2E/DX2                !
 ! D24   D(16,2,11,8)         -156.3376         estimate D2E/DX2                !
 ! D25   D(9,2,12,3)           119.3162         estimate D2E/DX2                !
 ! D26   D(11,2,12,3)           -9.8552         Frozen                          !
 ! D27   D(16,2,12,3)         -123.3293         estimate D2E/DX2                !
 ! D28   D(1,3,12,2)          -155.1448         estimate D2E/DX2                !
 ! D29   D(13,3,12,2)           84.7916         estimate D2E/DX2                !
 ! D30   D(17,3,12,2)          -38.6101         estimate D2E/DX2                !
 ! D31   D(1,3,13,10)          -49.9749         estimate D2E/DX2                !
 ! D32   D(1,3,13,30)         -173.2899         estimate D2E/DX2                !
 ! D33   D(1,3,13,31)           69.924          estimate D2E/DX2                !
 ! D34   D(12,3,13,10)          68.3805         estimate D2E/DX2                !
 ! D35   D(12,3,13,30)         -54.9345         estimate D2E/DX2                !
 ! D36   D(12,3,13,31)        -171.7206         estimate D2E/DX2                !
 ! D37   D(17,3,13,10)        -168.1746         estimate D2E/DX2                !
 ! D38   D(17,3,13,30)          68.5104         estimate D2E/DX2                !
 ! D39   D(17,3,13,31)         -48.2757         estimate D2E/DX2                !
 ! D40   D(8,4,7,9)             58.3154         estimate D2E/DX2                !
 ! D41   D(8,4,7,22)           -62.6956         estimate D2E/DX2                !
 ! D42   D(8,4,7,23)           178.9495         estimate D2E/DX2                !
 ! D43   D(18,4,7,9)           -62.5867         estimate D2E/DX2                !
 ! D44   D(18,4,7,22)          176.4022         estimate D2E/DX2                !
 ! D45   D(18,4,7,23)           58.0473         estimate D2E/DX2                !
 ! D46   D(19,4,7,9)           178.4322         estimate D2E/DX2                !
 ! D47   D(19,4,7,22)           57.4211         estimate D2E/DX2                !
 ! D48   D(19,4,7,23)          -60.9338         estimate D2E/DX2                !
 ! D49   D(7,4,8,11)           -50.9874         estimate D2E/DX2                !
 ! D50   D(7,4,8,24)          -168.7339         estimate D2E/DX2                !
 ! D51   D(7,4,8,25)            71.9311         estimate D2E/DX2                !
 ! D52   D(18,4,8,11)           69.6875         estimate D2E/DX2                !
 ! D53   D(18,4,8,24)          -48.059          estimate D2E/DX2                !
 ! D54   D(18,4,8,25)         -167.394          estimate D2E/DX2                !
 ! D55   D(19,4,8,11)         -173.1465         estimate D2E/DX2                !
 ! D56   D(19,4,8,24)           69.1069         estimate D2E/DX2                !
 ! D57   D(19,4,8,25)          -50.228          estimate D2E/DX2                !
 ! D58   D(10,5,6,1)            60.2848         estimate D2E/DX2                !
 ! D59   D(20,5,6,1)          -178.2283         estimate D2E/DX2                !
 ! D60   D(21,5,6,1)           -61.6597         estimate D2E/DX2                !
 ! D61   D(6,5,10,13)          -54.922          estimate D2E/DX2                !
 ! D62   D(6,5,10,28)         -176.4846         estimate D2E/DX2                !
 ! D63   D(6,5,10,29)           66.5291         estimate D2E/DX2                !
 ! D64   D(20,5,10,13)        -173.3236         estimate D2E/DX2                !
 ! D65   D(20,5,10,28)          65.1138         estimate D2E/DX2                !
 ! D66   D(20,5,10,29)         -51.8726         estimate D2E/DX2                !
 ! D67   D(21,5,10,13)          66.0521         estimate D2E/DX2                !
 ! D68   D(21,5,10,28)         -55.5104         estimate D2E/DX2                !
 ! D69   D(21,5,10,29)        -172.4968         estimate D2E/DX2                !
 ! D70   D(4,7,9,2)            -55.5944         estimate D2E/DX2                !
 ! D71   D(4,7,9,26)            63.553          estimate D2E/DX2                !
 ! D72   D(4,7,9,27)          -177.9432         estimate D2E/DX2                !
 ! D73   D(22,7,9,2)            65.0545         estimate D2E/DX2                !
 ! D74   D(22,7,9,26)         -175.7981         estimate D2E/DX2                !
 ! D75   D(22,7,9,27)          -57.2944         estimate D2E/DX2                !
 ! D76   D(23,7,9,2)          -176.7868         estimate D2E/DX2                !
 ! D77   D(23,7,9,26)          -57.6394         estimate D2E/DX2                !
 ! D78   D(23,7,9,27)           60.8644         estimate D2E/DX2                !
 ! D79   D(4,8,11,2)            41.7489         estimate D2E/DX2                !
 ! D80   D(24,8,11,2)          163.2683         estimate D2E/DX2                !
 ! D81   D(25,8,11,2)          -81.3329         estimate D2E/DX2                !
 ! D82   D(5,10,13,3)           50.9391         estimate D2E/DX2                !
 ! D83   D(5,10,13,30)         173.9681         estimate D2E/DX2                !
 ! D84   D(5,10,13,31)         -68.0593         estimate D2E/DX2                !
 ! D85   D(28,10,13,3)         171.8277         estimate D2E/DX2                !
 ! D86   D(28,10,13,30)        -65.1433         estimate D2E/DX2                !
 ! D87   D(28,10,13,31)         52.8293         estimate D2E/DX2                !
 ! D88   D(29,10,13,3)         -69.847          estimate D2E/DX2                !
 ! D89   D(29,10,13,30)         53.1821         estimate D2E/DX2                !
 ! D90   D(29,10,13,31)        171.1546         estimate D2E/DX2                !
 --------------------------------------------------------------------------------
 Trust Radius=3.00D-01 FncErr=1.00D-07 GrdErr=1.00D-06 EigMax=2.50D+02 EigMin=1.00D-04
 Number of steps in this run=    186 maximum allowed number of steps=    186.
 GradGradGradGradGradGradGradGradGradGradGradGradGradGradGradGradGradGrad

                          Input orientation:                          
 ---------------------------------------------------------------------
 Center     Atomic      Atomic             Coordinates (Angstroms)
 Number     Number       Type             X           Y           Z
 ---------------------------------------------------------------------
      1          6           0       -1.702801    1.046526   -1.020488
      2          6           0        1.110104   -0.114495    1.070974
      3          6           0       -0.799413   -0.083259   -0.551093
      4          6           0        3.440770   -0.096215   -0.677524
      5          6           0       -3.608863    0.177854    0.067224
      6          8           0       -2.759894    1.295881   -0.118930
      7          6           0        2.820774    1.227151   -0.240060
      8          6           0        2.365960   -1.163451   -0.771835
      9          6           0        2.135931    1.011086    1.105157
     10          6           0       -2.834869   -1.006247    0.624459
     11          8           0        1.556944   -1.257531    0.401343
     12          8           0       -0.137023    0.377628    0.614179
     13          6           0       -1.637463   -1.332699   -0.271393
     14          1           0       -2.111344    0.790769   -1.995391
     15          1           0       -1.144207    1.967613   -1.109515
     16          1           0        0.922122   -0.454389    2.078903
     17          1           0       -0.088335   -0.275761   -1.338331
     18          1           0        4.200447   -0.397209    0.039686
     19          1           0        3.922303   -0.011859   -1.647338
     20          1           0       -4.388753    0.496967    0.745201
     21          1           0       -4.067513   -0.079339   -0.885478
     22          1           0        2.104579    1.567802   -0.984629
     23          1           0        3.579610    1.997991   -0.149644
     24          1           0        2.798421   -2.147554   -0.886911
     25          1           0        1.736332   -0.975883   -1.631909
     26          1           0        2.888342    0.744298    1.843127
     27          1           0        1.640994    1.908026    1.459753
     28          1           0       -3.497282   -1.864137    0.697336
     29          1           0       -2.499676   -0.771678    1.630573
     30          1           0       -1.022782   -2.105456    0.174561
     31          1           0       -1.994258   -1.715544   -1.225257
 ---------------------------------------------------------------------
                    Distance matrix (angstroms):
                    1          2          3          4          5
     1  C    0.000000
     2  C    3.692508   0.000000
     3  C    1.520808   2.505660   0.000000
     4  C    5.280133   2.913689   4.242087   0.000000
     5  C    2.360250   4.833387   2.888513   7.094159   0.000000
     6  O    1.411535   4.287414   2.435627   6.379514   1.416117
     7  C    4.593955   2.538743   3.862599   1.525473   6.521938
     8  C    4.636879   2.464433   3.351884   1.517598   6.180747
     9  C    4.388107   1.523293   3.543586   2.471168   5.896969
    10  C    2.863792   4.069080   2.525255   6.473559   1.520419
    11  O    4.237478   1.398071   2.799726   2.461993   5.371920
    12  O    2.360344   1.416394   1.417405   3.833227   3.520333
    13  C    2.495220   3.291670   1.530248   5.242355   2.506561
    14  H    1.087545   4.538703   2.138009   5.774901   2.621566
    15  H    1.080904   3.764522   2.153322   5.046585   3.265345
    16  H    4.330034   1.080179   3.165170   3.750969   4.997640
    17  H    2.110916   2.695740   1.078162   3.594925   3.817783
    18  H    6.169009   3.270123   5.044421   1.087243   7.830503
    19  H    5.758030   3.912572   4.847830   1.086061   7.726201
    20  H    3.260983   5.542332   3.860104   7.979815   1.081533
    21  H    2.622530   5.535039   3.285165   7.511181   1.088186
    22  H    3.843066   2.836302   3.368549   2.156078   5.973422
    23  H    5.437602   3.471450   4.865039   2.164170   7.418495
    24  H    5.520959   3.288929   4.161550   2.159733   6.882673
    25  H    4.036287   2.905121   2.897403   2.142376   5.726192
    26  H    5.419430   2.120348   4.474000   2.713912   6.759317
    27  H    4.251440   2.126872   3.736884   3.438623   5.700318
    28  H    3.826623   4.942556   3.465342   7.290566   2.139911
    29  H    3.311948   3.711543   2.850348   6.408780   2.139151
    30  H    3.438831   3.052324   2.160034   4.968540   3.451498
    31  H    2.784943   4.180084   2.132254   5.697523   2.803999
                    6          7          8          9         10
     6  O    0.000000
     7  C    5.582406   0.000000
     8  C    5.722672   2.490907   0.000000
     9  C    5.054562   1.524894   2.881774   0.000000
    10  C    2.420339   6.141804   5.387297   5.386052   0.000000
    11  O    5.042389   2.860474   1.428182   2.444832   4.404650
    12  O    2.874037   3.193740   3.249751   2.410114   3.032093
    13  C    2.862259   5.140982   4.038129   4.650454   1.530654
    14  H    2.048624   5.253323   5.036101   5.263201   3.258277
    15  H    2.010703   4.126174   4.715810   4.071734   3.835211
    16  H    4.631539   3.436575   3.273247   2.137552   4.066317
    17  H    3.330799   3.453673   2.670669   3.545979   3.453926
    18  H    7.165058   2.149489   2.147332   2.716753   7.085800
    19  H    6.978393   2.174613   2.124823   3.437117   7.197864
    20  H    2.009519   7.313083   7.119307   6.554799   2.165361
    21  H    2.046630   7.040737   6.525166   6.605632   2.158351
    22  H    4.948381   1.087824   2.751971   2.162896   5.797675
    23  H    6.378339   1.085450   3.443078   2.152375   7.125323
    24  H    6.583457   3.436212   1.081075   3.792655   5.943129
    25  H    5.259854   2.822520   1.082285   3.405768   5.097842
    26  H    6.004705   2.139481   3.278783   1.087151   6.107758
    27  H    4.715377   2.178264   3.865169   1.084067   5.405928
    28  H    3.346004   7.095957   6.084984   6.337690   1.086314
    29  H    2.720896   5.983458   5.440539   4.994313   1.086113
    30  H    3.830508   5.104028   3.642336   4.533907   2.166640
    31  H    3.298308   5.728403   4.418359   5.470265   2.152017
                   11         12         13         14         15
    11  O    0.000000
    12  O    2.364015   0.000000
    13  C    3.265342   2.441470   0.000000
    14  H    4.836962   3.298255   2.775941   0.000000
    15  H    4.469951   2.552174   3.440612   1.762127   0.000000
    16  H    1.965259   1.989838   3.584243   5.229934   4.505754
    17  H    2.587911   2.059510   2.157608   2.379449   2.489970
    18  H    2.803401   4.443429   5.920566   6.737324   5.956372
    19  H    3.368043   4.663077   5.877826   6.096741   5.465994
    20  H    6.208689   4.255422   3.456984   3.575438   4.016198
    21  H    5.888851   4.231612   2.802348   2.411554   3.575741
    22  H    3.194265   2.999580   4.787953   4.404478   3.275676
    23  H    3.872104   4.125817   6.190813   6.103370   4.820448
    24  H    1.998250   4.152908   4.551914   5.828230   5.703373
    25  H    2.060490   3.222788   3.655245   4.249446   4.151454
    26  H    2.803334   3.285969   5.409993   6.303431   5.145488
    27  H    3.338869   2.493684   4.924170   5.221717   3.789727
    28  H    5.099096   4.040268   2.163282   4.027422   4.846027
    29  H    4.266524   2.817107   2.162321   3.967324   4.104765
    30  H    2.724957   2.672740   1.083449   3.779124   4.272410
    31  H    3.932765   3.348763   1.087993   2.624580   3.781749
                   16         17         18         19         20
    16  H    0.000000
    17  H    3.567971   0.000000
    18  H    3.861229   4.506366   0.000000
    19  H    4.804351   4.031172   1.752686   0.000000
    20  H    5.557808   4.840641   8.664390   8.663533   0.000000
    21  H    5.815898   4.009678   8.325631   8.026341   1.759101
    22  H    3.856513   2.886642   3.050107   2.497725   6.804584
    23  H    4.247685   4.476242   2.481586   2.529827   8.157734
    24  H    3.896583   3.469978   2.426513   2.530327   7.830246
    25  H    3.834712   1.976302   3.033308   2.389152   6.733246
    26  H    2.314835   4.474684   2.505406   3.718090   7.363608
    27  H    2.545806   3.948263   3.725788   4.306314   6.233741
    28  H    4.840170   4.276424   7.863804   7.998667   2.524247
    29  H    3.465599   3.856798   6.896579   7.250092   2.441712
    30  H    3.183582   2.551434   5.497128   5.670655   4.292784
    31  H    4.584022   2.391297   6.458518   6.171417   3.809398
                   21         22         23         24         25
    21  H    0.000000
    22  H    6.388867   0.000000
    23  H    7.958344   1.748708   0.000000
    24  H    7.170674   3.780851   4.282448   0.000000
    25  H    5.919930   2.650455   3.799830   1.748104   0.000000
    26  H    7.517153   3.047728   2.453718   3.977939   4.045000
    27  H    6.483578   2.511109   2.521207   4.826406   4.228994
    28  H    2.452747   6.781450   8.106529   6.498157   5.796990
    29  H    3.044332   5.788922   6.913607   6.024997   5.350631
    30  H    3.807784   4.961545   6.174577   3.966117   3.485969
    31  H    2.662894   5.257255   6.783457   4.823990   3.824888
                   26         27         28         29         30
    26  H    0.000000
    27  H    1.748461   0.000000
    28  H    6.992350   6.419686   0.000000
    29  H    5.601259   4.935093   1.749176   0.000000
    30  H    5.118799   4.985525   2.540606   2.465796   0.000000
    31  H    6.269417   5.792633   2.444898   3.049934   1.747938
                   31
    31  H    0.000000
 Stoichiometry    C10H18O3
 Framework group  C1[X(C10H18O3)]
 Deg. of freedom    87
 Full point group                 C1      NOp   1
 Largest Abelian subgroup         C1      NOp   1
 Largest concise Abelian subgroup C1      NOp   1
                         Standard orientation:                         
 ---------------------------------------------------------------------
 Center     Atomic      Atomic             Coordinates (Angstroms)
 Number     Number       Type             X           Y           Z
 ---------------------------------------------------------------------
      1          6           0        1.702801   -1.046526   -1.020488
      2          6           0       -1.110104    0.114495    1.070974
      3          6           0        0.799413    0.083259   -0.551093
      4          6           0       -3.440770    0.096215   -0.677524
      5          6           0        3.608863   -0.177854    0.067224
      6          8           0        2.759894   -1.295881   -0.118930
      7          6           0       -2.820774   -1.227151   -0.240060
      8          6           0       -2.365960    1.163451   -0.771835
      9          6           0       -2.135931   -1.011086    1.105157
     10          6           0        2.834869    1.006247    0.624459
     11          8           0       -1.556944    1.257531    0.401343
     12          8           0        0.137023   -0.377628    0.614179
     13          6           0        1.637463    1.332699   -0.271393
     14          1           0        2.111344   -0.790769   -1.995391
     15          1           0        1.144207   -1.967613   -1.109515
     16          1           0       -0.922122    0.454389    2.078903
     17          1           0        0.088335    0.275761   -1.338331
     18          1           0       -4.200447    0.397209    0.039686
     19          1           0       -3.922303    0.011859   -1.647338
     20          1           0        4.388753   -0.496967    0.745201
     21          1           0        4.067513    0.079339   -0.885478
     22          1           0       -2.104579   -1.567802   -0.984629
     23          1           0       -3.579610   -1.997991   -0.149644
     24          1           0       -2.798421    2.147554   -0.886911
     25          1           0       -1.736332    0.975883   -1.631909
     26          1           0       -2.888342   -0.744298    1.843127
     27          1           0       -1.640994   -1.908026    1.459753
     28          1           0        3.497282    1.864137    0.697336
     29          1           0        2.499676    0.771678    1.630573
     30          1           0        1.022782    2.105456    0.174561
     31          1           0        1.994258    1.715544   -1.225257
 ---------------------------------------------------------------------
 Rotational constants (GHZ):           1.7809370           0.4575878           0.4271590
 Standard basis: 6-311++G(2d,2p) (5D, 7F)
 There are   557 symmetry adapted cartesian basis functions of A   symmetry.
 There are   531 symmetry adapted basis functions of A   symmetry.
   531 basis functions,   762 primitive gaussians,   557 cartesian basis functions
    51 alpha electrons       51 beta electrons
       nuclear repulsion energy       905.9045672646 Hartrees.
 NAtoms=   31 NActive=   31 NUniq=   31 SFac= 1.00D+00 NAtFMM=   60 NAOKFM=F Big=F
 Integral buffers will be    131072 words long.
 Raffenetti 2 integral format.
 Two-electron integral symmetry is turned on.
 ------------------------------------------------------------------------------
 Polarizable Continuum Model (PCM)
 =================================
 Model                : PCM.
 Atomic radii         : SMD-Coulomb.
 Polarization charges : Total charges.
 Charge compensation  : None.
 Solution method      : On-the-fly selection.
 Cavity type          : VdW (van der Waals Surface) (Alpha=1.000).
 Cavity algorithm     : GePol (No added spheres)
                        Default sphere list used, NSphG=   31.
                        Lebedev-Laikov grids with approx.  5.0 points / Ang**2.
                        Smoothing algorithm: York/Karplus (Gamma=1.0000).
                        Polarization charges: spherical gaussians, with
                                              point-specific exponents (IZeta= 3).
                        Self-potential: point-specific (ISelfS= 7).
                        Self-field    : sphere-specific E.n sum rule (ISelfD= 2).
 1st derivatives      : Analytical E(r).r(x)/FMM algorithm (CHGder, D1EAlg=3).
                        Cavity 1st derivative terms included.
 Solvent              : Water, Eps=  78.355300 Eps(inf)=   1.777849
 ------------------------------------------------------------------------------
 ------------------------------------------------------------------------------
 Atomic radii for non-electrostatic terms: SMD-CDS.
 ------------------------------------------------------------------------------
 Nuclear repulsion after PCM non-electrostatic terms =      905.9110169950 Hartrees.
 One-electron integrals computed using PRISM.
 NBasis=   531 RedAO= T EigKep=  4.75D-06  NBF=   531
 NBsUse=   531 1.00D-06 EigRej= -1.00D+00 NBFU=   531
 ExpMin= 3.60D-02 ExpMax= 8.59D+03 ExpMxC= 1.30D+03 IAcc=3 IRadAn=         5 AccDes= 0.00D+00
 Harris functional with IExCor= 1009 and IRadAn=       5 diagonalized for initial guess.
 HarFok:  IExCor= 1009 AccDes= 0.00D+00 IRadAn=         5 IDoV= 1 UseB2=F ITyADJ=14
 ICtDFT=  3500011 ScaDFX=  1.000000  1.000000  1.000000  1.000000
 FoFCou: FMM=F IPFlag=           0 FMFlag=      100000 FMFlg1=           0
         NFxFlg=           0 DoJE=T BraDBF=F KetDBF=T FulRan=T
         wScrn=  0.000000 ICntrl=       500 IOpCl=  0 I1Cent=   200000004 NGrid=           0
         NMat0=    1 NMatS0=      1 NMatT0=    0 NMatD0=    1 NMtDS0=    0 NMtDT0=    0
 Petite list used in FoFCou.
 Requested convergence on RMS density matrix=1.00D-08 within 128 cycles.
 Requested convergence on MAX density matrix=1.00D-06.
 Requested convergence on             energy=1.00D-06.
 No special actions if energy rises.
 Inv3:  Mode=1 IEnd=    12036027.
 Iteration    1 A*A^-1 deviation from unit magnitude is 6.77D-15 for    397.
 Iteration    1 A*A^-1 deviation from orthogonality  is 5.03D-15 for   1995    636.
 Iteration    1 A^-1*A deviation from unit magnitude is 7.22D-15 for    397.
 Iteration    1 A^-1*A deviation from orthogonality  is 4.82D-15 for   2001    868.
 Error on total polarization charges =  0.06063
 SCF Done:  E(RM062X) =  -617.492094498     A.U. after   12 cycles
            NFock= 12  Conv=0.82D-08     -V/T= 2.0035
 SMD-CDS (non-electrostatic) energy       (kcal/mol) =       4.05
 (included in total energy above)

 **********************************************************************

            Population analysis using the SCF Density.

 **********************************************************************

 Orbital symmetries:
       Occupied  (A) (A) (A) (A) (A) (A) (A) (A) (A) (A) (A) (A)
                 (A) (A) (A) (A) (A) (A) (A) (A) (A) (A) (A) (A)
                 (A) (A) (A) (A) (A) (A) (A) (A) (A) (A) (A) (A)
                 (A) (A) (A) (A) (A) (A) (A) (A) (A) (A) (A) (A)
                 (A) (A) (A)
       Virtual   (A) (A) (A) (A) (A) (A) (A) (A) (A) (A) (A) (A)
                 (A) (A) (A) (A) (A) (A) (A) (A) (A) (A) (A) (A)
                 (A) (A) (A) (A) (A) (A) (A) (A) (A) (A) (A) (A)
                 (A) (A) (A) (A) (A) (A) (A) (A) (A) (A) (A) (A)
                 (A) (A) (A) (A) (A) (A) (A) (A) (A) (A) (A) (A)
                 (A) (A) (A) (A) (A) (A) (A) (A) (A) (A) (A) (A)
                 (A) (A) (A) (A) (A) (A) (A) (A) (A) (A) (A) (A)
                 (A) (A) (A) (A) (A) (A) (A) (A) (A) (A) (A) (A)
                 (A) (A) (A) (A) (A) (A) (A) (A) (A) (A) (A) (A)
                 (A) (A) (A) (A) (A) (A) (A) (A) (A) (A) (A) (A)
                 (A) (A) (A) (A) (A) (A) (A) (A) (A) (A) (A) (A)
                 (A) (A) (A) (A) (A) (A) (A) (A) (A) (A) (A) (A)
                 (A) (A) (A) (A) (A) (A) (A) (A) (A) (A) (A) (A)
                 (A) (A) (A) (A) (A) (A) (A) (A) (A) (A) (A) (A)
                 (A) (A) (A) (A) (A) (A) (A) (A) (A) (A) (A) (A)
                 (A) (A) (A) (A) (A) (A) (A) (A) (A) (A) (A) (A)
                 (A) (A) (A) (A) (A) (A) (A) (A) (A) (A) (A) (A)
                 (A) (A) (A) (A) (A) (A) (A) (A) (A) (A) (A) (A)
                 (A) (A) (A) (A) (A) (A) (A) (A) (A) (A) (A) (A)
                 (A) (A) (A) (A) (A) (A) (A) (A) (A) (A) (A) (A)
                 (A) (A) (A) (A) (A) (A) (A) (A) (A) (A) (A) (A)
                 (A) (A) (A) (A) (A) (A) (A) (A) (A) (A) (A) (A)
                 (A) (A) (A) (A) (A) (A) (A) (A) (A) (A) (A) (A)
                 (A) (A) (A) (A) (A) (A) (A) (A) (A) (A) (A) (A)
                 (A) (A) (A) (A) (A) (A) (A) (A) (A) (A) (A) (A)
                 (A) (A) (A) (A) (A) (A) (A) (A) (A) (A) (A) (A)
                 (A) (A) (A) (A) (A) (A) (A) (A) (A) (A) (A) (A)
                 (A) (A) (A) (A) (A) (A) (A) (A) (A) (A) (A) (A)
                 (A) (A) (A) (A) (A) (A) (A) (A) (A) (A) (A) (A)
                 (A) (A) (A) (A) (A) (A) (A) (A) (A) (A) (A) (A)
                 (A) (A) (A) (A) (A) (A) (A) (A) (A) (A) (A) (A)
                 (A) (A) (A) (A) (A) (A) (A) (A) (A) (A) (A) (A)
                 (A) (A) (A) (A) (A) (A) (A) (A) (A) (A) (A) (A)
                 (A) (A) (A) (A) (A) (A) (A) (A) (A) (A) (A) (A)
                 (A) (A) (A) (A) (A) (A) (A) (A) (A) (A) (A) (A)
                 (A) (A) (A) (A) (A) (A) (A) (A) (A) (A) (A) (A)
                 (A) (A) (A) (A) (A) (A) (A) (A) (A) (A) (A) (A)
                 (A) (A) (A) (A) (A) (A) (A) (A) (A) (A) (A) (A)
                 (A) (A) (A) (A) (A) (A) (A) (A) (A) (A) (A) (A)
                 (A) (A) (A) (A) (A) (A) (A) (A) (A) (A) (A) (A)
 The electronic state is 1-A.
 Alpha  occ. eigenvalues --  -19.63332 -19.62685 -19.61972 -10.63295 -10.58152
 Alpha  occ. eigenvalues --  -10.57426 -10.57263 -10.57064 -10.52367 -10.52224
 Alpha  occ. eigenvalues --  -10.52194 -10.52150 -10.52070  -1.19444  -1.16562
 Alpha  occ. eigenvalues --   -1.13058  -0.90409  -0.89395  -0.87169  -0.84195
 Alpha  occ. eigenvalues --   -0.74570  -0.73716  -0.73001  -0.70886  -0.65754
 Alpha  occ. eigenvalues --   -0.62004  -0.59308  -0.57692  -0.57223  -0.55538
 Alpha  occ. eigenvalues --   -0.53340  -0.52971  -0.52199  -0.50867  -0.50378
 Alpha  occ. eigenvalues --   -0.47710  -0.46075  -0.45780  -0.45295  -0.44667
 Alpha  occ. eigenvalues --   -0.43102  -0.42489  -0.40305  -0.39665  -0.38983
 Alpha  occ. eigenvalues --   -0.38218  -0.36868  -0.35873  -0.34527  -0.32681
 Alpha  occ. eigenvalues --   -0.30862
 Alpha virt. eigenvalues --    0.00265   0.01264   0.01348   0.01611   0.02708
 Alpha virt. eigenvalues --    0.03005   0.03106   0.03725   0.03989   0.05009
 Alpha virt. eigenvalues --    0.05118   0.05328   0.06097   0.06228   0.07456
 Alpha virt. eigenvalues --    0.08091   0.08328   0.09077   0.09315   0.09761
 Alpha virt. eigenvalues --    0.10381   0.11135   0.11306   0.11920   0.12591
 Alpha virt. eigenvalues --    0.12892   0.13043   0.13181   0.13759   0.14109
 Alpha virt. eigenvalues --    0.14153   0.14499   0.14937   0.15031   0.15519
 Alpha virt. eigenvalues --    0.15868   0.15948   0.16112   0.16568   0.16753
 Alpha virt. eigenvalues --    0.17028   0.17373   0.17645   0.18179   0.18404
 Alpha virt. eigenvalues --    0.18729   0.18834   0.19456   0.19613   0.20147
 Alpha virt. eigenvalues --    0.20634   0.20787   0.21295   0.21481   0.21685
 Alpha virt. eigenvalues --    0.22619   0.22932   0.23158   0.23939   0.24698
 Alpha virt. eigenvalues --    0.25952   0.25981   0.26706   0.27519   0.27756
 Alpha virt. eigenvalues --    0.28333   0.28674   0.29087   0.29407   0.30240
 Alpha virt. eigenvalues --    0.30584   0.30681   0.31000   0.31994   0.32429
 Alpha virt. eigenvalues --    0.33232   0.34047   0.34434   0.34743   0.34985
 Alpha virt. eigenvalues --    0.35289   0.35815   0.35996   0.36447   0.37086
 Alpha virt. eigenvalues --    0.37638   0.37726   0.38261   0.38499   0.38722
 Alpha virt. eigenvalues --    0.39137   0.39248   0.40337   0.40600   0.41135
 Alpha virt. eigenvalues --    0.41418   0.42347   0.43362   0.44948   0.45632
 Alpha virt. eigenvalues --    0.47521   0.48940   0.49597   0.50266   0.51658
 Alpha virt. eigenvalues --    0.52304   0.53362   0.54537   0.55447   0.56364
 Alpha virt. eigenvalues --    0.57322   0.58188   0.58632   0.59549   0.59674
 Alpha virt. eigenvalues --    0.60570   0.61092   0.61297   0.61607   0.62515
 Alpha virt. eigenvalues --    0.63034   0.63763   0.64322   0.64856   0.65254
 Alpha virt. eigenvalues --    0.65986   0.66272   0.66684   0.67392   0.68120
 Alpha virt. eigenvalues --    0.68857   0.69182   0.69607   0.70759   0.71031
 Alpha virt. eigenvalues --    0.71458   0.71620   0.71951   0.72600   0.73377
 Alpha virt. eigenvalues --    0.73742   0.74804   0.75703   0.76123   0.76731
 Alpha virt. eigenvalues --    0.77116   0.77846   0.78626   0.79157   0.80119
 Alpha virt. eigenvalues --    0.80540   0.82455   0.83926   0.85507   0.86507
 Alpha virt. eigenvalues --    0.87088   0.88634   0.89196   0.89670   0.90415
 Alpha virt. eigenvalues --    0.91102   0.93209   0.93525   0.96364   0.98034
 Alpha virt. eigenvalues --    0.98376   0.99079   1.00991   1.01269   1.02146
 Alpha virt. eigenvalues --    1.03383   1.03507   1.04569   1.06378   1.07580
 Alpha virt. eigenvalues --    1.08058   1.09501   1.09911   1.11742   1.13010
 Alpha virt. eigenvalues --    1.14243   1.14894   1.15692   1.15840   1.16991
 Alpha virt. eigenvalues --    1.18159   1.18303   1.18937   1.19968   1.20628
 Alpha virt. eigenvalues --    1.22938   1.23830   1.24167   1.24781   1.25245
 Alpha virt. eigenvalues --    1.25423   1.26282   1.26444   1.27277   1.28327
 Alpha virt. eigenvalues --    1.29472   1.30304   1.31182   1.31941   1.32278
 Alpha virt. eigenvalues --    1.32946   1.33460   1.34103   1.34718   1.36002
 Alpha virt. eigenvalues --    1.36363   1.37163   1.37699   1.38149   1.39247
 Alpha virt. eigenvalues --    1.40245   1.40375   1.40751   1.41313   1.41973
 Alpha virt. eigenvalues --    1.42995   1.44293   1.44484   1.45325   1.46123
 Alpha virt. eigenvalues --    1.46684   1.46873   1.47451   1.48383   1.48938
 Alpha virt. eigenvalues --    1.49989   1.50344   1.51536   1.51912   1.52808
 Alpha virt. eigenvalues --    1.52873   1.54167   1.54776   1.55589   1.56777
 Alpha virt. eigenvalues --    1.57271   1.57488   1.58183   1.58985   1.60081
 Alpha virt. eigenvalues --    1.60538   1.61782   1.62242   1.62999   1.63966
 Alpha virt. eigenvalues --    1.64452   1.64673   1.66231   1.66649   1.67263
 Alpha virt. eigenvalues --    1.68680   1.69411   1.70079   1.70709   1.71975
 Alpha virt. eigenvalues --    1.73603   1.74382   1.75179   1.76282   1.77555
 Alpha virt. eigenvalues --    1.78270   1.79102   1.81502   1.82329   1.83760
 Alpha virt. eigenvalues --    1.87274   1.88161   1.91237   1.97708   2.00912
 Alpha virt. eigenvalues --    2.04197   2.09025   2.11695   2.17682   2.19303
 Alpha virt. eigenvalues --    2.24571   2.26980   2.28063   2.34010   2.39407
 Alpha virt. eigenvalues --    2.41295   2.43971   2.46525   2.49810   2.53141
 Alpha virt. eigenvalues --    2.55551   2.77438   2.78781   2.80134   2.83366
 Alpha virt. eigenvalues --    2.84529   2.87107   2.93267   2.94129   2.95031
 Alpha virt. eigenvalues --    2.96768   2.99252   2.99531   3.01780   3.04411
 Alpha virt. eigenvalues --    3.06166   3.07590   3.08720   3.10706   3.11637
 Alpha virt. eigenvalues --    3.13601   3.15573   3.18678   3.20379   3.21669
 Alpha virt. eigenvalues --    3.24242   3.29287   3.32489   3.33378   3.35404
 Alpha virt. eigenvalues --    3.36122   3.36777   3.39019   3.39870   3.40925
 Alpha virt. eigenvalues --    3.42342   3.44168   3.45379   3.46794   3.47829
 Alpha virt. eigenvalues --    3.48144   3.49990   3.51051   3.51899   3.53389
 Alpha virt. eigenvalues --    3.53711   3.54510   3.55176   3.55456   3.56550
 Alpha virt. eigenvalues --    3.57501   3.58773   3.58955   3.59813   3.59903
 Alpha virt. eigenvalues --    3.61235   3.63569   3.64336   3.64832   3.65549
 Alpha virt. eigenvalues --    3.66644   3.67997   3.69108   3.69507   3.70206
 Alpha virt. eigenvalues --    3.71010   3.71842   3.72901   3.73693   3.74288
 Alpha virt. eigenvalues --    3.75745   3.75928   3.76833   3.77371   3.77724
 Alpha virt. eigenvalues --    3.79143   3.80542   3.81003   3.82091   3.84889
 Alpha virt. eigenvalues --    3.86634   3.87732   3.89369   3.90639   3.91189
 Alpha virt. eigenvalues --    3.93752   3.94993   3.96818   3.97841   3.99090
 Alpha virt. eigenvalues --    4.00034   4.01798   4.03291   4.04525   4.05428
 Alpha virt. eigenvalues --    4.05681   4.06436   4.06893   4.07429   4.08422
 Alpha virt. eigenvalues --    4.09076   4.10200   4.10218   4.11748   4.12351
 Alpha virt. eigenvalues --    4.12509   4.13655   4.14016   4.15990   4.16258
 Alpha virt. eigenvalues --    4.17178   4.18386   4.19040   4.20028   4.20285
 Alpha virt. eigenvalues --    4.21701   4.24089   4.25119   4.26453   4.27891
 Alpha virt. eigenvalues --    4.29186   4.29881   4.31010   4.31531   4.32697
 Alpha virt. eigenvalues --    4.33680   4.34202   4.35687   4.37280   4.39216
 Alpha virt. eigenvalues --    4.42456   4.43155   4.46079   4.47284   4.52835
 Alpha virt. eigenvalues --    4.59656   4.62855   4.75301   4.76053   4.82927
 Alpha virt. eigenvalues --    4.86972   4.94123   4.95644   4.99765   5.04346
 Alpha virt. eigenvalues --    5.07192   5.08631   5.08876   5.09552   5.11833
 Alpha virt. eigenvalues --    5.14456   5.15052   5.16183   5.31732   5.37409
 Alpha virt. eigenvalues --    5.45454   5.57251   5.59647   5.61651   5.86361
 Alpha virt. eigenvalues --    5.87795   6.04007   7.00012   7.03275   7.06417
 Alpha virt. eigenvalues --    7.09737   7.10665   7.12596   7.14939   7.20368
 Alpha virt. eigenvalues --    7.26879   7.36862   7.44983   7.46648   7.52570
 Alpha virt. eigenvalues --    7.54814   7.59324  23.95794  23.98975  24.06148
 Alpha virt. eigenvalues --   24.08585  24.10233  24.13625  24.14977  24.15893
 Alpha virt. eigenvalues --   24.17250  24.19232  50.15928  50.19160  50.25381
          Condensed to atoms (all electrons):
               1          2          3          4          5          6
     1  C    6.300731   0.203525  -0.577832   0.034809  -0.273218   0.094999
     2  C    0.203525   7.167363  -0.550278   0.193744   0.042192   0.002259
     3  C   -0.577832  -0.550278   7.539862   0.061818   0.289936  -0.030108
     4  C    0.034809   0.193744   0.061818   6.024295  -0.005755   0.000349
     5  C   -0.273218   0.042192   0.289936  -0.005755   5.499980   0.078853
     6  O    0.094999   0.002259  -0.030108   0.000349   0.078853   8.389567
     7  C    0.039683  -0.087145   0.060637  -0.051764   0.003071  -0.001280
     8  C   -0.067104  -0.430116  -0.063160  -0.233092   0.001457  -0.000016
     9  C   -0.116336  -0.932322   0.224981  -0.231987   0.004590  -0.000783
    10  C    0.074947   0.149743  -0.422223  -0.029161   0.087749  -0.016116
    11  O    0.013128   0.268868   0.042545  -0.063349  -0.002589   0.000326
    12  O   -0.155293   0.185109  -0.024460  -0.048622  -0.011591   0.040165
    13  C    0.001756  -0.331647  -0.840619   0.037407  -0.220858   0.021074
    14  H    0.442008   0.009594  -0.059473  -0.002692   0.004519  -0.057010
    15  H    0.436877  -0.020349  -0.031166   0.003495   0.005832  -0.075846
    16  H    0.016557   0.513424  -0.040903  -0.002415   0.001952  -0.000578
    17  H    0.116755  -0.080660   0.342230   0.091583  -0.056693   0.022457
    18  H    0.001739   0.026281  -0.003125   0.467046   0.000136  -0.000006
    19  H   -0.000844  -0.019719   0.000130   0.457403  -0.000458  -0.000014
    20  H    0.011428   0.004978  -0.002022  -0.000618   0.445156  -0.063628
    21  H   -0.027119  -0.004008   0.019405   0.000588   0.452709  -0.051297
    22  H    0.000764   0.030094  -0.000123  -0.094526   0.001578   0.000697
    23  H   -0.000195   0.010875   0.004895  -0.006123   0.000125  -0.000125
    24  H    0.002231   0.008802  -0.005491  -0.022081  -0.000116   0.000063
    25  H   -0.020163   0.000933  -0.002917  -0.150285   0.007391  -0.001018
    26  H    0.000855  -0.108210   0.003242  -0.039027  -0.000522   0.000224
    27  H   -0.007779  -0.047688  -0.008334  -0.007632   0.001284   0.000016
    28  H   -0.002103   0.003294  -0.016811  -0.000614  -0.019339   0.009472
    29  H    0.012554  -0.015518  -0.013520   0.002653  -0.099968  -0.006711
    30  H   -0.006653  -0.015882  -0.014693   0.006490  -0.011571  -0.001347
    31  H   -0.021133  -0.002447  -0.070707  -0.001043  -0.010169  -0.000965
               7          8          9         10         11         12
     1  C    0.039683  -0.067104  -0.116336   0.074947   0.013128  -0.155293
     2  C   -0.087145  -0.430116  -0.932322   0.149743   0.268868   0.185109
     3  C    0.060637  -0.063160   0.224981  -0.422223   0.042545  -0.024460
     4  C   -0.051764  -0.233092  -0.231987  -0.029161  -0.063349  -0.048622
     5  C    0.003071   0.001457   0.004590   0.087749  -0.002589  -0.011591
     6  O   -0.001280  -0.000016  -0.000783  -0.016116   0.000326   0.040165
     7  C    5.787414   0.009403  -0.140548  -0.003598  -0.012604  -0.055955
     8  C    0.009403   5.634299   0.293112   0.026433   0.106618   0.073944
     9  C   -0.140548   0.293112   6.445076  -0.001955  -0.029969  -0.066841
    10  C   -0.003598   0.026433  -0.001955   5.861183  -0.022380  -0.015060
    11  O   -0.012604   0.106618  -0.029969  -0.022380   8.226727  -0.036557
    12  O   -0.055955   0.073944  -0.066841  -0.015060  -0.036557   8.423134
    13  C   -0.115114   0.037641   0.081372  -0.115890  -0.027349   0.059664
    14  H    0.000520   0.002582   0.000499   0.045584   0.000494   0.015695
    15  H   -0.005356  -0.004789   0.011056  -0.000975  -0.001297  -0.002087
    16  H   -0.020457  -0.022438  -0.052028   0.024940  -0.057810  -0.066508
    17  H   -0.011848  -0.075997  -0.011454  -0.131934   0.014829  -0.034734
    18  H   -0.002134  -0.080524  -0.037760   0.000014  -0.003266  -0.000089
    19  H   -0.057434  -0.038931   0.020283  -0.000460   0.008087  -0.000078
    20  H    0.000313   0.000395  -0.000220  -0.052249  -0.000282   0.001405
    21  H   -0.000264  -0.000166   0.000670  -0.031406   0.000374   0.001066
    22  H    0.538845   0.006416  -0.086982   0.003173   0.001519   0.007169
    23  H    0.414602  -0.000062  -0.050322  -0.000362  -0.002748  -0.002109
    24  H    0.010459   0.428488  -0.007433   0.000749  -0.057637  -0.000257
    25  H    0.009910   0.537357   0.029166   0.021876  -0.047912   0.006916
    26  H   -0.001019   0.018384   0.508920  -0.000950  -0.009775   0.003768
    27  H   -0.037339   0.012912   0.458228   0.003519   0.008491  -0.001392
    28  H   -0.000481   0.000762   0.000320   0.451804  -0.001521  -0.000307
    29  H    0.000494  -0.001115  -0.001349   0.483897   0.001990   0.009244
    30  H   -0.003513   0.000228   0.002431  -0.044759   0.005180  -0.007985
    31  H    0.001040   0.002660  -0.001524  -0.028146   0.000146   0.007394
              13         14         15         16         17         18
     1  C    0.001756   0.442008   0.436877   0.016557   0.116755   0.001739
     2  C   -0.331647   0.009594  -0.020349   0.513424  -0.080660   0.026281
     3  C   -0.840619  -0.059473  -0.031166  -0.040903   0.342230  -0.003125
     4  C    0.037407  -0.002692   0.003495  -0.002415   0.091583   0.467046
     5  C   -0.220858   0.004519   0.005832   0.001952  -0.056693   0.000136
     6  O    0.021074  -0.057010  -0.075846  -0.000578   0.022457  -0.000006
     7  C   -0.115114   0.000520  -0.005356  -0.020457  -0.011848  -0.002134
     8  C    0.037641   0.002582  -0.004789  -0.022438  -0.075997  -0.080524
     9  C    0.081372   0.000499   0.011056  -0.052028  -0.011454  -0.037760
    10  C   -0.115890   0.045584  -0.000975   0.024940  -0.131934   0.000014
    11  O   -0.027349   0.000494  -0.001297  -0.057810   0.014829  -0.003266
    12  O    0.059664   0.015695  -0.002087  -0.066508  -0.034734  -0.000089
    13  C    6.831417  -0.043947   0.020494  -0.012322   0.097342  -0.002541
    14  H   -0.043947   0.466940  -0.006040  -0.000003  -0.041953  -0.000006
    15  H    0.020494  -0.006040   0.471844   0.002139  -0.003253   0.000095
    16  H   -0.012322  -0.000003   0.002139   0.493509  -0.004248   0.003526
    17  H    0.097342  -0.041953  -0.003253  -0.004248   0.605028   0.000958
    18  H   -0.002541  -0.000006   0.000095   0.003526   0.000958   0.474560
    19  H    0.003076  -0.000275   0.000244   0.000059   0.003143  -0.009989
    20  H    0.001375   0.000207   0.000583   0.000451  -0.003204   0.000002
    21  H   -0.008704   0.005463  -0.001862  -0.000186   0.003280   0.000003
    22  H   -0.013991   0.002103  -0.007507  -0.000280  -0.017701   0.000769
    23  H   -0.001310  -0.000080   0.000359   0.001624   0.001152  -0.000354
    24  H    0.001989   0.000137  -0.000120   0.000943   0.004891  -0.004339
    25  H   -0.017586   0.005747  -0.001474  -0.000172  -0.061476   0.003064
    26  H    0.000909  -0.000046  -0.000226  -0.003877   0.001474  -0.005338
    27  H    0.000702   0.000467  -0.001746  -0.014817  -0.004969  -0.002058
    28  H   -0.050124   0.001215   0.001314   0.000690  -0.004417  -0.000004
    29  H   -0.004446  -0.000734  -0.002021  -0.008384   0.005694  -0.000100
    30  H    0.466471  -0.003793   0.001069  -0.004093   0.007232  -0.000068
    31  H    0.497000   0.000718  -0.003640  -0.001667  -0.011547  -0.000096
              19         20         21         22         23         24
     1  C   -0.000844   0.011428  -0.027119   0.000764  -0.000195   0.002231
     2  C   -0.019719   0.004978  -0.004008   0.030094   0.010875   0.008802
     3  C    0.000130  -0.002022   0.019405  -0.000123   0.004895  -0.005491
     4  C    0.457403  -0.000618   0.000588  -0.094526  -0.006123  -0.022081
     5  C   -0.000458   0.445156   0.452709   0.001578   0.000125  -0.000116
     6  O   -0.000014  -0.063628  -0.051297   0.000697  -0.000125   0.000063
     7  C   -0.057434   0.000313  -0.000264   0.538845   0.414602   0.010459
     8  C   -0.038931   0.000395  -0.000166   0.006416  -0.000062   0.428488
     9  C    0.020283  -0.000220   0.000670  -0.086982  -0.050322  -0.007433
    10  C   -0.000460  -0.052249  -0.031406   0.003173  -0.000362   0.000749
    11  O    0.008087  -0.000282   0.000374   0.001519  -0.002748  -0.057637
    12  O   -0.000078   0.001405   0.001066   0.007169  -0.002109  -0.000257
    13  C    0.003076   0.001375  -0.008704  -0.013991  -0.001310   0.001989
    14  H   -0.000275   0.000207   0.005463   0.002103  -0.000080   0.000137
    15  H    0.000244   0.000583  -0.001862  -0.007507   0.000359  -0.000120
    16  H    0.000059   0.000451  -0.000186  -0.000280   0.001624   0.000943
    17  H    0.003143  -0.003204   0.003280  -0.017701   0.001152   0.004891
    18  H   -0.009989   0.000002   0.000003   0.000769  -0.000354  -0.004339
    19  H    0.472136  -0.000022   0.000020  -0.004715  -0.006076  -0.008988
    20  H   -0.000022   0.466705  -0.005444   0.000235   0.000007   0.000007
    21  H    0.000020  -0.005444   0.487549  -0.000264  -0.000005  -0.000004
    22  H   -0.004715   0.000235  -0.000264   0.474275  -0.007114  -0.002070
    23  H   -0.006076   0.000007  -0.000005  -0.007114   0.448327   0.001306
    24  H   -0.008988   0.000007  -0.000004  -0.002070   0.001306   0.468157
    25  H   -0.005404   0.000477  -0.000433   0.005650  -0.001200  -0.024096
    26  H   -0.001603  -0.000008   0.000005   0.000988  -0.002255   0.001260
    27  H    0.000683   0.000197  -0.000144   0.001243  -0.008163   0.000651
    28  H   -0.000010  -0.008512   0.003405   0.000052  -0.000017   0.000117
    29  H    0.000080  -0.004840   0.002485  -0.000074  -0.000023   0.000004
    30  H   -0.000012  -0.000164   0.000147  -0.000607  -0.000015  -0.000612
    31  H    0.000060  -0.001765  -0.001626   0.000455  -0.000020  -0.000127
              25         26         27         28         29         30
     1  C   -0.020163   0.000855  -0.007779  -0.002103   0.012554  -0.006653
     2  C    0.000933  -0.108210  -0.047688   0.003294  -0.015518  -0.015882
     3  C   -0.002917   0.003242  -0.008334  -0.016811  -0.013520  -0.014693
     4  C   -0.150285  -0.039027  -0.007632  -0.000614   0.002653   0.006490
     5  C    0.007391  -0.000522   0.001284  -0.019339  -0.099968  -0.011571
     6  O   -0.001018   0.000224   0.000016   0.009472  -0.006711  -0.001347
     7  C    0.009910  -0.001019  -0.037339  -0.000481   0.000494  -0.003513
     8  C    0.537357   0.018384   0.012912   0.000762  -0.001115   0.000228
     9  C    0.029166   0.508920   0.458228   0.000320  -0.001349   0.002431
    10  C    0.021876  -0.000950   0.003519   0.451804   0.483897  -0.044759
    11  O   -0.047912  -0.009775   0.008491  -0.001521   0.001990   0.005180
    12  O    0.006916   0.003768  -0.001392  -0.000307   0.009244  -0.007985
    13  C   -0.017586   0.000909   0.000702  -0.050124  -0.004446   0.466471
    14  H    0.005747  -0.000046   0.000467   0.001215  -0.000734  -0.003793
    15  H   -0.001474  -0.000226  -0.001746   0.001314  -0.002021   0.001069
    16  H   -0.000172  -0.003877  -0.014817   0.000690  -0.008384  -0.004093
    17  H   -0.061476   0.001474  -0.004969  -0.004417   0.005694   0.007232
    18  H    0.003064  -0.005338  -0.002058  -0.000004  -0.000100  -0.000068
    19  H   -0.005404  -0.001603   0.000683  -0.000010   0.000080  -0.000012
    20  H    0.000477  -0.000008   0.000197  -0.008512  -0.004840  -0.000164
    21  H   -0.000433   0.000005  -0.000144   0.003405   0.002485   0.000147
    22  H    0.005650   0.000988   0.001243   0.000052  -0.000074  -0.000607
    23  H   -0.001200  -0.002255  -0.008163  -0.000017  -0.000023  -0.000015
    24  H   -0.024096   0.001260   0.000651   0.000117   0.000004  -0.000612
    25  H    0.540391  -0.001405   0.001813   0.000687  -0.001136  -0.001686
    26  H   -0.001405   0.441183  -0.006711  -0.000037   0.000457   0.000583
    27  H    0.001813  -0.006711   0.471930   0.000262  -0.000535  -0.000988
    28  H    0.000687  -0.000037   0.000262   0.476415  -0.013834  -0.008759
    29  H   -0.001136   0.000457  -0.000535  -0.013834   0.477113   0.003195
    30  H   -0.001686   0.000583  -0.000988  -0.008759   0.003195   0.445911
    31  H    0.001455   0.000026   0.000184  -0.008028   0.003933  -0.000550
              31
     1  C   -0.021133
     2  C   -0.002447
     3  C   -0.070707
     4  C   -0.001043
     5  C   -0.010169
     6  O   -0.000965
     7  C    0.001040
     8  C    0.002660
     9  C   -0.001524
    10  C   -0.028146
    11  O    0.000146
    12  O    0.007394
    13  C    0.497000
    14  H    0.000718
    15  H   -0.003640
    16  H   -0.001667
    17  H   -0.011547
    18  H   -0.000096
    19  H    0.000060
    20  H   -0.001765
    21  H   -0.001626
    22  H    0.000455
    23  H   -0.000020
    24  H   -0.000127
    25  H    0.001455
    26  H    0.000026
    27  H    0.000184
    28  H   -0.008028
    29  H    0.003933
    30  H   -0.000550
    31  H    0.430486
 Mulliken charges:
               1
     1  C   -0.529574
     2  C   -0.175088
     3  C    0.188286
     4  C   -0.390895
     5  C   -0.215665
     6  O   -0.353674
     7  C   -0.268537
     8  C   -0.175579
     9  C   -0.310889
    10  C   -0.317988
    11  O   -0.322283
    12  O   -0.304748
    13  C   -0.353242
    14  H    0.211559
    15  H    0.214351
    16  H    0.253369
    17  H    0.238040
    18  H    0.173604
    19  H    0.189629
    20  H    0.209056
    21  H    0.155764
    22  H    0.159928
    23  H    0.205406
    24  H    0.203115
    25  H    0.165531
    26  H    0.198731
    27  H    0.187713
    28  H    0.185113
    29  H    0.170512
    30  H    0.188814
    31  H    0.219642
 Sum of Mulliken charges =  -0.00000
 Mulliken charges with hydrogens summed into heavy atoms:
               1
     1  C   -0.103663
     2  C    0.078281
     3  C    0.426326
     4  C   -0.027662
     5  C    0.149154
     6  O   -0.353674
     7  C    0.096797
     8  C    0.193066
     9  C    0.075555
    10  C    0.037637
    11  O   -0.322283
    12  O   -0.304748
    13  C    0.055214
 Electronic spatial extent (au):  <R**2>=           2824.2671
 Charge=              0.0000 electrons
 Dipole moment (field-independent basis, Debye):
    X=             -2.1776    Y=              1.5660    Z=             -2.8493  Tot=              3.9132
 Quadrupole moment (field-independent basis, Debye-Ang):
   XX=            -71.2026   YY=            -84.9858   ZZ=            -75.6119
   XY=              9.0378   XZ=             -0.4662   YZ=             -0.4587
 Traceless Quadrupole moment (field-independent basis, Debye-Ang):
   XX=              6.0642   YY=             -7.7190   ZZ=              1.6549
   XY=              9.0378   XZ=             -0.4662   YZ=             -0.4587
 Octapole moment (field-independent basis, Debye-Ang**2):
  XXX=             -3.7548  YYY=              1.8942  ZZZ=              0.7165  XYY=             -9.4033
  XXY=             19.4971  XXZ=             -4.1039  XZZ=             -0.4224  YZZ=              0.0140
  YYZ=             -4.3434  XYZ=              6.2811
 Hexadecapole moment (field-independent basis, Debye-Ang**3):
 XXXX=          -2636.1850 YYYY=           -588.7882 ZZZZ=           -378.3792 XXXY=             42.2263
 XXXZ=             19.3410 YYYX=              8.5124 YYYZ=             -3.1406 ZZZX=             -8.9154
 ZZZY=              2.5316 XXYY=           -585.0170 XXZZ=           -508.1739 YYZZ=           -163.0229
 XXYZ=            -12.8317 YYXZ=              4.5949 ZZXY=             -7.5952
 N-N= 9.059110169950D+02 E-N=-3.254182606663D+03  KE= 6.153447444254D+02
 D1PCM: PCM CHGder 1st derivatives, ID1Alg=3 FixD1E=F DoIter=F DoCFld=F I1PDM=0.
 Calling FoFJK, ICntrl=      2127 FMM=F ISym2X=0 I1Cent= 0 IOpClX= 0 NMat=1 NMatS=1 NMatT=0.
 ***** Axes restored to original set *****
 -------------------------------------------------------------------
 Center     Atomic                   Forces (Hartrees/Bohr)
 Number     Number              X              Y              Z
 -------------------------------------------------------------------
      1        6           0.001530830   -0.006038776    0.000607150
      2        6           0.004896400    0.001255554   -0.002197065
      3        6          -0.002786699   -0.004549841    0.002164545
      4        6          -0.003119012    0.000527745   -0.000390855
      5        6           0.004216419   -0.005771694    0.000759502
      6        8          -0.000967772    0.010370605    0.006322171
      7        6          -0.000621186   -0.003976761    0.002130979
      8        6           0.003357516    0.007482330    0.001394996
      9        6           0.000144040   -0.000815009   -0.002822860
     10        6           0.000348579    0.000905346   -0.003203194
     11        8          -0.001878717   -0.009920200    0.001994073
     12        8          -0.005859091    0.013819816    0.001650656
     13        6          -0.002178023    0.003267511    0.000369154
     14        1          -0.001548678   -0.002315898   -0.005012627
     15        1           0.003266510    0.004027283    0.000016902
     16        1          -0.000662493   -0.002361366    0.006665846
     17        1           0.004760697   -0.001730939   -0.005462275
     18        1           0.001780029   -0.000972086    0.002816695
     19        1           0.001063074    0.000226170   -0.002544603
     20        1          -0.003113547    0.001185479    0.002985399
     21        1          -0.001830475   -0.002200195   -0.004996663
     22        1          -0.003356897    0.000384503   -0.002515682
     23        1           0.001751520    0.001758191    0.000331399
     24        1           0.002161378   -0.004189062   -0.000613017
     25        1          -0.003342460    0.001919899   -0.005330714
     26        1           0.002443722   -0.001395028    0.002106142
     27        1          -0.002070197    0.002458992    0.000971357
     28        1          -0.001546833   -0.002165185    0.000110517
     29        1           0.001517187    0.001556810    0.003096655
     30        1           0.003029846   -0.002034354    0.001734076
     31        1          -0.001385669   -0.000709841   -0.003138660
 -------------------------------------------------------------------
 Cartesian Forces:  Max     0.013819816 RMS     0.003553623

 GradGradGradGradGradGradGradGradGradGradGradGradGradGradGradGradGradGrad
 Berny optimization.
 FormGI is forming the generalized inverse of G from B-inverse, IUseBI=4.
 Internal  Forces:  Max     0.017307198 RMS     0.002369585
 Search for a local minimum.
 Step number   1 out of a maximum of  186
 All quantities printed in internal units (Hartrees-Bohrs-Radians)
 Mixed Optimization -- RFO/linear search
 Second derivative matrix not updated -- first step.
 ITU=  0
     Eigenvalues ---    0.00594   0.00668   0.00730   0.00742   0.01251
     Eigenvalues ---    0.01441   0.01462   0.02663   0.02797   0.03034
     Eigenvalues ---    0.03108   0.04126   0.04336   0.04632   0.04727
     Eigenvalues ---    0.04751   0.04890   0.05032   0.05056   0.05180
     Eigenvalues ---    0.05307   0.05786   0.05858   0.06052   0.06196
     Eigenvalues ---    0.06212   0.06557   0.06867   0.07326   0.07648
     Eigenvalues ---    0.07928   0.07956   0.08002   0.08127   0.08380
     Eigenvalues ---    0.08389   0.09123   0.09392   0.10805   0.11705
     Eigenvalues ---    0.11710   0.11732   0.11862   0.12533   0.12619
     Eigenvalues ---    0.14599   0.15371   0.16345   0.16743   0.17416
     Eigenvalues ---    0.19550   0.21815   0.21892   0.25000   0.28566
     Eigenvalues ---    0.28664   0.28762   0.28870   0.29058   0.29296
     Eigenvalues ---    0.30306   0.30352   0.35023   0.35046   0.35065
     Eigenvalues ---    0.35098   0.35133   0.35144   0.35242   0.35266
     Eigenvalues ---    0.35272   0.35344   0.35507   0.35581   0.35720
     Eigenvalues ---    0.35810   0.35865   0.35885   0.35973   0.36217
     Eigenvalues ---    0.40109   0.41504   0.42250   0.42854   0.43008
     Eigenvalues ---    0.445641000.000001000.000001000.000001000.00000
     Eigenvalues --- 1000.000001000.000001000.000001000.000001000.00000
     Eigenvalues --- 1000.000001000.000001000.000001000.000001000.00000
     Eigenvalues --- 1000.000001000.000001000.000001000.000001000.00000
     Eigenvalues --- 1000.000001000.000001000.000001000.000001000.00000
     Eigenvalues --- 1000.000001000.000001000.000001000.000001000.00000
     Eigenvalues --- 1000.000001000.000001000.000001000.000001000.00000
     Eigenvalues --- 1000.000001000.000001000.000001000.000001000.00000
     Eigenvalues --- 1000.000001000.000001000.000001000.000001000.00000
     Eigenvalues --- 1000.000001000.000001000.000001000.000001000.00000
     Eigenvalues --- 1000.000001000.000001000.000001000.000001000.00000
     Eigenvalues --- 1000.000001000.000001000.000001000.000001000.00000
     Eigenvalues --- 1000.000001000.000001000.000001000.000001000.00000
     Eigenvalues --- 1000.000001000.000001000.000001000.000001000.00000
     Eigenvalues --- 1000.000001000.000001000.000001000.000001000.00000
     Eigenvalues --- 1000.000001000.000001000.000001000.000001000.00000
     Eigenvalues --- 1000.000001000.000001000.000001000.000001000.00000
     Eigenvalues --- 1000.000001000.000001000.000001000.000001000.00000
     Eigenvalues --- 1000.000001000.000001000.000001000.000001000.00000
     Eigenvalues --- 1000.000001000.000001000.000001000.000001000.00000
 RFO step:  Lambda=-4.24463674D-03 EMin= 5.94072260D-03
 Linear search not attempted -- first point.
 Iteration  1 RMS(Cart)=  0.07914070 RMS(Int)=  0.00123160
 Iteration  2 RMS(Cart)=  0.00334973 RMS(Int)=  0.00005613
 Iteration  3 RMS(Cart)=  0.00000440 RMS(Int)=  0.00005608
 Iteration  4 RMS(Cart)=  0.00000000 RMS(Int)=  0.00005608
 Iteration  1 RMS(Cart)=  0.00008143 RMS(Int)=  0.00001658
 Iteration  2 RMS(Cart)=  0.00004260 RMS(Int)=  0.00001853
 Iteration  3 RMS(Cart)=  0.00002229 RMS(Int)=  0.00002083
 Iteration  4 RMS(Cart)=  0.00001166 RMS(Int)=  0.00002228
 Iteration  5 RMS(Cart)=  0.00000610 RMS(Int)=  0.00002308
 Iteration  6 RMS(Cart)=  0.00000319 RMS(Int)=  0.00002352
 Iteration  7 RMS(Cart)=  0.00000167 RMS(Int)=  0.00002375
 Iteration  8 RMS(Cart)=  0.00000087 RMS(Int)=  0.00002387
 Variable       Old X    -DE/DX   Delta X   Delta X   Delta X     New X
                                 (Linear)    (Quad)   (Total)
    R1        2.87391  -0.00085   0.00000  -0.00279  -0.00278   2.87113
    R2        2.66741   0.00596   0.00000   0.01415   0.01417   2.68159
    R3        2.05516   0.00562   0.00000   0.01583   0.01583   2.07099
    R4        2.04261   0.00511   0.00000   0.01409   0.01409   2.05670
    R5        2.87861  -0.00141   0.00000  -0.00438  -0.00433   2.87428
    R6        2.64197   0.00652   0.00000   0.01453   0.01461   2.65658
    R7        2.67660   0.00551   0.00000   0.01268   0.01268   2.68928
    R8        2.04124   0.00708   0.00000   0.01944   0.01944   2.06068
    R9        2.67851   0.00346   0.00000   0.00798   0.00798   2.68649
   R10        2.89175  -0.00132   0.00000  -0.00526  -0.00529   2.88646
   R11        2.03743   0.00744   0.00000   0.02030   0.02030   2.05773
   R12        2.88273  -0.00125   0.00000  -0.00456  -0.00464   2.87809
   R13        2.86784  -0.00121   0.00000  -0.00419  -0.00423   2.86361
   R14        2.05459   0.00337   0.00000   0.00947   0.00947   2.06407
   R15        2.05236   0.00276   0.00000   0.00774   0.00774   2.06010
   R16        2.67607   0.00630   0.00000   0.01506   0.01509   2.69116
   R17        2.87317  -0.00076   0.00000  -0.00233  -0.00234   2.87084
   R18        2.04380   0.00447   0.00000   0.01233   0.01233   2.05613
   R19        2.05637   0.00567   0.00000   0.01598   0.01598   2.07236
   R20        2.88163  -0.00124   0.00000  -0.00524  -0.00526   2.87638
   R21        2.05569   0.00406   0.00000   0.01143   0.01143   2.06712
   R22        2.05120   0.00250   0.00000   0.00699   0.00699   2.05819
   R23        2.69887   0.00539   0.00000   0.01368   0.01371   2.71258
   R24        2.04294   0.00474   0.00000   0.01307   0.01307   2.05601
   R25        2.04522   0.00651   0.00000   0.01802   0.01802   2.06324
   R26        2.05442   0.00346   0.00000   0.00973   0.00973   2.06414
   R27        2.04859   0.00330   0.00000   0.00918   0.00918   2.05778
   R28        2.89252  -0.00105   0.00000  -0.00448  -0.00450   2.88801
   R29        2.05284   0.00266   0.00000   0.00746   0.00746   2.06030
   R30        2.05246   0.00368   0.00000   0.01030   0.01030   2.06276
   R31        2.04742   0.00389   0.00000   0.01080   0.01080   2.05822
   R32        2.05601   0.00345   0.00000   0.00973   0.00973   2.06574
    A1        1.95946   0.00030   0.00000  -0.00050  -0.00050   1.95897
    A2        1.90194  -0.00123   0.00000  -0.00573  -0.00577   1.89617
    A3        1.92996  -0.00052   0.00000  -0.00728  -0.00727   1.92268
    A4        1.91004   0.00124   0.00000   0.00938   0.00938   1.91942
    A5        1.86407  -0.00041   0.00000  -0.00078  -0.00081   1.86327
    A6        1.89726   0.00069   0.00000   0.00545   0.00542   1.90268
    A7        1.98191   0.00252   0.00000   0.00810   0.00769   1.98960
    A8        1.92139  -0.00226   0.00000  -0.01527  -0.01548   1.90591
    A9        1.90579  -0.00053   0.00000   0.00641   0.00638   1.91218
   A10        1.99436  -0.00191   0.00000  -0.02377  -0.02379   1.97057
   A11        1.81861  -0.00018   0.00000   0.00540   0.00551   1.82412
   A12        1.83075   0.00258   0.00000   0.02353   0.02371   1.85445
   A13        1.86480  -0.00020   0.00000  -0.00098  -0.00095   1.86385
   A14        1.91522   0.00085   0.00000   0.00098   0.00087   1.91610
   A15        1.87449  -0.00003   0.00000   0.00376   0.00378   1.87827
   A16        1.95105  -0.00039   0.00000  -0.00649  -0.00645   1.94460
   A17        1.92850   0.00067   0.00000   0.00704   0.00701   1.93551
   A18        1.92716  -0.00085   0.00000  -0.00381  -0.00378   1.92338
   A19        1.91776  -0.00063   0.00000  -0.00626  -0.00644   1.91132
   A20        1.91237   0.00043   0.00000   0.00093   0.00099   1.91336
   A21        1.94862  -0.00018   0.00000   0.00010   0.00012   1.94874
   A22        1.91895   0.00034   0.00000   0.00070   0.00073   1.91968
   A23        1.88929  -0.00011   0.00000  -0.00069  -0.00063   1.88867
   A24        1.87629   0.00017   0.00000   0.00547   0.00544   1.88173
   A25        1.93676   0.00096   0.00000   0.00573   0.00565   1.94241
   A26        1.85642  -0.00088   0.00000  -0.00276  -0.00274   1.85369
   A27        1.90095   0.00083   0.00000   0.00486   0.00491   1.90587
   A28        1.94672  -0.00039   0.00000  -0.00352  -0.00352   1.94320
   A29        1.92982  -0.00105   0.00000  -0.00713  -0.00711   1.92271
   A30        1.89086   0.00057   0.00000   0.00319   0.00317   1.89403
   A31        1.97519  -0.00422   0.00000  -0.02502  -0.02495   1.95024
   A32        1.88872   0.00248   0.00000  -0.00124  -0.00128   1.88744
   A33        1.92086  -0.00112   0.00000  -0.00182  -0.00184   1.91902
   A34        1.93459  -0.00040   0.00000   0.00115   0.00118   1.93577
   A35        1.93103  -0.00077   0.00000  -0.00374  -0.00376   1.92728
   A36        1.91890  -0.00101   0.00000  -0.00009  -0.00006   1.91883
   A37        1.87014   0.00074   0.00000   0.00574   0.00573   1.87588
   A38        1.97846   0.00186   0.00000   0.00545   0.00538   1.98384
   A39        1.94278  -0.00050   0.00000  -0.00425  -0.00424   1.93854
   A40        1.91721  -0.00137   0.00000  -0.00640  -0.00640   1.91081
   A41        1.82769  -0.00082   0.00000  -0.00071  -0.00069   1.82700
   A42        1.91204   0.00029   0.00000   0.00436   0.00441   1.91645
   A43        1.88167   0.00056   0.00000   0.00186   0.00183   1.88350
   A44        1.96854  -0.00102   0.00000  -0.01329  -0.01336   1.95518
   A45        1.87547   0.00003   0.00000   0.00621   0.00625   1.88172
   A46        1.88730   0.00016   0.00000  -0.00652  -0.00660   1.88070
   A47        1.89945   0.00115   0.00000   0.01054   0.01061   1.91006
   A48        1.95667  -0.00034   0.00000  -0.00241  -0.00259   1.95407
   A49        1.87233   0.00009   0.00000   0.00680   0.00681   1.87913
   A50        1.92819  -0.00005   0.00000  -0.00602  -0.00609   1.92209
   A51        1.90626   0.00041   0.00000   0.00222   0.00227   1.90853
   A52        1.90542  -0.00051   0.00000  -0.00185  -0.00187   1.90355
   A53        1.92608  -0.00066   0.00000  -0.00033  -0.00032   1.92576
   A54        1.92495   0.00057   0.00000   0.00108   0.00110   1.92605
   A55        1.87193   0.00025   0.00000   0.00523   0.00522   1.87715
   A56        2.11840  -0.00543   0.00000  -0.02847  -0.02829   2.09011
   A57        2.16958  -0.01731   0.00000  -0.06807  -0.06807   2.10151
   A58        1.94042   0.00104   0.00000  -0.00838  -0.00848   1.93194
   A59        1.92504  -0.00092   0.00000  -0.00908  -0.00905   1.91599
   A60        1.88248  -0.00040   0.00000   0.00387   0.00388   1.88636
   A61        1.93375   0.00002   0.00000   0.00250   0.00242   1.93617
   A62        1.90882  -0.00026   0.00000   0.00464   0.00467   1.91349
   A63        1.87123   0.00049   0.00000   0.00722   0.00721   1.87844
    D1       -1.17391   0.00130   0.00000   0.02960   0.02960  -1.14431
[...]
 -0.00024423,-0.00016066,-0.00005496,-0.00015896,0.00000691,-0.00145981
 ,0.00395719,-0.03697461,0.00187858,-0.00073845,0.00131049,0.00007352,0
 .00027657,0.00010389,0.00001953,-0.00001841,0.00000467,-0.00000937,0.0
 0004525,-0.00000983,0.00070241,-0.00102765,-0.00051070,0.00009466,-0.0
 0006944,0.00221965,-0.00010001,0.00014086,0.00145128,-0.00016456,-0.00
 026064,0.00081952,-0.00001302,-0.00001052,0.00000311,-0.00000635,-0.00
 000768,-0.00000693,0.00005932,-0.00024575,-0.00019130,0.00004640,-0.00
 011979,0.00006884,0.00027824,0.00040492,0.00407386,0.12874917,-0.04060
 078,0.22850309,0.00003104,-0.00030305,-0.00023299,-0.01454899,0.010238
 81,-0.01322478,-0.00034686,0.00024032,0.00198941,0.00083554,-0.0004945
 9,0.00043568,0.00007749,0.00003325,0.00001992,-0.00013578,0.00003907,0
 .00002539,0.00990668,-0.00325940,0.01002659,-0.00028643,-0.00010168,0.
 00019754,-0.18358014,0.05007302,-0.12048706,0.00004003,-0.00004558,-0.
 00003958,0.00124997,-0.00032835,0.00031436,-0.00641654,-0.00345749,-0.
 00324469,-0.00020593,-0.00005862,-0.00049139,-0.00010786,0.00009228,-0
 .00005352,0.00000489,0.00001710,0.00001552,0.00062761,0.00038423,0.000
 39446,0.00004099,-0.00004775,-0.00011264,-0.00008717,-0.00027395,-0.00
 015278,0.00014719,-0.00018930,-0.00005214,-0.00001939,0.00000477,0.000
 00108,-0.00000620,-0.00000650,-0.00000952,-0.00035231,0.00003217,0.003
 08169,0.00074666,0.00006116,-0.00086370,0.00004471,0.00000029,-0.00004
 463,-0.00000211,0.00005772,-0.00004654,0.20148326,-0.00001627,-0.00024
 327,-0.00022071,-0.01568757,0.00676789,-0.01535397,-0.00042837,0.00061
 461,0.00103674,-0.00019293,0.00023101,-0.00137849,0.00004816,0.0000219
 8,0.00001064,-0.00007171,0.00002057,0.00001653,0.00420989,-0.00235864,
 0.00458370,-0.00027962,-0.00006008,0.00012531,0.05412433,-0.07079306,0
 .04624997,0.00001697,-0.00002424,-0.00001640,0.00075036,0.00029439,0.0
 0085362,-0.00539150,-0.00196351,-0.00180040,-0.00005332,-0.00001562,-0
 .00017920,-0.00007419,0.00008078,-0.00004433,0.00000365,0.00001511,0.0
 0000335,0.00059324,0.00097289,0.00014432,0.00006130,-0.00004511,-0.000
 08450,-0.00009185,0.00027527,-0.00023234,-0.00016005,-0.00002427,-0.00
 010534,-0.00001130,0.00000128,0.00000057,-0.00000341,-0.00000331,-0.00
 000580,-0.00086312,0.00083290,0.00108800,0.00024555,0.00006070,-0.0002
 1042,0.00005762,0.00002707,-0.00003805,-0.00000841,0.00000737,0.000009
 95,-0.05522105,0.07162398,0.00003096,0.00001305,0.00006454,0.00019083,
 0.00074583,-0.00247166,0.00034103,-0.00002662,0.00016524,-0.00140473,0
 .00091468,0.00097016,0.00000299,0.00000061,-0.00000014,-0.00001229,0.0
 0000173,-0.00000170,-0.02082667,0.00826700,-0.02238845,0.00000304,-0.0
 0004092,-0.00000934,-0.12114335,0.04429211,-0.15298638,-0.00000362,-0.
 00000435,0.00000204,0.00011843,-0.00042126,0.00007668,0.00054173,0.000
 40204,0.00156170,-0.00000754,0.00001000,0.00001763,0.00001300,-0.00001
 469,0.00000644,0.00000086,-0.00000228,-0.00000315,0.00031353,-0.000472
 60,0.00060104,-0.00001874,-0.00001870,0.00001699,0.00042948,-0.0005364
 8,0.00017969,0.00028483,0.00013285,0.00036095,-0.00000082,0.00000035,0
 .00000044,-0.00000098,0.00000013,-0.00000067,0.00296070,0.00065466,-0.
 00483294,0.00007245,-0.00003578,0.00138492,-0.00005204,-0.00007292,0.0
 0000108,0.00003907,0.00003490,-0.00001405,0.12978584,-0.05191050,0.169
 72761,0.00000812,0.00003791,0.00003277,0.00860408,-0.01751940,-0.00889
 414,0.00023232,-0.00020625,0.00010296,-0.00051864,-0.00101699,0.003423
 89,-0.00000852,-0.00000731,0.00000597,0.00000339,0.00000653,-0.0000054
 1,-0.00586607,0.01050713,0.00262613,-0.00090602,-0.00013035,0.00103426
 ,-0.09820425,0.10026366,0.04199540,-0.00000849,0.00000937,-0.00001005,
 -0.00258144,-0.00621482,-0.00211674,0.00062217,-0.00109847,-0.00056850
 ,0.00000496,0.00001406,-0.00000709,0.00000474,-0.00000809,0.00000697,0
 .00001039,0.00001206,0.00000184,0.00055756,0.00086125,0.00037684,0.000
 01945,0.00000482,0.00001528,0.00023350,-0.00040755,0.00003633,-0.00005
 797,0.00102425,0.00058082,0.00000045,0.00000202,-0.00000126,0.00000037
 ,0.00000117,0.00000109,0.00047371,-0.00035013,-0.00005878,0.00014732,0
 .00006247,-0.00059940,0.00014449,0.00009756,-0.00012639,0.00010249,0.0
 0003345,-0.00011743,-0.00898320,0.01851390,0.00834542,0.10595710,-0.00
 003472,-0.00002871,-0.00004022,0.01314891,-0.01915806,-0.00879806,0.00
 015457,0.00052414,-0.00039792,-0.00064086,0.00072297,0.00142683,-0.000
 00871,0.00000338,0.00000286,-0.00000288,0.00000308,0.00000475,-0.00361
 602,0.00731938,0.00228160,-0.00062699,0.00033175,0.00158175,0.09520308
 ,-0.23615912,-0.07965721,-0.00001850,0.00000381,-0.00000767,-0.0037441
 7,-0.00530501,-0.00140000,0.00171542,0.00155665,0.00131216,0.00007839,
 0.00004518,0.00021213,-0.00000438,0.00000537,-0.00000112,-0.00001000,-
 0.00001027,-0.00001216,-0.00028627,0.00065983,0.00046513,0.00003349,-0
 .00001646,0.00005957,-0.00003127,0.00002793,0.00001312,-0.00024411,0.0
 0030035,0.00029833,-0.00000079,0.00000073,-0.00000012,0.00000081,0.000
 00051,0.00000174,0.00027640,0.00015840,-0.00053978,0.00028089,0.000488
 39,-0.00069377,0.00012306,0.00000592,-0.00013843,0.00005598,0.00002955
 ,-0.00020127,0.00268612,-0.00622835,-0.00192187,-0.10450727,0.25463100
 ,-0.00000399,-0.00000212,0.00003801,-0.00094756,-0.00161775,-0.0023888
 2,0.00003946,-0.00001898,-0.00005149,0.00206647,0.00251273,-0.00556308
 ,-0.00000633,-0.00000722,-0.00000084,0.00000365,0.00001290,-0.00000618
 ,0.01207658,-0.02581068,-0.00911506,0.00053450,0.00054682,0.00005285,0
 .04037185,-0.07745422,-0.08044134,-0.00000084,-0.00000247,0.00000264,0
 .00000485,0.00004677,0.00134488,0.00024292,0.00005079,0.00033837,0.000
 00797,0.00001253,0.00003080,0.00001129,-0.00000597,0.00000299,0.000004
 18,0.00000683,0.00000123,-0.00041427,-0.00035087,-0.00000996,0.0000109
 9,-0.00000062,0.00003353,0.00014478,-0.00004472,0.00026007,0.00069653,
 -0.00175431,-0.00049959,0.00000122,0.00000073,0.00000008,0.00000128,0.
 00000020,0.00000043,-0.00085375,-0.00002202,0.00104310,-0.00045460,0.0
 0036600,0.00148663,-0.00009825,-0.00010141,0.00008980,-0.00009152,-0.0
 0001605,-0.00000737,-0.00725949,0.01746342,0.00757592,-0.04609196,0.08
 617316,0.08578392,-0.00108815,0.00068054,0.00021092,0.00050379,-0.0002
 1105,0.00021527,-0.00287361,0.00327915,0.00391032,0.00000042,0.0000078
 0,0.00000321,0.01153950,0.01229738,-0.00017488,-0.00000821,0.00566870,
 -0.00240757,0.00000487,-0.00001367,-0.00000371,0.00007811,0.00002897,-
 0.00000874,-0.00004899,0.00003878,-0.00001730,-0.13950057,-0.12748244,
 0.01123748,-0.00019849,0.00008944,0.00000627,-0.00019193,0.00004379,-0
 .00031188,-0.01484653,-0.02123701,0.00203336,0.00014331,-0.00004104,-0
 .00004315,0.00023657,-0.00016871,-0.00014211,-0.00005885,0.00002786,-0
 .00004277,-0.00076661,-0.00153888,0.00027853,-0.00000846,-0.00000561,-
 0.00000415,-0.00000746,-0.00000290,0.00000320,0.00036828,-0.00079770,0
 .00068065,0.00058729,-0.00083980,0.00007807,-0.00000703,0.00000172,-0.
 00000868,-0.00001142,-0.00000418,0.00000541,-0.00002935,0.00000957,-0.
 00000935,0.00001069,-0.00000871,-0.00004346,-0.00003350,-0.00001787,-0
 .00000219,0.00000019,0.00000235,0.00000044,0.15038513,0.00145971,-0.00
 017468,-0.00129098,0.00006233,-0.00003897,0.00001633,0.00167459,0.0005
 0082,-0.00127151,-0.00000219,-0.00000153,0.00000275,-0.01713433,-0.016
 53194,-0.00072867,0.00185803,-0.00661393,0.00402829,0.00000104,0.00000
 359,-0.00000333,0.00000964,-0.00000366,-0.00002087,-0.00000944,0.00000
 605,-0.00000939,-0.12645635,-0.22261585,0.01895579,-0.00005670,0.00000
 826,0.00001345,-0.00009745,0.00000468,0.00006069,0.00546663,0.00788652
 ,-0.00085208,-0.00015890,0.00005056,0.00016465,-0.00022179,0.00005137,
 0.00011459,-0.00000757,0.00000416,-0.00000708,0.00027579,0.00033955,-0
 .00025721,-0.00000021,0.00000078,-0.00000040,-0.00000111,-0.00000066,0
 .00000111,0.00018702,0.00060384,-0.00061249,0.00002507,0.00100484,0.00
 022113,0.00000059,-0.00000013,0.00000110,0.00000059,-0.00000105,0.0000
 0145,-0.00000055,0.00000058,0.00000405,0.00000038,0.00000228,0.0000052
 4,-0.00000559,-0.00000342,-0.00000044,0.00000090,-0.00000005,0.0000008
 1,0.13746626,0.24040356,-0.00036684,-0.00047070,0.00058720,-0.00027956
 ,0.00008111,-0.00005982,0.00263906,-0.00280689,-0.00294671,-0.00000039
 ,-0.00000672,0.00000159,0.00850244,0.00865867,-0.00220113,-0.00089649,
 0.00338296,-0.00018532,-0.00000454,0.00000814,-0.00000299,-0.00004447,
 -0.00002146,-0.00001532,0.00002308,-0.00001880,0.00000442,0.00988319,0
 .01674643,-0.04825889,0.00010965,-0.00002459,0.00000724,-0.00000565,0.
 00021753,0.00099941,0.01235934,0.01723655,-0.00334428,-0.00001141,-0.0
 0001141,-0.00006770,0.00001875,0.00005314,0.00000954,0.00005051,-0.000
 01054,0.00002798,0.00062869,0.00107183,-0.00021880,0.00000607,0.000004
 90,0.00000332,0.00000437,0.00000200,-0.00000166,-0.00011158,-0.0001251
 6,0.00025890,0.00028418,-0.00073971,0.00024586,0.00000223,-0.00000041,
 0.00000462,0.00000535,0.00000278,-0.00000245,0.00002016,-0.00000704,0.
 00001059,-0.00000316,0.00000557,0.00003775,0.00001918,0.00000495,0.000
 00090,0.00000249,-0.00000316,0.,-0.01501848,-0.01957315,0.05021080,-0.
 00044441,0.00012745,0.00032456,0.00017913,-0.00010517,0.00016190,0.001
 02113,-0.00010920,-0.00049813,0.00000042,0.00000087,0.00000353,-0.0089
 5180,-0.00532077,-0.01831047,0.00160218,-0.00047981,0.00156320,0.00000
 571,0.00000794,-0.00000030,-0.00000018,0.00000101,-0.00000311,-0.00000
 513,-0.00000392,-0.00002395,-0.07445229,-0.02106621,-0.07737991,-0.000
 00906,0.00003819,-0.00000483,-0.00111925,-0.00057840,-0.00001842,0.008
 82607,0.00752086,0.02498531,-0.00008592,-0.00005718,-0.00005421,0.0000
 7527,-0.00004183,-0.00001237,0.00007825,0.00005010,-0.00008844,-0.0000
 2306,0.00011899,-0.00017860,-0.00000101,-0.00000017,-0.00000033,-0.000
 00043,-0.00000005,0.00000018,0.00052109,-0.00072239,0.00036867,-0.0009
 0185,0.00362266,-0.00142281,0.00000130,0.00000120,0.00000092,0.0000010
 7,-0.00000040,-0.00000176,-0.00000174,-0.00000054,0.00000097,0.0000096
 4,-0.00000072,0.00000105,-0.00000584,-0.00000568,-0.00000185,0.0000038
 9,0.00000161,-0.00000044,-0.00620961,-0.00337321,-0.01633855,0.0824248
 9,-0.00002996,-0.00002688,0.00005269,-0.00003779,-0.00001087,0.0000901
 7,-0.00017942,-0.00035965,-0.00000497,0.00000057,-0.00000088,0.,0.0100
 4366,0.00474749,0.02574044,-0.00008125,0.00263810,-0.00144805,-0.00000
 070,0.00000160,-0.00000135,-0.00000701,-0.00000744,-0.00000378,0.00000
 485,-0.00000186,-0.00000870,-0.02287070,-0.06480735,-0.06072939,0.0000
 3365,0.00000332,-0.00000427,-0.00079129,-0.00003722,0.00064100,-0.0016
 2230,-0.00269873,-0.00701835,0.00004928,0.00001078,-0.00003293,-0.0000
 3450,0.00003411,-0.00000037,0.00003555,0.00000729,-0.00001316,0.000053
 53,0.00004889,-0.00001467,0.00000116,0.00000050,0.00000040,0.00000066,
 0.00000033,-0.00000024,-0.00083109,0.00110923,-0.00068850,0.00257324,-
 0.00348251,0.00251281,-0.00000082,0.00000006,0.00000055,0.00000020,0.0
 0000055,-0.00000127,0.00000405,-0.00000074,0.00000152,-0.00000419,0.00
 000058,0.00000680,0.00000356,-0.00000185,-0.00000123,0.00000149,-0.000
 00278,0.00000057,-0.00760432,-0.00564871,-0.02372315,0.01996341,0.0675
 6983,0.00009584,0.00002262,0.00010039,0.00019874,-0.00014193,0.0001644
 6,-0.00107755,-0.00082715,-0.00066221,0.00000016,-0.00000288,0.,-0.005
 17465,-0.00286529,-0.01192683,0.00103993,-0.00025431,0.00077292,0.0000
 0205,0.00000350,-0.00000727,-0.00000613,-0.00000812,-0.00001221,-0.000
 01799,0.00000536,-0.00002417,-0.07676561,-0.05852934,-0.26748452,0.000
 06305,0.00008481,0.00000194,-0.00063311,0.00002715,0.00125012,-0.00498
 923,-0.00496535,-0.01789723,-0.00003410,-0.00006534,-0.00001384,-0.000
 01351,0.00008799,-0.00003538,0.00010522,0.00005653,-0.00008498,0.00015
 758,0.00016123,0.00005269,0.00000210,0.00000146,0.00000109,0.00000013,
 0.00000219,0.00000033,0.00013328,0.00031000,0.00090412,-0.00141775,0.0
 0189491,0.00027681,-0.00000081,-0.00000051,-0.00000070,-0.00000113,0.0
 0000075,0.00000078,0.00000460,-0.00000067,0.00000521,-0.00000735,-0.00
 000259,0.00001008,-0.00000628,-0.00000948,-0.00000223,0.00000361,0.000
 00271,0.00000110,0.00074713,0.00009101,0.00348642,0.08431593,0.0654500
 1,0.29150200,-0.00276623,-0.00329581,0.00098110,-0.00025239,0.00058578
 ,-0.00008862,0.01130985,-0.01401503,0.00783030,-0.00004380,-0.00002792
 ,0.00009646,-0.00384248,-0.00092952,0.00508274,0.00098795,0.00055401,-
 0.00072709,0.00000199,0.00001491,0.00000022,0.00013110,0.00008774,-0.0
 0035962,0.00002130,0.00000575,-0.00001916,-0.01470280,0.01715137,-0.01
 116821,-0.00230632,-0.00105309,-0.00010930,0.00151451,0.00183867,0.000
 70649,-0.14159413,0.11434860,-0.06669484,-0.00004461,0.00003111,-0.000
 02439,0.00071488,-0.00098440,0.00022962,-0.00003293,-0.00007132,-0.000
 01806,0.00064149,0.00108719,-0.00028424,0.00000987,0.00000967,-0.00000
 069,-0.00001870,-0.00002465,0.00000550,-0.00068938,0.00158419,-0.00052
 205,0.00018002,-0.00025663,0.00007295,0.00000438,-0.00000212,0.0000040
 0,-0.00000025,-0.00000319,-0.00000117,-0.00002081,-0.00000128,0.000022
 56,0.00007575,0.00003099,0.00007973,0.00000881,0.00000060,-0.00000215,
 0.00000562,-0.00001781,-0.00000305,0.00068681,-0.00056997,-0.00063905,
 0.00126699,-0.00031397,-0.00003937,0.15473528,-0.00590550,-0.00305811,
 0.00062274,-0.00025599,-0.00099419,-0.00076369,0.01710199,-0.02158916,
 0.01279480,0.00003413,0.00001154,-0.00013549,0.00033581,0.00128317,-0.
 00123352,0.00044326,0.00056014,-0.00029354,0.00000592,-0.00002947,0.00
 001973,-0.00024717,0.00004381,0.00055192,-0.00005928,0.00003993,0.0000
 5308,0.00320232,-0.00374736,0.00128571,0.00196854,0.00101711,0.0002745
 1,0.00056499,0.00300715,-0.00020091,0.11125293,-0.17987585,0.07608544,
 0.00006432,0.00021874,0.00011226,0.00118938,-0.00132278,0.00034030,-0.
 00013747,0.00000394,-0.00000775,-0.00007096,0.00104622,-0.00037414,-0.
 00000786,-0.00001066,0.00000382,0.00003250,0.00003391,-0.00000457,0.00
 010782,-0.00020724,0.00028010,0.00007301,-0.00007090,0.00018057,-0.000
 00434,0.00000234,-0.00000646,0.00000220,0.00000723,-0.00000270,0.00001
 066,-0.00000433,-0.00004571,-0.00009774,-0.00001042,-0.00011469,0.0000
 0279,-0.00000461,0.00000333,0.00001295,0.00002716,0.00000431,0.0000841
 2,0.00035784,-0.00032480,-0.00011921,0.00015712,0.00007857,-0.12224760
 ,0.19388842,0.00174963,0.00101774,0.00027144,-0.00024154,0.00065270,0.
 00023026,-0.00494742,0.00219524,-0.00412421,-0.00002602,0.00000614,0.0
 0003966,0.00387766,0.00058288,-0.00290403,-0.00100235,-0.00002501,0.00
 025693,0.00000416,0.00002222,0.00000787,-0.00001984,-0.00006580,-0.000
 14228,0.00004650,-0.00004095,-0.00001961,0.01331690,-0.01648596,0.0091
 7546,-0.00112764,-0.00052450,0.00005156,0.00111029,-0.00048129,0.00095
 769,-0.06567681,0.07897511,-0.09394684,0.00024226,-0.00018475,0.000256
 72,-0.00036742,0.00052114,0.00017190,0.00005466,-0.00004987,-0.0000044
 0,-0.00021511,-0.00010004,-0.00006411,-0.00000232,-0.00000144,-0.00000
 283,-0.00001065,-0.00001462,0.00000170,0.00071798,-0.00100241,0.000459
 24,0.00015953,-0.00013412,0.00018688,0.00000181,-0.00000363,0.00000302
 ,0.00000492,-0.00000458,-0.00000667,-0.00000380,0.00000087,0.00001896,
 0.00000439,0.00001504,0.00000041,0.00001627,0.00000845,-0.00000199,-0.
 00000543,-0.00001320,-0.00000169,-0.00087872,0.00050634,0.00061477,-0.
 00102409,0.00007987,0.00092359,0.06933628,-0.08504100,0.09823287,0.000
 17906,0.00081487,-0.00036867,0.00167278,-0.00070058,0.00069486,-0.0059
 3478,-0.00267534,-0.01556717,-0.00001040,-0.00000316,0.00006330,0.0016
 6722,-0.00042147,0.00034314,-0.00010043,-0.00003435,-0.00000949,-0.000
 00230,0.00000766,-0.00005374,0.00015020,-0.00002951,-0.00030632,-0.000
 23964,0.00014761,-0.00015250,0.00791019,0.00972233,0.02508076,-0.00105
 807,0.00026874,0.00018209,-0.00330404,-0.00533727,-0.00141596,-0.07691
 253,-0.03023066,-0.07798749,0.00030016,0.00012008,0.00022240,-0.000043
 64,0.00003535,0.00021826,-0.00008849,0.00005896,-0.00011573,0.00024698
 ,0.00070318,0.00006229,-0.00000287,0.00000241,-0.00000594,-0.00002643,
 -0.00001499,0.00001079,0.00001543,-0.00033198,-0.00008703,-0.00008626,
 -0.00020857,-0.00049485,0.00000882,-0.00000084,0.00000352,-0.00001226,
 -0.00001540,0.00002452,-0.00002824,0.00001639,0.00003341,-0.00000279,-
 0.00002035,0.00003358,-0.00012664,-0.00004735,0.00000277,-0.00000171,0
 .00003370,0.00000709,0.00134383,-0.00039320,-0.00083857,-0.00380544,0.
 00164046,0.00331523,-0.00598179,-0.00733654,-0.01509407,0.08427406,0.0
 0049218,0.00064691,-0.00031564,0.00159072,-0.00176128,0.00056510,-0.00
 632132,-0.00659375,-0.02376587,0.00001208,-0.00000710,-0.00000491,-0.0
 0067301,-0.00009189,-0.00051799,0.00014395,-0.00036911,0.00011807,-0.0
 0001209,-0.00001370,-0.00006728,0.00010187,0.00005603,-0.00006689,-0.0
 0041039,0.00023633,-0.00017372,-0.00188428,-0.00232760,-0.00435332,0.0
 0002790,0.00058028,0.00014847,-0.00573073,-0.00525849,-0.00220082,-0.0
 2880734,-0.08055484,-0.07557514,0.00026171,-0.00050755,0.00022731,-0.0
 0015339,0.00028541,0.00017148,-0.00008647,0.00005657,-0.00012494,0.000
 06167,0.00117567,0.00026975,-0.00000554,-0.00000102,-0.00000213,-0.000
 00887,0.00000775,0.00000773,0.00003374,0.00005263,0.00009676,0.0001046
 9,-0.00007553,0.00005803,0.00000718,0.00000207,0.00000397,-0.00001581,
 -0.00001403,0.00003214,-0.00002730,0.00000410,0.00002524,-0.00001868,-
 0.00000270,-0.00000738,-0.00017375,-0.00007845,0.00000736,-0.00000030,
 0.00006333,0.00001084,0.00024748,0.00040527,0.00039114,0.00053055,0.00
 075773,-0.00060785,0.00648373,0.00921930,0.01958941,0.03422983,0.08410
 764,-0.00046534,0.00034209,-0.00057077,0.00003749,0.00016388,0.0001200
 7,0.00185698,0.00179415,0.00383429,-0.00001126,-0.00000011,0.00002642,
 -0.00085041,0.00087674,0.00057928,0.00015860,-0.00035154,0.00006689,0.
 00000749,0.00000491,-0.00000244,0.00005275,-0.00002367,-0.00010015,0.0
 0001688,0.00001725,-0.00003442,-0.00536923,-0.00664286,-0.01911782,-0.
 00036427,-0.00013102,-0.00001270,0.00081487,0.00136053,0.00148925,-0.0
 7818086,-0.07819099,-0.24715816,0.00020886,0.00034538,0.00027184,0.000
 08410,-0.00017009,0.00021430,0.00000267,0.00002299,-0.00002066,-0.0001
 5288,-0.00056762,0.00049788,-0.00000037,0.00000010,0.00000049,-0.00000
 669,-0.00000775,0.00000210,0.00020042,0.00012792,0.00022852,0.00019329
 ,-0.00042339,0.00044756,-0.00000159,-0.00000197,0.00000063,-0.00000405
 ,-0.00000107,0.00000108,-0.00001122,0.00001046,-0.00000172,-0.00002140
 ,-0.00001011,-0.00000302,-0.00000121,-0.00000959,-0.00000125,0.0000105
 2,-0.00000987,-0.00000095,-0.00029311,0.00043884,0.00079377,0.00363633
 ,-0.00088243,-0.00130249,-0.00374689,-0.00414222,-0.01064227,0.0821995
 3,0.08606108,0.27039446\\0.00000006,-0.00000139,-0.00000085,0.00243543
 ,0.00284335,-0.00306307,0.00132263,0.00175382,-0.00141625,-0.00000068,
 -0.00000163,-0.00000397,-0.00000064,0.00000069,0.00000457,0.00000012,0
 .00000064,0.00000094,0.00000112,-0.00000013,-0.00000470,-0.00000169,-0
 .00000124,-0.00000015,0.00000154,0.00000117,-0.00000400,0.00000035,0.0
 0000136,0.00000421,-0.00124509,-0.00137519,0.00165819,-0.00251211,-0.0
 0321827,0.00282064,0.00000010,0.00000011,0.00000448,-0.00000216,-0.000
 00289,0.00000107,-0.00000051,-0.00000178,-0.00000218,0.00000311,0.0000
 0330,-0.00000016,-0.00000104,-0.00000222,0.00000042,0.00000012,-0.0000
 0050,-0.00000389,-0.00000162,-0.00000354,-0.00000418,0.00000069,0.0000
 0196,0.00000426,-0.00000068,-0.00000070,0.00000486,-0.00000116,-0.0000
 0193,-0.00000516,-0.00000030,-0.00000089,-0.00000758,-0.00000121,-0.00
 000183,0.00000092,-0.00000222,-0.00000279,-0.00000023,0.00000267,0.000
 00316,-0.00000427,0.00000233,0.00000253,-0.00000505,0.00000070,0.00000
 208,0.00000742,0.00000174,0.00000369,0.00000422,-0.00000004,0.00000078
 ,0.00000458,-0.00000155,-0.00000169,0.00000494\\\@


 I SUPPOSE A BABY LLAMA HAS A MMAMA AND A PPOPA.
     -- RICHARD AMOUR
 Job cpu time:       0 days 12 hours 38 minutes  8.2 seconds.
 Elapsed time:       0 days  1 hours  3 minutes 13.2 seconds.
 File lengths (MBytes):  RWF=    720 Int=      0 D2E=      0 Chk=     34 Scr=      1
 Normal termination of Gaussian 16 at Fri Mar  8 21:27:27 2019.
