 Entering Gaussian System, Link 0=g16
 Initial command:
 /sw/Projects/G16/g16/l1.exe "/nvme/pbs/tmpdir/pbs.74202[13].flm1/Gau-28568.inp" -scrdir="/nvme/pbs/tmpdir/pbs.74202[13].flm1/"
 Entering Link 1 = /sw/Projects/G16/g16/l1.exe PID=     28569.
  
 Copyright (c) 1988-2017, Gaussian, Inc.  All Rights Reserved.
  
 This is part of the Gaussian(R) 16 program.  It is based on
 the Gaussian(R) 09 system (copyright 2009, Gaussian, Inc.),
 the Gaussian(R) 03 system (copyright 2003, Gaussian, Inc.),
 the Gaussian(R) 98 system (copyright 1998, Gaussian, Inc.),
 the Gaussian(R) 94 system (copyright 1995, Gaussian, Inc.),
 the Gaussian 92(TM) system (copyright 1992, Gaussian, Inc.),
 the Gaussian 90(TM) system (copyright 1990, Gaussian, Inc.),
 the Gaussian 88(TM) system (copyright 1988, Gaussian, Inc.),
 the Gaussian 86(TM) system (copyright 1986, Carnegie Mellon
 University), and the Gaussian 82(TM) system (copyright 1983,
 Carnegie Mellon University). Gaussian is a federally registered
 trademark of Gaussian, Inc.
  
 This software contains proprietary and confidential information,
 including trade secrets, belonging to Gaussian, Inc.
  
 This software is provided under written license and may be
 used, copied, transmitted, or stored only in accord with that
 written license.
  
 The following legend is applicable only to US Government
 contracts under FAR:
  
                    RESTRICTED RIGHTS LEGEND
  
 Use, reproduction and disclosure by the US Government is
 subject to restrictions as set forth in subparagraphs (a)
 and (c) of the Commercial Computer Software - Restricted
 Rights clause in FAR 52.227-19.
  
 Gaussian, Inc.
 340 Quinnipiac St., Bldg. 40, Wallingford CT 06492
  
  
 ---------------------------------------------------------------
 Warning -- This program may not be used in any manner that
 competes with the business of Gaussian, Inc. or will provide
 assistance to any competitor of Gaussian, Inc.  The licensee
 of this program is prohibited from giving any competitor of
 Gaussian, Inc. access to this program.  By using this program,
 the user acknowledges that Gaussian, Inc. is engaged in the
 business of creating and licensing software in the field of
 computational chemistry and represents and warrants to the
 licensee that it is not a competitor of Gaussian, Inc. and that
 it will not use this program in any manner prohibited above.
 ---------------------------------------------------------------
  

 Cite this work as:
 Gaussian 16, Revision B.01,
 M. J. Frisch, G. W. Trucks, H. B. Schlegel, G. E. Scuseria, 
 M. A. Robb, J. R. Cheeseman, G. Scalmani, V. Barone, 
 G. A. Petersson, H. Nakatsuji, X. Li, M. Caricato, A. V. Marenich, 
 J. Bloino, B. G. Janesko, R. Gomperts, B. Mennucci, H. P. Hratchian, 
 J. V. Ortiz, A. F. Izmaylov, J. L. Sonnenberg, D. Williams-Young, 
 F. Ding, F. Lipparini, F. Egidi, J. Goings, B. Peng, A. Petrone, 
 T. Henderson, D. Ranasinghe, V. G. Zakrzewski, J. Gao, N. Rega, 
 G. Zheng, W. Liang, M. Hada, M. Ehara, K. Toyota, R. Fukuda, 
 J. Hasegawa, M. Ishida, T. Nakajima, Y. Honda, O. Kitao, H. Nakai, 
 T. Vreven, K. Throssell, J. A. Montgomery, Jr., J. E. Peralta, 
 F. Ogliaro, M. J. Bearpark, J. J. Heyd, E. N. Brothers, K. N. Kudin, 
 V. N. Staroverov, T. A. Keith, R. Kobayashi, J. Normand, 
 K. Raghavachari, A. P. Rendell, J. C. Burant, S. S. Iyengar, 
 J. Tomasi, M. Cossi, J. M. Millam, M. Klene, C. Adamo, R. Cammi, 
 J. W. Ochterski, R. L. Martin, K. Morokuma, O. Farkas, 
 J. B. Foresman, and D. J. Fox, Gaussian, Inc., Wallingford CT, 2016.
 
 ******************************************
 Gaussian 16:  ES64L-G16RevB.01 20-Dec-2017
                 8-Mar-2019 
 ******************************************
 %mem=20gb
 %nproc=12
 Will use up to   12 processors via shared memory.
 %chk=4c1_a1_a4_4c1_PHI.inp_extract_13.chk
 ----------------------------------------------------------------------
 #M062X/6-311++G(2d,2p) opt=ModRedundant freq=noraman SCRF=(SMD,solvent
 =water)
 ----------------------------------------------------------------------
 1/18=120,19=15,26=3,38=1/1,3;
 2/9=110,12=2,17=6,18=5,40=1/2;
 3/5=4,6=6,7=1212,11=2,25=1,30=1,70=32201,71=1,72=1,74=-55/1,2,3;
 4//1;
 5/5=2,38=5,53=1/2;
 6/7=2,8=2,9=2,10=2,28=1/1;
 7//1,2,3,16;
 1/18=20,19=15,26=3/3(2);
 2/9=110/2;
 99//99;
 2/9=110/2;
 3/5=4,6=6,7=1212,11=2,25=1,30=1,70=32205,71=1,72=1,74=-55/1,2,3;
 4/5=5,16=3,69=1/1;
 5/5=2,38=5,53=1/2;
 7//1,2,3,16;
 1/18=20,19=15,26=3/3(-5);
 2/9=110/2;
 6/7=2,8=2,9=2,10=2,19=2,28=1/1;
 99/9=1/99;
 --------------------------------
 4c1_a1_a4_4c1_PHI.inp_extract_13
 --------------------------------
 Symbolic Z-matrix:
 Charge =  0 Multiplicity = 1
 C                    -1.74919   1.31332  -0.42449 
 C                     1.15972   0.27303   1.12915 
 C                    -0.76476   0.15266  -0.46954 
 C                     3.37124  -0.30675  -0.7054 
 C                    -3.6016   -0.08914   0.00438 
 O                    -2.84986   1.0382    0.41596 
 C                     2.58078   0.97883  -0.93662 
 C                     2.46417  -1.35716  -0.09388 
 C                     1.84652   1.39872   0.34391 
 C                    -2.74344  -1.34428   0.004 
 O                     1.92825  -0.90303   1.14026 
 O                    -0.17809  -0.01559   0.8141 
 C                    -1.49474  -1.13294  -0.85517 
 H                    -2.10396   1.52058  -1.43174 
 H                    -1.27721   2.20342  -0.03429 
 H                     1.11478   0.56175   2.16672 
 H                    -0.00988   0.37566  -1.20538 
 H                     4.20459  -0.12207  -0.03156 
 H                     3.78138  -0.68147  -1.63873 
 H                    -4.42798  -0.17381   0.69692 
 H                    -4.00477   0.09892  -0.98865 
 H                     1.88737   0.82616  -1.75649 
 H                     3.24264   1.78505  -1.23768 
 H                     3.00465  -2.2634    0.14203 
 H                     1.65671  -1.61356  -0.77245 
 H                     2.58281   1.80964   1.02854 
 H                     1.13127   2.1891    0.14795 
 H                    -3.32724  -2.17742  -0.3767 
 H                    -2.46357  -1.58622   1.02497 
 H                    -0.81885  -1.97719  -0.77471 
 H                    -1.78732  -1.04968  -1.89934 
 
 The following ModRedundant input section has been read:
 D      11       2      12       3 F                                           
 

 GradGradGradGradGradGradGradGradGradGradGradGradGradGradGradGradGradGrad
 Berny optimization.
 Initialization pass.
                           ----------------------------
                           !    Initial Parameters    !
                           ! (Angstroms and Degrees)  !
 --------------------------                            --------------------------
 ! Name  Definition              Value          Derivative Info.                !
 --------------------------------------------------------------------------------
 ! R1    R(1,3)                  1.5226         estimate D2E/DX2                !
 ! R2    R(1,6)                  1.4119         estimate D2E/DX2                !
 ! R3    R(1,14)                 1.0878         estimate D2E/DX2                !
 ! R4    R(1,15)                 1.0804         estimate D2E/DX2                !
 ! R5    R(2,9)                  1.5348         estimate D2E/DX2                !
 ! R6    R(2,11)                 1.4049         estimate D2E/DX2                !
 ! R7    R(2,12)                 1.4044         estimate D2E/DX2                !
 ! R8    R(2,16)                 1.0779         estimate D2E/DX2                !
 ! R9    R(3,12)                 1.4213         estimate D2E/DX2                !
 ! R10   R(3,13)                 1.5279         estimate D2E/DX2                !
 ! R11   R(3,17)                 1.0775         estimate D2E/DX2                !
 ! R12   R(4,7)                  1.5268         estimate D2E/DX2                !
 ! R13   R(4,8)                  1.5166         estimate D2E/DX2                !
 ! R14   R(4,18)                 1.0875         estimate D2E/DX2                !
 ! R15   R(4,19)                 1.0862         estimate D2E/DX2                !
 ! R16   R(5,6)                  1.4161         estimate D2E/DX2                !
 ! R17   R(5,10)                 1.5205         estimate D2E/DX2                !
 ! R18   R(5,20)                 1.0815         estimate D2E/DX2                !
 ! R19   R(5,21)                 1.0881         estimate D2E/DX2                !
 ! R20   R(7,9)                  1.5347         estimate D2E/DX2                !
 ! R21   R(7,22)                 1.0846         estimate D2E/DX2                !
 ! R22   R(7,23)                 1.0857         estimate D2E/DX2                !
 ! R23   R(8,11)                 1.42           estimate D2E/DX2                !
 ! R24   R(8,24)                 1.0812         estimate D2E/DX2                !
 ! R25   R(8,25)                 1.0854         estimate D2E/DX2                !
 ! R26   R(9,26)                 1.0861         estimate D2E/DX2                !
 ! R27   R(9,27)                 1.0838         estimate D2E/DX2                !
 ! R28   R(10,13)                1.5304         estimate D2E/DX2                !
 ! R29   R(10,28)                1.0862         estimate D2E/DX2                !
 ! R30   R(10,29)                1.0859         estimate D2E/DX2                !
 ! R31   R(13,30)                1.0845         estimate D2E/DX2                !
 ! R32   R(13,31)                1.0876         estimate D2E/DX2                !
 ! A1    A(3,1,6)              111.9066         estimate D2E/DX2                !
 ! A2    A(3,1,14)             109.1899         estimate D2E/DX2                !
 ! A3    A(3,1,15)             110.8704         estimate D2E/DX2                !
 ! A4    A(6,1,14)             109.5148         estimate D2E/DX2                !
 ! A5    A(6,1,15)             106.6243         estimate D2E/DX2                !
 ! A6    A(14,1,15)            108.658          estimate D2E/DX2                !
 ! A7    A(9,2,11)             111.9146         estimate D2E/DX2                !
 ! A8    A(9,2,12)             117.5319         estimate D2E/DX2                !
 ! A9    A(9,2,16)             108.3418         estimate D2E/DX2                !
 ! A10   A(11,2,12)            110.5383         estimate D2E/DX2                !
 ! A11   A(11,2,16)            103.8513         estimate D2E/DX2                !
 ! A12   A(12,2,16)            103.3718         estimate D2E/DX2                !
 ! A13   A(1,3,12)             109.2924         estimate D2E/DX2                !
 ! A14   A(1,3,13)             109.876          estimate D2E/DX2                !
 ! A15   A(1,3,17)             108.3852         estimate D2E/DX2                !
 ! A16   A(12,3,13)            108.9991         estimate D2E/DX2                !
 ! A17   A(12,3,17)            110.614          estimate D2E/DX2                !
 ! A18   A(13,3,17)            109.6632         estimate D2E/DX2                !
 ! A19   A(7,4,8)              109.5485         estimate D2E/DX2                !
 ! A20   A(7,4,18)             110.3401         estimate D2E/DX2                !
 ! A21   A(7,4,19)             110.8463         estimate D2E/DX2                !
 ! A22   A(8,4,18)             109.0319         estimate D2E/DX2                !
 ! A23   A(8,4,19)             109.4738         estimate D2E/DX2                !
 ! A24   A(18,4,19)            107.5579         estimate D2E/DX2                !
 ! A25   A(6,5,10)             110.954          estimate D2E/DX2                !
 ! A26   A(6,5,20)             106.3692         estimate D2E/DX2                !
 ! A27   A(6,5,21)             108.9253         estimate D2E/DX2                !
 ! A28   A(10,5,20)            111.5181         estimate D2E/DX2                !
 ! A29   A(10,5,21)            110.5829         estimate D2E/DX2                !
 ! A30   A(20,5,21)            108.3488         estimate D2E/DX2                !
 ! A31   A(1,6,5)              113.3247         estimate D2E/DX2                !
 ! A32   A(4,7,9)              110.5928         estimate D2E/DX2                !
 ! A33   A(4,7,22)             109.0844         estimate D2E/DX2                !
 ! A34   A(4,7,23)             110.5883         estimate D2E/DX2                !
 ! A35   A(9,7,22)             111.3076         estimate D2E/DX2                !
 ! A36   A(9,7,23)             108.6561         estimate D2E/DX2                !
 ! A37   A(22,7,23)            106.5394         estimate D2E/DX2                !
 ! A38   A(4,8,11)             110.7719         estimate D2E/DX2                !
 ! A39   A(4,8,24)             111.686          estimate D2E/DX2                !
 ! A40   A(4,8,25)             110.8828         estimate D2E/DX2                !
 ! A41   A(11,8,24)            105.4897         estimate D2E/DX2                !
 ! A42   A(11,8,25)            109.762          estimate D2E/DX2                !
 ! A43   A(24,8,25)            108.0753         estimate D2E/DX2                !
 ! A44   A(2,9,7)              116.1259         estimate D2E/DX2                !
 ! A45   A(2,9,26)             104.9718         estimate D2E/DX2                !
 ! A46   A(2,9,27)             109.3943         estimate D2E/DX2                !
 ! A47   A(7,9,26)             107.7659         estimate D2E/DX2                !
 ! A48   A(7,9,27)             111.3711         estimate D2E/DX2                !
 ! A49   A(26,9,27)            106.5842         estimate D2E/DX2                !
 ! A50   A(5,10,13)            110.2835         estimate D2E/DX2                !
 ! A51   A(5,10,28)            109.2628         estimate D2E/DX2                !
 ! A52   A(5,10,29)            109.2166         estimate D2E/DX2                !
 ! A53   A(13,10,28)           110.3463         estimate D2E/DX2                !
 ! A54   A(13,10,29)           110.384          estimate D2E/DX2                !
 ! A55   A(28,10,29)           107.286          estimate D2E/DX2                !
 ! A56   A(2,11,8)             117.8569         estimate D2E/DX2                !
 ! A57   A(2,12,3)             124.8526         estimate D2E/DX2                !
 ! A58   A(3,13,10)            111.3667         estimate D2E/DX2                !
 ! A59   A(3,13,30)            109.7887         estimate D2E/DX2                !
 ! A60   A(3,13,31)            107.8451         estimate D2E/DX2                !
 ! A61   A(10,13,30)           111.0615         estimate D2E/DX2                !
 ! A62   A(10,13,31)           109.2732         estimate D2E/DX2                !
 ! A63   A(30,13,31)           107.3673         estimate D2E/DX2                !
 ! D1    D(6,1,3,12)           -65.5721         estimate D2E/DX2                !
 ! D2    D(6,1,3,13)            53.9869         estimate D2E/DX2                !
 ! D3    D(6,1,3,17)           173.8024         estimate D2E/DX2                !
 ! D4    D(14,1,3,12)          173.0158         estimate D2E/DX2                !
 ! D5    D(14,1,3,13)          -67.4252         estimate D2E/DX2                !
 ! D6    D(14,1,3,17)           52.3903         estimate D2E/DX2                !
 ! D7    D(15,1,3,12)           53.3313         estimate D2E/DX2                !
 ! D8    D(15,1,3,13)          172.8903         estimate D2E/DX2                !
 ! D9    D(15,1,3,17)          -67.2943         estimate D2E/DX2                !
 ! D10   D(3,1,6,5)            -60.4674         estimate D2E/DX2                !
 ! D11   D(14,1,6,5)            60.7571         estimate D2E/DX2                !
 ! D12   D(15,1,6,5)           178.1468         estimate D2E/DX2                !
 ! D13   D(11,2,9,7)            38.8717         estimate D2E/DX2                !
 ! D14   D(11,2,9,26)          -80.0067         estimate D2E/DX2                !
 ! D15   D(11,2,9,27)          165.9534         estimate D2E/DX2                !
 ! D16   D(12,2,9,7)           -90.6342         estimate D2E/DX2                !
 ! D17   D(12,2,9,26)          150.4874         estimate D2E/DX2                !
 ! D18   D(12,2,9,27)           36.4475         estimate D2E/DX2                !
 ! D19   D(16,2,9,7)           152.7773         estimate D2E/DX2                !
 ! D20   D(16,2,9,26)           33.8989         estimate D2E/DX2                !
 ! D21   D(16,2,9,27)          -80.1409         estimate D2E/DX2                !
 ! D22   D(9,2,11,8)           -47.5723         estimate D2E/DX2                !
 ! D23   D(12,2,11,8)           85.4891         estimate D2E/DX2                !
 ! D24   D(16,2,11,8)         -164.2228         estimate D2E/DX2                !
 ! D25   D(9,2,12,3)            30.2919         estimate D2E/DX2                !
 ! D26   D(11,2,12,3)          -99.855          Frozen                          !
 ! D27   D(16,2,12,3)          149.5454         estimate D2E/DX2                !
 ! D28   D(1,3,12,2)          -109.9126         estimate D2E/DX2                !
 ! D29   D(13,3,12,2)          129.9886         estimate D2E/DX2                !
 ! D30   D(17,3,12,2)            9.3425         estimate D2E/DX2                !
 ! D31   D(1,3,13,10)          -50.0169         estimate D2E/DX2                !
 ! D32   D(1,3,13,30)         -173.4439         estimate D2E/DX2                !
 ! D33   D(1,3,13,31)           69.8705         estimate D2E/DX2                !
 ! D34   D(12,3,13,10)          69.7211         estimate D2E/DX2                !
 ! D35   D(12,3,13,30)         -53.706          estimate D2E/DX2                !
 ! D36   D(12,3,13,31)        -170.3916         estimate D2E/DX2                !
 ! D37   D(17,3,13,10)        -169.051          estimate D2E/DX2                !
 ! D38   D(17,3,13,30)          67.5219         estimate D2E/DX2                !
 ! D39   D(17,3,13,31)         -49.1637         estimate D2E/DX2                !
 ! D40   D(8,4,7,9)             51.3635         estimate D2E/DX2                !
 ! D41   D(8,4,7,22)           -71.3711         estimate D2E/DX2                !
 ! D42   D(8,4,7,23)           171.7731         estimate D2E/DX2                !
 ! D43   D(18,4,7,9)           -68.6816         estimate D2E/DX2                !
 ! D44   D(18,4,7,22)          168.5838         estimate D2E/DX2                !
 ! D45   D(18,4,7,23)           51.7281         estimate D2E/DX2                !
 ! D46   D(19,4,7,9)           172.2779         estimate D2E/DX2                !
 ! D47   D(19,4,7,22)           49.5433         estimate D2E/DX2                !
 ! D48   D(19,4,7,23)          -67.3125         estimate D2E/DX2                !
 ! D49   D(7,4,8,11)           -59.1582         estimate D2E/DX2                !
 ! D50   D(7,4,8,24)          -176.4307         estimate D2E/DX2                !
 ! D51   D(7,4,8,25)            62.966          estimate D2E/DX2                !
 ! D52   D(18,4,8,11)           61.6832         estimate D2E/DX2                !
 ! D53   D(18,4,8,24)          -55.5892         estimate D2E/DX2                !
 ! D54   D(18,4,8,25)         -176.1926         estimate D2E/DX2                !
 ! D55   D(19,4,8,11)          179.0996         estimate D2E/DX2                !
 ! D56   D(19,4,8,24)           61.8271         estimate D2E/DX2                !
 ! D57   D(19,4,8,25)          -58.7762         estimate D2E/DX2                !
 ! D58   D(10,5,6,1)            60.607          estimate D2E/DX2                !
 ! D59   D(20,5,6,1)          -177.9367         estimate D2E/DX2                !
 ! D60   D(21,5,6,1)           -61.3493         estimate D2E/DX2                !
 ! D61   D(6,5,10,13)          -54.8842         estimate D2E/DX2                !
 ! D62   D(6,5,10,28)         -176.3385         estimate D2E/DX2                !
 ! D63   D(6,5,10,29)           66.5871         estimate D2E/DX2                !
 ! D64   D(20,5,10,13)        -173.2682         estimate D2E/DX2                !
 ! D65   D(20,5,10,28)          65.2774         estimate D2E/DX2                !
 ! D66   D(20,5,10,29)         -51.797          estimate D2E/DX2                !
 ! D67   D(21,5,10,13)          66.0996         estimate D2E/DX2                !
 ! D68   D(21,5,10,28)         -55.3548         estimate D2E/DX2                !
 ! D69   D(21,5,10,29)        -172.4292         estimate D2E/DX2                !
 ! D70   D(4,7,9,2)            -42.6386         estimate D2E/DX2                !
 ! D71   D(4,7,9,26)            74.7032         estimate D2E/DX2                !
 ! D72   D(4,7,9,27)          -168.7309         estimate D2E/DX2                !
 ! D73   D(22,7,9,2)            78.7913         estimate D2E/DX2                !
 ! D74   D(22,7,9,26)         -163.8669         estimate D2E/DX2                !
 ! D75   D(22,7,9,27)          -47.301          estimate D2E/DX2                !
 ! D76   D(23,7,9,2)          -164.1955         estimate D2E/DX2                !
 ! D77   D(23,7,9,26)          -46.8537         estimate D2E/DX2                !
 ! D78   D(23,7,9,27)           69.7122         estimate D2E/DX2                !
 ! D79   D(4,8,11,2)            59.3433         estimate D2E/DX2                !
 ! D80   D(24,8,11,2)         -179.6445         estimate D2E/DX2                !
 ! D81   D(25,8,11,2)          -63.4337         estimate D2E/DX2                !
 ! D82   D(5,10,13,3)           50.8661         estimate D2E/DX2                !
 ! D83   D(5,10,13,30)         173.565          estimate D2E/DX2                !
 ! D84   D(5,10,13,31)         -68.1725         estimate D2E/DX2                !
 ! D85   D(28,10,13,3)         171.6745         estimate D2E/DX2                !
 ! D86   D(28,10,13,30)        -65.6266         estimate D2E/DX2                !
 ! D87   D(28,10,13,31)         52.6359         estimate D2E/DX2                !
 ! D88   D(29,10,13,3)         -69.909          estimate D2E/DX2                !
 ! D89   D(29,10,13,30)         52.7899         estimate D2E/DX2                !
 ! D90   D(29,10,13,31)        171.0524         estimate D2E/DX2                !
 --------------------------------------------------------------------------------
 Trust Radius=3.00D-01 FncErr=1.00D-07 GrdErr=1.00D-06 EigMax=2.50D+02 EigMin=1.00D-04
 Number of steps in this run=    186 maximum allowed number of steps=    186.
 GradGradGradGradGradGradGradGradGradGradGradGradGradGradGradGradGradGrad

                          Input orientation:                          
 ---------------------------------------------------------------------
 Center     Atomic      Atomic             Coordinates (Angstroms)
 Number     Number       Type             X           Y           Z
 ---------------------------------------------------------------------
      1          6           0       -1.749190    1.313324   -0.424493
      2          6           0        1.159719    0.273028    1.129152
      3          6           0       -0.764763    0.152664   -0.469537
      4          6           0        3.371239   -0.306745   -0.705397
      5          6           0       -3.601603   -0.089141    0.004381
      6          8           0       -2.849863    1.038203    0.415955
      7          6           0        2.580779    0.978834   -0.936617
      8          6           0        2.464168   -1.357155   -0.093883
      9          6           0        1.846521    1.398717    0.343907
     10          6           0       -2.743440   -1.344278    0.003998
     11          8           0        1.928254   -0.903031    1.140258
     12          8           0       -0.178085   -0.015586    0.814104
     13          6           0       -1.494742   -1.132938   -0.855173
     14          1           0       -2.103959    1.520582   -1.431743
     15          1           0       -1.277215    2.203415   -0.034286
     16          1           0        1.114784    0.561746    2.166721
     17          1           0       -0.009880    0.375657   -1.205381
     18          1           0        4.204587   -0.122071   -0.031556
     19          1           0        3.781379   -0.681465   -1.638727
     20          1           0       -4.427976   -0.173807    0.696921
     21          1           0       -4.004772    0.098918   -0.988646
     22          1           0        1.887368    0.826162   -1.756485
     23          1           0        3.242645    1.785048   -1.237675
     24          1           0        3.004649   -2.263398    0.142029
     25          1           0        1.656712   -1.613561   -0.772452
     26          1           0        2.582807    1.809639    1.028539
     27          1           0        1.131273    2.189102    0.147952
     28          1           0       -3.327242   -2.177418   -0.376699
     29          1           0       -2.463573   -1.586220    1.024975
     30          1           0       -0.818845   -1.977193   -0.774708
     31          1           0       -1.787316   -1.049682   -1.899335
 ---------------------------------------------------------------------
                    Distance matrix (angstroms):
                    1          2          3          4          5
     1  C    0.000000
     2  C    3.458002   0.000000
     3  C    1.522582   2.504780   0.000000
     4  C    5.377948   2.931301   4.168117   0.000000
     5  C    2.362684   4.905758   2.886300   7.012251   0.000000
     6  O    1.411923   4.143777   2.432266   6.462850   1.416125
     7  C    4.372961   2.604798   3.477553   1.526762   6.344123
     8  C    4.999315   2.419690   3.584224   1.516604   6.197668
     9  C    3.677889   1.534758   3.005519   2.516824   5.657831
    10  C    2.869667   4.372219   2.525912   6.242517   1.520465
    11  O    4.569931   1.404950   3.310328   2.417479   5.703679
    12  O    2.401769   1.404376   1.421349   3.871867   3.518741
    13  C    2.496883   3.600062   1.527860   4.937894   2.503439
    14  H    1.087828   4.331994   2.142542   5.817602   2.626137
    15  H    1.080409   3.319432   2.158154   5.325356   3.264979
    16  H    3.934667   1.077927   3.263419   3.754321   5.229118
    17  H    2.124666   2.613147   1.077516   3.485344   3.818381
    18  H    6.136955   3.282464   4.996173   1.087490   7.806342
    19  H    6.003394   3.930052   4.767618   1.086156   7.586770
    20  H    3.262671   5.622172   3.858282   7.925397   1.081514
    21  H    2.623109   5.584564   3.281771   7.392586   1.088124
    22  H    3.903343   3.026934   3.023844   2.142461   5.836714
    23  H    5.079587   3.496663   4.394773   2.162280   7.204097
    24  H    5.976025   3.288105   4.518831   2.163564   6.956213
    25  H    4.504209   2.724393   3.012449   2.156819   5.529666
    26  H    4.596067   2.096777   4.024428   2.847322   6.549900
    27  H    3.064596   2.152882   2.850145   3.460477   5.254628
    28  H    3.831163   5.329643   3.464708   6.962550   2.140420
    29  H    3.319436   4.073807   2.853636   6.219025   2.139619
    30  H    3.437396   3.550055   2.152288   4.511320   3.451878
    31  H    2.785751   4.427901   2.129688   5.346787   2.799716
                    6          7          8          9         10
     6  O    0.000000
     7  C    5.596861   0.000000
     8  C    5.851205   2.486090   0.000000
     9  C    4.710752   1.534659   2.857968   0.000000
    10  C    2.420176   5.884634   5.208544   5.357920   0.000000
    11  O    5.208014   2.877606   1.420048   2.436986   4.828096
    12  O    2.899550   3.415439   3.099314   2.514034   3.000457
    13  C    2.857617   4.590870   4.037673   4.360173   1.530388
    14  H    2.050134   4.741878   5.562286   4.332906   3.267677
    15  H    2.008397   4.147037   5.165187   3.247814   3.838933
    16  H    4.360117   3.457428   3.257813   2.135090   4.816242
    17  H    3.336645   2.673494   3.218537   2.625485   3.448641
    18  H    7.163223   2.160528   2.135035   2.830944   7.054795
    19  H    7.152087   2.165870   2.139660   3.464343   6.761001
    20  H    2.009565   7.288325   7.037566   6.478176   2.165134
    21  H    2.046699   6.644279   6.690884   6.140261   2.158498
    22  H    5.215919   1.084579   2.804250   2.177415   5.408742
    23  H    6.356959   1.085672   3.433326   2.144718   6.867871
    24  H    6.726880   3.443140   1.081226   3.846180   5.822745
    25  H    5.362218   2.757057   1.085442   3.218090   4.476240
    26  H    5.521257   2.133560   3.361918   1.086138   6.274216
    27  H    4.152811   2.177638   3.796187   1.083830   5.245846
    28  H    3.346104   6.721618   5.856044   6.330548   1.086222
    29  H    2.721713   5.989393   5.058354   5.286834   1.085935
    30  H    3.825614   4.507966   3.409713   4.444350   2.170491
    31  H    3.293757   4.911411   4.629181   4.922557   2.150264
                   11         12         13         14         15
    11  O    0.000000
    12  O    2.308809   0.000000
    13  C    3.968816   2.401780   0.000000
    14  H    5.361700   3.333561   2.782939   0.000000
    15  H    4.615690   2.617598   3.442735   1.761435   0.000000
    16  H    1.964925   1.958161   4.337444   4.922257   3.641589
    17  H    3.300519   2.063900   2.145535   2.397344   2.513623
    18  H    2.676703   4.464784   5.846584   6.667577   5.954666
    19  H    3.347525   4.705011   5.353059   6.287214   6.040376
    20  H    6.413266   4.254449   3.454387   3.578159   4.014118
    21  H    6.382549   4.231613   2.799203   2.414654   3.574812
    22  H    3.373855   3.403317   4.011123   4.064279   3.857121
    23  H    3.822036   4.376468   5.577077   5.356657   4.695989
    24  H    2.001421   3.954003   4.745195   6.549285   6.190143
    25  H    2.058409   2.904680   3.188966   4.939652   4.870536
    26  H    2.792758   3.316618   5.369687   5.301162   4.022987
    27  H    3.343821   2.649307   4.351800   3.661841   2.415415
    28  H    5.616534   4.001090   2.162853   4.035436   4.848872
    29  H    4.446142   2.781153   2.163112   3.977060   4.109843
    30  H    3.516742   2.604381   1.084471   3.783866   4.270341
    31  H    4.802717   3.319899   1.087569   2.631570   3.784343
                   16         17         18         19         20
    16  H    0.000000
    17  H    3.559574   0.000000
    18  H    3.853169   4.403105   0.000000
    19  H    4.810170   3.959664   1.753575   0.000000
    20  H    5.781309   4.841512   8.663400   8.550233   0.000000
    21  H    6.031617   4.010327   8.267916   7.852118   1.759152
    22  H    4.007287   2.026381   3.040400   2.423651   6.848555
    23  H    4.196924   3.544904   2.452990   2.556318   8.149736
    24  H    3.956312   4.226998   2.460745   2.505377   7.740685
    25  H    3.696537   2.630959   3.043869   2.476579   6.423035
    26  H    2.237808   3.710624   2.735960   3.841417   7.293498
    27  H    2.593065   2.534230   3.849546   4.295979   6.065472
    28  H    5.805480   4.267294   7.814859   7.373132   2.525615
    29  H    4.326890   3.852799   6.908281   6.849330   2.441600
    30  H    4.340177   2.525036   5.406350   4.856696   4.294615
    31  H    5.248971   2.381689   6.344443   5.586937   3.805363
                   21         22         23         24         25
    21  H    0.000000
    22  H    5.986299   0.000000
    23  H    7.445140   1.739368   0.000000
    24  H    7.482710   3.794477   4.283706   0.000000
    25  H    5.918760   2.640790   3.779174   1.753710   0.000000
    26  H    7.098718   3.034340   2.360448   4.189687   3.977376
    27  H    5.660361   2.460928   2.557560   4.830562   3.947591
    28  H    2.452597   6.173934   7.720481   6.353685   5.031337
    29  H    3.044611   5.699719   7.003282   5.580288   4.495358
    30  H    3.808692   4.018243   5.555582   3.942262   2.502122
    31  H    2.658147   4.128256   5.811540   5.348196   3.667309
                   26         27         28         29         30
    26  H    0.000000
    27  H    1.739648   0.000000
    28  H    7.266361   6.262596   0.000000
    29  H    6.082584   5.286317   1.749323   0.000000
    30  H    5.400281   4.691724   2.547657   2.469180   0.000000
    31  H    5.987164   4.816562   2.441635   3.049063   1.750142
                   31
    31  H    0.000000
 Stoichiometry    C10H18O3
 Framework group  C1[X(C10H18O3)]
 Deg. of freedom    87
 Full point group                 C1      NOp   1
 Largest Abelian subgroup         C1      NOp   1
 Largest concise Abelian subgroup C1      NOp   1
                         Standard orientation:                         
 ---------------------------------------------------------------------
 Center     Atomic      Atomic             Coordinates (Angstroms)
 Number     Number       Type             X           Y           Z
 ---------------------------------------------------------------------
      1          6           0        1.749190   -1.313324   -0.424493
      2          6           0       -1.159719   -0.273028    1.129152
      3          6           0        0.764763   -0.152664   -0.469537
      4          6           0       -3.371239    0.306745   -0.705397
      5          6           0        3.601603    0.089141    0.004381
      6          8           0        2.849863   -1.038203    0.415955
      7          6           0       -2.580779   -0.978834   -0.936617
      8          6           0       -2.464168    1.357155   -0.093883
      9          6           0       -1.846521   -1.398717    0.343907
     10          6           0        2.743440    1.344278    0.003998
     11          8           0       -1.928254    0.903031    1.140258
     12          8           0        0.178085    0.015586    0.814104
     13          6           0        1.494742    1.132938   -0.855173
     14          1           0        2.103959   -1.520582   -1.431743
     15          1           0        1.277215   -2.203415   -0.034286
     16          1           0       -1.114784   -0.561746    2.166721
     17          1           0        0.009880   -0.375657   -1.205381
     18          1           0       -4.204587    0.122071   -0.031556
     19          1           0       -3.781379    0.681465   -1.638727
     20          1           0        4.427976    0.173807    0.696921
     21          1           0        4.004772   -0.098918   -0.988646
     22          1           0       -1.887368   -0.826162   -1.756485
     23          1           0       -3.242645   -1.785048   -1.237675
     24          1           0       -3.004649    2.263398    0.142029
     25          1           0       -1.656712    1.613561   -0.772452
     26          1           0       -2.582807   -1.809639    1.028539
     27          1           0       -1.131273   -2.189102    0.147952
     28          1           0        3.327242    2.177418   -0.376699
     29          1           0        2.463573    1.586220    1.024975
     30          1           0        0.818845    1.977193   -0.774708
     31          1           0        1.787316    1.049682   -1.899335
 ---------------------------------------------------------------------
 Rotational constants (GHZ):           1.7258382           0.4642668           0.4314608
 Standard basis: 6-311++G(2d,2p) (5D, 7F)
 There are   557 symmetry adapted cartesian basis functions of A   symmetry.
 There are   531 symmetry adapted basis functions of A   symmetry.
   531 basis functions,   762 primitive gaussians,   557 cartesian basis functions
    51 alpha electrons       51 beta electrons
       nuclear repulsion energy       906.1104148778 Hartrees.
 NAtoms=   31 NActive=   31 NUniq=   31 SFac= 1.00D+00 NAtFMM=   60 NAOKFM=F Big=F
 Integral buffers will be    131072 words long.
 Raffenetti 2 integral format.
 Two-electron integral symmetry is turned on.
 ------------------------------------------------------------------------------
 Polarizable Continuum Model (PCM)
 =================================
 Model                : PCM.
 Atomic radii         : SMD-Coulomb.
 Polarization charges : Total charges.
 Charge compensation  : None.
 Solution method      : On-the-fly selection.
 Cavity type          : VdW (van der Waals Surface) (Alpha=1.000).
 Cavity algorithm     : GePol (No added spheres)
                        Default sphere list used, NSphG=   31.
                        Lebedev-Laikov grids with approx.  5.0 points / Ang**2.
                        Smoothing algorithm: York/Karplus (Gamma=1.0000).
                        Polarization charges: spherical gaussians, with
                                              point-specific exponents (IZeta= 3).
                        Self-potential: point-specific (ISelfS= 7).
                        Self-field    : sphere-specific E.n sum rule (ISelfD= 2).
 1st derivatives      : Analytical E(r).r(x)/FMM algorithm (CHGder, D1EAlg=3).
                        Cavity 1st derivative terms included.
 Solvent              : Water, Eps=  78.355300 Eps(inf)=   1.777849
 ------------------------------------------------------------------------------
 ------------------------------------------------------------------------------
 Atomic radii for non-electrostatic terms: SMD-CDS.
 ------------------------------------------------------------------------------
 Nuclear repulsion after PCM non-electrostatic terms =      906.1167412963 Hartrees.
 One-electron integrals computed using PRISM.
 NBasis=   531 RedAO= T EigKep=  4.63D-06  NBF=   531
 NBsUse=   531 1.00D-06 EigRej= -1.00D+00 NBFU=   531
 ExpMin= 3.60D-02 ExpMax= 8.59D+03 ExpMxC= 1.30D+03 IAcc=3 IRadAn=         5 AccDes= 0.00D+00
 Harris functional with IExCor= 1009 and IRadAn=       5 diagonalized for initial guess.
 HarFok:  IExCor= 1009 AccDes= 0.00D+00 IRadAn=         5 IDoV= 1 UseB2=F ITyADJ=14
 ICtDFT=  3500011 ScaDFX=  1.000000  1.000000  1.000000  1.000000
 FoFCou: FMM=F IPFlag=           0 FMFlag=      100000 FMFlg1=           0
         NFxFlg=           0 DoJE=T BraDBF=F KetDBF=T FulRan=T
         wScrn=  0.000000 ICntrl=       500 IOpCl=  0 I1Cent=   200000004 NGrid=           0
         NMat0=    1 NMatS0=      1 NMatT0=    0 NMatD0=    1 NMtDS0=    0 NMtDT0=    0
 Petite list used in FoFCou.
 Requested convergence on RMS density matrix=1.00D-08 within 128 cycles.
 Requested convergence on MAX density matrix=1.00D-06.
 Requested convergence on             energy=1.00D-06.
 No special actions if energy rises.
 Inv3:  Mode=1 IEnd=    12108243.
 Iteration    1 A*A^-1 deviation from unit magnitude is 5.55D-15 for    222.
 Iteration    1 A*A^-1 deviation from orthogonality  is 4.75D-15 for   1438    213.
 Iteration    1 A^-1*A deviation from unit magnitude is 4.66D-15 for    209.
 Iteration    1 A^-1*A deviation from orthogonality  is 3.22D-13 for   1739   1698.
 Error on total polarization charges =  0.06120
 SCF Done:  E(RM062X) =  -617.495549837     A.U. after   13 cycles
            NFock= 13  Conv=0.18D-08     -V/T= 2.0035
 SMD-CDS (non-electrostatic) energy       (kcal/mol) =       3.97
 (included in total energy above)

 **********************************************************************

            Population analysis using the SCF Density.

 **********************************************************************

 Orbital symmetries:
       Occupied  (A) (A) (A) (A) (A) (A) (A) (A) (A) (A) (A) (A)
                 (A) (A) (A) (A) (A) (A) (A) (A) (A) (A) (A) (A)
                 (A) (A) (A) (A) (A) (A) (A) (A) (A) (A) (A) (A)
                 (A) (A) (A) (A) (A) (A) (A) (A) (A) (A) (A) (A)
                 (A) (A) (A)
       Virtual   (A) (A) (A) (A) (A) (A) (A) (A) (A) (A) (A) (A)
                 (A) (A) (A) (A) (A) (A) (A) (A) (A) (A) (A) (A)
                 (A) (A) (A) (A) (A) (A) (A) (A) (A) (A) (A) (A)
                 (A) (A) (A) (A) (A) (A) (A) (A) (A) (A) (A) (A)
                 (A) (A) (A) (A) (A) (A) (A) (A) (A) (A) (A) (A)
                 (A) (A) (A) (A) (A) (A) (A) (A) (A) (A) (A) (A)
                 (A) (A) (A) (A) (A) (A) (A) (A) (A) (A) (A) (A)
                 (A) (A) (A) (A) (A) (A) (A) (A) (A) (A) (A) (A)
                 (A) (A) (A) (A) (A) (A) (A) (A) (A) (A) (A) (A)
                 (A) (A) (A) (A) (A) (A) (A) (A) (A) (A) (A) (A)
                 (A) (A) (A) (A) (A) (A) (A) (A) (A) (A) (A) (A)
                 (A) (A) (A) (A) (A) (A) (A) (A) (A) (A) (A) (A)
                 (A) (A) (A) (A) (A) (A) (A) (A) (A) (A) (A) (A)
                 (A) (A) (A) (A) (A) (A) (A) (A) (A) (A) (A) (A)
                 (A) (A) (A) (A) (A) (A) (A) (A) (A) (A) (A) (A)
                 (A) (A) (A) (A) (A) (A) (A) (A) (A) (A) (A) (A)
                 (A) (A) (A) (A) (A) (A) (A) (A) (A) (A) (A) (A)
                 (A) (A) (A) (A) (A) (A) (A) (A) (A) (A) (A) (A)
                 (A) (A) (A) (A) (A) (A) (A) (A) (A) (A) (A) (A)
                 (A) (A) (A) (A) (A) (A) (A) (A) (A) (A) (A) (A)
                 (A) (A) (A) (A) (A) (A) (A) (A) (A) (A) (A) (A)
                 (A) (A) (A) (A) (A) (A) (A) (A) (A) (A) (A) (A)
                 (A) (A) (A) (A) (A) (A) (A) (A) (A) (A) (A) (A)
                 (A) (A) (A) (A) (A) (A) (A) (A) (A) (A) (A) (A)
                 (A) (A) (A) (A) (A) (A) (A) (A) (A) (A) (A) (A)
                 (A) (A) (A) (A) (A) (A) (A) (A) (A) (A) (A) (A)
                 (A) (A) (A) (A) (A) (A) (A) (A) (A) (A) (A) (A)
                 (A) (A) (A) (A) (A) (A) (A) (A) (A) (A) (A) (A)
                 (A) (A) (A) (A) (A) (A) (A) (A) (A) (A) (A) (A)
                 (A) (A) (A) (A) (A) (A) (A) (A) (A) (A) (A) (A)
                 (A) (A) (A) (A) (A) (A) (A) (A) (A) (A) (A) (A)
                 (A) (A) (A) (A) (A) (A) (A) (A) (A) (A) (A) (A)
                 (A) (A) (A) (A) (A) (A) (A) (A) (A) (A) (A) (A)
                 (A) (A) (A) (A) (A) (A) (A) (A) (A) (A) (A) (A)
                 (A) (A) (A) (A) (A) (A) (A) (A) (A) (A) (A) (A)
                 (A) (A) (A) (A) (A) (A) (A) (A) (A) (A) (A) (A)
                 (A) (A) (A) (A) (A) (A) (A) (A) (A) (A) (A) (A)
                 (A) (A) (A) (A) (A) (A) (A) (A) (A) (A) (A) (A)
                 (A) (A) (A) (A) (A) (A) (A) (A) (A) (A) (A) (A)
                 (A) (A) (A) (A) (A) (A) (A) (A) (A) (A) (A) (A)
 The electronic state is 1-A.
 Alpha  occ. eigenvalues --  -19.62724 -19.62695 -19.62523 -10.63333 -10.58183
 Alpha  occ. eigenvalues --  -10.57165 -10.57148 -10.57089 -10.52716 -10.52425
 Alpha  occ. eigenvalues --  -10.52405 -10.52129 -10.52097  -1.19553  -1.16542
 Alpha  occ. eigenvalues --   -1.13269  -0.90051  -0.89521  -0.86860  -0.84462
 Alpha  occ. eigenvalues --   -0.74708  -0.73653  -0.73115  -0.70790  -0.66045
 Alpha  occ. eigenvalues --   -0.61951  -0.59362  -0.58239  -0.56941  -0.55050
 Alpha  occ. eigenvalues --   -0.54340  -0.52875  -0.52113  -0.50378  -0.49751
 Alpha  occ. eigenvalues --   -0.49011  -0.46262  -0.45616  -0.45376  -0.44580
 Alpha  occ. eigenvalues --   -0.42938  -0.41963  -0.40910  -0.39172  -0.39001
 Alpha  occ. eigenvalues --   -0.37761  -0.36374  -0.36103  -0.35128  -0.33016
 Alpha  occ. eigenvalues --   -0.31338
 Alpha virt. eigenvalues --    0.00283   0.01244   0.01379   0.01636   0.02741
 Alpha virt. eigenvalues --    0.03050   0.03158   0.03749   0.03992   0.05033
 Alpha virt. eigenvalues --    0.05278   0.05352   0.06160   0.06281   0.07778
 Alpha virt. eigenvalues --    0.08069   0.08578   0.08867   0.09474   0.09906
 Alpha virt. eigenvalues --    0.10454   0.10625   0.11471   0.11843   0.12453
 Alpha virt. eigenvalues --    0.13033   0.13285   0.13428   0.13845   0.14218
 Alpha virt. eigenvalues --    0.14490   0.14609   0.14945   0.15249   0.15640
 Alpha virt. eigenvalues --    0.15792   0.15991   0.16361   0.16551   0.16711
 Alpha virt. eigenvalues --    0.17128   0.17207   0.17729   0.17877   0.18231
 Alpha virt. eigenvalues --    0.18344   0.18683   0.18948   0.19740   0.20206
 Alpha virt. eigenvalues --    0.20365   0.20503   0.21493   0.22009   0.22094
 Alpha virt. eigenvalues --    0.22346   0.22989   0.23317   0.24495   0.24955
 Alpha virt. eigenvalues --    0.25405   0.25909   0.27008   0.27488   0.27611
 Alpha virt. eigenvalues --    0.27885   0.28900   0.29413   0.29602   0.29683
 Alpha virt. eigenvalues --    0.30594   0.31415   0.31890   0.32438   0.33114
 Alpha virt. eigenvalues --    0.33282   0.33340   0.34530   0.34855   0.35113
 Alpha virt. eigenvalues --    0.35307   0.35655   0.36159   0.36751   0.37301
 Alpha virt. eigenvalues --    0.37465   0.37594   0.37933   0.38236   0.38565
 Alpha virt. eigenvalues --    0.38931   0.39604   0.40013   0.40704   0.41020
 Alpha virt. eigenvalues --    0.41399   0.42027   0.43001   0.45211   0.46024
 Alpha virt. eigenvalues --    0.46943   0.48156   0.50659   0.51372   0.51838
 Alpha virt. eigenvalues --    0.52141   0.53103   0.53783   0.54471   0.55967
 Alpha virt. eigenvalues --    0.57257   0.58070   0.58139   0.59554   0.60209
 Alpha virt. eigenvalues --    0.60866   0.61115   0.61752   0.62035   0.62365
 Alpha virt. eigenvalues --    0.62919   0.63348   0.63909   0.64857   0.65199
 Alpha virt. eigenvalues --    0.65469   0.66308   0.66815   0.67745   0.68039
 Alpha virt. eigenvalues --    0.68830   0.68998   0.69515   0.70541   0.71157
 Alpha virt. eigenvalues --    0.71386   0.71880   0.72435   0.72722   0.73157
 Alpha virt. eigenvalues --    0.74231   0.75353   0.75435   0.75821   0.76591
 Alpha virt. eigenvalues --    0.77034   0.77755   0.78525   0.79545   0.80393
 Alpha virt. eigenvalues --    0.81399   0.83482   0.84152   0.85123   0.85980
 Alpha virt. eigenvalues --    0.86727   0.88540   0.88857   0.90066   0.90490
 Alpha virt. eigenvalues --    0.91254   0.92514   0.94295   0.96945   0.97759
 Alpha virt. eigenvalues --    0.98190   0.99594   1.00038   1.00169   1.01464
 Alpha virt. eigenvalues --    1.03293   1.04400   1.04801   1.05764   1.06351
 Alpha virt. eigenvalues --    1.07332   1.08643   1.09219   1.10391   1.13245
 Alpha virt. eigenvalues --    1.14122   1.14575   1.15509   1.17028   1.17677
 Alpha virt. eigenvalues --    1.18636   1.18685   1.19497   1.20326   1.21765
 Alpha virt. eigenvalues --    1.22232   1.22757   1.23789   1.25095   1.25270
 Alpha virt. eigenvalues --    1.25503   1.25871   1.26898   1.27895   1.28687
 Alpha virt. eigenvalues --    1.29562   1.30121   1.30571   1.31681   1.32127
 Alpha virt. eigenvalues --    1.32704   1.33426   1.33834   1.34568   1.36123
 Alpha virt. eigenvalues --    1.36750   1.36927   1.38348   1.39070   1.39171
 Alpha virt. eigenvalues --    1.39951   1.40354   1.41722   1.42125   1.42221
 Alpha virt. eigenvalues --    1.43167   1.43779   1.44014   1.44082   1.45489
 Alpha virt. eigenvalues --    1.45970   1.46645   1.47246   1.48311   1.49326
 Alpha virt. eigenvalues --    1.50263   1.51243   1.51494   1.51633   1.52580
 Alpha virt. eigenvalues --    1.53751   1.54418   1.55753   1.56143   1.56897
 Alpha virt. eigenvalues --    1.57045   1.58231   1.58530   1.59052   1.60448
 Alpha virt. eigenvalues --    1.60786   1.61315   1.62666   1.63053   1.63710
 Alpha virt. eigenvalues --    1.64604   1.66028   1.66237   1.66421   1.66992
 Alpha virt. eigenvalues --    1.68572   1.69677   1.69957   1.73030   1.73526
 Alpha virt. eigenvalues --    1.74752   1.75111   1.75604   1.76762   1.77270
 Alpha virt. eigenvalues --    1.79247   1.80712   1.82580   1.82757   1.85328
 Alpha virt. eigenvalues --    1.86271   1.88441   1.91967   1.97473   2.00653
 Alpha virt. eigenvalues --    2.02526   2.03799   2.10051   2.17084   2.20699
 Alpha virt. eigenvalues --    2.23218   2.25705   2.27875   2.33204   2.39799
 Alpha virt. eigenvalues --    2.42031   2.44438   2.45783   2.49426   2.54677
 Alpha virt. eigenvalues --    2.56974   2.76461   2.78330   2.79855   2.82008
 Alpha virt. eigenvalues --    2.84140   2.89237   2.92328   2.93950   2.94718
 Alpha virt. eigenvalues --    2.97220   2.98690   3.00698   3.01632   3.02469
 Alpha virt. eigenvalues --    3.07058   3.08280   3.09289   3.10508   3.12080
 Alpha virt. eigenvalues --    3.12959   3.13175   3.17171   3.18864   3.22116
 Alpha virt. eigenvalues --    3.24403   3.29366   3.31677   3.33286   3.35202
 Alpha virt. eigenvalues --    3.35873   3.37937   3.38692   3.39647   3.41036
 Alpha virt. eigenvalues --    3.41691   3.44095   3.45790   3.46375   3.47166
 Alpha virt. eigenvalues --    3.48793   3.49564   3.50804   3.51527   3.53481
 Alpha virt. eigenvalues --    3.53630   3.54731   3.55346   3.56359   3.57085
 Alpha virt. eigenvalues --    3.57575   3.58223   3.59094   3.59661   3.61004
 Alpha virt. eigenvalues --    3.62031   3.62701   3.63872   3.65348   3.65652
 Alpha virt. eigenvalues --    3.66018   3.67764   3.68958   3.69177   3.70532
 Alpha virt. eigenvalues --    3.71351   3.72320   3.73072   3.73936   3.75262
 Alpha virt. eigenvalues --    3.76133   3.76432   3.76881   3.78132   3.78608
 Alpha virt. eigenvalues --    3.78849   3.81014   3.82443   3.84286   3.85994
 Alpha virt. eigenvalues --    3.86189   3.88817   3.89924   3.91279   3.93268
 Alpha virt. eigenvalues --    3.94255   3.95097   3.96074   3.97926   3.98705
 Alpha virt. eigenvalues --    4.00144   4.01737   4.03256   4.04138   4.05440
 Alpha virt. eigenvalues --    4.06315   4.06805   4.07438   4.07938   4.08597
 Alpha virt. eigenvalues --    4.09285   4.09809   4.10544   4.11226   4.12693
 Alpha virt. eigenvalues --    4.12865   4.13529   4.14282   4.15499   4.16112
 Alpha virt. eigenvalues --    4.17118   4.17322   4.18960   4.19936   4.21552
 Alpha virt. eigenvalues --    4.23157   4.25373   4.26493   4.27538   4.28285
 Alpha virt. eigenvalues --    4.29435   4.30638   4.31287   4.32871   4.34444
 Alpha virt. eigenvalues --    4.35326   4.35446   4.37911   4.39562   4.40484
 Alpha virt. eigenvalues --    4.42195   4.43641   4.46657   4.48063   4.51840
 Alpha virt. eigenvalues --    4.59053   4.60058   4.74707   4.76721   4.82897
 Alpha virt. eigenvalues --    4.85755   4.93977   4.94955   5.00618   5.04964
 Alpha virt. eigenvalues --    5.07244   5.08188   5.08930   5.09991   5.11852
 Alpha virt. eigenvalues --    5.13795   5.14830   5.17913   5.32044   5.34321
 Alpha virt. eigenvalues --    5.45390   5.57483   5.58821   5.63495   5.86920
 Alpha virt. eigenvalues --    5.88278   6.01102   7.00401   7.05839   7.06684
 Alpha virt. eigenvalues --    7.08934   7.09906   7.11012   7.12430   7.13125
 Alpha virt. eigenvalues --    7.33418   7.37028   7.40891   7.47764   7.52344
 Alpha virt. eigenvalues --    7.55296   7.59299  23.96246  23.98278  24.07599
 Alpha virt. eigenvalues --   24.07975  24.10403  24.13142  24.14221  24.16235
 Alpha virt. eigenvalues --   24.17414  24.19988  50.16728  50.19333  50.25144
          Condensed to atoms (all electrons):
               1          2          3          4          5          6
     1  C    6.330397   0.131850  -0.767579   0.022858  -0.267723   0.093115
     2  C    0.131850   7.063666  -0.889924  -0.141795   0.003293   0.005403
     3  C   -0.767579  -0.889924   7.892417   0.148551   0.379939   0.021277
     4  C    0.022858  -0.141795   0.148551   6.228794   0.001396   0.000638
     5  C   -0.267723   0.003293   0.379939   0.001396   5.529817   0.089955
     6  O    0.093115   0.005403   0.021277   0.000638   0.089955   8.393962
     7  C   -0.037675   0.415912  -0.184906  -0.380704   0.003285   0.000038
     8  C   -0.044605  -0.198072   0.012467  -0.187719   0.000535   0.000103
     9  C    0.010804  -1.238180   0.414266   0.262332  -0.009451  -0.002993
    10  C    0.177061   0.261359  -0.568067  -0.013001   0.028066  -0.008246
    11  O   -0.012918   0.240156   0.048671  -0.131804   0.001657   0.000071
    12  O   -0.124993   0.124144   0.085080  -0.019989  -0.002749   0.027396
    13  C    0.091224  -0.021010  -0.875066  -0.053442  -0.245786  -0.022537
    14  H    0.480745   0.012538  -0.084762  -0.004937  -0.005795  -0.047518
    15  H    0.391228  -0.002374  -0.001586   0.008072   0.010714  -0.088789
    16  H    0.013236   0.542498  -0.039924   0.002577  -0.001518   0.001046
    17  H   -0.028495  -0.135479   0.432987   0.066022  -0.043672   0.021235
    18  H    0.001755   0.030692  -0.009472   0.443956  -0.000067  -0.000016
    19  H   -0.001354   0.006843  -0.002021   0.432544  -0.000087   0.000003
    20  H    0.005896   0.004121   0.007771  -0.000019   0.442330  -0.064598
    21  H   -0.023324   0.000042   0.003517   0.000295   0.448033  -0.052487
    22  H    0.002895   0.033972  -0.002923  -0.126972   0.003821  -0.000667
    23  H   -0.003829   0.017444  -0.002921  -0.025630  -0.000384  -0.000052
    24  H   -0.002619  -0.005694   0.010390  -0.015966   0.000082   0.000049
    25  H   -0.002705  -0.030467  -0.011341  -0.134508   0.002332  -0.001335
    26  H   -0.004400  -0.078505   0.019603  -0.020803   0.000623  -0.000009
    27  H   -0.015111  -0.126021   0.041631  -0.027170   0.000270  -0.000682
    28  H    0.000345   0.007419  -0.026773  -0.000887  -0.028426   0.007954
    29  H    0.009382  -0.007551  -0.033991   0.001377  -0.095749  -0.009633
    30  H    0.004038  -0.001791  -0.013004  -0.005200  -0.018080  -0.000517
    31  H   -0.009458  -0.003731  -0.065442   0.001121  -0.006833  -0.002598
               7          8          9         10         11         12
     1  C   -0.037675  -0.044605   0.010804   0.177061  -0.012918  -0.124993
     2  C    0.415912  -0.198072  -1.238180   0.261359   0.240156   0.124144
     3  C   -0.184906   0.012467   0.414266  -0.568067   0.048671   0.085080
     4  C   -0.380704  -0.187719   0.262332  -0.013001  -0.131804  -0.019989
     5  C    0.003285   0.000535  -0.009451   0.028066   0.001657  -0.002749
     6  O    0.000038   0.000103  -0.002993  -0.008246   0.000071   0.027396
     7  C    6.078030   0.097186  -0.630720   0.023830  -0.005979   0.015293
     8  C    0.097186   5.423241   0.068469   0.006131   0.185636   0.036241
     9  C   -0.630720   0.068469   6.838669  -0.115698  -0.040431   0.000443
    10  C    0.023830   0.006131  -0.115698   5.838948  -0.008749  -0.037206
    11  O   -0.005979   0.185636  -0.040431  -0.008749   8.248775  -0.023951
    12  O    0.015293   0.036241   0.000443  -0.037206  -0.023951   8.380151
    13  C    0.018230   0.007890  -0.031956  -0.056145  -0.010900  -0.035545
    14  H    0.002998   0.002131  -0.004076   0.041398   0.000278   0.014069
    15  H   -0.010172  -0.001173  -0.007003  -0.000179  -0.000091  -0.010888
    16  H    0.012500  -0.015163  -0.086249   0.008333  -0.058627  -0.077325
    17  H   -0.061893  -0.040858   0.115060  -0.116538   0.004244  -0.010697
    18  H    0.015828  -0.058245  -0.052121   0.000047  -0.007255   0.000983
    19  H   -0.045201  -0.032372   0.010204   0.000373   0.007658  -0.000459
    20  H    0.000013   0.000072  -0.000981  -0.053404  -0.000104   0.001282
    21  H    0.000402  -0.000313  -0.000957  -0.016589   0.000083   0.001492
    22  H    0.581475   0.022699  -0.115133   0.010550  -0.002591   0.001435
    23  H    0.423062   0.013789  -0.054792  -0.000135  -0.000353  -0.001751
    24  H   -0.001516   0.424954   0.009859  -0.000184  -0.052270  -0.001692
    25  H    0.025912   0.497632   0.016317  -0.015079  -0.038459   0.007103
    26  H   -0.014859   0.019005   0.466346  -0.000861  -0.016491   0.003251
    27  H   -0.057315   0.007756   0.525089  -0.005999   0.013502  -0.005630
    28  H    0.000074  -0.000118  -0.002501   0.436770  -0.000585  -0.000757
    29  H   -0.001224  -0.000911   0.002870   0.502535   0.001270   0.006250
    30  H    0.004545   0.009745  -0.001977   0.006363  -0.004016   0.000888
    31  H   -0.001078   0.000350   0.002995  -0.025268   0.000586   0.006165
              13         14         15         16         17         18
     1  C    0.091224   0.480745   0.391228   0.013236  -0.028495   0.001755
     2  C   -0.021010   0.012538  -0.002374   0.542498  -0.135479   0.030692
     3  C   -0.875066  -0.084762  -0.001586  -0.039924   0.432987  -0.009472
     4  C   -0.053442  -0.004937   0.008072   0.002577   0.066022   0.443956
     5  C   -0.245786  -0.005795   0.010714  -0.001518  -0.043672  -0.000067
     6  O   -0.022537  -0.047518  -0.088789   0.001046   0.021235  -0.000016
     7  C    0.018230   0.002998  -0.010172   0.012500  -0.061893   0.015828
     8  C    0.007890   0.002131  -0.001173  -0.015163  -0.040858  -0.058245
     9  C   -0.031956  -0.004076  -0.007003  -0.086249   0.115060  -0.052121
    10  C   -0.056145   0.041398  -0.000179   0.008333  -0.116538   0.000047
    11  O   -0.010900   0.000278  -0.000091  -0.058627   0.004244  -0.007255
    12  O   -0.035545   0.014069  -0.010888  -0.077325  -0.010697   0.000983
    13  C    6.747004  -0.039888   0.021595   0.002302   0.071107   0.001874
    14  H   -0.039888   0.467678  -0.004113   0.000217  -0.038998  -0.000065
    15  H    0.021595  -0.004113   0.470298  -0.001303  -0.001453  -0.000035
    16  H    0.002302   0.000217  -0.001303   0.447270  -0.001165   0.001813
    17  H    0.071107  -0.038998  -0.001453  -0.001165   0.575091  -0.000164
    18  H    0.001874  -0.000065  -0.000035   0.001813  -0.000164   0.461998
    19  H   -0.000157  -0.000152   0.000042   0.001379   0.002790  -0.006424
    20  H    0.002113  -0.000758   0.001083   0.000031  -0.001847  -0.000001
    21  H   -0.010860   0.004985  -0.000790   0.000225   0.002614  -0.000005
    22  H   -0.009757   0.004832  -0.001629  -0.001630  -0.048562   0.001025
    23  H    0.004422  -0.000021   0.000245   0.002324   0.008514   0.000148
    24  H   -0.002763  -0.000056   0.000207  -0.000625  -0.000036  -0.001255
    25  H    0.027905   0.001127  -0.000768  -0.000853  -0.012660  -0.000091
    26  H   -0.007975  -0.000105  -0.000376  -0.008762  -0.002471  -0.002188
    27  H    0.013637   0.001999  -0.004378  -0.012901  -0.013771  -0.001647
    28  H   -0.022018   0.000275   0.001759   0.000386  -0.001646   0.000019
    29  H   -0.003955  -0.000282  -0.002361  -0.000673   0.002189  -0.000012
    30  H    0.388776  -0.002741   0.000073   0.000165   0.001013   0.000118
    31  H    0.476674  -0.001554  -0.003206   0.000213  -0.011878   0.000021
              19         20         21         22         23         24
     1  C   -0.001354   0.005896  -0.023324   0.002895  -0.003829  -0.002619
     2  C    0.006843   0.004121   0.000042   0.033972   0.017444  -0.005694
     3  C   -0.002021   0.007771   0.003517  -0.002923  -0.002921   0.010390
     4  C    0.432544  -0.000019   0.000295  -0.126972  -0.025630  -0.015966
     5  C   -0.000087   0.442330   0.448033   0.003821  -0.000384   0.000082
     6  O    0.000003  -0.064598  -0.052487  -0.000667  -0.000052   0.000049
     7  C   -0.045201   0.000013   0.000402   0.581475   0.423062  -0.001516
     8  C   -0.032372   0.000072  -0.000313   0.022699   0.013789   0.424954
     9  C    0.010204  -0.000981  -0.000957  -0.115133  -0.054792   0.009859
    10  C    0.000373  -0.053404  -0.016589   0.010550  -0.000135  -0.000184
    11  O    0.007658  -0.000104   0.000083  -0.002591  -0.000353  -0.052270
    12  O   -0.000459   0.001282   0.001492   0.001435  -0.001751  -0.001692
    13  C   -0.000157   0.002113  -0.010860  -0.009757   0.004422  -0.002763
    14  H   -0.000152  -0.000758   0.004985   0.004832  -0.000021  -0.000056
    15  H    0.000042   0.001083  -0.000790  -0.001629   0.000245   0.000207
    16  H    0.001379   0.000031   0.000225  -0.001630   0.002324  -0.000625
    17  H    0.002790  -0.001847   0.002614  -0.048562   0.008514  -0.000036
    18  H   -0.006424  -0.000001  -0.000005   0.001025   0.000148  -0.001255
    19  H    0.479511  -0.000004   0.000033  -0.008258  -0.005617  -0.011935
    20  H   -0.000004   0.466418  -0.004817   0.000321  -0.000030   0.000011
    21  H    0.000033  -0.004817   0.486959  -0.000633   0.000063   0.000000
    22  H   -0.008258   0.000321  -0.000633   0.488066  -0.015889  -0.001398
    23  H   -0.005617  -0.000030   0.000063  -0.015889   0.462410   0.001440
    24  H   -0.011935   0.000011   0.000000  -0.001398   0.001440   0.438042
    25  H    0.000675  -0.000096  -0.000286  -0.001686   0.000540  -0.016461
    26  H   -0.001473   0.000082  -0.000088   0.004693  -0.009480   0.000844
    27  H   -0.000009   0.000082  -0.000712   0.001908  -0.007470   0.000025
    28  H   -0.000038  -0.009377   0.004740   0.000206   0.000018  -0.000081
    29  H    0.000005  -0.003212   0.000715  -0.000009  -0.000036   0.000011
    30  H    0.000402   0.000631   0.001744  -0.000482   0.000280   0.001415
    31  H   -0.000108  -0.001833  -0.002910   0.001567  -0.000189   0.000135
              25         26         27         28         29         30
     1  C   -0.002705  -0.004400  -0.015111   0.000345   0.009382   0.004038
     2  C   -0.030467  -0.078505  -0.126021   0.007419  -0.007551  -0.001791
     3  C   -0.011341   0.019603   0.041631  -0.026773  -0.033991  -0.013004
     4  C   -0.134508  -0.020803  -0.027170  -0.000887   0.001377  -0.005200
     5  C    0.002332   0.000623   0.000270  -0.028426  -0.095749  -0.018080
     6  O   -0.001335  -0.000009  -0.000682   0.007954  -0.009633  -0.000517
     7  C    0.025912  -0.014859  -0.057315   0.000074  -0.001224   0.004545
     8  C    0.497632   0.019005   0.007756  -0.000118  -0.000911   0.009745
     9  C    0.016317   0.466346   0.525089  -0.002501   0.002870  -0.001977
    10  C   -0.015079  -0.000861  -0.005999   0.436770   0.502535   0.006363
    11  O   -0.038459  -0.016491   0.013502  -0.000585   0.001270  -0.004016
    12  O    0.007103   0.003251  -0.005630  -0.000757   0.006250   0.000888
    13  C    0.027905  -0.007975   0.013637  -0.022018  -0.003955   0.388776
    14  H    0.001127  -0.000105   0.001999   0.000275  -0.000282  -0.002741
    15  H   -0.000768  -0.000376  -0.004378   0.001759  -0.002361   0.000073
    16  H   -0.000853  -0.008762  -0.012901   0.000386  -0.000673   0.000165
    17  H   -0.012660  -0.002471  -0.013771  -0.001646   0.002189   0.001013
    18  H   -0.000091  -0.002188  -0.001647   0.000019  -0.000012   0.000118
    19  H    0.000675  -0.001473  -0.000009  -0.000038   0.000005   0.000402
    20  H   -0.000096   0.000082   0.000082  -0.009377  -0.003212   0.000631
    21  H   -0.000286  -0.000088  -0.000712   0.004740   0.000715   0.001744
    22  H   -0.001686   0.004693   0.001908   0.000206  -0.000009  -0.000482
    23  H    0.000540  -0.009480  -0.007470   0.000018  -0.000036   0.000280
    24  H   -0.016461   0.000844   0.000025  -0.000081   0.000011   0.001415
    25  H    0.546722  -0.002388   0.005428   0.001192  -0.001379  -0.005760
    26  H   -0.002388   0.431655  -0.005811  -0.000101   0.000075  -0.000058
    27  H    0.005428  -0.005811   0.497766   0.000237   0.000003  -0.001398
    28  H    0.001192  -0.000101   0.000237   0.474812  -0.010857  -0.012318
    29  H   -0.001379   0.000075   0.000003  -0.010857   0.464045   0.001238
    30  H   -0.005760  -0.000058  -0.001398  -0.012318   0.001238   0.483880
    31  H   -0.001531   0.000191   0.000439  -0.008839   0.002927   0.000048
              31
     1  C   -0.009458
     2  C   -0.003731
     3  C   -0.065442
     4  C    0.001121
     5  C   -0.006833
     6  O   -0.002598
     7  C   -0.001078
     8  C    0.000350
     9  C    0.002995
    10  C   -0.025268
    11  O    0.000586
    12  O    0.006165
    13  C    0.476674
    14  H   -0.001554
    15  H   -0.003206
    16  H    0.000213
    17  H   -0.011878
    18  H    0.000021
    19  H   -0.000108
    20  H   -0.001833
    21  H   -0.002910
    22  H    0.001567
    23  H   -0.000189
    24  H    0.000135
    25  H   -0.001531
    26  H    0.000191
    27  H    0.000439
    28  H   -0.008839
    29  H    0.002927
    30  H    0.000048
    31  H    0.430130
 Mulliken charges:
               1
     1  C   -0.420042
     2  C   -0.020757
     3  C    0.061135
     4  C   -0.329987
     5  C   -0.219829
     6  O   -0.359572
     7  C   -0.285369
     8  C   -0.256482
     9  C   -0.348504
    10  C   -0.300416
    11  O   -0.337015
    12  O   -0.358035
    13  C   -0.424995
    14  H    0.200551
    15  H    0.237353
    16  H    0.270202
    17  H    0.269414
    18  H    0.178785
    19  H    0.173204
    20  H    0.208822
    21  H    0.158831
    22  H    0.178752
    23  H    0.193877
    24  H    0.227089
    25  H    0.144967
    26  H    0.230834
    27  H    0.176254
    28  H    0.189114
    29  H    0.176942
    30  H    0.161983
    31  H    0.222895
 Sum of Mulliken charges =  -0.00000
 Mulliken charges with hydrogens summed into heavy atoms:
               1
     1  C    0.017861
     2  C    0.249445
     3  C    0.330549
     4  C    0.022002
     5  C    0.147825
     6  O   -0.359572
     7  C    0.087260
     8  C    0.115573
     9  C    0.058585
    10  C    0.065640
    11  O   -0.337015
    12  O   -0.358035
    13  C   -0.040116
 Electronic spatial extent (au):  <R**2>=           2798.5570
 Charge=             -0.0000 electrons
 Dipole moment (field-independent basis, Debye):
    X=             -1.5937    Y=             -0.4982    Z=             -5.2178  Tot=              5.4785
 Quadrupole moment (field-independent basis, Debye-Ang):
   XX=            -75.6464   YY=            -78.6313   ZZ=            -81.7679
   XY=              7.7094   XZ=             -1.7813   YZ=             -2.0987
 Traceless Quadrupole moment (field-independent basis, Debye-Ang):
   XX=              3.0355   YY=              0.0505   ZZ=             -3.0860
   XY=              7.7094   XZ=             -1.7813   YZ=             -2.0987
 Octapole moment (field-independent basis, Debye-Ang**2):
  XXX=             -0.4859  YYY=             -0.2696  ZZZ=              0.9173  XYY=             -8.3373
  XXY=             19.3484  XXZ=            -18.7636  XZZ=              3.5002  YZZ=             -5.0436
  YYZ=             -3.5303  XYZ=             11.8609
 Hexadecapole moment (field-independent basis, Debye-Ang**3):
 XXXX=          -2608.4503 YYYY=           -605.7092 ZZZZ=           -373.4385 XXXY=             55.3114
 XXXZ=             -4.5286 YYYX=             -9.1007 YYYZ=             -1.1943 ZZZX=             -3.2438
 ZZZY=             -7.2301 XXYY=           -556.1449 XXZZ=           -520.4619 YYZZ=           -172.3444
 XXYZ=              1.6634 YYXZ=             -5.9844 ZZXY=              7.3327
 N-N= 9.061167412963D+02 E-N=-3.254334119252D+03  KE= 6.153382325255D+02
 D1PCM: PCM CHGder 1st derivatives, ID1Alg=3 FixD1E=F DoIter=F DoCFld=F I1PDM=0.
 Calling FoFJK, ICntrl=      2127 FMM=F ISym2X=0 I1Cent= 0 IOpClX= 0 NMat=1 NMatS=1 NMatT=0.
 ***** Axes restored to original set *****
 -------------------------------------------------------------------
 Center     Atomic                   Forces (Hartrees/Bohr)
 Number     Number              X              Y              Z
 -------------------------------------------------------------------
      1        6           0.001737707   -0.005580637   -0.002572525
      2        6           0.004004156    0.006065122   -0.010631465
      3        6          -0.001280820    0.000038942   -0.001140226
      4        6          -0.003295550    0.000248526   -0.000639692
      5        6           0.004653432   -0.005152824   -0.001725061
      6        8          -0.002009703    0.006140816    0.010317873
      7        6          -0.000447822   -0.002295933    0.004058841
      8        6           0.002260338    0.006829046   -0.003120209
      9        6          -0.000265856   -0.003833525   -0.002472523
     10        6           0.000452146    0.002301554   -0.002297350
     11        8           0.003483290   -0.006838300    0.010777444
     12        8          -0.009099599   -0.004094938    0.007379360
     13        6          -0.002237518    0.002762819    0.002025024
     14        1          -0.001300377    0.000445458   -0.005669982
     15        1           0.003309543    0.003969052    0.002258386
     16        1           0.000132939    0.001815113    0.006669129
     17        1           0.005495194    0.001672221   -0.005201956
     18        1           0.001985153    0.000551155    0.002715610
     19        1           0.000897694   -0.000904389   -0.002417627
     20        1          -0.003293753   -0.000547688    0.002972994
     21        1          -0.001469554    0.000276854   -0.005576647
     22        1          -0.003018074   -0.001206211   -0.002607859
     23        1           0.001761684    0.002005350   -0.000608710
     24        1           0.002291774   -0.003785448    0.000744125
     25        1          -0.005243196   -0.000717970   -0.004734012
     26        1           0.002437547    0.001014488    0.002306170
     27        1          -0.003636998    0.002445726   -0.000871459
     28        1          -0.001366233   -0.002062471   -0.001040467
     29        1           0.001272958    0.000007873    0.003529997
     30        1           0.002961397   -0.002394820    0.000701859
     31        1          -0.001171899    0.000825039   -0.003129045
 -------------------------------------------------------------------
 Cartesian Forces:  Max     0.010777444 RMS     0.003743222

 GradGradGradGradGradGradGradGradGradGradGradGradGradGradGradGradGradGrad
 Berny optimization.
 FormGI is forming the generalized inverse of G from B-inverse, IUseBI=4.
 Internal  Forces:  Max     0.019547339 RMS     0.002553409
 Search for a local minimum.
 Step number   1 out of a maximum of  186
 All quantities printed in internal units (Hartrees-Bohrs-Radians)
 Mixed Optimization -- RFO/linear search
 Second derivative matrix not updated -- first step.
 ITU=  0
     Eigenvalues ---    0.00470   0.00606   0.00716   0.00725   0.01362
     Eigenvalues ---    0.01409   0.01437   0.02493   0.02819   0.03029
     Eigenvalues ---    0.03106   0.03795   0.04356   0.04505   0.04765
     Eigenvalues ---    0.04781   0.04897   0.05051   0.05071   0.05092
     Eigenvalues ---    0.05314   0.05497   0.05605   0.05864   0.06216
     Eigenvalues ---    0.06271   0.06629   0.06729   0.07609   0.07876
     Eigenvalues ---    0.07945   0.07971   0.08006   0.08148   0.08573
     Eigenvalues ---    0.08860   0.09394   0.09406   0.10799   0.11644
     Eigenvalues ---    0.11704   0.11720   0.11961   0.12455   0.12534
     Eigenvalues ---    0.14588   0.15298   0.16266   0.16818   0.17494
     Eigenvalues ---    0.19854   0.21758   0.21809   0.25000   0.28026
     Eigenvalues ---    0.28499   0.28596   0.28779   0.28969   0.29053
     Eigenvalues ---    0.30096   0.30224   0.35030   0.35065   0.35095
     Eigenvalues ---    0.35104   0.35253   0.35261   0.35263   0.35287
     Eigenvalues ---    0.35318   0.35345   0.35447   0.35459   0.35536
     Eigenvalues ---    0.35812   0.35847   0.35945   0.36246   0.36296
     Eigenvalues ---    0.40986   0.41496   0.42193   0.42258   0.43391
     Eigenvalues ---    0.449031000.000001000.000001000.000001000.00000
     Eigenvalues --- 1000.000001000.000001000.000001000.000001000.00000
     Eigenvalues --- 1000.000001000.000001000.000001000.000001000.00000
     Eigenvalues --- 1000.000001000.000001000.000001000.000001000.00000
     Eigenvalues --- 1000.000001000.000001000.000001000.000001000.00000
     Eigenvalues --- 1000.000001000.000001000.000001000.000001000.00000
     Eigenvalues --- 1000.000001000.000001000.000001000.000001000.00000
     Eigenvalues --- 1000.000001000.000001000.000001000.000001000.00000
     Eigenvalues --- 1000.000001000.000001000.000001000.000001000.00000
     Eigenvalues --- 1000.000001000.000001000.000001000.000001000.00000
     Eigenvalues --- 1000.000001000.000001000.000001000.000001000.00000
     Eigenvalues --- 1000.000001000.000001000.000001000.000001000.00000
     Eigenvalues --- 1000.000001000.000001000.000001000.000001000.00000
     Eigenvalues --- 1000.000001000.000001000.000001000.000001000.00000
     Eigenvalues --- 1000.000001000.000001000.000001000.000001000.00000
     Eigenvalues --- 1000.000001000.000001000.000001000.000001000.00000
     Eigenvalues --- 1000.000001000.000001000.000001000.000001000.00000
     Eigenvalues --- 1000.000001000.000001000.000001000.000001000.00000
     Eigenvalues --- 1000.000001000.000001000.000001000.000001000.00000
     Eigenvalues --- 1000.000001000.000001000.000001000.000001000.00000
 RFO step:  Lambda=-5.03025840D-03 EMin= 4.69788080D-03
 Linear search not attempted -- first point.
 Iteration  1 RMS(Cart)=  0.10208552 RMS(Int)=  0.00216479
 Iteration  2 RMS(Cart)=  0.00540128 RMS(Int)=  0.00007591
 Iteration  3 RMS(Cart)=  0.00001100 RMS(Int)=  0.00007577
 Iteration  4 RMS(Cart)=  0.00000000 RMS(Int)=  0.00007577
 Iteration  1 RMS(Cart)=  0.00008348 RMS(Int)=  0.00001784
 Iteration  2 RMS(Cart)=  0.00004443 RMS(Int)=  0.00001994
 Iteration  3 RMS(Cart)=  0.00002365 RMS(Int)=  0.00002246
 Iteration  4 RMS(Cart)=  0.00001259 RMS(Int)=  0.00002407
 Iteration  5 RMS(Cart)=  0.00000670 RMS(Int)=  0.00002499
 Iteration  6 RMS(Cart)=  0.00000357 RMS(Int)=  0.00002550
 Iteration  7 RMS(Cart)=  0.00000190 RMS(Int)=  0.00002577
 Iteration  8 RMS(Cart)=  0.00000101 RMS(Int)=  0.00002592
 Iteration  9 RMS(Cart)=  0.00000054 RMS(Int)=  0.00002600
 Variable       Old X    -DE/DX   Delta X   Delta X   Delta X     New X
                                 (Linear)    (Quad)   (Total)
    R1        2.87726  -0.00067   0.00000  -0.00224  -0.00223   2.87503
    R2        2.66815   0.00590   0.00000   0.01392   0.01394   2.68209
    R3        2.05570   0.00576   0.00000   0.01618   0.01618   2.07188
    R4        2.04168   0.00553   0.00000   0.01517   0.01517   2.05685
    R5        2.90027  -0.00207   0.00000  -0.00626  -0.00618   2.89410
    R6        2.65497   0.00637   0.00000   0.01437   0.01445   2.66942
    R7        2.65389   0.00329   0.00000   0.00724   0.00724   2.66113
    R8        2.03699   0.00690   0.00000   0.01877   0.01877   2.05576
    R9        2.68596   0.00383   0.00000   0.00897   0.00897   2.69493
   R10        2.88724  -0.00169   0.00000  -0.00655  -0.00658   2.88066
   R11        2.03621   0.00775   0.00000   0.02105   0.02105   2.05726
   R12        2.88516  -0.00117   0.00000  -0.00440  -0.00449   2.88067
   R13        2.86597  -0.00069   0.00000  -0.00287  -0.00294   2.86303
   R14        2.05506   0.00330   0.00000   0.00926   0.00926   2.06432
   R15        2.05254   0.00273   0.00000   0.00763   0.00763   2.06017
   R16        2.67609   0.00629   0.00000   0.01510   0.01512   2.69121
   R17        2.87326  -0.00065   0.00000  -0.00193  -0.00194   2.87132
   R18        2.04377   0.00447   0.00000   0.01230   0.01230   2.05606
   R19        2.05626   0.00568   0.00000   0.01598   0.01598   2.07224
   R20        2.90009  -0.00174   0.00000  -0.00558  -0.00559   2.89450
   R21        2.04956   0.00407   0.00000   0.01133   0.01133   2.06088
   R22        2.05162   0.00273   0.00000   0.00763   0.00763   2.05925
   R23        2.68350   0.00601   0.00000   0.01378   0.01379   2.69729
   R24        2.04322   0.00448   0.00000   0.01232   0.01232   2.05554
   R25        2.05119   0.00703   0.00000   0.01961   0.01961   2.07080
   R26        2.05250   0.00349   0.00000   0.00976   0.00976   2.06226
   R27        2.04814   0.00434   0.00000   0.01205   0.01205   2.06019
   R28        2.89201  -0.00108   0.00000  -0.00445  -0.00447   2.88754
   R29        2.05266   0.00268   0.00000   0.00750   0.00750   2.06016
   R30        2.05212   0.00365   0.00000   0.01019   0.01019   2.06231
   R31        2.04935   0.00376   0.00000   0.01046   0.01046   2.05982
   R32        2.05521   0.00338   0.00000   0.00950   0.00950   2.06471
    A1        1.95314   0.00019   0.00000  -0.00107  -0.00107   1.95206
    A2        1.90572  -0.00096   0.00000  -0.00317  -0.00321   1.90252
    A3        1.93505  -0.00080   0.00000  -0.01012  -0.01011   1.92494
    A4        1.91139   0.00123   0.00000   0.00977   0.00977   1.92117
    A5        1.86094  -0.00026   0.00000  -0.00011  -0.00016   1.86078
    A6        1.89644   0.00068   0.00000   0.00522   0.00519   1.90163
    A7        1.95328   0.00342   0.00000   0.01156   0.01106   1.96433
    A8        2.05132  -0.00637   0.00000  -0.03712  -0.03725   2.01407
    A9        1.89092   0.00047   0.00000   0.01132   0.01138   1.90230
   A10        1.92926   0.00102   0.00000  -0.00935  -0.00961   1.91965
   A11        1.81255  -0.00123   0.00000   0.00576   0.00569   1.81824
   A12        1.80418   0.00321   0.00000   0.02522   0.02551   1.82969
   A13        1.90751  -0.00036   0.00000  -0.00225  -0.00221   1.90530
   A14        1.91770   0.00096   0.00000   0.00212   0.00201   1.91971
   A15        1.89168  -0.00029   0.00000  -0.00006  -0.00004   1.89164
   A16        1.90239  -0.00018   0.00000  -0.00428  -0.00423   1.89816
   A17        1.93058   0.00048   0.00000   0.00403   0.00402   1.93459
   A18        1.91398  -0.00060   0.00000   0.00049   0.00050   1.91449
   A19        1.91198  -0.00096   0.00000  -0.00526  -0.00549   1.90649
   A20        1.92580   0.00120   0.00000   0.00321   0.00330   1.92909
   A21        1.93463  -0.00066   0.00000  -0.00158  -0.00155   1.93308
   A22        1.90297  -0.00009   0.00000  -0.00196  -0.00191   1.90105
   A23        1.91068   0.00044   0.00000   0.00066   0.00074   1.91142
   A24        1.87724   0.00010   0.00000   0.00509   0.00506   1.88230
   A25        1.93651   0.00092   0.00000   0.00605   0.00597   1.94249
   A26        1.85649  -0.00085   0.00000  -0.00288  -0.00285   1.85364
   A27        1.90111   0.00082   0.00000   0.00476   0.00481   1.90592
   A28        1.94636  -0.00043   0.00000  -0.00371  -0.00371   1.94265
   A29        1.93004  -0.00099   0.00000  -0.00705  -0.00703   1.92300
   A30        1.89104   0.00057   0.00000   0.00318   0.00315   1.89419
   A31        1.97789  -0.00427   0.00000  -0.02523  -0.02516   1.95273
   A32        1.93021   0.00234   0.00000  -0.00076  -0.00079   1.92942
   A33        1.90388  -0.00135   0.00000  -0.00360  -0.00362   1.90026
   A34        1.93013  -0.00017   0.00000   0.00171   0.00174   1.93187
   A35        1.94268  -0.00087   0.00000  -0.00334  -0.00337   1.93931
   A36        1.89641  -0.00068   0.00000   0.00127   0.00130   1.89771
   A37        1.85946   0.00066   0.00000   0.00496   0.00496   1.86443
   A38        1.93333   0.00228   0.00000   0.00657   0.00648   1.93981
   A39        1.94929  -0.00018   0.00000  -0.00281  -0.00277   1.94652
   A40        1.93527  -0.00159   0.00000  -0.00603  -0.00603   1.92924
   A41        1.84114  -0.00140   0.00000  -0.00104  -0.00102   1.84012
   A42        1.91571   0.00027   0.00000   0.00096   0.00103   1.91674
   A43        1.88627   0.00062   0.00000   0.00258   0.00256   1.88883
   A44        2.02678  -0.00084   0.00000  -0.00872  -0.00875   2.01803
   A45        1.83210  -0.00015   0.00000   0.00717   0.00718   1.83928
   A46        1.90929   0.00014   0.00000  -0.00995  -0.01008   1.89921
   A47        1.88087   0.00125   0.00000   0.01203   0.01208   1.89295
   A48        1.94379  -0.00043   0.00000  -0.00510  -0.00533   1.93846
   A49        1.86024   0.00017   0.00000   0.00745   0.00749   1.86774
   A50        1.92481  -0.00003   0.00000  -0.00554  -0.00560   1.91921
   A51        1.90700   0.00037   0.00000   0.00180   0.00184   1.90884
   A52        1.90619  -0.00048   0.00000  -0.00149  -0.00151   1.90468
   A53        1.92591  -0.00065   0.00000  -0.00067  -0.00067   1.92524
   A54        1.92656   0.00053   0.00000   0.00107   0.00109   1.92766
   A55        1.87249   0.00025   0.00000   0.00512   0.00511   1.87760
   A56        2.05699  -0.00683   0.00000  -0.04068  -0.04037   2.01662
   A57        2.17909  -0.01955   0.00000  -0.07665  -0.07665   2.10244
   A58        1.94372   0.00103   0.00000  -0.00831  -0.00839   1.93532
   A59        1.91617  -0.00076   0.00000  -0.00697  -0.00694   1.90924
   A60        1.88225  -0.00050   0.00000   0.00239   0.00240   1.88465
   A61        1.93839  -0.00004   0.00000   0.00240   0.00234   1.94073
   A62        1.90718  -0.00023   0.00000   0.00442   0.00444   1.91162
   A63        1.87391   0.00047   0.00000   0.00672   0.00670   1.88062
[...]
 06916,0.00015239,0.00002842,-0.00002031,-0.00000548,-0.00001116,0.0000
 2313,0.00000561,0.00047180,-0.00028501,0.00008890,-0.00038061,0.000055
 70,0.00024133,0.00192483,0.00287457,-0.00038567,-0.00082928,-0.0008498
 6,0.00041616,-0.00001166,0.00001389,0.00000385,-0.00000143,-0.00000323
 ,-0.00000258,-0.00012824,-0.00033332,-0.00013794,0.00001738,-0.0001607
 9,0.00001149,-0.00505841,0.00001124,-0.00139893,0.12451157,0.02909239,
 0.15150263,0.00020046,0.00004991,-0.00005216,-0.01160563,-0.00411237,-
 0.00866620,0.00089181,0.00006339,0.00120847,0.00077810,-0.00047063,-0.
 00010118,0.00005212,0.00001194,0.00004124,-0.00018205,-0.00002251,0.00
 002187,0.01046177,0.00638904,0.01161414,-0.00014069,-0.00002829,0.0002
 1143,-0.17361695,-0.07119836,-0.11302228,-0.00000068,-0.00005743,-0.00
 006650,0.00081083,0.00005034,0.00023449,-0.00266125,-0.00346888,0.0010
 7915,-0.00006858,0.00008669,-0.00002275,-0.00009157,0.00002607,-0.0000
 2474,0.00002547,-0.00012160,-0.00001142,0.00026464,0.00013848,0.000115
 22,-0.00007863,0.00007284,0.00015215,-0.00017193,-0.00029345,-0.000250
 19,-0.00009136,-0.00024231,-0.00007638,-0.00001823,-0.00000457,0.00000
 042,-0.00000576,0.00000211,-0.00000954,-0.00044987,0.00138954,0.002937
 36,0.00121450,0.00013604,-0.00048758,0.00002937,-0.00000339,-0.0000137
 5,-0.00002014,-0.00001442,-0.00003135,0.18923691,-0.00001063,-0.000197
 45,-0.00009612,-0.01880314,-0.01080676,-0.01592688,0.00066058,-0.00017
 585,0.00147496,-0.00054927,0.00009572,0.00003015,0.00004462,0.00000596
 ,0.00000631,-0.00005038,0.00008179,0.00001891,-0.00636877,-0.00366032,
 -0.00638019,-0.00019385,0.00011528,0.00009827,-0.06982199,-0.08888903,
 -0.06285361,0.00002808,-0.00001497,-0.00002616,0.00098149,0.00031331,0
 .00095631,-0.00392987,-0.00313824,0.00200655,-0.00006473,0.00006124,-0
 .00021156,-0.00002488,0.00006403,0.00000013,-0.00001565,0.00011810,0.0
 0001811,0.00023378,0.00107075,-0.00010993,0.00023036,0.00007952,0.0001
 2559,0.00010265,-0.00007497,0.00001463,0.00016956,0.00003584,0.0000568
 9,-0.00000695,0.00000682,0.00000026,-0.00000469,0.00000160,-0.00000590
 ,0.00109169,0.00058730,-0.00103604,0.00034241,0.00082369,0.00083619,-0
 .00000445,-0.00003245,0.00000676,-0.00000480,0.00008698,0.00001524,0.0
 8039630,0.09307115,0.00002978,0.00000402,0.00007834,0.01207762,0.00720
 918,0.00697431,-0.00018520,0.00036000,-0.00114964,-0.00035282,0.000477
 08,0.00064452,-0.00001495,0.00000492,-0.00000195,-0.00000497,-0.000013
 66,0.00001042,-0.01788782,-0.01025930,-0.02220500,0.00021237,0.0000391
 0,-0.00027138,-0.11576214,-0.06392458,-0.14331055,-0.00001849,-0.00001
 428,0.00000164,-0.00044932,-0.00052361,-0.00008743,0.00407666,0.003383
 75,-0.00023404,0.00000050,-0.00003457,0.00024479,0.00003146,-0.0000282
 5,0.00000602,-0.00000118,-0.00002573,-0.00001091,0.00120777,0.00055154
 ,0.00129809,0.00020207,0.00002464,0.00006380,0.00025037,-0.00032855,0.
 00026042,0.00033848,0.00010802,0.00011523,0.00000262,-0.00000223,-0.00
 000050,0.00000202,-0.00000163,0.00000132,0.00302239,-0.00222980,-0.003
 89322,-0.00048394,0.00038216,0.00130549,-0.00004895,-0.00005377,0.0000
 5770,0.00001171,0.00001678,-0.00002564,0.11748233,0.06671883,0.1639243
 2,-0.00156183,-0.00057224,-0.00026096,0.00934833,-0.01039723,0.0016553
 9,0.00000992,-0.00055487,-0.00022405,-0.00008513,-0.00049463,0.0032365
 8,-0.00004828,-0.00009504,-0.00005546,0.00022441,0.00010688,-0.0000342
 2,-0.00851840,0.00885938,-0.00309859,-0.00045186,0.00004561,0.00062993
 ,-0.17187235,0.13275577,-0.03227918,-0.00000365,0.00003124,0.00003337,
 0.00037436,-0.00454850,0.00166331,0.00089316,0.00058857,-0.00029322,-0
 .00003707,0.00000894,-0.00005470,0.00005140,0.00004863,-0.00000583,-0.
 00308236,0.00016688,-0.00022924,0.00001039,0.00074681,-0.00006268,-0.0
 0008304,-0.00023220,-0.00023506,0.00008233,-0.00026867,-0.00003970,-0.
 00023682,0.00102402,-0.00014470,0.00001742,0.00001242,0.00000497,0.000
 00635,0.00000518,0.00001086,0.00074214,-0.00041301,-0.00002644,-0.0000
 6439,-0.00028452,-0.00014250,0.00006783,0.00005045,-0.00016897,0.00005
 872,0.00000515,-0.00007401,-0.01467610,0.01564172,-0.00379225,0.188798
 48,-0.00039243,-0.00034054,-0.00017438,0.01810550,-0.01679728,0.002526
 34,-0.00054505,-0.00053068,-0.00011829,0.00047009,0.00084999,-0.001835
 16,-0.00001995,-0.00004373,-0.00007840,0.00028744,0.00019239,0.0000178
 4,0.00492054,-0.00569635,0.00093662,-0.00027723,0.00110977,0.00121592,
 0.12891520,-0.18478368,0.03517866,0.00003466,0.00006328,0.00005625,-0.
 00107961,-0.00624164,0.00317431,0.00081433,0.00233882,-0.00070240,0.00
 003737,-0.00006139,-0.00016266,0.00008245,0.00004273,0.00006790,-0.000
 06017,0.00034337,0.00008354,-0.00048360,0.00010138,0.00029856,0.000073
 33,-0.00025095,-0.00028887,0.00009625,-0.00008080,0.00007460,0.0002803
 8,-0.00034678,0.00020343,0.00002552,0.00002505,0.00000243,0.00000432,0
 .00000211,0.00001007,-0.00041218,0.00034124,0.00031220,0.00005661,0.00
 013045,-0.00025610,0.00004908,-0.00005438,-0.00012572,-0.00001482,-0.0
 0005116,-0.00017148,-0.00870448,0.01042622,-0.00188497,-0.14230950,0.1
 9925381,-0.00029390,-0.00005128,-0.00007307,-0.01236212,0.00761861,-0.
 00230144,-0.00006710,-0.00003634,0.00024978,0.00245592,-0.00030836,-0.
 00535310,-0.00001667,-0.00001837,-0.00000904,0.00005215,0.00000086,-0.
 00003149,0.01944888,-0.02224891,0.00576894,0.00041213,-0.00004936,-0.0
 0105303,-0.03154400,0.03672469,-0.05515406,-0.00000957,0.00001284,0.00
 000804,0.00084674,0.00458004,-0.00099142,-0.00018840,-0.00067895,0.000
 58333,0.00002587,-0.00004009,0.00002096,0.00003557,0.00000192,-0.00000
 739,-0.00029910,0.00002750,-0.00005673,0.00032715,-0.00066245,-0.00010
 634,0.00006580,-0.00016743,-0.00012132,0.00013842,-0.00003485,0.000102
 64,0.00079982,-0.00160413,0.00012229,0.00000482,0.00000074,-0.00000085
 ,0.00000070,0.00000071,0.00000393,-0.00100419,0.00023010,0.00159213,-0
 .00039184,0.00070050,0.00075178,-0.00012570,-0.00000463,0.00021540,-0.
 00009606,0.00001727,0.00014079,-0.01222081,0.01431310,-0.00384612,0.03
 398045,-0.03836392,0.05954638,-0.00122010,0.00043187,0.00046206,0.0005
 9361,-0.00009635,0.00014852,-0.00367032,0.00101678,0.00486119,-0.00000
 306,-0.00001067,0.00000072,0.01136646,0.01193088,0.00687735,-0.0003773
 8,0.00651591,0.00034157,-0.00000333,-0.00004293,0.00003141,0.00004400,
 -0.00001450,-0.00002124,-0.00005847,0.00001861,-0.00002833,-0.12270201
 ,-0.11011979,-0.05021153,-0.00016392,0.00012621,0.00001146,-0.00023641
 ,-0.00006971,-0.00013272,-0.01418994,-0.02172703,-0.00948743,0.0001684
 5,-0.00001149,-0.00005433,0.00026099,-0.00007398,-0.00019507,-0.000086
 57,-0.00000139,-0.00005692,-0.00062918,-0.00146890,-0.00058726,-0.0000
 0825,0.00000777,-0.00000372,-0.00000816,0.00000332,0.00000589,0.000375
 89,-0.00106247,0.00027997,0.00061198,-0.00075747,-0.00030837,-0.000017
 30,-0.00000222,-0.00006699,-0.00004263,-0.00000218,-0.00000512,-0.0000
 1517,0.00000830,0.00000016,0.00002626,-0.00002518,-0.00000751,-0.00004
 212,-0.00002132,0.00000467,0.00001735,0.00003248,0.00000713,0.13251006
 ,0.00142550,0.00077343,-0.00108932,0.00024260,-0.00000470,-0.00002477,
 -0.00002863,0.00143390,0.00115376,-0.00000085,-0.00000230,-0.00000113,
 -0.01732600,-0.01695414,-0.00941042,0.00237809,-0.00792161,0.00001068,
 0.00000097,-0.00001272,0.00001302,0.00001729,-0.00000074,-0.00000321,0
 .00000421,0.00001036,0.00001279,-0.10891591,-0.20930515,-0.07046031,-0
 .00007289,0.00005346,0.00000609,-0.00011437,-0.00000409,-0.00035678,-0
 .00124359,-0.00197225,-0.00015972,-0.00013884,-0.00004568,0.00016970,-
 0.00020176,-0.00003428,0.00007424,-0.00004159,-0.00000445,-0.00001598,
 -0.00004372,-0.00015017,-0.00022746,-0.00000386,0.00000037,-0.00000121
 ,-0.00000307,0.00000155,0.00000257,0.00021467,0.00081151,-0.00028659,-
 0.00016425,0.00099979,0.00060869,-0.00000602,-0.00000078,-0.00001915,-
 0.00001347,-0.00000015,-0.00000041,-0.00000776,0.00000332,0.00000035,0
 .00001075,-0.00000890,-0.00000723,-0.00000829,-0.00000283,0.00000109,0
 .00001141,0.00001368,0.00000597,0.12027049,0.22603176,0.00031730,-0.00
 033659,-0.00023902,-0.00021467,0.00004701,0.00013805,0.00334654,-0.000
 18087,-0.00303439,0.00000206,0.00000558,0.00000288,0.00064832,0.002058
 02,-0.00152730,-0.00006672,-0.00034814,0.00154173,0.00001155,0.0000250
 6,-0.00003019,-0.00002019,-0.00000182,-0.00000696,-0.00002898,-0.00001
 723,-0.00003727,-0.05093134,-0.07304049,-0.07874073,0.00003084,-0.0000
 3297,-0.00000958,-0.00001356,-0.00016514,0.00052002,0.01102133,0.01721
 681,0.00604613,-0.00007591,0.00000552,0.00001082,-0.00007994,0.0000263
 9,0.00005507,0.00006351,0.00000124,0.00002574,0.00049804,0.00091370,0.
 00028316,0.00000459,-0.00000503,0.00000218,0.00000315,-0.00000205,-0.0
 0000147,0.00001227,0.00008357,0.00005270,0.00030964,-0.00035693,0.0001
 9543,0.00001445,0.00000288,0.00004396,0.00002753,0.00000110,0.00000794
 ,0.00000613,-0.00000219,0.00000117,-0.00000887,0.00001216,0.00000544,0
 .00001018,-0.00000237,0.00000865,-0.00000968,-0.00001659,-0.00000687,0
 .05166174,0.07807309,0.08255218,-0.00045709,-0.00002286,0.00026668,0.0
 0004285,0.00000605,0.00007060,0.00107040,0.00015639,-0.00043184,0.0000
 0111,0.00000056,0.00000028,-0.00793332,0.00372005,-0.02042817,0.001404
 12,-0.00121804,0.00124381,-0.00000225,-0.00000505,0.00000252,-0.000001
 38,0.00000340,0.00000778,0.00000156,0.00001172,0.00002036,-0.06478479,
 0.01231149,-0.06436619,-0.00000080,0.00001149,-0.00001027,-0.00087546,
 -0.00053485,-0.00050118,0.00739037,-0.00456355,0.02774619,-0.00007439,
 -0.00002505,-0.00006565,0.00008199,-0.00003708,-0.00002770,-0.00000845
 ,-0.00000323,-0.00000834,-0.00002454,0.00017693,-0.00011391,-0.0000006
 8,-0.00000005,-0.00000103,0.00000054,0.00000055,-0.00000059,0.00060000
 ,-0.00086068,0.00000108,-0.00116991,0.00399546,0.00019772,0.00000266,0
 .00000093,-0.00000069,-0.00000452,0.00000002,0.00000235,-0.00000063,-0
 .00000043,-0.00000110,0.00000581,-0.00000078,0.00000467,0.00000378,-0.
 00000006,-0.00000307,0.00000285,-0.00000151,0.00000163,-0.00467625,0.0
 0393358,-0.01486738,0.07238277,-0.00008827,-0.00003503,-0.00000747,-0.
 00007309,0.00006106,0.00004071,0.00042372,-0.00008560,0.00038672,-0.00
 000074,0.00000120,-0.00000347,0.00909056,-0.00758163,0.02769655,-0.000
 52461,0.00286470,-0.00028083,0.00000020,0.00000290,-0.00000070,-0.0000
 0214,0.00000014,0.00001630,0.00001107,-0.00000163,0.00000567,0.0105182
 7,-0.05831675,0.04516376,0.00001191,-0.00001855,-0.00000977,-0.0003524
 3,-0.00013737,-0.00017319,0.00110130,-0.00120380,0.00292101,0.00004822
 ,0.00004083,-0.00001128,-0.00002162,-0.00001646,0.00000220,0.00001329,
 0.00000161,0.00000377,-0.00001962,-0.00001198,-0.00004771,-0.00000034,
 -0.00000118,0.,0.00000044,-0.00000006,-0.00000049,-0.00078012,0.001149
 53,-0.00058250,0.00300991,-0.00415646,0.00028820,0.00000100,-0.0000004
 7,0.00000051,0.00000183,-0.00000067,-0.00000124,0.00000046,-0.00000002
 ,-0.00000094,-0.00000490,0.00000087,-0.00000191,0.00000443,0.00000486,
 -0.00000344,-0.00000056,0.00000023,0.00000128,-0.00578621,0.00578836,-
 0.02359652,-0.01610689,0.06047613,0.00005376,0.00000513,0.00011212,0.0
 0005788,-0.00007970,0.00038122,-0.00072524,-0.00043148,-0.00095538,0.0
 0000365,0.00000326,0.00000644,-0.00057299,-0.00057178,-0.00053790,0.00
 089677,0.00074853,0.00064231,0.00000203,0.00000332,-0.00001773,-0.0000
 0477,-0.00001389,-0.00003382,-0.00008897,-0.00001310,-0.00006538,-0.06
 447772,0.04743582,-0.28541094,-0.00004260,0.00002806,-0.00000807,-0.00
 081721,-0.00047574,0.00072815,-0.00349316,0.00309259,-0.01775325,-0.00
 000615,-0.00002507,-0.00004413,-0.00003404,0.00009546,0.00000444,0.000
 05237,0.00000603,-0.00000667,0.00012582,0.00009636,0.00013843,0.000002
 65,-0.00000073,-0.00000010,-0.00000156,-0.00000070,0.00000075,-0.00028
 731,0.00039613,0.00076833,-0.00023337,-0.00029326,0.00129051,0.0000033
 8,0.00000145,0.00001872,0.00000885,0.00000128,0.00000927,0.00000584,-0
 .00000047,0.00000504,-0.00001259,0.00000802,0.00000828,-0.00001327,-0.
 00002012,0.00001507,-0.00000026,-0.00000339,-0.00000431,-0.00262367,0.
 00153750,-0.00940923,0.06886395,-0.05190475,0.31027911,-0.00199092,-0.
 00317368,-0.00093042,-0.00014532,0.00012065,0.00013131,0.01036550,-0.0
 1380096,0.00060042,-0.00003869,-0.00001288,-0.00002151,-0.00435372,-0.
 00375436,0.00406563,0.00098907,0.00082005,-0.00028559,-0.00000843,0.00
 001373,-0.00001754,-0.00029721,-0.00020453,-0.00008068,0.00000081,-0.0
 0001952,0.00001032,-0.01628930,0.02120603,-0.00359833,0.00014388,0.000
 09010,0.00010446,0.00134800,0.00036674,0.00141889,-0.15145576,0.131028
 27,-0.01506355,-0.00007616,0.00004521,-0.00006964,0.00068133,-0.000809
 26,-0.00014044,0.00004673,-0.00000101,0.00002376,0.00063515,0.00102419
 ,0.00040625,-0.00001178,-0.00001758,0.00001019,0.00000065,-0.00000070,
 -0.00000032,-0.00085243,0.00177662,0.00020431,0.00018079,-0.00022610,-
 0.00007142,0.00001133,0.00000717,0.00000910,0.00000430,-0.00000299,0.0
 0000205,0.00001112,0.00004159,0.00000483,-0.00192368,-0.00031937,-0.00
 001523,0.00000020,0.00000397,0.00000072,0.00001208,0.00000447,-0.00000
 079,0.00074341,-0.00026245,-0.00076531,0.00132201,-0.00020251,-0.00008
 836,0.16620798,-0.00600243,-0.00346122,-0.00158354,0.00010075,0.000061
 13,0.00001817,0.01839971,-0.02471565,0.00328104,0.00007910,-0.00001350
 ,0.00010307,-0.00167643,0.00052941,0.00060130,0.00086982,0.00068631,-0
 .00007431,0.00001910,-0.00004092,0.00002943,-0.00003170,-0.00002572,-0
 .00034066,0.00001426,-0.00001688,0.00002835,-0.00395337,0.00570674,-0.
 00113737,-0.00019511,0.00006393,0.00001469,0.00046625,0.00272654,0.001
 30209,0.12966206,-0.20915800,0.01791724,-0.00004701,0.00025347,0.00012
 197,0.00135682,-0.00135353,-0.00034030,0.00000400,-0.00001542,0.000013
 85,0.00009463,0.00118558,0.00022857,0.00002984,0.00005256,-0.00001909,
 -0.00000226,0.00000472,-0.00000451,-0.00026844,0.00026008,0.00014493,-
 0.00000487,-0.00004463,0.00007155,-0.00001992,-0.00001213,-0.00004231,
 -0.00002268,0.00001210,-0.00001004,0.00007065,-0.00001172,0.00004662,-
 0.00059668,0.00013479,0.00018217,-0.00001901,0.00000968,-0.00000857,0.
 00004334,0.00004259,0.00001342,0.00052768,0.00032926,-0.00045309,0.000
 42784,0.00025320,-0.00025699,-0.13952165,0.22755328,-0.00116095,-0.000
 95658,0.00000640,-0.00011295,0.00002163,0.00013112,0.00413267,-0.00860
 786,-0.00183494,-0.00001257,-0.00000740,-0.00000414,0.00330931,0.00218
 792,-0.00169168,-0.00062934,0.00021730,0.00013983,0.00000014,-0.000001
 86,0.00001999,0.00003726,0.00001211,0.00007859,0.00002164,-0.00000675,
 0.00001334,0.01261330,-0.01611108,0.00110743,0.00007842,0.00001998,-0.
 00002374,0.00123072,-0.00014045,0.00118169,-0.01588245,0.02123005,-0.0
 4988869,0.00020552,-0.00015212,0.00021519,0.00026477,-0.00029653,0.000
 23445,0.00004280,0.00000618,0.00002180,-0.00016008,0.00049561,0.000020
 09,-0.00000313,-0.00000167,-0.00000157,0.00000235,0.00000241,-0.000002
 19,0.00064814,-0.00094071,0.00010697,0.00018466,-0.00025276,0.00015423
 ,-0.00001110,-0.00000348,-0.00001886,-0.00000783,-0.00000108,-0.000009
 87,0.00000045,0.00000305,-0.00000155,-0.00006068,-0.00002369,0.0001095
 7,0.00000161,0.00000794,-0.00000725,0.00000698,0.00000854,-0.00000032,
 -0.00072939,0.00030371,0.00051506,-0.00094473,-0.00033614,0.00073706,0
 .01488188,-0.02053332,0.05013349,0.00016913,0.00072577,0.00013535,0.00
 176779,-0.00057659,-0.00052370,-0.00477416,0.00387336,-0.01362167,0.00
 000066,0.00000805,0.00000874,0.00169716,-0.00053625,0.00023405,-0.0001
 2265,0.00001660,-0.00000913,0.00000260,-0.00003671,-0.00001509,0.00005
 274,-0.00000852,-0.00012882,-0.00014307,0.00000962,-0.00008559,0.00603
 434,-0.00252394,0.02860642,-0.00035532,0.00034840,0.00016214,-0.003383
 88,-0.00392997,-0.00336223,-0.06588484,0.00600388,-0.06874653,0.000259
 28,0.00006224,0.00023338,-0.00002736,-0.00006197,0.00018430,-0.0004523
 1,-0.00003878,-0.00014544,0.00021222,0.00061463,0.00011620,-0.00000945
 ,-0.00000666,0.00000222,-0.00001334,0.00000021,0.00001088,0.00002891,-
 0.00024552,-0.00024566,0.00004184,0.00005080,-0.00054550,-0.00000261,0
 .00000890,0.00000052,-0.00001674,-0.00000141,0.00002610,-0.00003854,0.
 00001816,0.00001353,0.00009455,-0.00002725,-0.00002723,-0.00004842,-0.
 00005175,0.00005153,0.00000376,0.00001051,0.00001707,0.00143212,0.0000
 8776,-0.00090661,-0.00429837,-0.00027258,0.00344631,-0.00526092,0.0001
 9570,-0.01794743,0.07303486,0.00061688,0.00031911,0.00041527,0.0018450
 5,-0.00072277,-0.00100435,-0.00517253,0.00406433,-0.02461242,0.0000273
 6,-0.00000021,0.00003485,-0.00003600,-0.00008474,-0.00091288,0.0000533
 0,-0.00015809,0.00002201,-0.00000125,-0.00004372,-0.00000566,0.0001003
 7,-0.00001677,-0.00016620,-0.00012537,0.00003560,-0.00008842,0.0008360
 7,-0.00150117,0.00594598,-0.00040260,0.00041545,0.00010033,-0.00574385
 ,-0.00364781,-0.00371089,0.00761350,-0.05240724,0.02113720,0.00020612,
 -0.00056320,-0.00020491,-0.00019578,0.00024017,0.00019458,-0.00057062,
 -0.00008090,-0.00019487,0.00003348,0.00119560,0.00041165,-0.00000125,0
 .00000271,-0.00000835,-0.00001365,0.00000003,0.00000919,-0.00005417,-0
 .00001721,-0.00004471,-0.00001547,0.00018430,-0.00010035,-0.00000474,0
 .00000746,-0.00000642,-0.00002111,0.00000203,0.00002581,-0.00000947,0.
 00001491,0.00003191,-0.00002693,-0.00001815,0.00003788,-0.00004716,-0.
 00006697,0.00005582,0.00001856,0.00000225,0.00001952,0.00040350,0.0001
 7418,0.00008589,-0.00137635,0.00092206,0.00063225,0.00578076,-0.000996
 02,0.02385705,-0.00371666,0.05274481,-0.00020259,0.00073797,-0.0003909
 3,0.00123893,-0.00042976,-0.00021812,-0.00126669,0.00224895,-0.0083179
 6,-0.00000485,-0.00000225,0.00000190,-0.00102224,0.00044258,0.00053610
 ,0.00021916,-0.00047649,-0.00008450,-0.00000481,-0.00003234,-0.0000066
 1,0.00008041,-0.00000363,-0.00004609,-0.00009228,0.00001707,-0.0000613
 7,-0.00349781,0.00207123,-0.01872169,-0.00020690,0.00019796,0.00005743
 ,-0.00235023,-0.00137801,0.00001624,-0.06860628,0.01824472,-0.28795358
 ,0.00028132,-0.00004774,0.00037308,0.00001777,-0.00014673,0.00023721,-
 0.00023713,-0.00001580,-0.00007818,-0.00010288,-0.00011219,0.00061340,
 -0.00000605,-0.00000145,0.00000071,-0.00001099,0.00000192,0.00000838,0
 .00017123,-0.00000221,0.00028346,0.00020047,-0.00052635,0.00016149,-0.
 00000827,-0.00000005,-0.00001750,-0.00001968,-0.00000131,0.00001407,-0
 .00002412,0.00000872,0.00000875,-0.00002031,-0.00002864,-0.00004223,-0
 .00003996,-0.00003624,0.00003349,0.00000989,0.00001513,0.00001051,-0.0
 0017425,0.00009044,0.00103470,0.00334222,0.00043566,-0.00089832,-0.000
 72498,0.00068560,-0.00144152,0.07306191,-0.02195676,0.31488767\\0.0000
 0002,-0.00000321,-0.00000279,0.00003234,0.00005540,-0.00013448,-0.0000
 4540,0.00010255,0.00001942,-0.00000522,-0.00000341,0.00000068,-0.00000
 352,-0.00000833,-0.00000711,0.00000257,0.00000007,-0.00000302,0.000002
 47,0.00000237,0.00000016,0.00001586,-0.00000098,-0.00000408,-0.0000031
 4,0.00000151,0.00000771,-0.00000210,0.00000258,-0.00000621,-0.00003541
 ,0.00000046,0.00010965,0.00003488,-0.00016841,0.00000068,0.00000847,0.
 00000420,0.00000438,-0.00000426,0.00000055,-0.00000253,0.00000151,-0.0
 0000048,0.00000165,-0.00000035,0.00000078,0.00000182,-0.00000446,0.000
 00139,0.00000183,0.00000128,0.00000183,0.00000618,0.00000223,0.0000042
 5,0.00000380,-0.00000140,-0.00000204,-0.00000243,0.00000067,0.00000175
 ,-0.00000373,0.00000126,0.00000030,0.00000371,-0.00000105,0.00000253,0
 .00000379,0.00000165,-0.00000082,0.00000466,-0.00000358,0.00000351,0.0
 0000155,-0.00000039,0.00000267,0.00000323,-0.00000441,0.00000304,0.000
 00078,0.00000527,-0.00000179,-0.00000342,0.00000110,-0.00000345,0.0000
 0182,0.00000103,0.00000022,-0.00000074,0.00000208,0.00000096,-0.000006
 94\\\@


 WE STILL HAVE JUDGEMENT HERE,
 THAT WE TEACH BUT BLOODY INSTRUCTIONS,
 WHICH, BEING TAUGHT,
 RETURN TO PLAGUE THE INVENTOR.
           MACBETH ACT I, SCENE VII
 Job cpu time:       0 days 13 hours 23 minutes 25.3 seconds.
 Elapsed time:       0 days  1 hours  7 minutes 13.4 seconds.
 File lengths (MBytes):  RWF=    721 Int=      0 D2E=      0 Chk=     34 Scr=      1
 Normal termination of Gaussian 16 at Fri Mar  8 19:11:42 2019.
