 Entering Gaussian System, Link 0=g16
 Initial command:
 /sw/Projects/G16/g16/l1.exe "/nvme/pbs/tmpdir/pbs.74202[8].flm1/Gau-20309.inp" -scrdir="/nvme/pbs/tmpdir/pbs.74202[8].flm1/"
 Entering Link 1 = /sw/Projects/G16/g16/l1.exe PID=     20310.
  
 Copyright (c) 1988-2017, Gaussian, Inc.  All Rights Reserved.
  
 This is part of the Gaussian(R) 16 program.  It is based on
 the Gaussian(R) 09 system (copyright 2009, Gaussian, Inc.),
 the Gaussian(R) 03 system (copyright 2003, Gaussian, Inc.),
 the Gaussian(R) 98 system (copyright 1998, Gaussian, Inc.),
 the Gaussian(R) 94 system (copyright 1995, Gaussian, Inc.),
 the Gaussian 92(TM) system (copyright 1992, Gaussian, Inc.),
 the Gaussian 90(TM) system (copyright 1990, Gaussian, Inc.),
 the Gaussian 88(TM) system (copyright 1988, Gaussian, Inc.),
 the Gaussian 86(TM) system (copyright 1986, Carnegie Mellon
 University), and the Gaussian 82(TM) system (copyright 1983,
 Carnegie Mellon University). Gaussian is a federally registered
 trademark of Gaussian, Inc.
  
 This software contains proprietary and confidential information,
 including trade secrets, belonging to Gaussian, Inc.
  
 This software is provided under written license and may be
 used, copied, transmitted, or stored only in accord with that
 written license.
  
 The following legend is applicable only to US Government
 contracts under FAR:
  
                    RESTRICTED RIGHTS LEGEND
  
 Use, reproduction and disclosure by the US Government is
 subject to restrictions as set forth in subparagraphs (a)
 and (c) of the Commercial Computer Software - Restricted
 Rights clause in FAR 52.227-19.
  
 Gaussian, Inc.
 340 Quinnipiac St., Bldg. 40, Wallingford CT 06492
  
  
 ---------------------------------------------------------------
 Warning -- This program may not be used in any manner that
 competes with the business of Gaussian, Inc. or will provide
 assistance to any competitor of Gaussian, Inc.  The licensee
 of this program is prohibited from giving any competitor of
 Gaussian, Inc. access to this program.  By using this program,
 the user acknowledges that Gaussian, Inc. is engaged in the
 business of creating and licensing software in the field of
 computational chemistry and represents and warrants to the
 licensee that it is not a competitor of Gaussian, Inc. and that
 it will not use this program in any manner prohibited above.
 ---------------------------------------------------------------
  

 Cite this work as:
 Gaussian 16, Revision B.01,
 M. J. Frisch, G. W. Trucks, H. B. Schlegel, G. E. Scuseria, 
 M. A. Robb, J. R. Cheeseman, G. Scalmani, V. Barone, 
 G. A. Petersson, H. Nakatsuji, X. Li, M. Caricato, A. V. Marenich, 
 J. Bloino, B. G. Janesko, R. Gomperts, B. Mennucci, H. P. Hratchian, 
 J. V. Ortiz, A. F. Izmaylov, J. L. Sonnenberg, D. Williams-Young, 
 F. Ding, F. Lipparini, F. Egidi, J. Goings, B. Peng, A. Petrone, 
 T. Henderson, D. Ranasinghe, V. G. Zakrzewski, J. Gao, N. Rega, 
 G. Zheng, W. Liang, M. Hada, M. Ehara, K. Toyota, R. Fukuda, 
 J. Hasegawa, M. Ishida, T. Nakajima, Y. Honda, O. Kitao, H. Nakai, 
 T. Vreven, K. Throssell, J. A. Montgomery, Jr., J. E. Peralta, 
 F. Ogliaro, M. J. Bearpark, J. J. Heyd, E. N. Brothers, K. N. Kudin, 
 V. N. Staroverov, T. A. Keith, R. Kobayashi, J. Normand, 
 K. Raghavachari, A. P. Rendell, J. C. Burant, S. S. Iyengar, 
 J. Tomasi, M. Cossi, J. M. Millam, M. Klene, C. Adamo, R. Cammi, 
 J. W. Ochterski, R. L. Martin, K. Morokuma, O. Farkas, 
 J. B. Foresman, and D. J. Fox, Gaussian, Inc., Wallingford CT, 2016.
 
 ******************************************
 Gaussian 16:  ES64L-G16RevB.01 20-Dec-2017
                 8-Mar-2019 
 ******************************************
 %mem=20gb
 %nproc=12
 Will use up to   12 processors via shared memory.
 %chk=4c1_a1_a4_4c1_PHI.inp_extract_8.chk
 ----------------------------------------------------------------------
 #M062X/6-311++G(2d,2p) opt=ModRedundant freq=noraman SCRF=(SMD,solvent
 =water)
 ----------------------------------------------------------------------
 1/18=120,19=15,26=3,38=1/1,3;
 2/9=110,12=2,17=6,18=5,40=1/2;
 3/5=4,6=6,7=1212,11=2,25=1,30=1,70=32201,71=1,72=1,74=-55/1,2,3;
 4//1;
 5/5=2,38=5,53=1/2;
 6/7=2,8=2,9=2,10=2,28=1/1;
 7//1,2,3,16;
 1/18=20,19=15,26=3/3(2);
 2/9=110/2;
 99//99;
 2/9=110/2;
 3/5=4,6=6,7=1212,11=2,25=1,30=1,70=32205,71=1,72=1,74=-55/1,2,3;
 4/5=5,16=3,69=1/1;
 5/5=2,38=5,53=1/2;
 7//1,2,3,16;
 1/18=20,19=15,26=3/3(-5);
 2/9=110/2;
 6/7=2,8=2,9=2,10=2,19=2,28=1/1;
 99/9=1/99;
 -------------------------------
 4c1_a1_a4_4c1_PHI.inp_extract_8
 -------------------------------
 Symbolic Z-matrix:
 Charge =  0 Multiplicity = 1
 C                    -1.82246   1.34621   0.03984 
 C                     1.00216   0.45967   0.76952 
 C                    -0.94034   0.36964  -0.72922 
 C                     3.51584  -0.44983  -0.35073 
 C                    -3.5115   -0.25815   0.4237 
 O                    -2.62464   0.68693   0.99532 
 C                     2.68123   0.5759   -1.11745 
 C                     2.62241  -1.29243   0.54355 
 C                     1.82444   1.37237  -0.1337 
 C                    -2.74903  -1.34445  -0.31867 
 O                     1.82474  -0.48114   1.39942 
 O                     0.00497  -0.27873   0.10563 
 C                    -1.8058   -0.72285  -1.35123 
 H                    -2.45585   1.87179  -0.67104 
 H                    -1.2409    2.08146   0.5766 
 H                     0.55433   1.02695   1.57274 
 H                    -0.42583   0.91305  -1.51189 
 H                     4.25413   0.06302   0.26126 
 H                     4.05361  -1.10525  -1.02991 
 H                    -4.08874  -0.66764   1.24137 
 H                    -4.19111   0.26012  -0.2496 
 H                     2.04766   0.06797  -1.84013 
 H                     3.32376   1.24917  -1.67646 
 H                     3.20335  -1.91995   1.20497 
 H                     1.97819  -1.9311   -0.04956 
 H                     2.46882   1.95096   0.52282 
 H                     1.18343   2.08124  -0.64362 
 H                    -3.45739  -2.00771  -0.8067 
 H                    -2.18856  -1.94005   0.39534 
 H                    -1.17122  -1.47722  -1.80448 
 H                    -2.38982  -0.26984  -2.14839 
 
 The following ModRedundant input section has been read:
 D      11       2      12       3 F                                           
 

 GradGradGradGradGradGradGradGradGradGradGradGradGradGradGradGradGradGrad
 Berny optimization.
 Initialization pass.
                           ----------------------------
                           !    Initial Parameters    !
                           ! (Angstroms and Degrees)  !
 --------------------------                            --------------------------
 ! Name  Definition              Value          Derivative Info.                !
 --------------------------------------------------------------------------------
 ! R1    R(1,3)                  1.5242         estimate D2E/DX2                !
 ! R2    R(1,6)                  1.4111         estimate D2E/DX2                !
 ! R3    R(1,14)                 1.0875         estimate D2E/DX2                !
 ! R4    R(1,15)                 1.0802         estimate D2E/DX2                !
 ! R5    R(2,9)                  1.5248         estimate D2E/DX2                !
 ! R6    R(2,11)                 1.3995         estimate D2E/DX2                !
 ! R7    R(2,12)                 1.4073         estimate D2E/DX2                !
 ! R8    R(2,16)                 1.0805         estimate D2E/DX2                !
 ! R9    R(3,12)                 1.4181         estimate D2E/DX2                !
 ! R10   R(3,13)                 1.5263         estimate D2E/DX2                !
 ! R11   R(3,17)                 1.0829         estimate D2E/DX2                !
 ! R12   R(4,7)                  1.5286         estimate D2E/DX2                !
 ! R13   R(4,8)                  1.5192         estimate D2E/DX2                !
 ! R14   R(4,18)                 1.0875         estimate D2E/DX2                !
 ! R15   R(4,19)                 1.0863         estimate D2E/DX2                !
 ! R16   R(5,6)                  1.4165         estimate D2E/DX2                !
 ! R17   R(5,10)                 1.5207         estimate D2E/DX2                !
 ! R18   R(5,20)                 1.0814         estimate D2E/DX2                !
 ! R19   R(5,21)                 1.088          estimate D2E/DX2                !
 ! R20   R(7,9)                  1.5285         estimate D2E/DX2                !
 ! R21   R(7,22)                 1.0871         estimate D2E/DX2                !
 ! R22   R(7,23)                 1.0856         estimate D2E/DX2                !
 ! R23   R(8,11)                 1.4237         estimate D2E/DX2                !
 ! R24   R(8,24)                 1.0811         estimate D2E/DX2                !
 ! R25   R(8,25)                 1.0838         estimate D2E/DX2                !
 ! R26   R(9,26)                 1.0867         estimate D2E/DX2                !
 ! R27   R(9,27)                 1.0832         estimate D2E/DX2                !
 ! R28   R(10,13)                1.5304         estimate D2E/DX2                !
 ! R29   R(10,28)                1.0862         estimate D2E/DX2                !
 ! R30   R(10,29)                1.0857         estimate D2E/DX2                !
 ! R31   R(13,30)                1.085          estimate D2E/DX2                !
 ! R32   R(13,31)                1.0871         estimate D2E/DX2                !
 ! A1    A(3,1,6)              111.7965         estimate D2E/DX2                !
 ! A2    A(3,1,14)             108.474          estimate D2E/DX2                !
 ! A3    A(3,1,15)             112.0376         estimate D2E/DX2                !
 ! A4    A(6,1,14)             109.7136         estimate D2E/DX2                !
 ! A5    A(6,1,15)             106.715          estimate D2E/DX2                !
 ! A6    A(14,1,15)            108.0235         estimate D2E/DX2                !
 ! A7    A(9,2,11)             110.6124         estimate D2E/DX2                !
 ! A8    A(9,2,12)             114.6303         estimate D2E/DX2                !
 ! A9    A(9,2,16)             110.4617         estimate D2E/DX2                !
 ! A10   A(11,2,12)            106.0278         estimate D2E/DX2                !
 ! A11   A(11,2,16)            105.1869         estimate D2E/DX2                !
 ! A12   A(12,2,16)            109.4192         estimate D2E/DX2                !
 ! A13   A(1,3,12)             112.4376         estimate D2E/DX2                !
 ! A14   A(1,3,13)             109.6374         estimate D2E/DX2                !
 ! A15   A(1,3,17)             108.5509         estimate D2E/DX2                !
 ! A16   A(12,3,13)            106.8967         estimate D2E/DX2                !
 ! A17   A(12,3,17)            109.7688         estimate D2E/DX2                !
 ! A18   A(13,3,17)            109.5164         estimate D2E/DX2                !
 ! A19   A(7,4,8)              110.2639         estimate D2E/DX2                !
 ! A20   A(7,4,18)             109.6639         estimate D2E/DX2                !
 ! A21   A(7,4,19)             111.1955         estimate D2E/DX2                !
 ! A22   A(8,4,18)             109.242          estimate D2E/DX2                !
 ! A23   A(8,4,19)             108.9375         estimate D2E/DX2                !
 ! A24   A(18,4,19)            107.4752         estimate D2E/DX2                !
 ! A25   A(6,5,10)             111.0806         estimate D2E/DX2                !
 ! A26   A(6,5,20)             106.363          estimate D2E/DX2                !
 ! A27   A(6,5,21)             108.8439         estimate D2E/DX2                !
 ! A28   A(10,5,20)            111.4848         estimate D2E/DX2                !
 ! A29   A(10,5,21)            110.5701         estimate D2E/DX2                !
 ! A30   A(20,5,21)            108.3523         estimate D2E/DX2                !
 ! A31   A(1,6,5)              113.2293         estimate D2E/DX2                !
 ! A32   A(4,7,9)              109.4449         estimate D2E/DX2                !
 ! A33   A(4,7,22)             109.7638         estimate D2E/DX2                !
 ! A34   A(4,7,23)             110.5653         estimate D2E/DX2                !
 ! A35   A(9,7,22)             110.161          estimate D2E/DX2                !
 ! A36   A(9,7,23)             109.8772         estimate D2E/DX2                !
 ! A37   A(22,7,23)            107.0018         estimate D2E/DX2                !
 ! A38   A(4,8,11)             111.5499         estimate D2E/DX2                !
 ! A39   A(4,8,24)             111.4729         estimate D2E/DX2                !
 ! A40   A(4,8,25)             110.7483         estimate D2E/DX2                !
 ! A41   A(11,8,24)            105.3102         estimate D2E/DX2                !
 ! A42   A(11,8,25)            109.3745         estimate D2E/DX2                !
 ! A43   A(24,8,25)            108.1894         estimate D2E/DX2                !
 ! A44   A(2,9,7)              111.8162         estimate D2E/DX2                !
 ! A45   A(2,9,26)             106.2958         estimate D2E/DX2                !
 ! A46   A(2,9,27)             110.5754         estimate D2E/DX2                !
 ! A47   A(7,9,26)             109.5039         estimate D2E/DX2                !
 ! A48   A(7,9,27)             111.699          estimate D2E/DX2                !
 ! A49   A(26,9,27)            106.6698         estimate D2E/DX2                !
 ! A50   A(5,10,13)            110.3801         estimate D2E/DX2                !
 ! A51   A(5,10,28)            109.1804         estimate D2E/DX2                !
 ! A52   A(5,10,29)            109.2493         estimate D2E/DX2                !
 ! A53   A(13,10,28)           110.2916         estimate D2E/DX2                !
 ! A54   A(13,10,29)           110.3875         estimate D2E/DX2                !
 ! A55   A(28,10,29)           107.2868         estimate D2E/DX2                !
 ! A56   A(2,11,8)             116.2198         estimate D2E/DX2                !
 ! A57   A(2,12,3)             120.6767         estimate D2E/DX2                !
 ! A58   A(3,13,10)            111.423          estimate D2E/DX2                !
 ! A59   A(3,13,30)            109.6502         estimate D2E/DX2                !
 ! A60   A(3,13,31)            107.7698         estimate D2E/DX2                !
 ! A61   A(10,13,30)           111.0952         estimate D2E/DX2                !
 ! A62   A(10,13,31)           109.4446         estimate D2E/DX2                !
 ! A63   A(30,13,31)           107.3143         estimate D2E/DX2                !
 ! D1    D(6,1,3,12)           -64.0883         estimate D2E/DX2                !
 ! D2    D(6,1,3,13)            54.6765         estimate D2E/DX2                !
 ! D3    D(6,1,3,17)           174.2731         estimate D2E/DX2                !
 ! D4    D(14,1,3,12)          174.805          estimate D2E/DX2                !
 ! D5    D(14,1,3,13)          -66.4302         estimate D2E/DX2                !
 ! D6    D(14,1,3,17)           53.1665         estimate D2E/DX2                !
 ! D7    D(15,1,3,12)           55.6505         estimate D2E/DX2                !
 ! D8    D(15,1,3,13)          174.4153         estimate D2E/DX2                !
 ! D9    D(15,1,3,17)          -65.9881         estimate D2E/DX2                !
 ! D10   D(3,1,6,5)            -60.8827         estimate D2E/DX2                !
 ! D11   D(14,1,6,5)            59.5025         estimate D2E/DX2                !
 ! D12   D(15,1,6,5)           176.2958         estimate D2E/DX2                !
 ! D13   D(11,2,9,7)            53.1664         estimate D2E/DX2                !
 ! D14   D(11,2,9,26)          -66.2862         estimate D2E/DX2                !
 ! D15   D(11,2,9,27)          178.3119         estimate D2E/DX2                !
 ! D16   D(12,2,9,7)           -66.6324         estimate D2E/DX2                !
 ! D17   D(12,2,9,26)          173.9151         estimate D2E/DX2                !
 ! D18   D(12,2,9,27)           58.5131         estimate D2E/DX2                !
 ! D19   D(16,2,9,7)           169.2113         estimate D2E/DX2                !
 ! D20   D(16,2,9,26)           49.7587         estimate D2E/DX2                !
 ! D21   D(16,2,9,27)          -65.6432         estimate D2E/DX2                !
 ! D22   D(9,2,11,8)           -55.741          estimate D2E/DX2                !
 ! D23   D(12,2,11,8)           69.1015         estimate D2E/DX2                !
 ! D24   D(16,2,11,8)         -175.0227         estimate D2E/DX2                !
 ! D25   D(9,2,12,3)           -52.5348         estimate D2E/DX2                !
 ! D26   D(11,2,12,3)         -174.855          Frozen                          !
 ! D27   D(16,2,12,3)           72.1732         estimate D2E/DX2                !
 ! D28   D(1,3,12,2)           -63.1662         estimate D2E/DX2                !
 ! D29   D(13,3,12,2)          176.4738         estimate D2E/DX2                !
 ! D30   D(17,3,12,2)           57.776          estimate D2E/DX2                !
 ! D31   D(1,3,13,10)          -50.3363         estimate D2E/DX2                !
 ! D32   D(1,3,13,30)         -173.7472         estimate D2E/DX2                !
 ! D33   D(1,3,13,31)           69.7472         estimate D2E/DX2                !
 ! D34   D(12,3,13,10)          71.7989         estimate D2E/DX2                !
 ! D35   D(12,3,13,30)         -51.612          estimate D2E/DX2                !
 ! D36   D(12,3,13,31)        -168.1177         estimate D2E/DX2                !
 ! D37   D(17,3,13,10)        -169.3393         estimate D2E/DX2                !
 ! D38   D(17,3,13,30)          67.2498         estimate D2E/DX2                !
 ! D39   D(17,3,13,31)         -49.2559         estimate D2E/DX2                !
 ! D40   D(8,4,7,9)             52.8015         estimate D2E/DX2                !
 ! D41   D(8,4,7,22)           -68.2117         estimate D2E/DX2                !
 ! D42   D(8,4,7,23)           173.9707         estimate D2E/DX2                !
 ! D43   D(18,4,7,9)           -67.5289         estimate D2E/DX2                !
 ! D44   D(18,4,7,22)          171.4579         estimate D2E/DX2                !
 ! D45   D(18,4,7,23)           53.6403         estimate D2E/DX2                !
 ! D46   D(19,4,7,9)           173.7466         estimate D2E/DX2                !
 ! D47   D(19,4,7,22)           52.7335         estimate D2E/DX2                !
 ! D48   D(19,4,7,23)          -65.0841         estimate D2E/DX2                !
 ! D49   D(7,4,8,11)           -53.9098         estimate D2E/DX2                !
 ! D50   D(7,4,8,24)          -171.3233         estimate D2E/DX2                !
 ! D51   D(7,4,8,25)            68.1643         estimate D2E/DX2                !
 ! D52   D(18,4,8,11)           66.674          estimate D2E/DX2                !
 ! D53   D(18,4,8,24)          -50.7396         estimate D2E/DX2                !
 ! D54   D(18,4,8,25)         -171.2519         estimate D2E/DX2                !
 ! D55   D(19,4,8,11)         -176.195          estimate D2E/DX2                !
 ! D56   D(19,4,8,24)           66.3915         estimate D2E/DX2                !
 ! D57   D(19,4,8,25)          -54.1209         estimate D2E/DX2                !
 ! D58   D(10,5,6,1)            60.3859         estimate D2E/DX2                !
 ! D59   D(20,5,6,1)          -178.1291         estimate D2E/DX2                !
 ! D60   D(21,5,6,1)           -61.5816         estimate D2E/DX2                !
 ! D61   D(6,5,10,13)          -54.3443         estimate D2E/DX2                !
 ! D62   D(6,5,10,28)         -175.7389         estimate D2E/DX2                !
 ! D63   D(6,5,10,29)           67.214          estimate D2E/DX2                !
 ! D64   D(20,5,10,13)        -172.7818         estimate D2E/DX2                !
 ! D65   D(20,5,10,28)          65.8236         estimate D2E/DX2                !
 ! D66   D(20,5,10,29)         -51.2235         estimate D2E/DX2                !
 ! D67   D(21,5,10,13)          66.6126         estimate D2E/DX2                !
 ! D68   D(21,5,10,28)         -54.782          estimate D2E/DX2                !
 ! D69   D(21,5,10,29)        -171.829          estimate D2E/DX2                !
 ! D70   D(4,7,9,2)            -52.9003         estimate D2E/DX2                !
 ! D71   D(4,7,9,26)            64.6433         estimate D2E/DX2                !
 ! D72   D(4,7,9,27)          -177.4216         estimate D2E/DX2                !
 ! D73   D(22,7,9,2)            67.8716         estimate D2E/DX2                !
 ! D74   D(22,7,9,26)         -174.5847         estimate D2E/DX2                !
 ! D75   D(22,7,9,27)          -56.6496         estimate D2E/DX2                !
 ! D76   D(23,7,9,2)          -174.4851         estimate D2E/DX2                !
 ! D77   D(23,7,9,26)          -56.9415         estimate D2E/DX2                !
 ! D78   D(23,7,9,27)           60.9936         estimate D2E/DX2                !
 ! D79   D(4,8,11,2)            57.0017         estimate D2E/DX2                !
 ! D80   D(24,8,11,2)          178.0771         estimate D2E/DX2                !
 ! D81   D(25,8,11,2)          -65.861          estimate D2E/DX2                !
 ! D82   D(5,10,13,3)           50.6622         estimate D2E/DX2                !
 ! D83   D(5,10,13,30)         173.2467         estimate D2E/DX2                !
 ! D84   D(5,10,13,31)         -68.4281         estimate D2E/DX2                !
 ! D85   D(28,10,13,3)         171.395          estimate D2E/DX2                !
 ! D86   D(28,10,13,30)        -66.0205         estimate D2E/DX2                !
 ! D87   D(28,10,13,31)         52.3046         estimate D2E/DX2                !
 ! D88   D(29,10,13,3)         -70.2193         estimate D2E/DX2                !
 ! D89   D(29,10,13,30)         52.3652         estimate D2E/DX2                !
 ! D90   D(29,10,13,31)        170.6903         estimate D2E/DX2                !
 --------------------------------------------------------------------------------
 Trust Radius=3.00D-01 FncErr=1.00D-07 GrdErr=1.00D-06 EigMax=2.50D+02 EigMin=1.00D-04
 Number of steps in this run=    186 maximum allowed number of steps=    186.
 GradGradGradGradGradGradGradGradGradGradGradGradGradGradGradGradGradGrad

                          Input orientation:                          
 ---------------------------------------------------------------------
 Center     Atomic      Atomic             Coordinates (Angstroms)
 Number     Number       Type             X           Y           Z
 ---------------------------------------------------------------------
      1          6           0       -1.822463    1.346211    0.039843
      2          6           0        1.002158    0.459666    0.769521
      3          6           0       -0.940339    0.369642   -0.729224
      4          6           0        3.515835   -0.449827   -0.350725
      5          6           0       -3.511503   -0.258148    0.423704
      6          8           0       -2.624637    0.686928    0.995320
      7          6           0        2.681229    0.575903   -1.117449
      8          6           0        2.622406   -1.292425    0.543546
      9          6           0        1.824437    1.372374   -0.133700
     10          6           0       -2.749027   -1.344450   -0.318669
     11          8           0        1.824735   -0.481138    1.399418
     12          8           0        0.004968   -0.278730    0.105634
     13          6           0       -1.805798   -0.722852   -1.351227
     14          1           0       -2.455849    1.871788   -0.671035
     15          1           0       -1.240898    2.081456    0.576595
     16          1           0        0.554326    1.026952    1.572737
     17          1           0       -0.425828    0.913050   -1.511893
     18          1           0        4.254128    0.063018    0.261258
     19          1           0        4.053607   -1.105247   -1.029914
     20          1           0       -4.088743   -0.667641    1.241369
     21          1           0       -4.191115    0.260124   -0.249603
     22          1           0        2.047661    0.067966   -1.840134
     23          1           0        3.323758    1.249172   -1.676455
     24          1           0        3.203352   -1.919950    1.204970
     25          1           0        1.978193   -1.931098   -0.049560
     26          1           0        2.468817    1.950960    0.522816
     27          1           0        1.183433    2.081238   -0.643624
     28          1           0       -3.457386   -2.007710   -0.806695
     29          1           0       -2.188560   -1.940054    0.395335
     30          1           0       -1.171221   -1.477218   -1.804476
     31          1           0       -2.389819   -0.269838   -2.148393
 ---------------------------------------------------------------------
                    Distance matrix (angstroms):
                    1          2          3          4          5
     1  C    0.000000
     2  C    3.049078   0.000000
     3  C    1.524235   2.455124   0.000000
     4  C    5.645859   2.898396   4.546678   0.000000
     5  C    2.360969   4.583447   2.886910   7.072479   0.000000
     6  O    1.411054   3.640917   2.431375   6.388227   1.416490
     7  C    4.713379   2.528526   3.648153   1.528579   6.435893
     8  C    5.193551   2.397101   4.132259   1.519180   6.221650
     9  C    3.651121   1.524791   3.000684   2.495665   5.607277
    10  C    2.868224   4.302369   2.525474   6.328497   1.520704
    11  O    4.299965   1.399470   3.591737   2.433886   5.429289
    12  O    2.446276   1.407254   1.418090   3.544534   3.530887
    13  C    2.493266   3.712215   1.526254   5.421746   2.505147
    14  H    1.087546   4.003386   2.134619   6.415100   2.617152
    15  H    1.080234   2.774657   2.173892   5.467525   3.263858
    16  H    2.846193   1.080520   2.822252   3.827678   4.416189
    17  H    2.132159   2.729387   1.082859   4.329255   3.826177
    18  H    6.214545   3.315263   5.296939   1.087479   7.773967
    19  H    6.456177   3.872759   5.215861   1.086311   7.749934
    20  H    3.261179   5.235526   3.856377   7.772504   1.081419
    21  H    2.621808   5.296085   3.287792   7.740241   1.088035
    22  H    4.488439   2.838451   3.202073   2.154526   6.011291
    23  H    5.425743   3.463516   4.455709   2.163574   7.307768
    24  H    6.106074   3.270695   5.114051   2.163121   6.961411
    25  H    5.019336   2.709112   3.777986   2.156202   5.758429
    26  H    4.360512   2.106160   3.961126   2.760996   6.376065
    27  H    3.169038   2.158549   2.728973   3.454299   5.352975
    28  H    3.826014   5.334785   3.463139   7.159659   2.139574
    29  H    3.325649   4.009907   2.856113   5.942853   2.140045
    30  H    3.434731   3.885943   2.149503   5.013723   3.453670
    31  H    2.778828   4.533421   2.126962   6.175820   2.806064
                    6          7          8          9         10
     6  O    0.000000
     7  C    5.712122   0.000000
     8  C    5.626135   2.500603   0.000000
     9  C    4.640989   1.528470   2.862965   0.000000
    10  C    2.422506   5.814936   5.440442   5.322774   0.000000
    11  O    4.617855   2.861038   1.423721   2.405402   4.961495
    12  O    2.939194   3.064099   2.840832   2.468581   2.983334
    13  C    2.857317   4.677053   4.850110   4.364739   1.530438
    14  H    2.051614   5.316782   6.105418   4.342694   3.248739
    15  H    2.008674   4.529852   5.129258   3.225460   3.848738
    16  H    3.248820   3.458939   3.273484   2.155093   4.484764
    17  H    3.342456   3.150088   4.287270   2.678449   3.452151
    18  H    6.945899   2.153577   2.139960   2.788154   7.166691
    19  H    7.205027   2.171946   2.135216   3.451232   6.843896
    20  H    2.009727   7.276190   6.776196   6.404543   2.164862
    21  H    2.045935   6.934117   7.033034   6.118611   2.158482
    22  H    5.500298   1.087052   2.804091   2.159450   5.226662
    23  H    6.545067   1.085644   3.446740   2.154817   6.741600
    24  H    6.387897   3.448989   1.081096   3.812196   6.171182
    25  H    5.397396   2.814196   1.083830   3.308118   4.771078
    26  H    5.269185   2.150900   3.247086   1.086739   6.228460
    27  H    4.373972   2.175761   3.855077   1.083234   5.225435
    28  H    3.346909   6.667400   6.268864   6.306786   1.086212
    29  H    2.729685   5.686247   4.856623   5.230316   1.085665
    30  H    3.825546   4.419127   4.465306   4.459331   2.171341
    31  H    3.294461   5.243439   5.780538   4.951343   2.152141
                   11         12         13         14         15
    11  O    0.000000
    12  O    2.241963   0.000000
    13  C    4.561277   2.366128   0.000000
    14  H    5.305321   3.359101   2.759961   0.000000
    15  H    4.079465   2.710067   3.449602   1.754037   0.000000
    16  H    1.979473   2.039360   4.145065   3.848300   2.308053
    17  H    3.935038   2.054828   2.146231   2.397333   2.528101
    18  H    2.737419   4.265720   6.319842   7.011748   5.862494
    19  H    3.355449   4.285333   5.880654   7.166907   6.384961
    20  H    5.918529   4.266101   3.454915   3.573840   4.013687
    21  H    6.281655   4.245429   2.805273   2.405455   3.564216
    22  H    3.293313   2.842324   3.964034   4.990207   4.550752
    23  H    3.834324   4.065058   5.505179   5.899354   5.158005
    24  H    2.002143   3.759229   5.749676   7.065637   6.013108
    25  H    2.055595   2.578376   4.180046   5.874428   5.182201
    26  H    2.664277   3.349046   5.379000   5.067927   3.712399
    27  H    3.339320   2.742192   4.159222   3.645407   2.714096
    28  H    5.924370   3.976130   2.162202   4.008988   4.852586
    29  H    4.386702   2.766855   2.162999   3.967207   4.135633
    30  H    4.498096   2.543288   1.084984   3.761755   4.282349
    31  H    5.513082   3.288726   1.087095   2.602597   3.778116
                   16         17         18         19         20
    16  H    0.000000
    17  H    3.238614   0.000000
    18  H    4.041990   5.076279   0.000000
    19  H    4.854383   4.936716   1.752763   0.000000
    20  H    4.953740   4.847265   8.431962   8.464519   0.000000
    21  H    5.140832   4.024559   8.462976   8.393364   1.759041
    22  H    3.846738   2.634399   3.047026   2.461037   6.905956
    23  H    4.275089   3.768216   2.455052   2.548330   8.193475
    24  H    3.979551   5.345856   2.434519   2.526140   7.398936
    25  H    3.661872   4.000864   3.041872   2.439358   6.330129
    26  H    2.370949   3.687312   2.611527   3.776630   7.097534
    27  H    2.533683   2.169856   3.784335   4.305904   6.237417
    28  H    5.564594   4.268312   8.055798   7.568308   2.527640
    29  H    4.208661   3.858101   6.748222   6.457003   2.438340
    30  H    4.544661   2.520833   6.006163   5.295011   4.294709
    31  H    4.918990   2.379415   7.075256   6.592924   3.812490
                   21         22         23         24         25
    21  H    0.000000
    22  H    6.441199   0.000000
    23  H    7.712810   1.746557   0.000000
    24  H    7.845167   3.815769   4.284909   0.000000
    25  H    6.549949   2.684630   3.817257   1.753563   0.000000
    26  H    6.914496   3.050667   2.461752   3.998602   3.954580
    27  H    5.688363   2.496355   2.517949   4.848389   4.133206
    28  H    2.447811   5.973439   7.572825   6.958443   5.488592
    29  H    3.044167   5.193750   6.696949   5.452397   4.190447
    30  H    3.815199   3.570724   5.258748   5.328195   3.633806
    31  H    2.670380   4.460982   5.930858   6.726922   5.122930
                   26         27         28         29         30
    26  H    0.000000
    27  H    1.740622   0.000000
    28  H    7.249728   6.187349   0.000000
    29  H    6.070206   5.349819   1.749106   0.000000
    30  H    5.515303   4.422056   2.550204   2.467461   0.000000
    31  H    5.972742   4.534316   2.441322   3.049701   1.749579
                   31
    31  H    0.000000
 Stoichiometry    C10H18O3
 Framework group  C1[X(C10H18O3)]
 Deg. of freedom    87
 Full point group                 C1      NOp   1
 Largest Abelian subgroup         C1      NOp   1
 Largest concise Abelian subgroup C1      NOp   1
                         Standard orientation:                         
 ---------------------------------------------------------------------
 Center     Atomic      Atomic             Coordinates (Angstroms)
 Number     Number       Type             X           Y           Z
 ---------------------------------------------------------------------
      1          6           0        1.822463    1.346211   -0.039843
      2          6           0       -1.002158    0.459666   -0.769521
      3          6           0        0.940339    0.369642    0.729224
      4          6           0       -3.515835   -0.449827    0.350725
      5          6           0        3.511503   -0.258148   -0.423704
      6          8           0        2.624637    0.686928   -0.995320
      7          6           0       -2.681229    0.575903    1.117449
      8          6           0       -2.622406   -1.292425   -0.543546
      9          6           0       -1.824437    1.372374    0.133700
     10          6           0        2.749027   -1.344450    0.318669
     11          8           0       -1.824735   -0.481138   -1.399418
     12          8           0       -0.004968   -0.278730   -0.105634
     13          6           0        1.805798   -0.722852    1.351227
     14          1           0        2.455849    1.871788    0.671035
     15          1           0        1.240898    2.081456   -0.576595
     16          1           0       -0.554326    1.026952   -1.572737
     17          1           0        0.425828    0.913050    1.511893
     18          1           0       -4.254128    0.063018   -0.261258
     19          1           0       -4.053607   -1.105247    1.029914
     20          1           0        4.088743   -0.667641   -1.241369
     21          1           0        4.191115    0.260124    0.249603
     22          1           0       -2.047661    0.067966    1.840134
     23          1           0       -3.323758    1.249172    1.676455
     24          1           0       -3.203352   -1.919950   -1.204970
     25          1           0       -1.978193   -1.931098    0.049560
     26          1           0       -2.468817    1.950960   -0.522816
     27          1           0       -1.183433    2.081238    0.643624
     28          1           0        3.457386   -2.007710    0.806695
     29          1           0        2.188560   -1.940054   -0.395335
     30          1           0        1.171221   -1.477218    1.804476
     31          1           0        2.389819   -0.269838    2.148393
 ---------------------------------------------------------------------
 Rotational constants (GHZ):           1.7625054           0.4467888           0.4376888
 Standard basis: 6-311++G(2d,2p) (5D, 7F)
 There are   557 symmetry adapted cartesian basis functions of A   symmetry.
 There are   531 symmetry adapted basis functions of A   symmetry.
   531 basis functions,   762 primitive gaussians,   557 cartesian basis functions
    51 alpha electrons       51 beta electrons
       nuclear repulsion energy       906.5229768413 Hartrees.
 NAtoms=   31 NActive=   31 NUniq=   31 SFac= 1.00D+00 NAtFMM=   60 NAOKFM=F Big=F
 Integral buffers will be    131072 words long.
 Raffenetti 2 integral format.
 Two-electron integral symmetry is turned on.
 ------------------------------------------------------------------------------
 Polarizable Continuum Model (PCM)
 =================================
 Model                : PCM.
 Atomic radii         : SMD-Coulomb.
 Polarization charges : Total charges.
 Charge compensation  : None.
 Solution method      : On-the-fly selection.
 Cavity type          : VdW (van der Waals Surface) (Alpha=1.000).
 Cavity algorithm     : GePol (No added spheres)
                        Default sphere list used, NSphG=   31.
                        Lebedev-Laikov grids with approx.  5.0 points / Ang**2.
                        Smoothing algorithm: York/Karplus (Gamma=1.0000).
                        Polarization charges: spherical gaussians, with
                                              point-specific exponents (IZeta= 3).
                        Self-potential: point-specific (ISelfS= 7).
                        Self-field    : sphere-specific E.n sum rule (ISelfD= 2).
 1st derivatives      : Analytical E(r).r(x)/FMM algorithm (CHGder, D1EAlg=3).
                        Cavity 1st derivative terms included.
 Solvent              : Water, Eps=  78.355300 Eps(inf)=   1.777849
 ------------------------------------------------------------------------------
 ------------------------------------------------------------------------------
 Atomic radii for non-electrostatic terms: SMD-CDS.
 ------------------------------------------------------------------------------
 Nuclear repulsion after PCM non-electrostatic terms =      906.5293049933 Hartrees.
 One-electron integrals computed using PRISM.
 NBasis=   531 RedAO= T EigKep=  4.25D-06  NBF=   531
 NBsUse=   531 1.00D-06 EigRej= -1.00D+00 NBFU=   531
 ExpMin= 3.60D-02 ExpMax= 8.59D+03 ExpMxC= 1.30D+03 IAcc=3 IRadAn=         5 AccDes= 0.00D+00
 Harris functional with IExCor= 1009 and IRadAn=       5 diagonalized for initial guess.
 HarFok:  IExCor= 1009 AccDes= 0.00D+00 IRadAn=         5 IDoV= 1 UseB2=F ITyADJ=14
 ICtDFT=  3500011 ScaDFX=  1.000000  1.000000  1.000000  1.000000
 FoFCou: FMM=F IPFlag=           0 FMFlag=      100000 FMFlg1=           0
         NFxFlg=           0 DoJE=T BraDBF=F KetDBF=T FulRan=T
         wScrn=  0.000000 ICntrl=       500 IOpCl=  0 I1Cent=   200000004 NGrid=           0
         NMat0=    1 NMatS0=      1 NMatT0=    0 NMatD0=    1 NMtDS0=    0 NMtDT0=    0
 Petite list used in FoFCou.
 Requested convergence on RMS density matrix=1.00D-08 within 128 cycles.
 Requested convergence on MAX density matrix=1.00D-06.
 Requested convergence on             energy=1.00D-06.
 No special actions if energy rises.
 Inv3:  Mode=1 IEnd=    12012003.
 Iteration    1 A*A^-1 deviation from unit magnitude is 8.44D-15 for    387.
 Iteration    1 A*A^-1 deviation from orthogonality  is 3.17D-15 for   1320    391.
 Iteration    1 A^-1*A deviation from unit magnitude is 8.88D-15 for    387.
 Iteration    1 A^-1*A deviation from orthogonality  is 2.20D-15 for   1986    639.
 Error on total polarization charges =  0.06088
 SCF Done:  E(RM062X) =  -617.502830361     A.U. after   12 cycles
            NFock= 12  Conv=0.57D-08     -V/T= 2.0035
 SMD-CDS (non-electrostatic) energy       (kcal/mol) =       3.97
 (included in total energy above)

 **********************************************************************

            Population analysis using the SCF Density.

 **********************************************************************

 Orbital symmetries:
       Occupied  (A) (A) (A) (A) (A) (A) (A) (A) (A) (A) (A) (A)
                 (A) (A) (A) (A) (A) (A) (A) (A) (A) (A) (A) (A)
                 (A) (A) (A) (A) (A) (A) (A) (A) (A) (A) (A) (A)
                 (A) (A) (A) (A) (A) (A) (A) (A) (A) (A) (A) (A)
                 (A) (A) (A)
       Virtual   (A) (A) (A) (A) (A) (A) (A) (A) (A) (A) (A) (A)
                 (A) (A) (A) (A) (A) (A) (A) (A) (A) (A) (A) (A)
                 (A) (A) (A) (A) (A) (A) (A) (A) (A) (A) (A) (A)
                 (A) (A) (A) (A) (A) (A) (A) (A) (A) (A) (A) (A)
                 (A) (A) (A) (A) (A) (A) (A) (A) (A) (A) (A) (A)
                 (A) (A) (A) (A) (A) (A) (A) (A) (A) (A) (A) (A)
                 (A) (A) (A) (A) (A) (A) (A) (A) (A) (A) (A) (A)
                 (A) (A) (A) (A) (A) (A) (A) (A) (A) (A) (A) (A)
                 (A) (A) (A) (A) (A) (A) (A) (A) (A) (A) (A) (A)
                 (A) (A) (A) (A) (A) (A) (A) (A) (A) (A) (A) (A)
                 (A) (A) (A) (A) (A) (A) (A) (A) (A) (A) (A) (A)
                 (A) (A) (A) (A) (A) (A) (A) (A) (A) (A) (A) (A)
                 (A) (A) (A) (A) (A) (A) (A) (A) (A) (A) (A) (A)
                 (A) (A) (A) (A) (A) (A) (A) (A) (A) (A) (A) (A)
                 (A) (A) (A) (A) (A) (A) (A) (A) (A) (A) (A) (A)
                 (A) (A) (A) (A) (A) (A) (A) (A) (A) (A) (A) (A)
                 (A) (A) (A) (A) (A) (A) (A) (A) (A) (A) (A) (A)
                 (A) (A) (A) (A) (A) (A) (A) (A) (A) (A) (A) (A)
                 (A) (A) (A) (A) (A) (A) (A) (A) (A) (A) (A) (A)
                 (A) (A) (A) (A) (A) (A) (A) (A) (A) (A) (A) (A)
                 (A) (A) (A) (A) (A) (A) (A) (A) (A) (A) (A) (A)
                 (A) (A) (A) (A) (A) (A) (A) (A) (A) (A) (A) (A)
                 (A) (A) (A) (A) (A) (A) (A) (A) (A) (A) (A) (A)
                 (A) (A) (A) (A) (A) (A) (A) (A) (A) (A) (A) (A)
                 (A) (A) (A) (A) (A) (A) (A) (A) (A) (A) (A) (A)
                 (A) (A) (A) (A) (A) (A) (A) (A) (A) (A) (A) (A)
                 (A) (A) (A) (A) (A) (A) (A) (A) (A) (A) (A) (A)
                 (A) (A) (A) (A) (A) (A) (A) (A) (A) (A) (A) (A)
                 (A) (A) (A) (A) (A) (A) (A) (A) (A) (A) (A) (A)
                 (A) (A) (A) (A) (A) (A) (A) (A) (A) (A) (A) (A)
                 (A) (A) (A) (A) (A) (A) (A) (A) (A) (A) (A) (A)
                 (A) (A) (A) (A) (A) (A) (A) (A) (A) (A) (A) (A)
                 (A) (A) (A) (A) (A) (A) (A) (A) (A) (A) (A) (A)
                 (A) (A) (A) (A) (A) (A) (A) (A) (A) (A) (A) (A)
                 (A) (A) (A) (A) (A) (A) (A) (A) (A) (A) (A) (A)
                 (A) (A) (A) (A) (A) (A) (A) (A) (A) (A) (A) (A)
                 (A) (A) (A) (A) (A) (A) (A) (A) (A) (A) (A) (A)
                 (A) (A) (A) (A) (A) (A) (A) (A) (A) (A) (A) (A)
                 (A) (A) (A) (A) (A) (A) (A) (A) (A) (A) (A) (A)
                 (A) (A) (A) (A) (A) (A) (A) (A) (A) (A) (A) (A)
 The electronic state is 1-A.
 Alpha  occ. eigenvalues --  -19.63062 -19.62775 -19.62744 -10.63153 -10.58329
 Alpha  occ. eigenvalues --  -10.57301 -10.57132 -10.57123 -10.52535 -10.52356
 Alpha  occ. eigenvalues --  -10.52274 -10.52156 -10.52103  -1.20208  -1.16631
 Alpha  occ. eigenvalues --   -1.13369  -0.89991  -0.89460  -0.86595  -0.84750
 Alpha  occ. eigenvalues --   -0.74716  -0.73706  -0.72742  -0.70859  -0.66136
 Alpha  occ. eigenvalues --   -0.61520  -0.59552  -0.58540  -0.57458  -0.55597
 Alpha  occ. eigenvalues --   -0.54555  -0.53262  -0.51457  -0.50171  -0.49408
 Alpha  occ. eigenvalues --   -0.47378  -0.47269  -0.45812  -0.45470  -0.44916
 Alpha  occ. eigenvalues --   -0.43485  -0.42540  -0.40048  -0.39368  -0.38895
 Alpha  occ. eigenvalues --   -0.37583  -0.37495  -0.36673  -0.34706  -0.32766
 Alpha  occ. eigenvalues --   -0.31364
 Alpha virt. eigenvalues --    0.00313   0.01303   0.01449   0.01502   0.02718
 Alpha virt. eigenvalues --    0.02935   0.03160   0.03796   0.03905   0.05023
 Alpha virt. eigenvalues --    0.05147   0.05280   0.05881   0.06439   0.07690
 Alpha virt. eigenvalues --    0.07956   0.08227   0.08797   0.09036   0.09717
 Alpha virt. eigenvalues --    0.10481   0.11387   0.11729   0.12178   0.12731
 Alpha virt. eigenvalues --    0.13015   0.13117   0.13385   0.13733   0.13916
 Alpha virt. eigenvalues --    0.14290   0.14620   0.14890   0.15073   0.15328
 Alpha virt. eigenvalues --    0.15476   0.15512   0.16046   0.16268   0.16680
 Alpha virt. eigenvalues --    0.17069   0.17285   0.17794   0.18075   0.18294
 Alpha virt. eigenvalues --    0.18476   0.18793   0.19378   0.19638   0.20259
 Alpha virt. eigenvalues --    0.20318   0.20627   0.21076   0.21545   0.21710
 Alpha virt. eigenvalues --    0.22305   0.22986   0.23585   0.23890   0.24723
 Alpha virt. eigenvalues --    0.25606   0.26051   0.27014   0.27337   0.27819
 Alpha virt. eigenvalues --    0.28060   0.28541   0.29101   0.29818   0.30177
 Alpha virt. eigenvalues --    0.31026   0.31666   0.31873   0.31930   0.32874
 Alpha virt. eigenvalues --    0.33056   0.33512   0.34319   0.34612   0.34689
 Alpha virt. eigenvalues --    0.35422   0.35777   0.35911   0.36259   0.36449
 Alpha virt. eigenvalues --    0.37057   0.37381   0.37959   0.38261   0.38935
 Alpha virt. eigenvalues --    0.39209   0.39599   0.40222   0.40307   0.40886
 Alpha virt. eigenvalues --    0.41225   0.41826   0.44005   0.44952   0.46001
 Alpha virt. eigenvalues --    0.47505   0.49069   0.49698   0.51082   0.51163
 Alpha virt. eigenvalues --    0.52133   0.52484   0.53451   0.54492   0.55715
 Alpha virt. eigenvalues --    0.57642   0.58241   0.58948   0.59886   0.60155
 Alpha virt. eigenvalues --    0.61156   0.61430   0.61671   0.61740   0.62806
 Alpha virt. eigenvalues --    0.63039   0.63841   0.64425   0.64693   0.64851
 Alpha virt. eigenvalues --    0.65402   0.66272   0.66302   0.67284   0.68160
 Alpha virt. eigenvalues --    0.68189   0.69035   0.69105   0.69837   0.70646
 Alpha virt. eigenvalues --    0.71134   0.71628   0.72021   0.72835   0.73514
 Alpha virt. eigenvalues --    0.74071   0.74877   0.75622   0.76028   0.77211
 Alpha virt. eigenvalues --    0.77733   0.77876   0.78986   0.79116   0.80358
 Alpha virt. eigenvalues --    0.81689   0.82639   0.83579   0.84940   0.86828
 Alpha virt. eigenvalues --    0.87285   0.87791   0.88561   0.89633   0.90788
 Alpha virt. eigenvalues --    0.92074   0.93532   0.94706   0.95458   0.96001
 Alpha virt. eigenvalues --    0.98190   0.99830   1.00925   1.01668   1.02636
 Alpha virt. eigenvalues --    1.02929   1.04224   1.05739   1.06346   1.08013
 Alpha virt. eigenvalues --    1.08512   1.08841   1.10286   1.11660   1.13267
 Alpha virt. eigenvalues --    1.13727   1.14610   1.15186   1.16749   1.17584
 Alpha virt. eigenvalues --    1.17967   1.19345   1.20236   1.20682   1.21423
 Alpha virt. eigenvalues --    1.21725   1.23373   1.23759   1.24534   1.25321
 Alpha virt. eigenvalues --    1.26547   1.26934   1.27309   1.28103   1.28298
 Alpha virt. eigenvalues --    1.28612   1.29840   1.30616   1.32255   1.32902
 Alpha virt. eigenvalues --    1.33217   1.33842   1.34874   1.35360   1.35782
 Alpha virt. eigenvalues --    1.36334   1.36890   1.37697   1.38336   1.38725
 Alpha virt. eigenvalues --    1.40145   1.40737   1.41410   1.42019   1.42323
 Alpha virt. eigenvalues --    1.42685   1.43302   1.44195   1.44737   1.45964
 Alpha virt. eigenvalues --    1.46563   1.47025   1.48075   1.48377   1.49673
 Alpha virt. eigenvalues --    1.49807   1.50566   1.50877   1.52323   1.52795
 Alpha virt. eigenvalues --    1.53911   1.54548   1.55334   1.55530   1.55788
 Alpha virt. eigenvalues --    1.57066   1.57539   1.58535   1.59113   1.59941
 Alpha virt. eigenvalues --    1.60884   1.61409   1.61912   1.61973   1.63544
 Alpha virt. eigenvalues --    1.64062   1.64921   1.66454   1.66901   1.67604
 Alpha virt. eigenvalues --    1.68281   1.69987   1.70861   1.71985   1.72660
 Alpha virt. eigenvalues --    1.74189   1.74887   1.76810   1.77528   1.78303
 Alpha virt. eigenvalues --    1.78976   1.80261   1.81242   1.82749   1.84542
 Alpha virt. eigenvalues --    1.87181   1.90508   1.92767   1.97802   2.01237
 Alpha virt. eigenvalues --    2.04605   2.09522   2.12414   2.17604   2.22966
 Alpha virt. eigenvalues --    2.25205   2.27034   2.29265   2.32418   2.37848
 Alpha virt. eigenvalues --    2.41533   2.43083   2.44594   2.48823   2.52647
 Alpha virt. eigenvalues --    2.57252   2.76884   2.78095   2.78875   2.82238
 Alpha virt. eigenvalues --    2.85035   2.87496   2.92990   2.93380   2.94250
 Alpha virt. eigenvalues --    2.97612   2.98377   3.00791   3.03350   3.04377
 Alpha virt. eigenvalues --    3.06846   3.07973   3.09505   3.10540   3.13438
 Alpha virt. eigenvalues --    3.14468   3.16020   3.17840   3.20667   3.22389
 Alpha virt. eigenvalues --    3.25626   3.29056   3.32591   3.33139   3.34401
 Alpha virt. eigenvalues --    3.35889   3.37474   3.38774   3.40200   3.41245
 Alpha virt. eigenvalues --    3.43941   3.45129   3.45440   3.46748   3.48577
 Alpha virt. eigenvalues --    3.48817   3.49470   3.50686   3.51897   3.52405
 Alpha virt. eigenvalues --    3.53947   3.55034   3.55439   3.55828   3.57596
 Alpha virt. eigenvalues --    3.58089   3.58387   3.58953   3.59815   3.60542
 Alpha virt. eigenvalues --    3.61617   3.62576   3.64041   3.64116   3.67106
 Alpha virt. eigenvalues --    3.67340   3.67541   3.68467   3.69338   3.70056
 Alpha virt. eigenvalues --    3.70471   3.71989   3.73665   3.74158   3.74556
 Alpha virt. eigenvalues --    3.75967   3.76533   3.77385   3.77640   3.78782
 Alpha virt. eigenvalues --    3.79772   3.80941   3.81886   3.82378   3.83155
 Alpha virt. eigenvalues --    3.87790   3.89921   3.90485   3.90752   3.92994
 Alpha virt. eigenvalues --    3.93733   3.94727   3.96837   3.97438   3.98399
 Alpha virt. eigenvalues --    3.99322   4.01437   4.02331   4.03909   4.04450
 Alpha virt. eigenvalues --    4.06350   4.06542   4.07037   4.07262   4.09129
 Alpha virt. eigenvalues --    4.09554   4.09787   4.11178   4.11368   4.11826
 Alpha virt. eigenvalues --    4.12458   4.12843   4.14349   4.16333   4.16846
 Alpha virt. eigenvalues --    4.17255   4.18262   4.19645   4.21010   4.21484
 Alpha virt. eigenvalues --    4.22287   4.24364   4.25142   4.26354   4.27225
 Alpha virt. eigenvalues --    4.29366   4.29729   4.31551   4.31706   4.32792
 Alpha virt. eigenvalues --    4.33300   4.34234   4.35107   4.36794   4.38866
 Alpha virt. eigenvalues --    4.42441   4.43348   4.46280   4.47420   4.51095
 Alpha virt. eigenvalues --    4.58848   4.60001   4.75074   4.76819   4.82571
 Alpha virt. eigenvalues --    4.86433   4.94312   4.96555   5.00334   5.04855
 Alpha virt. eigenvalues --    5.07601   5.07858   5.09106   5.09714   5.12400
 Alpha virt. eigenvalues --    5.12958   5.14514   5.15086   5.32480   5.34726
 Alpha virt. eigenvalues --    5.44518   5.58802   5.59691   5.63555   5.86927
 Alpha virt. eigenvalues --    5.87889   6.02246   7.02631   7.05186   7.06510
 Alpha virt. eigenvalues --    7.08803   7.10307   7.11822   7.15291   7.16686
 Alpha virt. eigenvalues --    7.21939   7.36424   7.40083   7.50297   7.53986
 Alpha virt. eigenvalues --    7.57026   7.63148  23.96297  23.98253  24.07315
 Alpha virt. eigenvalues --   24.08354  24.10720  24.13276  24.14005  24.16429
 Alpha virt. eigenvalues --   24.19041  24.21099  50.16805  50.18152  50.25661
          Condensed to atoms (all electrons):
               1          2          3          4          5          6
     1  C    6.360328  -0.015422  -0.551650  -0.008112  -0.307081   0.160370
     2  C   -0.015422   7.401873  -0.739837   0.265820   0.051648  -0.050431
     3  C   -0.551650  -0.739837   7.562103   0.016845   0.267988  -0.004035
     4  C   -0.008112   0.265820   0.016845   5.833669  -0.000981   0.001036
     5  C   -0.307081   0.051648   0.267988  -0.000981   5.476029   0.063374
     6  O    0.160370  -0.050431  -0.004035   0.001036   0.063374   8.327488
     7  C   -0.025859  -0.032596  -0.046021   0.011812  -0.002367   0.003342
     8  C   -0.021424  -0.475710   0.086957  -0.074103  -0.000448  -0.000226
     9  C    0.043039  -1.331515   0.387061  -0.212341  -0.011538   0.007742
    10  C    0.120763  -0.023915  -0.344198  -0.006194   0.022623   0.006201
    11  O    0.023497   0.156170  -0.050085  -0.082366  -0.003414   0.000032
    12  O   -0.046904   0.149521   0.046278  -0.029054  -0.013501   0.036735
    13  C   -0.045230   0.365685  -0.992555   0.024417  -0.109412   0.012496
    14  H    0.469782  -0.015601  -0.059037  -0.000586  -0.008139  -0.044604
    15  H    0.406261   0.034523  -0.052978   0.000616   0.011980  -0.073520
    16  H   -0.037717   0.506189   0.007701   0.013276  -0.002838  -0.001214
    17  H    0.007533  -0.028711   0.380860   0.007794  -0.025288   0.012458
    18  H    0.000873   0.017578  -0.004361   0.477951   0.000087  -0.000029
    19  H   -0.001268   0.008703  -0.000151   0.439810  -0.000132   0.000028
    20  H   -0.003306   0.000485   0.014394  -0.000386   0.443773  -0.066473
    21  H   -0.016654  -0.004135   0.016716   0.000332   0.461759  -0.055119
    22  H   -0.004663  -0.010680   0.001775  -0.107636   0.002798  -0.000433
    23  H   -0.000500   0.003745   0.003119  -0.005009  -0.000378   0.000087
    24  H    0.001098   0.009110  -0.002146  -0.027393  -0.000307   0.000022
    25  H   -0.005165  -0.011939   0.008791  -0.108815   0.002786  -0.000257
    26  H    0.002515  -0.109453  -0.003027  -0.036685  -0.000285   0.000055
    27  H    0.008428  -0.049795   0.003312  -0.014472   0.001203  -0.000390
    28  H   -0.012436   0.007763  -0.020747  -0.000296  -0.023555   0.010123
    29  H    0.019150  -0.011420  -0.016679   0.000871  -0.086058  -0.010253
    30  H    0.006014  -0.013951   0.006195   0.008498  -0.009143  -0.002016
    31  H   -0.003069  -0.003706  -0.068315  -0.001206  -0.008727   0.001004
               7          8          9         10         11         12
     1  C   -0.025859  -0.021424   0.043039   0.120763   0.023497  -0.046904
     2  C   -0.032596  -0.475710  -1.331515  -0.023915   0.156170   0.149521
     3  C   -0.046021   0.086957   0.387061  -0.344198  -0.050085   0.046278
     4  C    0.011812  -0.074103  -0.212341  -0.006194  -0.082366  -0.029054
     5  C   -0.002367  -0.000448  -0.011538   0.022623  -0.003414  -0.013501
     6  O    0.003342  -0.000226   0.007742   0.006201   0.000032   0.036735
     7  C    5.753305  -0.015249  -0.272726   0.001327   0.017567  -0.019060
     8  C   -0.015249   5.505960   0.305621   0.011964   0.128318   0.006509
     9  C   -0.272726   0.305621   6.818984   0.028785   0.000290   0.038854
    10  C    0.001327   0.011964   0.028785   5.604584   0.007068  -0.005967
    11  O    0.017567   0.128318   0.000290   0.007068   8.298593   0.019607
    12  O   -0.019060   0.006509   0.038854  -0.005967   0.019607   8.329724
    13  C    0.066984  -0.039756  -0.267702   0.032808  -0.010438  -0.084733
    14  H    0.004660   0.000896   0.002300   0.023215   0.000102   0.011310
    15  H   -0.012215   0.004271   0.009020   0.004285   0.003666  -0.008236
    16  H   -0.016083  -0.017356  -0.081850   0.006975  -0.074536  -0.045851
    17  H    0.017895  -0.013237  -0.004809  -0.019102  -0.001675  -0.022558
    18  H   -0.006219  -0.074277  -0.039710  -0.000569  -0.006027   0.000150
    19  H   -0.046217  -0.039650  -0.001244   0.000313   0.010150  -0.000669
    20  H    0.000139   0.000455   0.000882  -0.059211  -0.000055   0.000643
    21  H   -0.000010  -0.000306   0.000279  -0.018480   0.000004   0.001893
    22  H    0.520676   0.008542  -0.039103  -0.002949  -0.001297   0.007101
    23  H    0.410178   0.007357  -0.040088   0.001225  -0.000158   0.000042
    24  H   -0.001064   0.434422   0.006872   0.001561  -0.070387  -0.000796
    25  H    0.007051   0.492883   0.016355  -0.001631  -0.036687  -0.009989
    26  H    0.000177   0.019437   0.495157   0.001316  -0.007639   0.006135
    27  H   -0.032957   0.005454   0.441005   0.000357   0.005281   0.000186
    28  H    0.000782  -0.000225  -0.001906   0.441053  -0.000068   0.000763
    29  H    0.001132  -0.000284  -0.003346   0.504654   0.000409   0.001396
    30  H   -0.002150  -0.003224   0.005135  -0.015006   0.001932   0.002404
    31  H    0.000144   0.000944   0.001090  -0.027163  -0.000227   0.004873
              13         14         15         16         17         18
     1  C   -0.045230   0.469782   0.406261  -0.037717   0.007533   0.000873
     2  C    0.365685  -0.015601   0.034523   0.506189  -0.028711   0.017578
     3  C   -0.992555  -0.059037  -0.052978   0.007701   0.380860  -0.004361
     4  C    0.024417  -0.000586   0.000616   0.013276   0.007794   0.477951
     5  C   -0.109412  -0.008139   0.011980  -0.002838  -0.025288   0.000087
     6  O    0.012496  -0.044604  -0.073520  -0.001214   0.012458  -0.000029
     7  C    0.066984   0.004660  -0.012215  -0.016083   0.017895  -0.006219
     8  C   -0.039756   0.000896   0.004271  -0.017356  -0.013237  -0.074277
     9  C   -0.267702   0.002300   0.009020  -0.081850  -0.004809  -0.039710
    10  C    0.032808   0.023215   0.004285   0.006975  -0.019102  -0.000569
    11  O   -0.010438   0.000102   0.003666  -0.074536  -0.001675  -0.006027
    12  O   -0.084733   0.011310  -0.008236  -0.045851  -0.022558   0.000150
    13  C    6.729813  -0.030026   0.023505   0.003952   0.019242  -0.000280
    14  H   -0.030026   0.458784  -0.007313   0.000009  -0.006650  -0.000079
    15  H    0.023505  -0.007313   0.469716  -0.022357  -0.008183  -0.000346
    16  H    0.003952   0.000009  -0.022357   0.447921   0.002778   0.000811
    17  H    0.019242  -0.006650  -0.008183   0.002778   0.460715   0.000007
    18  H   -0.000280  -0.000079  -0.000346   0.000811   0.000007   0.470485
    19  H    0.002511   0.000052  -0.000062   0.001642   0.001313  -0.006985
    20  H    0.008337  -0.001639   0.000539   0.000343  -0.000567  -0.000001
    21  H   -0.030797   0.006041  -0.000736  -0.000064   0.002913  -0.000002
    22  H   -0.004483   0.000569  -0.001387  -0.000605  -0.009148   0.002418
    23  H   -0.000302  -0.000161   0.000625   0.000639   0.000553  -0.002450
    24  H    0.000162   0.000057   0.000266   0.001044  -0.000664  -0.005052
    25  H   -0.010735  -0.000298  -0.000124  -0.000047   0.001800   0.002221
    26  H    0.001735   0.001004  -0.000388  -0.005779  -0.001331  -0.001341
    27  H   -0.010738  -0.002452  -0.001398  -0.007761  -0.020630   0.000030
    28  H   -0.025933  -0.000333   0.001370   0.000434  -0.000062  -0.000015
    29  H   -0.020624   0.000456  -0.001019  -0.000277   0.001303  -0.000049
    30  H    0.392411  -0.001342   0.001276  -0.000388  -0.005791   0.000017
    31  H    0.488322  -0.002288  -0.001345  -0.000806  -0.008153   0.000031
              19         20         21         22         23         24
     1  C   -0.001268  -0.003306  -0.016654  -0.004663  -0.000500   0.001098
     2  C    0.008703   0.000485  -0.004135  -0.010680   0.003745   0.009110
     3  C   -0.000151   0.014394   0.016716   0.001775   0.003119  -0.002146
     4  C    0.439810  -0.000386   0.000332  -0.107636  -0.005009  -0.027393
     5  C   -0.000132   0.443773   0.461759   0.002798  -0.000378  -0.000307
     6  O    0.000028  -0.066473  -0.055119  -0.000433   0.000087   0.000022
     7  C   -0.046217   0.000139  -0.000010   0.520676   0.410178  -0.001064
     8  C   -0.039650   0.000455  -0.000306   0.008542   0.007357   0.434422
     9  C   -0.001244   0.000882   0.000279  -0.039103  -0.040088   0.006872
    10  C    0.000313  -0.059211  -0.018480  -0.002949   0.001225   0.001561
    11  O    0.010150  -0.000055   0.000004  -0.001297  -0.000158  -0.070387
    12  O   -0.000669   0.000643   0.001893   0.007101   0.000042  -0.000796
    13  C    0.002511   0.008337  -0.030797  -0.004483  -0.000302   0.000162
    14  H    0.000052  -0.001639   0.006041   0.000569  -0.000161   0.000057
    15  H   -0.000062   0.000539  -0.000736  -0.001387   0.000625   0.000266
    16  H    0.001642   0.000343  -0.000064  -0.000605   0.000639   0.001044
    17  H    0.001313  -0.000567   0.002913  -0.009148   0.000553  -0.000664
    18  H   -0.006985  -0.000001  -0.000002   0.002418  -0.002450  -0.005052
    19  H    0.479067  -0.000003   0.000005  -0.005118  -0.008224  -0.010773
    20  H   -0.000003   0.467032  -0.005098   0.000196  -0.000007  -0.000015
    21  H    0.000005  -0.005098   0.478942  -0.000372   0.000039   0.000003
    22  H   -0.005118   0.000196  -0.000372   0.483273  -0.011976  -0.002571
    23  H   -0.008224  -0.000007   0.000039  -0.011976   0.467130   0.000984
    24  H   -0.010773  -0.000015   0.000003  -0.002571   0.000984   0.455458
    25  H    0.002897   0.000223  -0.000093   0.001476  -0.000627  -0.014388
    26  H   -0.001887   0.000014  -0.000028   0.004373  -0.004932   0.000137
    27  H   -0.000271   0.000380  -0.000819   0.002121  -0.008500   0.000567
    28  H    0.000020  -0.007738   0.003015   0.000295   0.000024   0.000041
    29  H    0.000103  -0.003239  -0.000009  -0.000624  -0.000006  -0.000053
    30  H   -0.000003  -0.000291   0.000747  -0.005230   0.000465   0.000265
    31  H   -0.000094  -0.001292  -0.004076   0.001057  -0.000186  -0.000055
              25         26         27         28         29         30
     1  C   -0.005165   0.002515   0.008428  -0.012436   0.019150   0.006014
     2  C   -0.011939  -0.109453  -0.049795   0.007763  -0.011420  -0.013951
     3  C    0.008791  -0.003027   0.003312  -0.020747  -0.016679   0.006195
     4  C   -0.108815  -0.036685  -0.014472  -0.000296   0.000871   0.008498
     5  C    0.002786  -0.000285   0.001203  -0.023555  -0.086058  -0.009143
     6  O   -0.000257   0.000055  -0.000390   0.010123  -0.010253  -0.002016
     7  C    0.007051   0.000177  -0.032957   0.000782   0.001132  -0.002150
     8  C    0.492883   0.019437   0.005454  -0.000225  -0.000284  -0.003224
     9  C    0.016355   0.495157   0.441005  -0.001906  -0.003346   0.005135
    10  C   -0.001631   0.001316   0.000357   0.441053   0.504654  -0.015006
    11  O   -0.036687  -0.007639   0.005281  -0.000068   0.000409   0.001932
    12  O   -0.009989   0.006135   0.000186   0.000763   0.001396   0.002404
    13  C   -0.010735   0.001735  -0.010738  -0.025933  -0.020624   0.392411
    14  H   -0.000298   0.001004  -0.002452  -0.000333   0.000456  -0.001342
    15  H   -0.000124  -0.000388  -0.001398   0.001370  -0.001019   0.001276
    16  H   -0.000047  -0.005779  -0.007761   0.000434  -0.000277  -0.000388
    17  H    0.001800  -0.001331  -0.020630  -0.000062   0.001303  -0.005791
    18  H    0.002221  -0.001341   0.000030  -0.000015  -0.000049   0.000017
    19  H    0.002897  -0.001887  -0.000271   0.000020   0.000103  -0.000003
    20  H    0.000223   0.000014   0.000380  -0.007738  -0.003239  -0.000291
    21  H   -0.000093  -0.000028  -0.000819   0.003015  -0.000009   0.000747
    22  H    0.001476   0.004373   0.002121   0.000295  -0.000624  -0.005230
    23  H   -0.000627  -0.004932  -0.008500   0.000024  -0.000006   0.000465
    24  H   -0.014388   0.000137   0.000567   0.000041  -0.000053   0.000265
    25  H    0.494618  -0.000046   0.000049   0.000137  -0.001538  -0.004849
    26  H   -0.000046   0.429919  -0.004873   0.000070  -0.000194   0.000091
    27  H    0.000049  -0.004873   0.482256  -0.000094  -0.000286  -0.001803
    28  H    0.000137   0.000070  -0.000094   0.474807  -0.013722  -0.009555
    29  H   -0.001538  -0.000194  -0.000286  -0.013722   0.465630  -0.001064
    30  H   -0.004849   0.000091  -0.001803  -0.009555  -0.001064   0.470124
    31  H    0.000154  -0.000142   0.001501  -0.008274   0.002665  -0.000292
              31
     1  C   -0.003069
     2  C   -0.003706
     3  C   -0.068315
     4  C   -0.001206
     5  C   -0.008727
     6  O    0.001004
     7  C    0.000144
     8  C    0.000944
     9  C    0.001090
    10  C   -0.027163
    11  O   -0.000227
    12  O    0.004873
    13  C    0.488322
    14  H   -0.002288
    15  H   -0.001345
    16  H   -0.000806
    17  H   -0.008153
    18  H    0.000031
    19  H   -0.000094
    20  H   -0.001292
    21  H   -0.004076
    22  H    0.001057
    23  H   -0.000186
    24  H   -0.000055
    25  H    0.000154
    26  H   -0.000142
    27  H    0.001501
    28  H   -0.008274
    29  H    0.002665
    30  H   -0.000292
    31  H    0.421907
 Mulliken charges:
               1
     1  C   -0.523189
     2  C   -0.049996
     3  C    0.145727
     4  C   -0.387112
     5  C   -0.192457
     6  O   -0.333593
     7  C   -0.286377
     8  C   -0.244514
     9  C   -0.300591
    10  C   -0.296693
    11  O   -0.327625
    12  O   -0.376804
    13  C   -0.488636
    14  H    0.201312
    15  H    0.219691
    16  H    0.321817
    17  H    0.259396
    18  H    0.175133
    19  H    0.176138
    20  H    0.211487
    21  H    0.164110
    22  H    0.171606
    23  H    0.187292
    24  H    0.223597
    25  H    0.175786
    26  H    0.215898
    27  H    0.205109
    28  H    0.184263
    29  H    0.172976
    30  H    0.180523
    31  H    0.215728
 Sum of Mulliken charges =  -0.00000
 Mulliken charges with hydrogens summed into heavy atoms:
               1
     1  C   -0.102186
     2  C    0.271821
     3  C    0.405123
     4  C   -0.035842
     5  C    0.183140
     6  O   -0.333593
     7  C    0.072521
     8  C    0.154869
     9  C    0.120416
    10  C    0.060546
    11  O   -0.327625
    12  O   -0.376804
    13  C   -0.092384
 Electronic spatial extent (au):  <R**2>=           2825.9042
 Charge=             -0.0000 electrons
 Dipole moment (field-independent basis, Debye):
    X=             -0.1801    Y=              1.5131    Z=              4.8438  Tot=              5.0778
 Quadrupole moment (field-independent basis, Debye-Ang):
   XX=            -70.6164   YY=            -75.5962   ZZ=            -84.6584
   XY=             -2.3802   XZ=              2.6672   YZ=              0.2755
 Traceless Quadrupole moment (field-independent basis, Debye-Ang):
   XX=              6.3406   YY=              1.3608   ZZ=             -7.7014
   XY=             -2.3802   XZ=              2.6672   YZ=              0.2755
 Octapole moment (field-independent basis, Debye-Ang**2):
  XXX=              5.1016  YYY=              2.2159  ZZZ=              6.0786  XYY=             -3.6135
  XXY=            -16.8383  XXZ=             17.7272  XZZ=              3.4085  YZZ=              0.8580
  YYZ=             -0.9198  XYZ=              6.5927
 Hexadecapole moment (field-independent basis, Debye-Ang**3):
 XXXX=          -2622.5013 YYYY=           -531.0781 ZZZZ=           -464.6221 XXXY=            -16.2626
 XXXZ=             21.6625 YYYX=             15.6829 YYYZ=              0.7155 ZZZX=             -3.1247
 ZZZY=             -0.7523 XXYY=           -527.9999 XXZZ=           -553.5469 YYZZ=           -159.9584
 XXYZ=             22.5754 YYXZ=              9.8204 ZZXY=             -7.0607
 N-N= 9.065293049933D+02 E-N=-3.255400707900D+03  KE= 6.153461133128D+02
 D1PCM: PCM CHGder 1st derivatives, ID1Alg=3 FixD1E=F DoIter=F DoCFld=F I1PDM=0.
 Calling FoFJK, ICntrl=      2127 FMM=F ISym2X=0 I1Cent= 0 IOpClX= 0 NMat=1 NMatS=1 NMatT=0.
 ***** Axes restored to original set *****
 -------------------------------------------------------------------
 Center     Atomic                   Forces (Hartrees/Bohr)
 Number     Number              X              Y              Z
 -------------------------------------------------------------------
      1        6           0.001514927   -0.004542724   -0.004536109
      2        6           0.005344086    0.006502204   -0.008133920
      3        6          -0.003600698    0.001404819    0.001657382
      4        6          -0.003102021   -0.000391296   -0.000574244
      5        6           0.003771688   -0.003810150   -0.004901579
      6        8           0.001403596    0.001759220    0.012328293
      7        6          -0.000487067   -0.000646618    0.004295150
      8        6           0.002392297    0.005009563   -0.005543071
      9        6          -0.000237759   -0.003137927   -0.001413191
     10        6          -0.000170847    0.003083980   -0.001352165
     11        8          -0.000273340   -0.001742798    0.013500184
     12        8          -0.001901856   -0.013777629   -0.002135142
     13        6          -0.001214953    0.001327920    0.003821877
     14        1          -0.002802594    0.002431705   -0.004502343
     15        1           0.004192503    0.003406829    0.002729817
     16        1          -0.002856715    0.004420481    0.005673372
     17        1           0.003001498    0.003653152   -0.004886592
     18        1           0.001649869    0.001872538    0.002309201
     19        1           0.001215285   -0.001684149   -0.001792455
     20        1          -0.002268729   -0.001915794    0.003377978
     21        1          -0.003085351    0.002260730   -0.004309170
     22        1          -0.003021479   -0.002252255   -0.001970694
     23        1           0.001476422    0.001660504   -0.001207042
     24        1           0.002526600   -0.002555629    0.002669253
     25        1          -0.003318890   -0.003097627   -0.004070978
     26        1           0.002070216    0.001414376    0.002442361
     27        1          -0.003376575    0.002322709   -0.001891610
     28        1          -0.001710303   -0.001608173   -0.001332348
     29        1           0.002291289   -0.001266179    0.002706570
     30        1           0.002440404   -0.002055417   -0.000986172
     31        1          -0.001861502    0.001953634   -0.001972613
 -------------------------------------------------------------------
 Cartesian Forces:  Max     0.013777629 RMS     0.003782638

 GradGradGradGradGradGradGradGradGradGradGradGradGradGradGradGradGradGrad
 Berny optimization.
 FormGI is forming the generalized inverse of G from B-inverse, IUseBI=4.
 Internal  Forces:  Max     0.015825618 RMS     0.002382515
 Search for a local minimum.
 Step number   1 out of a maximum of  186
 All quantities printed in internal units (Hartrees-Bohrs-Radians)
 Mixed Optimization -- RFO/linear search
 Second derivative matrix not updated -- first step.
 ITU=  0
     Eigenvalues ---    0.00613   0.00631   0.00715   0.00718   0.01404
     Eigenvalues ---    0.01432   0.01452   0.02685   0.02816   0.03077
     Eigenvalues ---    0.03111   0.04045   0.04353   0.04718   0.04733
     Eigenvalues ---    0.04828   0.04893   0.05018   0.05053   0.05128
     Eigenvalues ---    0.05286   0.05654   0.05837   0.06128   0.06200
     Eigenvalues ---    0.06619   0.06645   0.06740   0.07383   0.07823
     Eigenvalues ---    0.07954   0.07973   0.07985   0.08161   0.08221
     Eigenvalues ---    0.08380   0.09099   0.09410   0.10842   0.11600
     Eigenvalues ---    0.11715   0.11723   0.11769   0.12411   0.12545
     Eigenvalues ---    0.14561   0.14607   0.15982   0.16229   0.17569
     Eigenvalues ---    0.19165   0.21529   0.21841   0.25000   0.28410
     Eigenvalues ---    0.28552   0.28760   0.28843   0.28956   0.29076
     Eigenvalues ---    0.30145   0.30213   0.35041   0.35098   0.35106
     Eigenvalues ---    0.35151   0.35156   0.35192   0.35242   0.35254
     Eigenvalues ---    0.35318   0.35321   0.35399   0.35535   0.35606
     Eigenvalues ---    0.35651   0.35823   0.35862   0.35932   0.35966
     Eigenvalues ---    0.40557   0.41456   0.42305   0.42749   0.44055
     Eigenvalues ---    0.444391000.000001000.000001000.000001000.00000
     Eigenvalues --- 1000.000001000.000001000.000001000.000001000.00000
     Eigenvalues --- 1000.000001000.000001000.000001000.000001000.00000
     Eigenvalues --- 1000.000001000.000001000.000001000.000001000.00000
     Eigenvalues --- 1000.000001000.000001000.000001000.000001000.00000
     Eigenvalues --- 1000.000001000.000001000.000001000.000001000.00000
     Eigenvalues --- 1000.000001000.000001000.000001000.000001000.00000
     Eigenvalues --- 1000.000001000.000001000.000001000.000001000.00000
     Eigenvalues --- 1000.000001000.000001000.000001000.000001000.00000
     Eigenvalues --- 1000.000001000.000001000.000001000.000001000.00000
     Eigenvalues --- 1000.000001000.000001000.000001000.000001000.00000
     Eigenvalues --- 1000.000001000.000001000.000001000.000001000.00000
     Eigenvalues --- 1000.000001000.000001000.000001000.000001000.00000
     Eigenvalues --- 1000.000001000.000001000.000001000.000001000.00000
     Eigenvalues --- 1000.000001000.000001000.000001000.000001000.00000
     Eigenvalues --- 1000.000001000.000001000.000001000.000001000.00000
     Eigenvalues --- 1000.000001000.000001000.000001000.000001000.00000
     Eigenvalues --- 1000.000001000.000001000.000001000.000001000.00000
     Eigenvalues --- 1000.000001000.000001000.000001000.000001000.00000
     Eigenvalues --- 1000.000001000.000001000.000001000.000001000.00000
 RFO step:  Lambda=-4.26562151D-03 EMin= 6.13014847D-03
 Linear search not attempted -- first point.
 Iteration  1 RMS(Cart)=  0.06078266 RMS(Int)=  0.00084821
 Iteration  2 RMS(Cart)=  0.00294844 RMS(Int)=  0.00005178
 Iteration  3 RMS(Cart)=  0.00000324 RMS(Int)=  0.00005175
 Iteration  4 RMS(Cart)=  0.00000000 RMS(Int)=  0.00005175
 Iteration  1 RMS(Cart)=  0.00000640 RMS(Int)=  0.00000144
 Iteration  2 RMS(Cart)=  0.00000343 RMS(Int)=  0.00000160
 Iteration  3 RMS(Cart)=  0.00000184 RMS(Int)=  0.00000181
 Iteration  4 RMS(Cart)=  0.00000098 RMS(Int)=  0.00000194
 Variable       Old X    -DE/DX   Delta X   Delta X   Delta X     New X
                                 (Linear)    (Quad)   (Total)
    R1        2.88039  -0.00108   0.00000  -0.00353  -0.00352   2.87687
    R2        2.66651   0.00599   0.00000   0.01419   0.01422   2.68072
    R3        2.05516   0.00575   0.00000   0.01619   0.01619   2.07135
    R4        2.04135   0.00593   0.00000   0.01630   0.01630   2.05765
    R5        2.88144  -0.00198   0.00000  -0.00715  -0.00716   2.87428
    R6        2.64461   0.00595   0.00000   0.01306   0.01315   2.65776
    R7        2.65932   0.00606   0.00000   0.01350   0.01350   2.67283
    R8        2.04189   0.00772   0.00000   0.02124   0.02124   2.06313
    R9        2.67980   0.00278   0.00000   0.00645   0.00645   2.68625
   R10        2.88420  -0.00198   0.00000  -0.00716  -0.00718   2.87702
   R11        2.04631   0.00679   0.00000   0.01882   0.01882   2.06513
   R12        2.88860  -0.00064   0.00000  -0.00234  -0.00243   2.88617
   R13        2.87083  -0.00066   0.00000  -0.00148  -0.00147   2.86936
   R14        2.05504   0.00330   0.00000   0.00929   0.00929   2.06433
   R15        2.05283   0.00274   0.00000   0.00768   0.00768   2.06051
   R16        2.67678   0.00644   0.00000   0.01525   0.01527   2.69205
   R17        2.87371  -0.00057   0.00000  -0.00177  -0.00178   2.87193
   R18        2.04359   0.00449   0.00000   0.01239   0.01239   2.05597
   R19        2.05609   0.00567   0.00000   0.01599   0.01599   2.07208
   R20        2.88839  -0.00157   0.00000  -0.00618  -0.00622   2.88217
   R21        2.05423   0.00412   0.00000   0.01159   0.01159   2.06582
   R22        2.05157   0.00252   0.00000   0.00706   0.00706   2.05863
   R23        2.69044   0.00586   0.00000   0.01450   0.01454   2.70498
   R24        2.04297   0.00447   0.00000   0.01233   0.01233   2.05530
   R25        2.04814   0.00603   0.00000   0.01676   0.01676   2.06490
   R26        2.05364   0.00346   0.00000   0.00970   0.00970   2.06334
   R27        2.04702   0.00441   0.00000   0.01223   0.01223   2.05925
   R28        2.89211  -0.00107   0.00000  -0.00454  -0.00457   2.88754
   R29        2.05264   0.00270   0.00000   0.00755   0.00755   2.06020
   R30        2.05161   0.00366   0.00000   0.01023   0.01023   2.06184
   R31        2.05032   0.00327   0.00000   0.00912   0.00912   2.05945
   R32        2.05431   0.00326   0.00000   0.00916   0.00916   2.06348
    A1        1.95122   0.00030   0.00000  -0.00007  -0.00005   1.95117
    A2        1.89323  -0.00104   0.00000  -0.00330  -0.00334   1.88988
    A3        1.95543  -0.00090   0.00000  -0.01143  -0.01144   1.94398
    A4        1.91486   0.00125   0.00000   0.01101   0.01101   1.92587
    A5        1.86253  -0.00025   0.00000  -0.00062  -0.00068   1.86185
    A6        1.88537   0.00071   0.00000   0.00512   0.00508   1.89045
    A7        1.93055   0.00372   0.00000   0.02042   0.02039   1.95094
    A8        2.00068  -0.00472   0.00000  -0.02571  -0.02567   1.97500
    A9        1.92792  -0.00033   0.00000  -0.00200  -0.00210   1.92582
   A10        1.85053   0.00082   0.00000   0.00030   0.00049   1.85102
   A11        1.83586  -0.00157   0.00000  -0.00098  -0.00103   1.83483
   A12        1.90972   0.00240   0.00000   0.01022   0.01012   1.91985
   A13        1.96241  -0.00185   0.00000  -0.01520  -0.01517   1.94723
   A14        1.91353   0.00131   0.00000   0.00398   0.00388   1.91742
   A15        1.89457  -0.00043   0.00000  -0.00333  -0.00333   1.89124
   A16        1.86570   0.00057   0.00000  -0.00031  -0.00030   1.86540
   A17        1.91583   0.00094   0.00000   0.00910   0.00904   1.92486
   A18        1.91142  -0.00050   0.00000   0.00636   0.00636   1.91779
   A19        1.92447  -0.00067   0.00000  -0.00311  -0.00331   1.92116
   A20        1.91400   0.00076   0.00000   0.00122   0.00127   1.91526
   A21        1.94073  -0.00047   0.00000  -0.00150  -0.00144   1.93928
   A22        1.90663   0.00016   0.00000  -0.00013  -0.00003   1.90660
   A23        1.90132   0.00009   0.00000  -0.00115  -0.00114   1.90018
   A24        1.87580   0.00015   0.00000   0.00488   0.00485   1.88064
   A25        1.93872   0.00089   0.00000   0.00634   0.00627   1.94499
   A26        1.85638  -0.00088   0.00000  -0.00280  -0.00278   1.85361
   A27        1.89968   0.00086   0.00000   0.00451   0.00456   1.90425
   A28        1.94578  -0.00041   0.00000  -0.00366  -0.00366   1.94212
   A29        1.92981  -0.00098   0.00000  -0.00714  -0.00712   1.92269
   A30        1.89110   0.00056   0.00000   0.00309   0.00306   1.89417
   A31        1.97622  -0.00452   0.00000  -0.02644  -0.02635   1.94987
   A32        1.91017   0.00225   0.00000  -0.00329  -0.00341   1.90677
   A33        1.91574  -0.00107   0.00000  -0.00085  -0.00090   1.91484
   A34        1.92973  -0.00023   0.00000   0.00210   0.00220   1.93193
   A35        1.92267  -0.00085   0.00000  -0.00356  -0.00349   1.91918
   A36        1.91772  -0.00084   0.00000   0.00018   0.00018   1.91789
   A37        1.86753   0.00066   0.00000   0.00556   0.00555   1.87308
   A38        1.94691   0.00203   0.00000   0.00735   0.00747   1.95438
   A39        1.94557   0.00008   0.00000  -0.00165  -0.00166   1.94391
   A40        1.93292  -0.00185   0.00000  -0.00852  -0.00858   1.92434
   A41        1.83801  -0.00129   0.00000  -0.00177  -0.00180   1.83621
   A42        1.90894   0.00047   0.00000   0.00298   0.00295   1.91189
   A43        1.88826   0.00058   0.00000   0.00199   0.00198   1.89024
   A44        1.95156  -0.00144   0.00000  -0.01638  -0.01641   1.93515
   A45        1.85521   0.00000   0.00000   0.00524   0.00525   1.86046
   A46        1.92991   0.00021   0.00000  -0.00689  -0.00692   1.92298
   A47        1.91120   0.00129   0.00000   0.01050   0.01054   1.92175
   A48        1.94952  -0.00003   0.00000   0.00111   0.00088   1.95040
   A49        1.86174   0.00007   0.00000   0.00814   0.00812   1.86986
   A50        1.92650   0.00016   0.00000  -0.00482  -0.00488   1.92162
   A51        1.90556   0.00043   0.00000   0.00198   0.00202   1.90758
   A52        1.90676  -0.00063   0.00000  -0.00190  -0.00192   1.90484
   A53        1.92495  -0.00075   0.00000  -0.00067  -0.00067   1.92429
   A54        1.92663   0.00052   0.00000   0.00055   0.00056   1.92719
   A55        1.87251   0.00029   0.00000   0.00514   0.00514   1.87764
   A56        2.02842  -0.00642   0.00000  -0.03695  -0.03675   1.99167
   A57        2.10621  -0.01583   0.00000  -0.06224  -0.06224   2.04396
   A58        1.94470   0.00088   0.00000  -0.00836  -0.00842   1.93627
   A59        1.91376  -0.00037   0.00000  -0.00439  -0.00436   1.90940
   A60        1.88094  -0.00074   0.00000   0.00040   0.00040   1.88134
   A61        1.93898  -0.00023   0.00000   0.00141   0.00136   1.94034
   A62        1.91017  -0.00001   0.00000   0.00472   0.00474   1.91490
   A63        1.87299   0.00045   0.00000   0.00681   0.00679   1.87978
    D1       -1.11855   0.00085   0.00000   0.02692   0.02693  -1.09162
    D2        0.95428   0.00126   0.00000   0.01955   0.01956   0.97385
    D3        3.04164   0.00116   0.00000   0.02761   0.02757   3.06921
    D4        3.05092  -0.00021   0.00000   0.01542   0.01544   3.06637
[...]
 677,0.00008156,-0.00000135,0.00001516,0.00000781,0.00001057,0.00001372
 ,0.00000544,0.00033804,-0.00017217,0.00017458,0.00001135,-0.00000911,-
 0.00000991,0.00229684,0.00332540,-0.00149779,-0.00081988,-0.00082635,0
 .00083965,0.00000302,-0.00000064,-0.00000182,0.00000178,0.00000185,0.0
 0000098,-0.00016176,-0.00051505,-0.00005665,-0.00003969,-0.00021671,-0
 .00002378,-0.01198829,-0.01029990,-0.00914639,0.08966284,0.09510223,0.
 14727735,0.00021723,0.00009463,-0.00022674,-0.01147327,-0.00685795,-0.
 01307752,0.00124241,-0.00067787,0.00083279,0.00123357,-0.00018467,0.00
 033486,0.00007884,-0.00000403,0.00002717,-0.00020009,-0.00004205,0.000
 10056,0.01130621,0.01136582,0.01265638,-0.00009059,-0.00006164,0.00016
 620,-0.13873387,-0.08214496,-0.09570659,-0.00005987,-0.00005241,-0.000
 11411,0.00123153,0.00139230,-0.00021929,-0.00340653,-0.00384777,0.0012
 5083,-0.00006898,0.00009575,0.00009984,-0.00012019,0.00004085,0.000022
 05,0.00000082,-0.00013322,-0.00005295,0.00035136,0.00054173,0.00000895
 ,0.00008144,0.00011866,0.00022934,-0.00010337,-0.00039884,-0.00007451,
 0.00007252,-0.00023880,0.00004671,-0.00002201,-0.00000626,0.00000719,-
 0.00000973,0.00000663,-0.00000815,-0.00169687,0.00254095,0.00271073,0.
 00087446,-0.00061934,-0.00075182,0.00004901,0.00000621,-0.00003417,-0.
 00003217,0.00002192,-0.00001839,0.15090367,-0.00009723,0.00001261,-0.0
 0013485,-0.01194371,-0.01244530,-0.01458442,0.00119542,-0.00060228,0.0
 0140429,-0.00092768,0.00026545,-0.00012267,0.00002721,0.00000790,-0.00
 000397,-0.00002612,0.00001829,0.00000999,-0.00823960,-0.00885128,-0.00
 971828,0.00006131,-0.00020158,-0.00004445,-0.08004016,-0.11879744,-0.0
 8332723,0.00002599,0.00002791,0.00000770,0.00037421,0.00144649,-0.0004
 0869,-0.00448386,-0.00342615,0.00204960,-0.00005255,0.00018516,-0.0002
 4371,-0.00004180,0.00005183,0.00003314,0.00001343,0.00000942,0.0000300
 4,0.00043068,0.00082817,0.00031714,0.00030058,0.00031805,-0.00027414,0
 .00019902,-0.00009353,0.00017245,0.00011352,0.00017546,0.00007700,-0.0
 0000480,0.00000176,0.00000355,-0.00000487,0.00000323,-0.00000183,0.001
 86162,-0.00064055,-0.00190199,0.00020667,0.00065865,0.00045636,-0.0000
 1181,-0.00003787,0.00003096,0.00000816,0.00006186,-0.00000140,0.089148
 48,0.12891168,0.00009117,-0.00002707,0.00011313,0.01060810,0.00948531,
 0.01059352,-0.00062732,0.00046431,-0.00098439,-0.00073724,0.00106226,0
 .00079944,-0.00001062,-0.00000094,0.00000679,-0.00001023,-0.00001191,0
 .00000076,-0.01266627,-0.01255891,-0.01584256,0.00036425,-0.00002355,-
 0.00015134,-0.09822243,-0.08620176,-0.14835122,-0.00001215,-0.00001472
 ,-0.00001133,0.00029192,-0.00061564,0.00080790,0.00364575,0.00476799,-
 0.00071682,0.00001234,-0.00013314,0.00017201,0.00002882,-0.00003314,-0
 .00002249,-0.00004351,-0.00004396,-0.00003828,-0.00033259,-0.00077358,
 0.00077103,-0.00001713,-0.00018415,0.00024594,0.00028831,-0.00015595,0
 .00049596,0.00021639,0.00027840,0.00004824,0.00000124,-0.00000140,-0.0
 0000269,0.00000153,-0.00000213,0.00000025,0.00317166,-0.00236406,-0.00
 213519,-0.00034386,0.00067082,0.00069503,-0.00006679,-0.00004809,0.000
 05764,-0.00000306,0.00000059,-0.00003795,0.10245719,0.09390375,0.16235
 277,-0.00156256,-0.00047382,0.00030223,0.01312616,-0.00970259,0.006134
 25,-0.00158474,-0.00120995,-0.00142455,-0.00120764,0.00174781,0.004085
 02,-0.00005537,-0.00008652,-0.00007086,0.00020710,0.00008223,-0.000056
 31,-0.01120483,0.01031939,-0.00925181,-0.00081790,0.00010410,0.0007392
 0,-0.15129793,0.10782206,-0.07482615,-0.00004444,-0.00002987,0.0000005
 2,-0.00002445,-0.00492316,0.00356657,0.00090996,0.00185799,-0.00071822
 ,-0.00021090,0.00000650,0.00018281,0.00004080,-0.00000246,-0.00004352,
 -0.00170046,-0.00006168,0.00075865,0.00017499,0.00092948,-0.00055985,-
 0.00195822,-0.00208052,-0.00047933,0.00018381,-0.00025522,0.00017605,-
 0.00053263,0.00118295,-0.00068689,0.00001910,0.00001561,0.00000864,0.0
 0000876,0.00000204,0.00000612,0.00074278,-0.00028791,0.00003207,0.0003
 1419,-0.00060092,-0.00039377,0.00014972,-0.00000283,-0.00020006,0.0000
 7955,-0.00001299,-0.00008715,-0.01148621,0.01198742,-0.00815414,0.1676
 8763,-0.00068887,-0.00013726,0.00006652,0.01554929,-0.01239588,0.00711
 371,-0.00056054,-0.00056082,0.00043504,0.00115091,-0.00011696,-0.00312
 418,-0.00008503,-0.00001873,-0.00008686,0.00041704,0.00019381,-0.00010
 627,0.00846347,-0.00977598,0.00667622,-0.00055356,0.00119800,0.0004462
 6,0.10534441,-0.16020531,0.07927011,0.00011582,0.00009030,0.00013593,-
 0.00137727,-0.00387594,0.00386071,0.00000085,0.00120312,-0.00066156,-0
 .00001628,0.00010674,-0.00045074,0.00012840,-0.00000762,0.00005755,-0.
 00006387,0.00048468,0.00019906,-0.00040773,0.00037010,-0.00015508,-0.0
 0113907,-0.00084899,-0.00091200,0.00016534,0.00001565,0.00021434,0.000
 50652,-0.00042539,0.00058939,0.00003554,0.00002197,0.00000056,0.000012
 83,-0.00000202,0.00001370,-0.00041410,0.00032094,0.00030435,-0.0003012
 2,0.00068559,-0.00013723,0.00005658,-0.00004714,-0.00002019,0.00000397
 ,-0.00010307,-0.00009803,-0.01003148,0.01214222,-0.00745127,-0.1163807
 1,0.17160941,0.00057407,0.00026339,-0.00006415,-0.01411993,0.00725270,
 -0.00739354,-0.00064976,-0.00039181,-0.00037008,0.00243011,-0.00225834
 ,-0.00352529,0.00002604,-0.00000202,0.00003324,-0.00015167,-0.00011900
 ,-0.00000170,0.01472457,-0.01558697,0.01244691,0.00101322,-0.00065105,
 -0.00108682,-0.07401475,0.08130414,-0.10294089,-0.00007842,-0.00005028
 ,-0.00006428,0.00110681,0.00570882,-0.00270513,0.00009114,-0.00009444,
 0.00031087,-0.00001256,-0.00012255,0.00026870,-0.00006630,-0.00001863,
 -0.00004224,0.00084673,-0.00016184,-0.00024839,0.00006048,-0.00062265,
 0.00033350,-0.00105627,-0.00103886,0.00005578,0.00009084,0.00005423,0.
 00009126,0.00087151,-0.00104689,0.00062618,-0.00001343,-0.00000919,0.0
 0000056,-0.00000530,0.00000059,-0.00000552,-0.00092566,0.00048751,0.00
 081705,-0.00069128,0.00080050,0.00092602,-0.00018995,0.00006985,0.0001
 9677,-0.00011810,0.00008698,0.00016054,-0.01063166,0.01233867,-0.00891
 120,0.08090509,-0.08616871,0.11107123,-0.00074305,0.00016534,0.0006662
 4,0.00034663,0.00015219,0.00036410,-0.00108466,-0.00043484,0.00411404,
 -0.00000092,0.00000322,0.00001021,0.01133540,0.00783634,0.00518141,0.0
 0061694,0.00456948,0.00278740,0.00001580,-0.00001808,-0.00001637,0.000
 04429,-0.00002823,-0.00003728,-0.00005524,-0.00007869,-0.00008515,-0.1
 7493289,-0.10986892,-0.07755518,-0.00016557,0.00006597,-0.00009066,-0.
 00021823,-0.00044169,0.00003114,-0.01304124,-0.01149684,-0.00860837,0.
 00009913,0.00000691,-0.00007276,0.00013197,0.00000990,-0.00023265,-0.0
 0002315,-0.00003212,-0.00004223,-0.00068165,-0.00084364,-0.00061614,-0
 .00000323,0.00000062,-0.00000183,-0.00000759,0.00000368,0.00000219,0.0
 0032685,-0.00091939,-0.00024736,0.00053942,-0.00057618,-0.00064621,0.0
 0000174,-0.00000467,-0.00000843,-0.00001211,0.00000063,0.00000803,-0.0
 0000942,0.00000636,0.00000085,-0.00000470,-0.00000135,0.00000377,-0.00
 005482,-0.00000751,0.00000606,-0.00000184,0.00005388,-0.00002750,0.187
 39876,0.00087090,0.00118642,-0.00085276,0.00020490,0.00008153,0.000058
 03,-0.00049534,0.00035730,0.00300612,-0.00000063,0.00000365,0.00000749
 ,-0.01883483,-0.01225392,-0.00756468,0.00123328,-0.00605327,-0.0038615
 3,0.00000794,-0.00000717,-0.00000757,0.00002705,-0.00001929,-0.0000264
 3,0.00002195,-0.00002033,0.00000189,-0.10775049,-0.14287413,-0.0666467
 6,-0.00012590,0.00004799,-0.00006519,-0.00005091,0.00024212,-0.0004433
 0,-0.00751334,-0.00776718,-0.00405872,-0.00004782,-0.00008725,0.000143
 23,-0.00012526,-0.00005370,0.00007960,-0.00002171,-0.00002101,-0.00001
 041,-0.00045388,-0.00042214,-0.00036189,-0.00000210,-0.00000038,-0.000
 00147,-0.00000490,0.00000252,0.00000126,0.00017987,0.00071994,-0.00005
 192,-0.00001218,0.00079841,0.00090240,0.00000053,-0.00000207,-0.000006
 10,-0.00000861,0.00000024,0.00000472,-0.00000601,0.00000536,0.00000148
 ,-0.00000229,0.00000055,0.00000516,-0.00001743,0.00000471,-0.00000462,
 0.00000462,0.00003587,-0.00001446,0.12060689,0.15374462,0.00082657,0.0
 0020864,-0.00109661,-0.00012497,-0.00010386,-0.00008464,0.00278121,0.0
 0156814,-0.00445217,0.00000292,-0.00000158,-0.00000575,-0.01245435,-0.
 00560777,-0.00623435,0.00085834,-0.00536610,-0.00138409,-0.00001074,0.
 00000838,0.00000935,-0.00002201,0.00001813,0.00001875,-0.00000460,0.00
 005198,0.00001919,-0.07777315,-0.06861969,-0.09310539,0.00010448,-0.00
 003588,0.00007430,-0.00014392,-0.00010955,0.00027567,0.01758161,0.0167
 8778,0.01065863,-0.00014086,-0.00005661,0.00012363,-0.00016334,-0.0000
 3394,0.00021725,0.00001760,0.00002112,0.00002255,0.00086409,0.00103520
 ,0.00050119,0.00000219,-0.00000121,0.00000120,0.00000383,-0.00000240,-
 0.00000032,0.00001056,0.00074336,0.00015694,0.00017642,0.00013879,0.00
 059471,-0.00000132,0.00000456,0.00000741,0.00000789,0.00000006,-0.0000
 0340,0.00000379,-0.00000409,-0.00000141,0.00000167,-0.00000119,-0.0000
 0422,0.00002694,-0.00001195,0.00001127,0.00001162,-0.00004361,0.000022
 34,0.08202507,0.07314343,0.10028071,-0.00032538,-0.00018406,0.00043020
 ,0.00009650,0.00009849,0.00025987,0.00056709,0.00030935,-0.00084623,0.
 00000241,0.00000199,0.00000373,-0.01154005,0.00864736,-0.01098036,0.00
 192625,-0.00095300,0.00036102,0.00000687,-0.00000326,-0.00000429,0.000
 00626,-0.00000449,-0.00000892,-0.00003846,-0.00002350,-0.00004436,-0.1
 2140113,0.07508185,-0.09278620,-0.00002237,0.00003213,-0.00002276,-0.0
 0141957,-0.00098590,0.00012168,0.01176297,-0.01116157,0.01459505,-0.00
 009707,-0.00000746,-0.00006316,0.00005327,-0.00000054,-0.00004115,0.00
 001379,-0.00001142,-0.00001412,-0.00002449,0.00016595,0.00001148,0.000
 00020,-0.00000020,-0.00000060,-0.00000166,-0.00000002,-0.00000028,0.00
 040078,-0.00057750,-0.00019797,-0.00030261,0.00274561,0.00210273,0.000
 00194,0.00000119,-0.00000086,-0.00000138,0.00000143,0.00000276,-0.0000
 0238,0.00000030,-0.00000037,-0.00000385,-0.00000101,0.00000181,-0.0000
 0862,-0.00001721,0.00001132,0.00000615,-0.00000198,0.00000542,-0.01119
 845,0.01180560,-0.01290632,0.13253668,-0.00013701,-0.00001231,-0.00002
 704,-0.00001358,0.00000742,-0.00014437,0.00088471,-0.00017645,0.000483
 39,-0.00000035,0.00000056,-0.00000050,0.01518547,-0.01544225,0.0161492
 1,-0.00068940,0.00225822,0.00071959,-0.00000199,0.00000370,0.00000061,
 -0.00000996,0.00000064,0.00000580,0.00004048,0.00000967,0.00003816,0.0
 7255224,-0.12493197,0.09259003,0.00000511,-0.00000143,-0.00000435,-0.0
 0022845,0.00031125,-0.00012715,0.00563277,-0.00633419,0.00730330,0.000
 04426,0.00005403,0.00000591,0.00000163,-0.00004737,-0.00001886,-0.0000
 0683,-0.00000752,0.00000370,-0.00012360,-0.00002140,-0.00008412,0.0000
 0014,0.00000082,-0.00000019,0.00000058,0.00000005,-0.00000088,-0.00076
 500,0.00113475,-0.00017404,0.00225019,-0.00306840,-0.00254216,0.000002
 40,-0.00000005,-0.00000076,0.00000086,-0.00000046,-0.00000199,0.000000
 55,-0.00000007,-0.00000035,0.00000261,0.00000072,0.00000273,0.00000837
 ,0.00001196,-0.00000889,-0.00000436,0.00000568,-0.00000337,-0.00964453
 ,0.01163934,-0.01256541,-0.08339883,0.13392999,0.00013323,-0.00001795,
 -0.00003256,0.00003605,-0.00007960,0.00029260,-0.00101457,-0.00026301,
 -0.00042481,0.00000204,-0.00000215,-0.00000179,0.01041348,-0.01069479,
 0.01101509,0.00022518,0.00205063,0.00077160,0.00000260,-0.00000060,-0.
 00000131,0.00000105,0.00001712,0.00000981,-0.00006461,-0.00003200,-0.0
 0007077,-0.09310921,0.09425760,-0.16274295,0.00006429,0.00000782,0.000
 03067,-0.00057651,-0.00072928,0.00078362,-0.01188959,0.01249030,-0.017
 13560,0.00003284,0.00000067,-0.00004482,-0.00004883,0.00007243,0.00005
 888,0.00001611,-0.00000479,-0.00002125,0.00018307,0.00001338,0.0000966
 0,-0.00000055,-0.00000102,0.00000065,0.00000014,-0.00000027,-0.0000006
 3,-0.00045725,0.00077459,0.00106956,0.00136740,-0.00336456,-0.00068174
 ,-0.00000201,0.00000178,-0.00000064,0.00000039,-0.00000043,0.00000051,
 -0.00000010,-0.00000200,-0.00000121,0.00000096,-0.00000381,-0.00000644
 ,-0.00001518,-0.00002267,0.00001689,0.00000758,-0.00001044,0.00000335,
 -0.00645067,0.00679152,-0.00868757,0.09782465,-0.10270296,0.17724880,-
 0.00324426,-0.00286646,-0.00141807,0.00026195,-0.00010324,0.00006920,0
 .01084977,-0.01629072,-0.01042009,0.00000360,0.00000757,0.00000664,-0.
 00212145,-0.00397941,0.00282477,0.00081377,0.00088574,-0.00017305,-0.0
 0002147,-0.00002370,-0.00005441,-0.00002645,-0.00000669,-0.00000524,0.
 00002323,0.00000838,0.00003656,-0.01058043,0.01484973,0.00692502,0.000
 07207,0.00000418,0.00007734,0.00155625,-0.00002956,0.00108539,-0.12784
 520,0.10774868,0.06217462,-0.00002799,0.00002233,0.00002503,0.00061901
 ,-0.00083618,-0.00075312,0.00002777,-0.00001664,0.00003013,0.00090917,
 0.00091610,0.00051503,0.00000335,-0.00000158,0.00000310,0.00000131,0.0
 0000004,-0.00000177,-0.00036780,0.00116481,0.00093247,0.00017279,-0.00
 024367,-0.00020880,0.00007342,0.00005864,0.00005582,0.00000911,0.00000
 554,0.00000872,0.00000398,0.00000024,-0.00000014,0.00002897,0.00001726
 ,0.00002107,-0.00000361,0.00001222,-0.00000337,0.00003130,0.00001738,-
 0.00000876,0.00027351,0.00013841,-0.00072159,0.00095597,-0.00026864,-0
 .00029860,0.13684498,-0.00551623,-0.00256400,-0.00078830,0.00002917,0.
 00025314,0.00035210,0.01393194,-0.01895173,-0.00946993,-0.00000759,0.0
 0000322,0.00000545,-0.00244243,-0.00116714,0.00194441,0.00105736,0.000
 62998,-0.00026661,-0.00000581,-0.00000887,-0.00001878,0.00001936,-0.00
 001332,-0.00001771,0.00002169,-0.00003902,0.00001095,-0.00803461,0.011
 68017,0.00633044,-0.00013543,0.00000463,-0.00007709,0.00090045,0.00169
 857,0.00131114,0.10566289,-0.18962293,-0.08249167,-0.00015457,0.000294
 14,0.00013861,0.00092215,-0.00082067,-0.00114083,0.00006369,0.00004783
 ,0.00009524,0.00025496,0.00071954,0.00055750,-0.00000113,-0.00000023,0
 .00000081,-0.00000712,0.00000417,0.00000147,-0.00039349,0.00056584,0.0
 0053326,-0.00005402,0.00003446,0.00004404,-0.00002551,-0.00002848,-0.0
 0001881,-0.00000760,-0.00000049,0.00000358,-0.00000599,0.00000429,0.00
 000184,-0.00003478,-0.00001611,-0.00003275,-0.00002756,0.00000742,-0.0
 0000486,0.00003882,0.00005353,-0.00002871,0.00056657,0.00042070,-0.000
 75460,0.00059380,0.00057415,-0.00057731,-0.11322852,0.20559315,-0.0026
 9576,-0.00094416,0.00015745,0.00004704,0.00004413,0.00014325,0.0055591
 4,-0.01050363,-0.00726738,-0.00000462,-0.00000168,0.00000146,0.0029247
 0,0.00420747,-0.00211885,-0.00044558,0.00005755,0.00043834,0.00000262,
 0.00001341,0.00000355,-0.00000997,-0.00000479,-0.00000159,0.00003374,-
 0.00000857,0.00002537,0.01272199,-0.01735168,-0.01056319,0.00001624,-0
 .00000280,0.00000859,0.00105716,0.00023641,0.00075910,0.06055624,-0.08
 033387,-0.09455233,0.00024171,-0.00009392,0.00017408,0.00049824,-0.000
 45970,-0.00024699,0.00003904,0.00003165,0.00005788,-0.00032385,0.00047
 049,0.00035513,0.00000028,0.00000296,-0.00000145,-0.00000230,0.0000022
 3,-0.00000025,0.00059941,-0.00119144,-0.00067878,0.00013872,-0.0002173
 2,0.00004699,-0.00003399,-0.00002923,-0.00002273,-0.00000406,-0.000000
 93,-0.00000205,0.00000024,0.00000132,0.00000135,-0.00000891,0.00000222
 ,-0.00000819,-0.00000372,0.00001163,-0.00001197,0.00002180,0.00003417,
 -0.00001291,-0.00041927,0.00020467,0.00083448,-0.00082290,-0.00036180,
 0.00079837,-0.06822491,0.08940098,0.10087419,0.00014695,0.00099117,0.0
 0032563,0.00114161,0.00114688,0.00044659,-0.01047748,0.01116869,-0.012
 01343,0.00001043,0.00002204,0.00003015,0.00121132,-0.00038823,-0.00031
 005,-0.00008137,-0.00011332,-0.00007227,0.00002022,-0.00004360,-0.0000
 1779,0.00018953,-0.00011936,-0.00016008,-0.00008823,-0.00003928,-0.000
 15982,0.01130216,-0.00991791,0.01635458,-0.00084851,0.00023708,-0.0004
 9314,-0.00490329,-0.00431339,-0.00411089,-0.12712163,0.06249436,-0.104
 27402,0.00041897,-0.00015419,0.00020296,0.00006156,-0.00017897,0.00022
 797,-0.00013056,-0.00020381,-0.00018912,0.00029974,0.00044609,0.000539
 53,-0.00000558,-0.00000557,-0.00000478,-0.00001927,0.00000026,0.000009
 32,-0.00002014,-0.00014009,-0.00024005,-0.00012657,0.00010267,-0.00043
 773,0.00000496,0.00000723,-0.00000496,-0.00002582,0.00000446,0.0000246
 8,-0.00003131,0.00002499,0.00001244,-0.00000283,0.00001313,0.00004119,
 -0.00007228,-0.00006704,0.00005469,0.00000813,-0.00000052,0.00001528,0
 .00110830,0.00037171,-0.00083961,-0.00194965,-0.00131986,0.00361661,-0
 .00929664,0.00601954,-0.01145844,0.13927731,0.00042728,0.00007926,0.00
 005253,0.00015357,0.00117045,0.00016917,-0.01080113,0.01029996,-0.0150
 8341,0.00000563,0.00001899,0.00002119,-0.00001394,0.00013844,-0.001023
 75,0.00002083,0.00002314,0.00005638,0.00000336,-0.00002849,-0.00000655
 ,0.00012967,-0.00009910,-0.00012893,-0.00002662,0.00001651,-0.00008240
 ,0.00629964,-0.00731027,0.01016429,-0.00078126,0.00013269,-0.00048463,
 -0.00464691,-0.00327742,-0.00370238,0.06533782,-0.09866927,0.08142087,
 -0.00007347,-0.00035635,-0.00042024,-0.00012119,0.00019613,0.00022297,
 0.00000372,-0.00008648,-0.00006788,0.00028575,0.00096457,0.00055236,-0
 .00000313,-0.00000337,-0.00000417,-0.00001337,-0.00000228,0.00000794,-
 0.00015700,0.00003452,-0.00009723,-0.00013536,0.00041514,0.00003605,-0
 .00000699,-0.00000393,-0.00000632,-0.00001495,0.00000357,0.00001536,-0
 .00002467,0.00002017,0.00001406,-0.00001391,0.00000333,0.00001979,-0.0
 0003603,-0.00005424,0.00003032,0.00001448,-0.00001648,0.00002240,0.000
 34869,0.00029055,-0.00041014,-0.00215312,0.00010094,0.00203177,0.01203
 776,-0.00935592,0.01678422,-0.06604514,0.10535523,-0.00012275,0.000761
 15,-0.00002319,0.00036540,0.00078375,0.00075733,-0.00527214,0.00662028
 ,-0.00950789,0.00000387,0.00001137,0.00001431,-0.00121911,0.00038194,0
 .00064902,0.00018718,-0.00039074,-0.00032342,0.00000873,-0.00002096,-0
 .00001537,0.00009838,-0.00005883,-0.00007503,-0.00006080,-0.00004789,-
 0.00012285,-0.01166496,0.01061573,-0.01744506,-0.00042301,0.00010566,-
 0.00028815,-0.00234476,-0.00237106,-0.00099589,-0.10373188,0.07875869,
 -0.18142929,0.00029529,-0.00026803,-0.00002971,0.00005268,-0.00010945,
 0.00021666,-0.00000863,-0.00003700,-0.00004979,0.00013217,-0.00012133,
 0.00068778,-0.00000346,-0.00000287,-0.00000304,-0.00001069,0.00000047,
 0.00000554,0.00022046,-0.00005715,0.00023237,0.00022190,-0.00047241,0.
 00000155,-0.00000265,-0.00000247,-0.00000330,-0.00001296,0.00000190,0.
 00001274,-0.00001725,0.00001189,0.00000685,-0.00001473,-0.00000330,0.0
 0000935,-0.00004293,-0.00004403,0.00002887,0.00001440,0.00000856,0.000
 00787,-0.00004245,-0.00037318,0.00123035,0.00300914,0.00146677,-0.0023
 4291,0.00750100,-0.00504385,0.01080908,0.11288455,-0.09010363,0.197985
 23\\0.00000599,0.00001930,-0.00002703,-0.00012942,-0.00002168,0.000189
 04,0.00019028,-0.00001378,-0.00023225,0.00000488,-0.00001547,0.0000043
 2,0.00000150,0.00001433,0.00000431,-0.00000761,0.00000540,0.00000319,-
 0.00000275,0.00000239,-0.00000848,-0.00000243,-0.00000863,0.00001719,-
 0.00000351,-0.00000040,-0.00000703,0.00000134,0.00000140,0.00000072,0.
 00019968,-0.00000002,-0.00021593,-0.00026299,0.00003592,0.00027830,0.0
 0000584,-0.00000187,-0.00001004,0.00000452,-0.00000192,-0.00000114,-0.
 00000808,-0.00000297,-0.00001003,0.00000714,-0.00000078,-0.00001837,-0
 .00000623,-0.00000512,0.00000006,-0.00000338,-0.00000632,0.00000057,0.
 00000077,-0.00000915,0.00001124,-0.00000092,0.00001278,-0.00000634,0.0
 0000292,0.00000069,-0.00000146,0.00000559,-0.00000652,0.00000156,-0.00
 000358,-0.00001428,0.00000236,-0.00000144,0.00000125,0.00000244,0.0000
 0585,0.00000201,0.00001248,0.00000076,-0.00000001,-0.00000532,0.000006
 62,0.00000293,-0.00000175,-0.00000267,0.00000307,0.00000776,-0.0000056
 7,0.00000779,0.00000230,-0.00000461,0.00000394,0.00000693,0.00000165,-
 0.00000426,0.00000040\\\@


 HE THAT IS UNAWARE OF HIS IGNORANCE WILL BE MISLED BY HIS KNOWLEDGE.

                                        -- WHATLEY
 Job cpu time:       0 days 12 hours 44 minutes 11.5 seconds.
 Elapsed time:       0 days  1 hours  3 minutes 41.7 seconds.
 File lengths (MBytes):  RWF=    720 Int=      0 D2E=      0 Chk=     34 Scr=      1
 Normal termination of Gaussian 16 at Fri Mar  8 17:13:53 2019.
