 Entering Gaussian System, Link 0=g16
 Initial command:
 /sw/Projects/G16/g16/l1.exe "/nvme/pbs/tmpdir/pbs.74202[9].flm1/Gau-3803.inp" -scrdir="/nvme/pbs/tmpdir/pbs.74202[9].flm1/"
 Entering Link 1 = /sw/Projects/G16/g16/l1.exe PID=      3805.
  
 Copyright (c) 1988-2017, Gaussian, Inc.  All Rights Reserved.
  
 This is part of the Gaussian(R) 16 program.  It is based on
 the Gaussian(R) 09 system (copyright 2009, Gaussian, Inc.),
 the Gaussian(R) 03 system (copyright 2003, Gaussian, Inc.),
 the Gaussian(R) 98 system (copyright 1998, Gaussian, Inc.),
 the Gaussian(R) 94 system (copyright 1995, Gaussian, Inc.),
 the Gaussian 92(TM) system (copyright 1992, Gaussian, Inc.),
 the Gaussian 90(TM) system (copyright 1990, Gaussian, Inc.),
 the Gaussian 88(TM) system (copyright 1988, Gaussian, Inc.),
 the Gaussian 86(TM) system (copyright 1986, Carnegie Mellon
 University), and the Gaussian 82(TM) system (copyright 1983,
 Carnegie Mellon University). Gaussian is a federally registered
 trademark of Gaussian, Inc.
  
 This software contains proprietary and confidential information,
 including trade secrets, belonging to Gaussian, Inc.
  
 This software is provided under written license and may be
 used, copied, transmitted, or stored only in accord with that
 written license.
  
 The following legend is applicable only to US Government
 contracts under FAR:
  
                    RESTRICTED RIGHTS LEGEND
  
 Use, reproduction and disclosure by the US Government is
 subject to restrictions as set forth in subparagraphs (a)
 and (c) of the Commercial Computer Software - Restricted
 Rights clause in FAR 52.227-19.
  
 Gaussian, Inc.
 340 Quinnipiac St., Bldg. 40, Wallingford CT 06492
  
  
 ---------------------------------------------------------------
 Warning -- This program may not be used in any manner that
 competes with the business of Gaussian, Inc. or will provide
 assistance to any competitor of Gaussian, Inc.  The licensee
 of this program is prohibited from giving any competitor of
 Gaussian, Inc. access to this program.  By using this program,
 the user acknowledges that Gaussian, Inc. is engaged in the
 business of creating and licensing software in the field of
 computational chemistry and represents and warrants to the
 licensee that it is not a competitor of Gaussian, Inc. and that
 it will not use this program in any manner prohibited above.
 ---------------------------------------------------------------
  

 Cite this work as:
 Gaussian 16, Revision B.01,
 M. J. Frisch, G. W. Trucks, H. B. Schlegel, G. E. Scuseria, 
 M. A. Robb, J. R. Cheeseman, G. Scalmani, V. Barone, 
 G. A. Petersson, H. Nakatsuji, X. Li, M. Caricato, A. V. Marenich, 
 J. Bloino, B. G. Janesko, R. Gomperts, B. Mennucci, H. P. Hratchian, 
 J. V. Ortiz, A. F. Izmaylov, J. L. Sonnenberg, D. Williams-Young, 
 F. Ding, F. Lipparini, F. Egidi, J. Goings, B. Peng, A. Petrone, 
 T. Henderson, D. Ranasinghe, V. G. Zakrzewski, J. Gao, N. Rega, 
 G. Zheng, W. Liang, M. Hada, M. Ehara, K. Toyota, R. Fukuda, 
 J. Hasegawa, M. Ishida, T. Nakajima, Y. Honda, O. Kitao, H. Nakai, 
 T. Vreven, K. Throssell, J. A. Montgomery, Jr., J. E. Peralta, 
 F. Ogliaro, M. J. Bearpark, J. J. Heyd, E. N. Brothers, K. N. Kudin, 
 V. N. Staroverov, T. A. Keith, R. Kobayashi, J. Normand, 
 K. Raghavachari, A. P. Rendell, J. C. Burant, S. S. Iyengar, 
 J. Tomasi, M. Cossi, J. M. Millam, M. Klene, C. Adamo, R. Cammi, 
 J. W. Ochterski, R. L. Martin, K. Morokuma, O. Farkas, 
 J. B. Foresman, and D. J. Fox, Gaussian, Inc., Wallingford CT, 2016.
 
 ******************************************
 Gaussian 16:  ES64L-G16RevB.01 20-Dec-2017
                 8-Mar-2019 
 ******************************************
 %mem=20gb
 %nproc=12
 Will use up to   12 processors via shared memory.
 %chk=4c1_a1_a4_4c1_PHI.inp_extract_9.chk
 ----------------------------------------------------------------------
 #M062X/6-311++G(2d,2p) opt=ModRedundant freq=noraman SCRF=(SMD,solvent
 =water)
 ----------------------------------------------------------------------
 1/18=120,19=15,26=3,38=1/1,3;
 2/9=110,12=2,17=6,18=5,40=1/2;
 3/5=4,6=6,7=1212,11=2,25=1,30=1,70=32201,71=1,72=1,74=-55/1,2,3;
 4//1;
 5/5=2,38=5,53=1/2;
 6/7=2,8=2,9=2,10=2,28=1/1;
 7//1,2,3,16;
 1/18=20,19=15,26=3/3(2);
 2/9=110/2;
 99//99;
 2/9=110/2;
 3/5=4,6=6,7=1212,11=2,25=1,30=1,70=32205,71=1,72=1,74=-55/1,2,3;
 4/5=5,16=3,69=1/1;
 5/5=2,38=5,53=1/2;
 7//1,2,3,16;
 1/18=20,19=15,26=3/3(-5);
 2/9=110/2;
 6/7=2,8=2,9=2,10=2,19=2,28=1/1;
 99/9=1/99;
 -------------------------------
 4c1_a1_a4_4c1_PHI.inp_extract_9
 -------------------------------
 Symbolic Z-matrix:
 Charge =  0 Multiplicity = 1
 C                    -1.79122   1.33764  -0.10479 
 C                     1.03389   0.45283   0.85907 
 C                    -0.88555   0.2569   -0.68426 
 C                     3.48415  -0.40401  -0.45325 
 C                    -3.5533   -0.17363   0.33239 
 O                    -2.68489   0.8156    0.85478 
 C                     2.58592   0.61917  -1.14684 
 C                     2.65729  -1.27288   0.47776 
 C                     1.77239   1.38272  -0.1005 
 C                    -2.76765  -1.3599   -0.20362 
 O                     1.92113  -0.48367   1.40417 
 O                    -0.02553  -0.28923   0.30172 
 C                    -1.73158  -0.89121  -1.22761 
 H                    -2.35197   1.79795  -0.91519 
 H                    -1.22107   2.10916   0.39289 
 H                     0.65913   1.01338   1.70388 
 H                    -0.30435   0.68659  -1.48829 
 H                     4.25156   0.10861   0.12192 
 H                     3.98739  -1.03815  -1.17757 
 H                    -4.20661  -0.46466   1.1436 
 H                    -4.1603    0.27013  -0.45404 
 H                     1.92482   0.10937  -1.84258 
 H                     3.17991   1.31758  -1.72827 
 H                     3.28256  -1.9148    1.0825 
 H                     1.97451  -1.89861  -0.08587 
 H                     2.44688   1.96827   0.51837 
 H                     1.08773   2.0851   -0.55933 
 H                    -3.45438  -2.0674   -0.65941 
 H                    -2.28058  -1.86921   0.62232 
 H                    -1.08527  -1.70777  -1.53199 
 H                    -2.24165  -0.53297  -2.11838 
 
 The following ModRedundant input section has been read:
 D      11       2      12       3 F                                           
 

 GradGradGradGradGradGradGradGradGradGradGradGradGradGradGradGradGradGrad
 Berny optimization.
 Initialization pass.
                           ----------------------------
                           !    Initial Parameters    !
                           ! (Angstroms and Degrees)  !
 --------------------------                            --------------------------
 ! Name  Definition              Value          Derivative Info.                !
 --------------------------------------------------------------------------------
 ! R1    R(1,3)                  1.5245         estimate D2E/DX2                !
 ! R2    R(1,6)                  1.4114         estimate D2E/DX2                !
 ! R3    R(1,14)                 1.0877         estimate D2E/DX2                !
 ! R4    R(1,15)                 1.0807         estimate D2E/DX2                !
 ! R5    R(2,9)                  1.5267         estimate D2E/DX2                !
 ! R6    R(2,11)                 1.4005         estimate D2E/DX2                !
 ! R7    R(2,12)                 1.4084         estimate D2E/DX2                !
 ! R8    R(2,16)                 1.0809         estimate D2E/DX2                !
 ! R9    R(3,12)                 1.4178         estimate D2E/DX2                !
 ! R10   R(3,13)                 1.5261         estimate D2E/DX2                !
 ! R11   R(3,17)                 1.0812         estimate D2E/DX2                !
 ! R12   R(4,7)                  1.528          estimate D2E/DX2                !
 ! R13   R(4,8)                  1.5184         estimate D2E/DX2                !
 ! R14   R(4,18)                 1.0874         estimate D2E/DX2                !
 ! R15   R(4,19)                 1.0863         estimate D2E/DX2                !
 ! R16   R(5,6)                  1.4162         estimate D2E/DX2                !
 ! R17   R(5,10)                 1.5205         estimate D2E/DX2                !
 ! R18   R(5,20)                 1.0815         estimate D2E/DX2                !
 ! R19   R(5,21)                 1.0881         estimate D2E/DX2                !
 ! R20   R(7,9)                  1.5296         estimate D2E/DX2                !
 ! R21   R(7,22)                 1.0867         estimate D2E/DX2                !
 ! R22   R(7,23)                 1.0857         estimate D2E/DX2                !
 ! R23   R(8,11)                 1.4223         estimate D2E/DX2                !
 ! R24   R(8,24)                 1.0811         estimate D2E/DX2                !
 ! R25   R(8,25)                 1.0842         estimate D2E/DX2                !
 ! R26   R(9,26)                 1.0866         estimate D2E/DX2                !
 ! R27   R(9,27)                 1.0829         estimate D2E/DX2                !
 ! R28   R(10,13)                1.5303         estimate D2E/DX2                !
 ! R29   R(10,28)                1.0862         estimate D2E/DX2                !
 ! R30   R(10,29)                1.0857         estimate D2E/DX2                !
 ! R31   R(13,30)                1.085          estimate D2E/DX2                !
 ! R32   R(13,31)                1.0872         estimate D2E/DX2                !
 ! A1    A(3,1,6)              111.8627         estimate D2E/DX2                !
 ! A2    A(3,1,14)             108.8495         estimate D2E/DX2                !
 ! A3    A(3,1,15)             111.5749         estimate D2E/DX2                !
 ! A4    A(6,1,14)             109.6733         estimate D2E/DX2                !
 ! A5    A(6,1,15)             106.5599         estimate D2E/DX2                !
 ! A6    A(14,1,15)            108.2377         estimate D2E/DX2                !
 ! A7    A(9,2,11)             110.2109         estimate D2E/DX2                !
 ! A8    A(9,2,12)             115.8517         estimate D2E/DX2                !
 ! A9    A(9,2,16)             110.0649         estimate D2E/DX2                !
 ! A10   A(11,2,12)            106.1555         estimate D2E/DX2                !
 ! A11   A(11,2,16)            105.2018         estimate D2E/DX2                !
 ! A12   A(12,2,16)            108.7669         estimate D2E/DX2                !
 ! A13   A(1,3,12)             111.6605         estimate D2E/DX2                !
 ! A14   A(1,3,13)             109.8351         estimate D2E/DX2                !
 ! A15   A(1,3,17)             108.6803         estimate D2E/DX2                !
 ! A16   A(12,3,13)            107.1028         estimate D2E/DX2                !
 ! A17   A(12,3,17)            110.1323         estimate D2E/DX2                !
 ! A18   A(13,3,17)            109.4043         estimate D2E/DX2                !
 ! A19   A(7,4,8)              109.9616         estimate D2E/DX2                !
 ! A20   A(7,4,18)             109.8326         estimate D2E/DX2                !
 ! A21   A(7,4,19)             111.135          estimate D2E/DX2                !
 ! A22   A(8,4,18)             109.2537         estimate D2E/DX2                !
 ! A23   A(8,4,19)             109.0917         estimate D2E/DX2                !
 ! A24   A(18,4,19)            107.5134         estimate D2E/DX2                !
 ! A25   A(6,5,10)             110.9877         estimate D2E/DX2                !
 ! A26   A(6,5,20)             106.3629         estimate D2E/DX2                !
 ! A27   A(6,5,21)             108.8939         estimate D2E/DX2                !
 ! A28   A(10,5,20)            111.5074         estimate D2E/DX2                !
 ! A29   A(10,5,21)            110.5894         estimate D2E/DX2                !
 ! A30   A(20,5,21)            108.3555         estimate D2E/DX2                !
 ! A31   A(1,6,5)              113.3197         estimate D2E/DX2                !
 ! A32   A(4,7,9)              109.6581         estimate D2E/DX2                !
 ! A33   A(4,7,22)             109.517          estimate D2E/DX2                !
 ! A34   A(4,7,23)             110.6251         estimate D2E/DX2                !
 ! A35   A(9,7,22)             110.3995         estimate D2E/DX2                !
 ! A36   A(9,7,23)             109.6463         estimate D2E/DX2                !
 ! A37   A(22,7,23)            106.9624         estimate D2E/DX2                !
 ! A38   A(4,8,11)             111.3283         estimate D2E/DX2                !
 ! A39   A(4,8,24)             111.5803         estimate D2E/DX2                !
 ! A40   A(4,8,25)             110.7604         estimate D2E/DX2                !
 ! A41   A(11,8,24)            105.3362         estimate D2E/DX2                !
 ! A42   A(11,8,25)            109.4453         estimate D2E/DX2                !
 ! A43   A(24,8,25)            108.2016         estimate D2E/DX2                !
 ! A44   A(2,9,7)              112.5304         estimate D2E/DX2                !
 ! A45   A(2,9,26)             105.6937         estimate D2E/DX2                !
 ! A46   A(2,9,27)             110.8264         estimate D2E/DX2                !
 ! A47   A(7,9,26)             109.1752         estimate D2E/DX2                !
 ! A48   A(7,9,27)             111.7286         estimate D2E/DX2                !
 ! A49   A(26,9,27)            106.5138         estimate D2E/DX2                !
 ! A50   A(5,10,13)            110.2906         estimate D2E/DX2                !
 ! A51   A(5,10,28)            109.2336         estimate D2E/DX2                !
 ! A52   A(5,10,29)            109.2456         estimate D2E/DX2                !
 ! A53   A(13,10,28)           110.2892         estimate D2E/DX2                !
 ! A54   A(13,10,29)           110.4251         estimate D2E/DX2                !
 ! A55   A(28,10,29)           107.295          estimate D2E/DX2                !
 ! A56   A(2,11,8)             116.4504         estimate D2E/DX2                !
 ! A57   A(2,12,3)             121.9071         estimate D2E/DX2                !
 ! A58   A(3,13,10)            111.5622         estimate D2E/DX2                !
 ! A59   A(3,13,30)            109.6237         estimate D2E/DX2                !
 ! A60   A(3,13,31)            107.6923         estimate D2E/DX2                !
 ! A61   A(10,13,30)           111.1333         estimate D2E/DX2                !
 ! A62   A(10,13,31)           109.3622         estimate D2E/DX2                !
 ! A63   A(30,13,31)           107.3138         estimate D2E/DX2                !
 ! D1    D(6,1,3,12)           -64.697          estimate D2E/DX2                !
 ! D2    D(6,1,3,13)            53.9653         estimate D2E/DX2                !
 ! D3    D(6,1,3,17)           173.6207         estimate D2E/DX2                !
 ! D4    D(14,1,3,12)          173.9517         estimate D2E/DX2                !
 ! D5    D(14,1,3,13)          -67.386          estimate D2E/DX2                !
 ! D6    D(14,1,3,17)           52.2694         estimate D2E/DX2                !
 ! D7    D(15,1,3,12)           54.5714         estimate D2E/DX2                !
 ! D8    D(15,1,3,13)          173.2337         estimate D2E/DX2                !
 ! D9    D(15,1,3,17)          -67.1109         estimate D2E/DX2                !
 ! D10   D(3,1,6,5)            -60.5889         estimate D2E/DX2                !
 ! D11   D(14,1,6,5)            60.2854         estimate D2E/DX2                !
 ! D12   D(15,1,6,5)           177.2252         estimate D2E/DX2                !
 ! D13   D(11,2,9,7)            51.7299         estimate D2E/DX2                !
 ! D14   D(11,2,9,26)          -67.3431         estimate D2E/DX2                !
 ! D15   D(11,2,9,27)          177.6473         estimate D2E/DX2                !
 ! D16   D(12,2,9,7)           -68.7909         estimate D2E/DX2                !
 ! D17   D(12,2,9,26)          172.1361         estimate D2E/DX2                !
 ! D18   D(12,2,9,27)           57.1265         estimate D2E/DX2                !
 ! D19   D(16,2,9,7)           167.3211         estimate D2E/DX2                !
 ! D20   D(16,2,9,26)           48.2481         estimate D2E/DX2                !
 ! D21   D(16,2,9,27)          -66.7616         estimate D2E/DX2                !
 ! D22   D(9,2,11,8)           -55.5194         estimate D2E/DX2                !
 ! D23   D(12,2,11,8)           70.6662         estimate D2E/DX2                !
 ! D24   D(16,2,11,8)         -174.1322         estimate D2E/DX2                !
 ! D25   D(9,2,12,3)           -37.1689         estimate D2E/DX2                !
 ! D26   D(11,2,12,3)         -159.8551         Frozen                          !
 ! D27   D(16,2,12,3)           87.3919         estimate D2E/DX2                !
 ! D28   D(1,3,12,2)           -69.8215         estimate D2E/DX2                !
 ! D29   D(13,3,12,2)          169.9011         estimate D2E/DX2                !
 ! D30   D(17,3,12,2)           51.0183         estimate D2E/DX2                !
 ! D31   D(1,3,13,10)          -49.8447         estimate D2E/DX2                !
 ! D32   D(1,3,13,30)         -173.3813         estimate D2E/DX2                !
 ! D33   D(1,3,13,31)           70.1711         estimate D2E/DX2                !
 ! D34   D(12,3,13,10)          71.5902         estimate D2E/DX2                !
 ! D35   D(12,3,13,30)         -51.9464         estimate D2E/DX2                !
 ! D36   D(12,3,13,31)        -168.394          estimate D2E/DX2                !
 ! D37   D(17,3,13,10)        -169.0573         estimate D2E/DX2                !
 ! D38   D(17,3,13,30)          67.4062         estimate D2E/DX2                !
 ! D39   D(17,3,13,31)         -49.0415         estimate D2E/DX2                !
 ! D40   D(8,4,7,9)             52.5462         estimate D2E/DX2                !
 ! D41   D(8,4,7,22)           -68.7405         estimate D2E/DX2                !
 ! D42   D(8,4,7,23)           173.6054         estimate D2E/DX2                !
 ! D43   D(18,4,7,9)           -67.7152         estimate D2E/DX2                !
 ! D44   D(18,4,7,22)          170.9981         estimate D2E/DX2                !
 ! D45   D(18,4,7,23)           53.344          estimate D2E/DX2                !
 ! D46   D(19,4,7,9)           173.4428         estimate D2E/DX2                !
 ! D47   D(19,4,7,22)           52.1561         estimate D2E/DX2                !
 ! D48   D(19,4,7,23)          -65.498          estimate D2E/DX2                !
 ! D49   D(7,4,8,11)           -54.8297         estimate D2E/DX2                !
 ! D50   D(7,4,8,24)          -172.2017         estimate D2E/DX2                !
 ! D51   D(7,4,8,25)            67.1899         estimate D2E/DX2                !
 ! D52   D(18,4,8,11)           65.7814         estimate D2E/DX2                !
 ! D53   D(18,4,8,24)          -51.5906         estimate D2E/DX2                !
 ! D54   D(18,4,8,25)         -172.1989         estimate D2E/DX2                !
 ! D55   D(19,4,8,11)         -176.9471         estimate D2E/DX2                !
 ! D56   D(19,4,8,24)           65.6809         estimate D2E/DX2                !
 ! D57   D(19,4,8,25)          -54.9275         estimate D2E/DX2                !
 ! D58   D(10,5,6,1)            60.6637         estimate D2E/DX2                !
 ! D59   D(20,5,6,1)          -177.8777         estimate D2E/DX2                !
 ! D60   D(21,5,6,1)           -61.3015         estimate D2E/DX2                !
 ! D61   D(6,5,10,13)          -54.6634         estimate D2E/DX2                !
 ! D62   D(6,5,10,28)         -176.0325         estimate D2E/DX2                !
 ! D63   D(6,5,10,29)           66.8823         estimate D2E/DX2                !
 ! D64   D(20,5,10,13)        -173.0546         estimate D2E/DX2                !
 ! D65   D(20,5,10,28)          65.5763         estimate D2E/DX2                !
 ! D66   D(20,5,10,29)         -51.5089         estimate D2E/DX2                !
 ! D67   D(21,5,10,13)          66.3076         estimate D2E/DX2                !
 ! D68   D(21,5,10,28)         -55.0616         estimate D2E/DX2                !
 ! D69   D(21,5,10,29)        -172.1467         estimate D2E/DX2                !
 ! D70   D(4,7,9,2)            -51.8183         estimate D2E/DX2                !
 ! D71   D(4,7,9,26)            65.2021         estimate D2E/DX2                !
 ! D72   D(4,7,9,27)          -177.2462         estimate D2E/DX2                !
 ! D73   D(22,7,9,2)            68.9355         estimate D2E/DX2                !
 ! D74   D(22,7,9,26)         -174.0441         estimate D2E/DX2                !
 ! D75   D(22,7,9,27)          -56.4924         estimate D2E/DX2                !
 ! D76   D(23,7,9,2)          -173.4665         estimate D2E/DX2                !
 ! D77   D(23,7,9,26)          -56.4461         estimate D2E/DX2                !
 ! D78   D(23,7,9,27)           61.1056         estimate D2E/DX2                !
 ! D79   D(4,8,11,2)            58.2937         estimate D2E/DX2                !
 ! D80   D(24,8,11,2)          179.392          estimate D2E/DX2                !
 ! D81   D(25,8,11,2)          -64.4844         estimate D2E/DX2                !
 ! D82   D(5,10,13,3)           50.6194         estimate D2E/DX2                !
 ! D83   D(5,10,13,30)         173.296          estimate D2E/DX2                !
 ! D84   D(5,10,13,31)         -68.4081         estimate D2E/DX2                !
 ! D85   D(28,10,13,3)         171.3588         estimate D2E/DX2                !
 ! D86   D(28,10,13,30)        -65.9646         estimate D2E/DX2                !
 ! D87   D(28,10,13,31)         52.3312         estimate D2E/DX2                !
 ! D88   D(29,10,13,3)         -70.2236         estimate D2E/DX2                !
 ! D89   D(29,10,13,30)         52.453          estimate D2E/DX2                !
 ! D90   D(29,10,13,31)        170.7489         estimate D2E/DX2                !
 --------------------------------------------------------------------------------
 Trust Radius=3.00D-01 FncErr=1.00D-07 GrdErr=1.00D-06 EigMax=2.50D+02 EigMin=1.00D-04
 Number of steps in this run=    186 maximum allowed number of steps=    186.
 GradGradGradGradGradGradGradGradGradGradGradGradGradGradGradGradGradGrad

                          Input orientation:                          
 ---------------------------------------------------------------------
 Center     Atomic      Atomic             Coordinates (Angstroms)
 Number     Number       Type             X           Y           Z
 ---------------------------------------------------------------------
      1          6           0       -1.791219    1.337642   -0.104789
      2          6           0        1.033891    0.452831    0.859066
      3          6           0       -0.885552    0.256898   -0.684261
      4          6           0        3.484146   -0.404012   -0.453250
      5          6           0       -3.553302   -0.173630    0.332391
      6          8           0       -2.684886    0.815602    0.854775
      7          6           0        2.585921    0.619166   -1.146839
      8          6           0        2.657286   -1.272881    0.477760
      9          6           0        1.772394    1.382718   -0.100503
     10          6           0       -2.767653   -1.359903   -0.203618
     11          8           0        1.921126   -0.483666    1.404168
     12          8           0       -0.025529   -0.289227    0.301722
     13          6           0       -1.731579   -0.891206   -1.227605
     14          1           0       -2.351965    1.797951   -0.915186
     15          1           0       -1.221066    2.109164    0.392887
     16          1           0        0.659127    1.013379    1.703877
     17          1           0       -0.304352    0.686592   -1.488288
     18          1           0        4.251564    0.108614    0.121921
     19          1           0        3.987391   -1.038148   -1.177567
     20          1           0       -4.206607   -0.464660    1.143601
     21          1           0       -4.160304    0.270132   -0.454042
     22          1           0        1.924818    0.109369   -1.842577
     23          1           0        3.179906    1.317581   -1.728274
     24          1           0        3.282564   -1.914797    1.082496
     25          1           0        1.974513   -1.898607   -0.085867
     26          1           0        2.446877    1.968268    0.518371
     27          1           0        1.087733    2.085096   -0.559334
     28          1           0       -3.454383   -2.067396   -0.659406
     29          1           0       -2.280578   -1.869210    0.622321
     30          1           0       -1.085268   -1.707772   -1.531992
     31          1           0       -2.241652   -0.532973   -2.118384
 ---------------------------------------------------------------------
                    Distance matrix (angstroms):
                    1          2          3          4          5
     1  C    0.000000
     2  C    3.113383   0.000000
     3  C    1.524476   2.470731   0.000000
     4  C    5.566351   2.908626   4.425430   0.000000
     5  C    2.362204   4.659633   2.887183   7.084912   0.000000
     6  O    1.411357   3.736432   2.432773   6.423032   1.416196
     7  C    4.556471   2.541676   3.520844   1.527994   6.364488
     8  C    5.190702   2.399768   4.030163   1.518358   6.308795
     9  C    3.563901   1.526712   2.944982   2.499386   5.565308
    10  C    2.870529   4.343620   2.527324   6.329379   1.520458
    11  O    4.401775   1.400482   3.575949   2.428864   5.586966
    12  O    2.435080   1.408422   1.417764   3.591793   3.529800
    13  C    2.496405   3.715973   1.526148   5.295354   2.503433
    14  H    1.087687   4.052325   2.139752   6.254776   2.624270
    15  H    1.080741   2.836475   2.168803   5.401020   3.264067
    16  H    3.062779   1.080911   2.943043   3.826608   4.586341
    17  H    2.132770   2.712123   1.081152   4.075959   3.822372
    18  H    6.170667   3.318929   5.202103   1.087445   7.812803
    19  H    6.339366   3.885107   5.066169   1.086287   7.738825
    20  H    3.262035   5.327811   3.858903   7.855017   1.081465
    21  H    2.621854   5.360718   3.282861   7.674118   1.088050
    22  H    4.282230   2.865413   3.043294   2.150650   5.900879
    23  H    5.229550   3.470951   4.329314   2.163823   7.197648
    24  H    6.142579   3.272937   5.021044   2.163706   7.093898
    25  H    4.965320   2.703133   3.631012   2.155870   5.805792
    26  H    4.329835   2.099798   3.934488   2.765445   6.373732
    27  H    3.008931   2.163110   2.692911   3.456835   5.237960
    28  H    3.829882   5.366741   3.464369   7.138104   2.140046
    29  H    3.324464   4.053841   2.858949   6.044477   2.139831
    30  H    3.436542   3.856968   2.149061   4.872681   3.452638
    31  H    2.785077   4.534997   2.125938   5.964400   2.802829
                    6          7          8          9         10
     6  O    0.000000
     7  C    5.641494   0.000000
     8  C    5.748278   2.494846   0.000000
     9  C    4.593639   1.529594   2.858256   0.000000
    10  C    2.420716   5.785079   5.468255   5.305151   0.000000
    11  O    4.817186   2.857591   1.422330   2.401988   5.033628
    12  O    2.932353   3.121406   2.862876   2.487913   2.986798
    13  C    2.856273   4.574774   4.723990   4.326536   1.530253
    14  H    2.051489   5.081920   6.038452   4.224508   3.263613
    15  H    2.007340   4.368524   5.146557   3.119609   3.844759
    16  H    3.455794   3.463311   3.274597   2.152106   4.584084
    17  H    3.342683   2.911153   4.059086   2.592954   3.450561
    18  H    7.010795   2.155176   2.139363   2.796265   7.178574
    19  H    7.217069   2.170657   2.136442   3.453530   6.832476
    20  H    2.009509   7.249775   6.943313   6.380365   2.164959
    21  H    2.046313   6.790681   7.051856   6.046465   2.158519
    22  H    5.387378   1.086739   2.798408   2.163209   5.183072
    23  H    6.428056   1.085665   3.442414   2.152898   6.698280
    24  H    6.566384   3.446188   1.081080   3.814932   6.210243
    25  H    5.473732   2.799761   1.084153   3.287577   4.774118
    26  H    5.270370   2.147634   3.248225   1.086647   6.228107
    27  H    4.224213   2.176851   3.849035   1.082876   5.182524
    28  H    3.346124   6.628761   6.267128   6.287675   1.086226
    29  H    2.725017   5.744976   4.975842   5.246341   1.085731
    30  H    3.823984   4.363555   4.270239   4.445956   2.171638
    31  H    3.294660   5.057350   5.593480   4.884084   2.151004
                   11         12         13         14         15
    11  O    0.000000
    12  O    2.245587   0.000000
    13  C    4.520461   2.368929   0.000000
    14  H    5.370706   3.354025   2.777418   0.000000
    15  H    4.197479   2.681399   3.448019   1.756941   0.000000
    16  H    1.980811   2.032628   4.235151   4.067151   2.540584
    17  H    3.832565   2.057693   2.143450   2.399226   2.530394
    18  H    2.725049   4.299317   6.214408   6.894639   5.833121
    19  H    3.352948   4.341970   5.721076   6.949801   6.284896
    20  H    6.133300   4.268601   3.454030   3.577389   4.012679
    21  H    6.403510   4.240333   2.801037   2.411841   3.569096
    22  H    3.300463   2.925876   3.840388   4.690654   4.346615
    23  H    3.826384   4.120380   5.408521   5.611904   4.949190
    24  H    2.001280   3.767700   5.614796   7.037269   6.078693
    25  H    2.055508   2.596247   4.006687   5.750715   5.148122
    26  H    2.659517   3.354998   5.355793   5.011285   3.672792
    27  H    3.338925   2.760105   4.153731   3.469958   2.497570
    28  H    5.971820   3.980288   2.162019   4.027612   4.851668
    29  H    4.492809   2.772071   2.163358   3.977071   4.123429
    30  H    4.376971   2.549083   1.084965   3.778236   4.276985
    31  H    5.453396   3.290521   1.087195   2.625464   3.785362
                   16         17         18         19         20
    16  H    0.000000
    17  H    3.350373   0.000000
    18  H    4.028249   4.866539   0.000000
    19  H    4.856833   4.635767   1.753146   0.000000
    20  H    5.116041   4.845597   8.538919   8.535708   0.000000
    21  H    5.332537   4.013910   8.433110   8.283720   1.759127
    22  H    3.872537   2.329787   3.045160   2.452191   6.844059
    23  H    4.269254   3.549055   2.456272   2.550445   8.123092
    24  H    3.980295   5.122706   2.440463   2.524516   7.628520
    25  H    3.662388   3.720654   3.042544   2.446196   6.463284
    26  H    2.348039   3.638493   2.621523   3.779937   7.111884
    27  H    2.540552   2.180979   3.792152   4.306377   6.118111
    28  H    5.656611   4.265465   8.045316   7.530461   2.526942
    29  H    4.256871   3.859050   6.843323   6.574017   2.440099
    30  H    4.573666   2.518873   5.875071   5.128926   4.294983
    31  H    5.041369   2.374340   6.898728   6.319914   3.808709
                   21         22         23         24         25
    21  H    0.000000
    22  H    6.243603   0.000000
    23  H    7.523264   1.745877   0.000000
    24  H    7.907664   3.807463   4.284768   0.000000
    25  H    6.517282   2.668420   3.807143   1.753947   0.000000
    26  H    6.890870   3.049939   2.451151   4.011833   3.942202
    27  H    5.554014   2.500184   2.516483   4.848921   4.108581
    28  H    2.450415   5.922331   7.524250   6.960170   5.461717
    29  H    3.044456   5.260784   6.745207   5.582328   4.313722
    30  H    3.811814   3.529743   5.232877   5.094739   3.389684
    31  H    2.663876   4.224706   5.741953   6.532383   4.875667
                   26         27         28         29         30
    26  H    0.000000
    27  H    1.738496   0.000000
    28  H    7.245593   6.155000   0.000000
    29  H    6.089817   5.327135   1.749263   0.000000
    30  H    5.494844   4.478152   2.550185   2.468986   0.000000
    31  H    5.932199   4.513283   2.440038   3.049346   1.749638
                   31
    31  H    0.000000
 Stoichiometry    C10H18O3
 Framework group  C1[X(C10H18O3)]
 Deg. of freedom    87
 Full point group                 C1      NOp   1
 Largest Abelian subgroup         C1      NOp   1
 Largest concise Abelian subgroup C1      NOp   1
                         Standard orientation:                         
 ---------------------------------------------------------------------
 Center     Atomic      Atomic             Coordinates (Angstroms)
 Number     Number       Type             X           Y           Z
 ---------------------------------------------------------------------
      1          6           0        1.791219    1.337642    0.104789
      2          6           0       -1.033891    0.452831   -0.859066
      3          6           0        0.885552    0.256898    0.684261
      4          6           0       -3.484146   -0.404012    0.453250
      5          6           0        3.553302   -0.173630   -0.332391
      6          8           0        2.684886    0.815602   -0.854775
      7          6           0       -2.585921    0.619166    1.146839
      8          6           0       -2.657286   -1.272881   -0.477760
      9          6           0       -1.772394    1.382718    0.100503
     10          6           0        2.767653   -1.359903    0.203618
     11          8           0       -1.921126   -0.483666   -1.404168
     12          8           0        0.025529   -0.289227   -0.301722
     13          6           0        1.731579   -0.891206    1.227605
     14          1           0        2.351965    1.797951    0.915186
     15          1           0        1.221066    2.109164   -0.392887
     16          1           0       -0.659127    1.013379   -1.703877
     17          1           0        0.304352    0.686592    1.488288
     18          1           0       -4.251564    0.108614   -0.121921
     19          1           0       -3.987391   -1.038148    1.177567
     20          1           0        4.206607   -0.464660   -1.143601
     21          1           0        4.160304    0.270132    0.454042
     22          1           0       -1.924818    0.109369    1.842577
     23          1           0       -3.179906    1.317581    1.728274
     24          1           0       -3.282564   -1.914797   -1.082496
     25          1           0       -1.974513   -1.898607    0.085867
     26          1           0       -2.446877    1.968268   -0.518371
     27          1           0       -1.087733    2.085096    0.559334
     28          1           0        3.454383   -2.067396    0.659406
     29          1           0        2.280578   -1.869210   -0.622321
     30          1           0        1.085268   -1.707772    1.531992
     31          1           0        2.241652   -0.532973    2.118384
 ---------------------------------------------------------------------
 Rotational constants (GHZ):           1.7698249           0.4494128           0.4356856
 Standard basis: 6-311++G(2d,2p) (5D, 7F)
 There are   557 symmetry adapted cartesian basis functions of A   symmetry.
 There are   531 symmetry adapted basis functions of A   symmetry.
   531 basis functions,   762 primitive gaussians,   557 cartesian basis functions
    51 alpha electrons       51 beta electrons
       nuclear repulsion energy       906.8603448173 Hartrees.
 NAtoms=   31 NActive=   31 NUniq=   31 SFac= 1.00D+00 NAtFMM=   60 NAOKFM=F Big=F
 Integral buffers will be    131072 words long.
 Raffenetti 2 integral format.
 Two-electron integral symmetry is turned on.
 ------------------------------------------------------------------------------
 Polarizable Continuum Model (PCM)
 =================================
 Model                : PCM.
 Atomic radii         : SMD-Coulomb.
 Polarization charges : Total charges.
 Charge compensation  : None.
 Solution method      : On-the-fly selection.
 Cavity type          : VdW (van der Waals Surface) (Alpha=1.000).
 Cavity algorithm     : GePol (No added spheres)
                        Default sphere list used, NSphG=   31.
                        Lebedev-Laikov grids with approx.  5.0 points / Ang**2.
                        Smoothing algorithm: York/Karplus (Gamma=1.0000).
                        Polarization charges: spherical gaussians, with
                                              point-specific exponents (IZeta= 3).
                        Self-potential: point-specific (ISelfS= 7).
                        Self-field    : sphere-specific E.n sum rule (ISelfD= 2).
 1st derivatives      : Analytical E(r).r(x)/FMM algorithm (CHGder, D1EAlg=3).
                        Cavity 1st derivative terms included.
 Solvent              : Water, Eps=  78.355300 Eps(inf)=   1.777849
 ------------------------------------------------------------------------------
 ------------------------------------------------------------------------------
 Atomic radii for non-electrostatic terms: SMD-CDS.
 ------------------------------------------------------------------------------
 Nuclear repulsion after PCM non-electrostatic terms =      906.8666493883 Hartrees.
 One-electron integrals computed using PRISM.
 NBasis=   531 RedAO= T EigKep=  4.39D-06  NBF=   531
 NBsUse=   531 1.00D-06 EigRej= -1.00D+00 NBFU=   531
 ExpMin= 3.60D-02 ExpMax= 8.59D+03 ExpMxC= 1.30D+03 IAcc=3 IRadAn=         5 AccDes= 0.00D+00
 Harris functional with IExCor= 1009 and IRadAn=       5 diagonalized for initial guess.
 HarFok:  IExCor= 1009 AccDes= 0.00D+00 IRadAn=         5 IDoV= 1 UseB2=F ITyADJ=14
 ICtDFT=  3500011 ScaDFX=  1.000000  1.000000  1.000000  1.000000
 FoFCou: FMM=F IPFlag=           0 FMFlag=      100000 FMFlg1=           0
         NFxFlg=           0 DoJE=T BraDBF=F KetDBF=T FulRan=T
         wScrn=  0.000000 ICntrl=       500 IOpCl=  0 I1Cent=   200000004 NGrid=           0
         NMat0=    1 NMatS0=      1 NMatT0=    0 NMatD0=    1 NMtDS0=    0 NMtDT0=    0
 Petite list used in FoFCou.
 Requested convergence on RMS density matrix=1.00D-08 within 128 cycles.
 Requested convergence on MAX density matrix=1.00D-06.
 Requested convergence on             energy=1.00D-06.
 No special actions if energy rises.
 Inv3:  Mode=1 IEnd=    12168588.
 Iteration    1 A*A^-1 deviation from unit magnitude is 6.22D-15 for    211.
 Iteration    1 A*A^-1 deviation from orthogonality  is 4.12D-15 for   1436    211.
 Iteration    1 A^-1*A deviation from unit magnitude is 6.00D-15 for    545.
 Iteration    1 A^-1*A deviation from orthogonality  is 3.10D-15 for   2007    586.
 Error on total polarization charges =  0.06106
 SCF Done:  E(RM062X) =  -617.501670643     A.U. after   12 cycles
            NFock= 12  Conv=0.57D-08     -V/T= 2.0035
 SMD-CDS (non-electrostatic) energy       (kcal/mol) =       3.96
 (included in total energy above)

 **********************************************************************

            Population analysis using the SCF Density.

 **********************************************************************

 Orbital symmetries:
       Occupied  (A) (A) (A) (A) (A) (A) (A) (A) (A) (A) (A) (A)
                 (A) (A) (A) (A) (A) (A) (A) (A) (A) (A) (A) (A)
                 (A) (A) (A) (A) (A) (A) (A) (A) (A) (A) (A) (A)
                 (A) (A) (A) (A) (A) (A) (A) (A) (A) (A) (A) (A)
                 (A) (A) (A)
       Virtual   (A) (A) (A) (A) (A) (A) (A) (A) (A) (A) (A) (A)
                 (A) (A) (A) (A) (A) (A) (A) (A) (A) (A) (A) (A)
                 (A) (A) (A) (A) (A) (A) (A) (A) (A) (A) (A) (A)
                 (A) (A) (A) (A) (A) (A) (A) (A) (A) (A) (A) (A)
                 (A) (A) (A) (A) (A) (A) (A) (A) (A) (A) (A) (A)
                 (A) (A) (A) (A) (A) (A) (A) (A) (A) (A) (A) (A)
                 (A) (A) (A) (A) (A) (A) (A) (A) (A) (A) (A) (A)
                 (A) (A) (A) (A) (A) (A) (A) (A) (A) (A) (A) (A)
                 (A) (A) (A) (A) (A) (A) (A) (A) (A) (A) (A) (A)
                 (A) (A) (A) (A) (A) (A) (A) (A) (A) (A) (A) (A)
                 (A) (A) (A) (A) (A) (A) (A) (A) (A) (A) (A) (A)
                 (A) (A) (A) (A) (A) (A) (A) (A) (A) (A) (A) (A)
                 (A) (A) (A) (A) (A) (A) (A) (A) (A) (A) (A) (A)
                 (A) (A) (A) (A) (A) (A) (A) (A) (A) (A) (A) (A)
                 (A) (A) (A) (A) (A) (A) (A) (A) (A) (A) (A) (A)
                 (A) (A) (A) (A) (A) (A) (A) (A) (A) (A) (A) (A)
                 (A) (A) (A) (A) (A) (A) (A) (A) (A) (A) (A) (A)
                 (A) (A) (A) (A) (A) (A) (A) (A) (A) (A) (A) (A)
                 (A) (A) (A) (A) (A) (A) (A) (A) (A) (A) (A) (A)
                 (A) (A) (A) (A) (A) (A) (A) (A) (A) (A) (A) (A)
                 (A) (A) (A) (A) (A) (A) (A) (A) (A) (A) (A) (A)
                 (A) (A) (A) (A) (A) (A) (A) (A) (A) (A) (A) (A)
                 (A) (A) (A) (A) (A) (A) (A) (A) (A) (A) (A) (A)
                 (A) (A) (A) (A) (A) (A) (A) (A) (A) (A) (A) (A)
                 (A) (A) (A) (A) (A) (A) (A) (A) (A) (A) (A) (A)
                 (A) (A) (A) (A) (A) (A) (A) (A) (A) (A) (A) (A)
                 (A) (A) (A) (A) (A) (A) (A) (A) (A) (A) (A) (A)
                 (A) (A) (A) (A) (A) (A) (A) (A) (A) (A) (A) (A)
                 (A) (A) (A) (A) (A) (A) (A) (A) (A) (A) (A) (A)
                 (A) (A) (A) (A) (A) (A) (A) (A) (A) (A) (A) (A)
                 (A) (A) (A) (A) (A) (A) (A) (A) (A) (A) (A) (A)
                 (A) (A) (A) (A) (A) (A) (A) (A) (A) (A) (A) (A)
                 (A) (A) (A) (A) (A) (A) (A) (A) (A) (A) (A) (A)
                 (A) (A) (A) (A) (A) (A) (A) (A) (A) (A) (A) (A)
                 (A) (A) (A) (A) (A) (A) (A) (A) (A) (A) (A) (A)
                 (A) (A) (A) (A) (A) (A) (A) (A) (A) (A) (A) (A)
                 (A) (A) (A) (A) (A) (A) (A) (A) (A) (A) (A) (A)
                 (A) (A) (A) (A) (A) (A) (A) (A) (A) (A) (A) (A)
                 (A) (A) (A) (A) (A) (A) (A) (A) (A) (A) (A) (A)
                 (A) (A) (A) (A) (A) (A) (A) (A) (A) (A) (A) (A)
 The electronic state is 1-A.
 Alpha  occ. eigenvalues --  -19.62994 -19.62738 -19.62682 -10.63230 -10.58288
 Alpha  occ. eigenvalues --  -10.57245 -10.57113 -10.57107 -10.52521 -10.52408
 Alpha  occ. eigenvalues --  -10.52369 -10.52145 -10.52090  -1.20098  -1.16599
 Alpha  occ. eigenvalues --   -1.13313  -0.89945  -0.89523  -0.86629  -0.84746
 Alpha  occ. eigenvalues --   -0.74712  -0.73758  -0.72732  -0.70797  -0.66119
 Alpha  occ. eigenvalues --   -0.61502  -0.59635  -0.58461  -0.57387  -0.55586
 Alpha  occ. eigenvalues --   -0.54536  -0.53213  -0.51555  -0.50049  -0.49488
 Alpha  occ. eigenvalues --   -0.47831  -0.47068  -0.45747  -0.45439  -0.44843
 Alpha  occ. eigenvalues --   -0.43409  -0.42440  -0.40114  -0.39131  -0.38846
 Alpha  occ. eigenvalues --   -0.37743  -0.37286  -0.36672  -0.34885  -0.32743
 Alpha  occ. eigenvalues --   -0.31302
 Alpha virt. eigenvalues --    0.00308   0.01302   0.01475   0.01501   0.02723
 Alpha virt. eigenvalues --    0.02961   0.03163   0.03782   0.03941   0.05058
 Alpha virt. eigenvalues --    0.05132   0.05320   0.05936   0.06443   0.07606
 Alpha virt. eigenvalues --    0.07944   0.08297   0.08924   0.09172   0.09826
 Alpha virt. eigenvalues --    0.10547   0.11283   0.11686   0.12061   0.12730
 Alpha virt. eigenvalues --    0.12991   0.13045   0.13564   0.13698   0.13952
 Alpha virt. eigenvalues --    0.14400   0.14666   0.15010   0.15110   0.15201
 Alpha virt. eigenvalues --    0.15307   0.15844   0.16164   0.16328   0.16739
 Alpha virt. eigenvalues --    0.16833   0.17454   0.17842   0.18107   0.18296
 Alpha virt. eigenvalues --    0.18477   0.18718   0.19209   0.19833   0.20346
 Alpha virt. eigenvalues --    0.20386   0.20643   0.21105   0.21533   0.21842
 Alpha virt. eigenvalues --    0.22678   0.22983   0.23336   0.24037   0.24595
 Alpha virt. eigenvalues --    0.25546   0.26076   0.26721   0.27576   0.28088
 Alpha virt. eigenvalues --    0.28275   0.28504   0.29055   0.29951   0.30149
 Alpha virt. eigenvalues --    0.31206   0.31469   0.31798   0.31910   0.32706
 Alpha virt. eigenvalues --    0.33168   0.33418   0.34255   0.34621   0.34898
 Alpha virt. eigenvalues --    0.35461   0.35814   0.36045   0.36350   0.36681
 Alpha virt. eigenvalues --    0.36795   0.37259   0.37882   0.38447   0.39071
 Alpha virt. eigenvalues --    0.39166   0.39591   0.39925   0.40637   0.40897
 Alpha virt. eigenvalues --    0.41264   0.41964   0.43726   0.44418   0.45796
 Alpha virt. eigenvalues --    0.47565   0.49275   0.49630   0.50833   0.51250
 Alpha virt. eigenvalues --    0.51833   0.53061   0.53224   0.54578   0.55865
 Alpha virt. eigenvalues --    0.57507   0.57857   0.58815   0.59891   0.60157
 Alpha virt. eigenvalues --    0.61119   0.61458   0.61769   0.62001   0.62406
 Alpha virt. eigenvalues --    0.62830   0.63757   0.64206   0.64747   0.64834
 Alpha virt. eigenvalues --    0.65399   0.66521   0.67067   0.67308   0.67869
 Alpha virt. eigenvalues --    0.67994   0.69339   0.69689   0.69918   0.70539
 Alpha virt. eigenvalues --    0.71205   0.71639   0.72066   0.73014   0.73738
 Alpha virt. eigenvalues --    0.73888   0.74162   0.75968   0.76495   0.77183
 Alpha virt. eigenvalues --    0.77415   0.78083   0.78634   0.79042   0.80442
 Alpha virt. eigenvalues --    0.81583   0.83170   0.83460   0.85173   0.86139
 Alpha virt. eigenvalues --    0.87387   0.87970   0.88802   0.89531   0.91171
 Alpha virt. eigenvalues --    0.92239   0.93551   0.94519   0.94960   0.96613
 Alpha virt. eigenvalues --    0.97476   1.00089   1.01012   1.01347   1.02346
 Alpha virt. eigenvalues --    1.02722   1.03412   1.04703   1.06985   1.08035
 Alpha virt. eigenvalues --    1.08341   1.09096   1.10135   1.11318   1.12767
 Alpha virt. eigenvalues --    1.13788   1.14217   1.15848   1.16969   1.18209
 Alpha virt. eigenvalues --    1.18282   1.19933   1.20061   1.21176   1.21809
 Alpha virt. eigenvalues --    1.22103   1.23320   1.23574   1.24407   1.25600
 Alpha virt. eigenvalues --    1.26504   1.26607   1.27250   1.27650   1.27940
 Alpha virt. eigenvalues --    1.29158   1.29824   1.29993   1.32435   1.33144
 Alpha virt. eigenvalues --    1.33193   1.34038   1.34606   1.35741   1.36055
 Alpha virt. eigenvalues --    1.36793   1.37070   1.37384   1.38388   1.38964
 Alpha virt. eigenvalues --    1.40281   1.40422   1.41294   1.41677   1.42435
 Alpha virt. eigenvalues --    1.42820   1.43869   1.45072   1.45285   1.45715
 Alpha virt. eigenvalues --    1.46570   1.47181   1.47826   1.48184   1.49485
 Alpha virt. eigenvalues --    1.49986   1.50618   1.51902   1.52187   1.52605
 Alpha virt. eigenvalues --    1.53450   1.54302   1.54939   1.55415   1.55828
 Alpha virt. eigenvalues --    1.57369   1.58153   1.58942   1.59171   1.59984
 Alpha virt. eigenvalues --    1.60437   1.61180   1.61781   1.62311   1.63234
 Alpha virt. eigenvalues --    1.63826   1.64758   1.65920   1.67024   1.68233
 Alpha virt. eigenvalues --    1.68870   1.70159   1.70707   1.71549   1.72791
 Alpha virt. eigenvalues --    1.74112   1.75324   1.76594   1.78050   1.78305
 Alpha virt. eigenvalues --    1.79287   1.79651   1.82008   1.83723   1.84755
 Alpha virt. eigenvalues --    1.86193   1.91127   1.93779   1.97666   2.01667
 Alpha virt. eigenvalues --    2.03996   2.07574   2.14073   2.18849   2.22772
 Alpha virt. eigenvalues --    2.25418   2.27259   2.28784   2.30427   2.37700
 Alpha virt. eigenvalues --    2.41743   2.42511   2.44578   2.49173   2.52211
 Alpha virt. eigenvalues --    2.58104   2.76669   2.78438   2.79626   2.82836
 Alpha virt. eigenvalues --    2.83966   2.86656   2.93375   2.93665   2.95101
 Alpha virt. eigenvalues --    2.96729   2.98669   3.00343   3.03481   3.04086
 Alpha virt. eigenvalues --    3.07123   3.07850   3.09941   3.10789   3.13182
 Alpha virt. eigenvalues --    3.14371   3.15218   3.17795   3.19466   3.23286
 Alpha virt. eigenvalues --    3.26207   3.29129   3.32870   3.33158   3.34193
 Alpha virt. eigenvalues --    3.36191   3.37862   3.39342   3.40700   3.41732
 Alpha virt. eigenvalues --    3.43967   3.44539   3.45815   3.46255   3.48967
 Alpha virt. eigenvalues --    3.49304   3.49808   3.50134   3.50978   3.52686
 Alpha virt. eigenvalues --    3.53847   3.54756   3.55270   3.56577   3.57517
 Alpha virt. eigenvalues --    3.58296   3.58656   3.59167   3.60353   3.60930
 Alpha virt. eigenvalues --    3.61540   3.62947   3.64224   3.64662   3.66786
 Alpha virt. eigenvalues --    3.67102   3.67849   3.68493   3.69116   3.69903
 Alpha virt. eigenvalues --    3.70869   3.72147   3.73243   3.74407   3.74759
 Alpha virt. eigenvalues --    3.75924   3.76507   3.77966   3.78131   3.78618
 Alpha virt. eigenvalues --    3.79334   3.80419   3.81961   3.82342   3.84416
 Alpha virt. eigenvalues --    3.87615   3.89355   3.90573   3.91086   3.93191
 Alpha virt. eigenvalues --    3.94167   3.95349   3.96428   3.97467   3.97659
 Alpha virt. eigenvalues --    4.00415   4.01535   4.02461   4.03988   4.05144
 Alpha virt. eigenvalues --    4.06170   4.06349   4.07228   4.07904   4.08233
 Alpha virt. eigenvalues --    4.09609   4.10416   4.10531   4.11265   4.11680
 Alpha virt. eigenvalues --    4.12568   4.13264   4.14515   4.15871   4.17160
 Alpha virt. eigenvalues --    4.17720   4.18169   4.19807   4.21260   4.21534
 Alpha virt. eigenvalues --    4.22273   4.25426   4.26276   4.27444   4.28058
 Alpha virt. eigenvalues --    4.29230   4.30194   4.30424   4.32205   4.33414
 Alpha virt. eigenvalues --    4.34247   4.35549   4.36006   4.37175   4.38205
 Alpha virt. eigenvalues --    4.43312   4.43872   4.46184   4.48714   4.50994
 Alpha virt. eigenvalues --    4.59317   4.59803   4.75416   4.76650   4.82510
 Alpha virt. eigenvalues --    4.86281   4.94399   4.96211   5.00055   5.05054
 Alpha virt. eigenvalues --    5.07865   5.08018   5.09157   5.09803   5.12353
 Alpha virt. eigenvalues --    5.13274   5.14523   5.15322   5.32106   5.34702
 Alpha virt. eigenvalues --    5.44447   5.58947   5.59531   5.63662   5.87196
 Alpha virt. eigenvalues --    5.87608   6.01636   7.01968   7.05739   7.07695
 Alpha virt. eigenvalues --    7.08878   7.10468   7.11638   7.14290   7.16638
 Alpha virt. eigenvalues --    7.22702   7.36636   7.40418   7.49730   7.53613
 Alpha virt. eigenvalues --    7.56649   7.62424  23.96506  23.98087  24.07164
 Alpha virt. eigenvalues --   24.08638  24.11407  24.13176  24.14128  24.16229
 Alpha virt. eigenvalues --   24.19317  24.20781  50.16780  50.17958  50.25918
          Condensed to atoms (all electrons):
               1          2          3          4          5          6
     1  C    6.269774  -0.069716  -0.504183  -0.005135  -0.317978   0.170643
     2  C   -0.069716   7.406717  -0.697691   0.131211   0.053724  -0.042365
     3  C   -0.504183  -0.697691   7.778837   0.044412   0.284691  -0.042870
     4  C   -0.005135   0.131211   0.044412   5.944083  -0.001931   0.000944
     5  C   -0.317978   0.053724   0.284691  -0.001931   5.485005   0.053468
     6  O    0.170643  -0.042365  -0.042870   0.000944   0.053468   8.333861
     7  C   -0.058534   0.158533  -0.103183  -0.045929   0.002613   0.003040
     8  C   -0.011908  -0.438185   0.067658  -0.092647  -0.000620   0.000524
     9  C    0.129103  -1.410849   0.382515  -0.108978  -0.020366   0.004207
    10  C    0.137535  -0.010142  -0.395940  -0.002521   0.032431   0.014467
    11  O    0.022099   0.130178  -0.068674  -0.090832  -0.003659   0.000883
    12  O   -0.045811   0.145607   0.042938  -0.027294  -0.013479   0.037107
    13  C   -0.064437   0.325826  -1.150322   0.021489  -0.127274   0.033073
    14  H    0.470403  -0.011149  -0.083811  -0.000569  -0.009189  -0.045240
    15  H    0.404873   0.017458  -0.038266   0.002548   0.013862  -0.076166
    16  H   -0.031091   0.538590   0.008405   0.005210  -0.000670  -0.001469
    17  H    0.001923  -0.038478   0.392972   0.012120  -0.026824   0.012404
    18  H    0.000787   0.025097  -0.004969   0.464811   0.000055  -0.000020
    19  H   -0.001723   0.011576  -0.000328   0.438421  -0.000058   0.000004
    20  H   -0.000465   0.001245   0.013687  -0.000313   0.443102  -0.066990
    21  H   -0.020176  -0.003793   0.020514   0.000338   0.460981  -0.054478
    22  H   -0.005938  -0.009546   0.001268  -0.108546   0.003148  -0.000267
    23  H   -0.000431   0.008841   0.001175  -0.009944  -0.000291   0.000078
    24  H    0.001282   0.001172  -0.003357  -0.023784  -0.000385   0.000066
    25  H   -0.008126   0.002156   0.021105  -0.122155   0.003980  -0.000499
    26  H    0.002572  -0.101500  -0.001561  -0.032529  -0.000256   0.000085
    27  H    0.012487  -0.060859  -0.004119  -0.022698   0.000501   0.000165
    28  H   -0.009800   0.008597  -0.031128  -0.000350  -0.020612   0.010974
    29  H    0.017845  -0.010578  -0.016815   0.001129  -0.089078  -0.010024
    30  H    0.009697  -0.014704   0.002205   0.010023  -0.012483  -0.001859
    31  H   -0.003101  -0.002388  -0.062411  -0.001690  -0.009322   0.001002
               7          8          9         10         11         12
     1  C   -0.058534  -0.011908   0.129103   0.137535   0.022099  -0.045811
     2  C    0.158533  -0.438185  -1.410849  -0.010142   0.130178   0.145607
     3  C   -0.103183   0.067658   0.382515  -0.395940  -0.068674   0.042938
     4  C   -0.045929  -0.092647  -0.108978  -0.002521  -0.090832  -0.027294
     5  C    0.002613  -0.000620  -0.020366   0.032431  -0.003659  -0.013479
     6  O    0.003040   0.000524   0.004207   0.014467   0.000883   0.037107
     7  C    5.791612  -0.002520  -0.453077  -0.011839  -0.001595  -0.002127
     8  C   -0.002520   5.502315   0.259556   0.016294   0.155303   0.003233
     9  C   -0.453077   0.259556   7.017685   0.020765   0.029275   0.051524
    10  C   -0.011839   0.016294   0.020765   5.602946   0.009590  -0.009493
    11  O   -0.001595   0.155303   0.029275   0.009590   8.281052   0.020136
    12  O   -0.002127   0.003233   0.051524  -0.009493   0.020136   8.318690
    13  C    0.116896  -0.045483  -0.315991   0.061506  -0.003591  -0.064200
    14  H    0.005717   0.001430  -0.003888   0.027885   0.000758   0.013653
    15  H   -0.016172   0.003281   0.019369   0.003989   0.002442  -0.009414
    16  H   -0.013125  -0.017787  -0.089604   0.003805  -0.068682  -0.053774
    17  H    0.019137  -0.023424   0.001275  -0.028143  -0.001862  -0.026112
    18  H    0.001805  -0.065838  -0.047946  -0.000438  -0.007575   0.000106
    19  H   -0.046347  -0.042043  -0.000585   0.000065   0.009749  -0.000733
    20  H   -0.000004   0.000429   0.000598  -0.060690  -0.000039   0.000354
    21  H    0.000175  -0.000421  -0.000368  -0.018135   0.000024   0.001840
    22  H    0.534410   0.012316  -0.048808  -0.001942  -0.000070   0.003174
    23  H    0.412212   0.006218  -0.042760   0.000438  -0.000764   0.000148
    24  H   -0.001257   0.434695   0.012008   0.001924  -0.068323  -0.000991
    25  H    0.011526   0.495249   0.007033  -0.004958  -0.038391  -0.009935
    26  H   -0.000118   0.018601   0.478714   0.001008  -0.006630   0.005578
    27  H   -0.033280   0.008889   0.461488   0.000807   0.004596  -0.000791
    28  H    0.000914  -0.000088  -0.002871   0.439399   0.000156   0.001094
    29  H    0.000611  -0.000329  -0.000918   0.504939   0.000407   0.001952
    30  H   -0.003293  -0.002563   0.004001  -0.012591   0.002030   0.004054
    31  H   -0.000930   0.001324   0.003509  -0.026378  -0.000547   0.004892
              13         14         15         16         17         18
     1  C   -0.064437   0.470403   0.404873  -0.031091   0.001923   0.000787
     2  C    0.325826  -0.011149   0.017458   0.538590  -0.038478   0.025097
     3  C   -1.150322  -0.083811  -0.038266   0.008405   0.392972  -0.004969
     4  C    0.021489  -0.000569   0.002548   0.005210   0.012120   0.464811
     5  C   -0.127274  -0.009189   0.013862  -0.000670  -0.026824   0.000055
     6  O    0.033073  -0.045240  -0.076166  -0.001469   0.012404  -0.000020
     7  C    0.116896   0.005717  -0.016172  -0.013125   0.019137   0.001805
     8  C   -0.045483   0.001430   0.003281  -0.017787  -0.023424  -0.065838
     9  C   -0.315991  -0.003888   0.019369  -0.089604   0.001275  -0.047946
    10  C    0.061506   0.027885   0.003989   0.003805  -0.028143  -0.000438
    11  O   -0.003591   0.000758   0.002442  -0.068682  -0.001862  -0.007575
    12  O   -0.064200   0.013653  -0.009414  -0.053774  -0.026112   0.000106
    13  C    6.913486  -0.011349   0.012134   0.002817   0.024739   0.000083
    14  H   -0.011349   0.465923  -0.007817  -0.000813  -0.011215  -0.000036
    15  H    0.012134  -0.007817   0.475989  -0.016070  -0.006344  -0.000367
    16  H    0.002817  -0.000813  -0.016070   0.438916   0.001493   0.001105
    17  H    0.024739  -0.011215  -0.006344   0.001493   0.488549   0.000337
    18  H    0.000083  -0.000036  -0.000367   0.001105   0.000337   0.466367
    19  H    0.002465   0.000002  -0.000076   0.001457   0.002179  -0.005442
    20  H    0.008189  -0.001600   0.000673   0.000194  -0.000674  -0.000001
    21  H   -0.029569   0.005920  -0.000700   0.000173   0.003725  -0.000003
    22  H   -0.001177   0.001549  -0.002049  -0.000726  -0.011420   0.001569
    23  H    0.000088  -0.000389   0.000621   0.000948   0.000779  -0.001201
    24  H    0.000620   0.000048   0.000252   0.000526  -0.001581  -0.003680
    25  H   -0.016832  -0.000331   0.000170   0.000374   0.004336   0.001353
    26  H    0.001498   0.000693  -0.000767  -0.006684  -0.001453  -0.000868
    27  H   -0.012607  -0.002650  -0.001293  -0.007855  -0.025577  -0.000800
    28  H   -0.019591   0.000133   0.001461   0.000262  -0.000759  -0.000004
    29  H   -0.022366   0.000422  -0.001431  -0.000619   0.000867  -0.000040
    30  H    0.392437  -0.001608   0.001114  -0.000406  -0.005581  -0.000002
    31  H    0.477783  -0.002651  -0.001569  -0.000468  -0.010677   0.000016
              19         20         21         22         23         24
     1  C   -0.001723  -0.000465  -0.020176  -0.005938  -0.000431   0.001282
     2  C    0.011576   0.001245  -0.003793  -0.009546   0.008841   0.001172
     3  C   -0.000328   0.013687   0.020514   0.001268   0.001175  -0.003357
     4  C    0.438421  -0.000313   0.000338  -0.108546  -0.009944  -0.023784
     5  C   -0.000058   0.443102   0.460981   0.003148  -0.000291  -0.000385
     6  O    0.000004  -0.066990  -0.054478  -0.000267   0.000078   0.000066
     7  C   -0.046347  -0.000004   0.000175   0.534410   0.412212  -0.001257
     8  C   -0.042043   0.000429  -0.000421   0.012316   0.006218   0.434695
     9  C   -0.000585   0.000598  -0.000368  -0.048808  -0.042760   0.012008
    10  C    0.000065  -0.060690  -0.018135  -0.001942   0.000438   0.001924
    11  O    0.009749  -0.000039   0.000024  -0.000070  -0.000764  -0.068323
    12  O   -0.000733   0.000354   0.001840   0.003174   0.000148  -0.000991
    13  C    0.002465   0.008189  -0.029569  -0.001177   0.000088   0.000620
    14  H    0.000002  -0.001600   0.005920   0.001549  -0.000389   0.000048
    15  H   -0.000076   0.000673  -0.000700  -0.002049   0.000621   0.000252
    16  H    0.001457   0.000194   0.000173  -0.000726   0.000948   0.000526
    17  H    0.002179  -0.000674   0.003725  -0.011420   0.000779  -0.001581
    18  H   -0.005442  -0.000001  -0.000003   0.001569  -0.001201  -0.003680
    19  H    0.478867  -0.000005   0.000014  -0.005628  -0.008324  -0.011778
    20  H   -0.000005   0.465817  -0.004411   0.000226  -0.000013  -0.000005
    21  H    0.000014  -0.004411   0.481069  -0.000500   0.000048  -0.000008
    22  H   -0.005628   0.000226  -0.000500   0.479162  -0.010580  -0.002585
    23  H   -0.008324  -0.000013   0.000048  -0.010580   0.465621   0.001037
    24  H   -0.011778  -0.000005  -0.000008  -0.002585   0.001037   0.453587
    25  H    0.004255   0.000185  -0.000042   0.000674  -0.000697  -0.015361
    26  H   -0.002098   0.000029  -0.000062   0.004263  -0.005229  -0.000089
    27  H   -0.000141   0.000395  -0.000935   0.003558  -0.007871   0.001042
    28  H   -0.000009  -0.008195   0.003046   0.000433   0.000006   0.000051
    29  H    0.000070  -0.002767   0.000090  -0.000492  -0.000002  -0.000011
    30  H    0.000076  -0.000213   0.000659  -0.005041   0.000291   0.000499
    31  H   -0.000135  -0.001187  -0.004585   0.001123  -0.000160  -0.000013
              25         26         27         28         29         30
     1  C   -0.008126   0.002572   0.012487  -0.009800   0.017845   0.009697
     2  C    0.002156  -0.101500  -0.060859   0.008597  -0.010578  -0.014704
     3  C    0.021105  -0.001561  -0.004119  -0.031128  -0.016815   0.002205
     4  C   -0.122155  -0.032529  -0.022698  -0.000350   0.001129   0.010023
     5  C    0.003980  -0.000256   0.000501  -0.020612  -0.089078  -0.012483
     6  O   -0.000499   0.000085   0.000165   0.010974  -0.010024  -0.001859
     7  C    0.011526  -0.000118  -0.033280   0.000914   0.000611  -0.003293
     8  C    0.495249   0.018601   0.008889  -0.000088  -0.000329  -0.002563
     9  C    0.007033   0.478714   0.461488  -0.002871  -0.000918   0.004001
    10  C   -0.004958   0.001008   0.000807   0.439399   0.504939  -0.012591
    11  O   -0.038391  -0.006630   0.004596   0.000156   0.000407   0.002030
    12  O   -0.009935   0.005578  -0.000791   0.001094   0.001952   0.004054
    13  C   -0.016832   0.001498  -0.012607  -0.019591  -0.022366   0.392437
    14  H   -0.000331   0.000693  -0.002650   0.000133   0.000422  -0.001608
    15  H    0.000170  -0.000767  -0.001293   0.001461  -0.001431   0.001114
    16  H    0.000374  -0.006684  -0.007855   0.000262  -0.000619  -0.000406
    17  H    0.004336  -0.001453  -0.025577  -0.000759   0.000867  -0.005581
    18  H    0.001353  -0.000868  -0.000800  -0.000004  -0.000040  -0.000002
    19  H    0.004255  -0.002098  -0.000141  -0.000009   0.000070   0.000076
    20  H    0.000185   0.000029   0.000395  -0.008195  -0.002767  -0.000213
    21  H   -0.000042  -0.000062  -0.000935   0.003046   0.000090   0.000659
    22  H    0.000674   0.004263   0.003558   0.000433  -0.000492  -0.005041
    23  H   -0.000697  -0.005229  -0.007871   0.000006  -0.000002   0.000291
    24  H   -0.015361  -0.000089   0.001042   0.000051  -0.000011   0.000499
    25  H    0.504461   0.000152  -0.000765   0.000078  -0.001407  -0.007754
    26  H    0.000152   0.423890  -0.001973   0.000049  -0.000153   0.000090
    27  H   -0.000765  -0.001973   0.487970  -0.000057  -0.000072  -0.001987
    28  H    0.000078   0.000049  -0.000057   0.474160  -0.014131  -0.010299
    29  H   -0.001407  -0.000153  -0.000072  -0.014131   0.465640   0.000202
    30  H   -0.007754   0.000090  -0.001987  -0.010299   0.000202   0.475334
    31  H    0.000329  -0.000127   0.001966  -0.008432   0.003015  -0.000754
              31
     1  C   -0.003101
     2  C   -0.002388
     3  C   -0.062411
     4  C   -0.001690
     5  C   -0.009322
     6  O    0.001002
     7  C   -0.000930
     8  C    0.001324
     9  C    0.003509
    10  C   -0.026378
    11  O   -0.000547
    12  O    0.004892
    13  C    0.477783
    14  H   -0.002651
    15  H   -0.001569
    16  H   -0.000468
    17  H   -0.010677
    18  H    0.000016
    19  H   -0.000135
    20  H   -0.001187
    21  H   -0.004585
    22  H    0.001123
    23  H   -0.000160
    24  H   -0.000013
    25  H    0.000329
    26  H   -0.000127
    27  H    0.001966
    28  H   -0.008432
    29  H    0.003015
    30  H   -0.000754
    31  H    0.423788
 Mulliken charges:
               1
     1  C   -0.492470
     2  C   -0.044584
     3  C    0.147244
     4  C   -0.378893
     5  C   -0.183086
     6  O   -0.334749
     7  C   -0.265871
     8  C   -0.243459
     9  C   -0.335613
    10  C   -0.296584
    11  O   -0.307446
    12  O   -0.391926
    13  C   -0.510342
    14  H    0.199769
    15  H    0.218267
    16  H    0.305567
    17  H    0.253287
    18  H    0.175738
    19  H    0.176253
    20  H    0.212449
    21  H    0.159568
    22  H    0.168442
    23  H    0.190107
    24  H    0.224397
    25  H    0.169837
    26  H    0.224874
    27  H    0.202468
    28  H    0.185512
    29  H    0.174042
    30  H    0.178424
    31  H    0.218780
 Sum of Mulliken charges =  -0.00000
 Mulliken charges with hydrogens summed into heavy atoms:
               1
     1  C   -0.074434
     2  C    0.260982
     3  C    0.400531
     4  C   -0.026902
     5  C    0.188931
     6  O   -0.334749
     7  C    0.092678
     8  C    0.150776
     9  C    0.091729
    10  C    0.062970
    11  O   -0.307446
    12  O   -0.391926
    13  C   -0.113139
 Electronic spatial extent (au):  <R**2>=           2820.7363
 Charge=             -0.0000 electrons
 Dipole moment (field-independent basis, Debye):
    X=             -0.3855    Y=              1.1865    Z=              5.1479  Tot=              5.2969
 Quadrupole moment (field-independent basis, Debye-Ang):
   XX=            -72.0853   YY=            -76.3038   ZZ=            -84.1971
   XY=             -3.5314   XZ=              1.9987   YZ=             -0.0153
 Traceless Quadrupole moment (field-independent basis, Debye-Ang):
   XX=              5.4434   YY=              1.2249   ZZ=             -6.6684
   XY=             -3.5314   XZ=              1.9987   YZ=             -0.0153
 Octapole moment (field-independent basis, Debye-Ang**2):
  XXX=              4.2606  YYY=              1.8101  ZZZ=              4.9139  XYY=             -5.8327
  XXY=            -18.8288  XXZ=             19.1276  XZZ=              5.2252  YZZ=              1.7501
  YYZ=              0.1111  XYZ=              7.5097
 Hexadecapole moment (field-independent basis, Debye-Ang**3):
 XXXX=          -2622.1940 YYYY=           -543.9299 ZZZZ=           -445.1300 XXXY=            -22.6275
 XXXZ=             16.5920 YYYX=             12.8798 YYYZ=              0.7956 ZZZX=             -6.3368
 ZZZY=             -2.3092 XXYY=           -535.3659 XXZZ=           -548.6942 YYZZ=           -161.1854
 XXYZ=             21.5064 YYXZ=             11.8367 ZZXY=             -6.6609
 N-N= 9.068666493883D+02 E-N=-3.255986184901D+03  KE= 6.153442449569D+02
 D1PCM: PCM CHGder 1st derivatives, ID1Alg=3 FixD1E=F DoIter=F DoCFld=F I1PDM=0.
 Calling FoFJK, ICntrl=      2127 FMM=F ISym2X=0 I1Cent= 0 IOpClX= 0 NMat=1 NMatS=1 NMatT=0.
 ***** Axes restored to original set *****
 -------------------------------------------------------------------
 Center     Atomic                   Forces (Hartrees/Bohr)
 Number     Number              X              Y              Z
 -------------------------------------------------------------------
      1        6           0.001493103   -0.004936350   -0.004039049
      2        6           0.005317160    0.007314238   -0.010494637
      3        6          -0.004535831    0.002288093    0.002589431
      4        6          -0.003078837   -0.000447223   -0.000496763
      5        6           0.003977102   -0.004439536   -0.004036590
      6        8           0.000470215    0.003101596    0.011969641
      7        6          -0.000436475   -0.000601987    0.004478074
      8        6           0.001981046    0.005108140   -0.005435599
      9        6          -0.000506488   -0.003538546   -0.001406815
     10        6          -0.000031454    0.002820490   -0.001671637
     11        8           0.000171204   -0.001926989    0.015119536
     12        8          -0.001483143   -0.014295541   -0.001801616
     13        6          -0.001367233    0.001955972    0.003462657
     14        1          -0.002411588    0.001988776   -0.004912189
     15        1           0.004167119    0.003545002    0.002583312
     16        1          -0.001891730    0.004142444    0.005788874
     17        1           0.003764125    0.003101438   -0.005318279
     18        1           0.001760310    0.001840821    0.002245715
     19        1           0.001121207   -0.001628575   -0.001898089
     20        1          -0.002578912   -0.001418038    0.003370966
     21        1          -0.002669337    0.001767690   -0.004803768
     22        1          -0.003326457   -0.002372444   -0.001913549
     23        1           0.001400420    0.001731124   -0.001279377
     24        1           0.002683136   -0.002640321    0.002439511
     25        1          -0.003681792   -0.003032081   -0.003960301
     26        1           0.002210042    0.001447071    0.002340796
     27        1          -0.003745785    0.002304412   -0.001769565
     28        1          -0.001653956   -0.001717945   -0.001252389
     29        1           0.002032993   -0.000942817    0.003020700
     30        1           0.002519654   -0.002235691   -0.000554484
     31        1          -0.001669818    0.001716777   -0.002364519
 -------------------------------------------------------------------
 Cartesian Forces:  Max     0.015119536 RMS     0.003964555

 GradGradGradGradGradGradGradGradGradGradGradGradGradGradGradGradGradGrad
 Berny optimization.
 FormGI is forming the generalized inverse of G from B-inverse, IUseBI=4.
 Internal  Forces:  Max     0.016779692 RMS     0.002475441
 Search for a local minimum.
 Step number   1 out of a maximum of  186
 All quantities printed in internal units (Hartrees-Bohrs-Radians)
 Mixed Optimization -- RFO/linear search
 Second derivative matrix not updated -- first step.
 ITU=  0
     Eigenvalues ---    0.00611   0.00612   0.00716   0.00717   0.01409
     Eigenvalues ---    0.01432   0.01457   0.02666   0.02824   0.03071
     Eigenvalues ---    0.03103   0.03992   0.04354   0.04728   0.04747
     Eigenvalues ---    0.04821   0.04893   0.05000   0.05059   0.05129
     Eigenvalues ---    0.05299   0.05631   0.05838   0.06133   0.06209
     Eigenvalues ---    0.06509   0.06609   0.06745   0.07424   0.07855
     Eigenvalues ---    0.07930   0.07958   0.07972   0.08184   0.08285
     Eigenvalues ---    0.08429   0.09159   0.09425   0.10831   0.11617
     Eigenvalues ---    0.11712   0.11725   0.11777   0.12406   0.12547
     Eigenvalues ---    0.14573   0.14629   0.16065   0.16236   0.17568
     Eigenvalues ---    0.19187   0.21551   0.21824   0.25000   0.28361
     Eigenvalues ---    0.28553   0.28776   0.28794   0.28954   0.29090
     Eigenvalues ---    0.30149   0.30200   0.35039   0.35081   0.35110
     Eigenvalues ---    0.35139   0.35192   0.35203   0.35245   0.35252
     Eigenvalues ---    0.35311   0.35318   0.35401   0.35497   0.35649
     Eigenvalues ---    0.35818   0.35855   0.35864   0.35885   0.35905
     Eigenvalues ---    0.40720   0.41490   0.42268   0.42799   0.43908
     Eigenvalues ---    0.442531000.000001000.000001000.000001000.00000
     Eigenvalues --- 1000.000001000.000001000.000001000.000001000.00000
     Eigenvalues --- 1000.000001000.000001000.000001000.000001000.00000
     Eigenvalues --- 1000.000001000.000001000.000001000.000001000.00000
     Eigenvalues --- 1000.000001000.000001000.000001000.000001000.00000
     Eigenvalues --- 1000.000001000.000001000.000001000.000001000.00000
     Eigenvalues --- 1000.000001000.000001000.000001000.000001000.00000
     Eigenvalues --- 1000.000001000.000001000.000001000.000001000.00000
     Eigenvalues --- 1000.000001000.000001000.000001000.000001000.00000
     Eigenvalues --- 1000.000001000.000001000.000001000.000001000.00000
     Eigenvalues --- 1000.000001000.000001000.000001000.000001000.00000
     Eigenvalues --- 1000.000001000.000001000.000001000.000001000.00000
     Eigenvalues --- 1000.000001000.000001000.000001000.000001000.00000
     Eigenvalues --- 1000.000001000.000001000.000001000.000001000.00000
     Eigenvalues --- 1000.000001000.000001000.000001000.000001000.00000
     Eigenvalues --- 1000.000001000.000001000.000001000.000001000.00000
     Eigenvalues --- 1000.000001000.000001000.000001000.000001000.00000
     Eigenvalues --- 1000.000001000.000001000.000001000.000001000.00000
     Eigenvalues --- 1000.000001000.000001000.000001000.000001000.00000
     Eigenvalues --- 1000.000001000.000001000.000001000.000001000.00000
 RFO step:  Lambda=-4.61637096D-03 EMin= 6.11074446D-03
 Linear search not attempted -- first point.
 Iteration  1 RMS(Cart)=  0.06798868 RMS(Int)=  0.00104943
 Iteration  2 RMS(Cart)=  0.00319291 RMS(Int)=  0.00006429
 Iteration  3 RMS(Cart)=  0.00000436 RMS(Int)=  0.00006425
 Iteration  4 RMS(Cart)=  0.00000000 RMS(Int)=  0.00006425
 Iteration  1 RMS(Cart)=  0.00001394 RMS(Int)=  0.00000309
 Iteration  2 RMS(Cart)=  0.00000747 RMS(Int)=  0.00000345
 Iteration  3 RMS(Cart)=  0.00000400 RMS(Int)=  0.00000389
 Iteration  4 RMS(Cart)=  0.00000214 RMS(Int)=  0.00000418
 Iteration  5 RMS(Cart)=  0.00000115 RMS(Int)=  0.00000434
 Iteration  6 RMS(Cart)=  0.00000062 RMS(Int)=  0.00000443
 Variable       Old X    -DE/DX   Delta X   Delta X   Delta X     New X
                                 (Linear)    (Quad)   (Total)
    R1        2.88084  -0.00101   0.00000  -0.00330  -0.00329   2.87755
    R2        2.66708   0.00601   0.00000   0.01417   0.01420   2.68128
    R3        2.05543   0.00575   0.00000   0.01616   0.01616   2.07160
    R4        2.04231   0.00592   0.00000   0.01628   0.01628   2.05858
    R5        2.88507  -0.00272   0.00000  -0.00941  -0.00943   2.87564
    R6        2.64653   0.00590   0.00000   0.01330   0.01340   2.65993
    R7        2.66153   0.00551   0.00000   0.01231   0.01231   2.67385
    R8        2.04263   0.00733   0.00000   0.02016   0.02016   2.06279
    R9        2.67919   0.00298   0.00000   0.00690   0.00690   2.68608
   R10        2.88400  -0.00201   0.00000  -0.00733  -0.00735   2.87665
   R11        2.04308   0.00721   0.00000   0.01986   0.01986   2.06294
   R12        2.88749  -0.00034   0.00000  -0.00180  -0.00190   2.88559
   R13        2.86928  -0.00045   0.00000  -0.00100  -0.00098   2.86830
   R14        2.05497   0.00330   0.00000   0.00926   0.00926   2.06424
   R15        2.05278   0.00274   0.00000   0.00767   0.00767   2.06045
   R16        2.67622   0.00637   0.00000   0.01513   0.01515   2.69138
   R17        2.87325  -0.00057   0.00000  -0.00177  -0.00178   2.87147
   R18        2.04367   0.00447   0.00000   0.01232   0.01232   2.05599
   R19        2.05612   0.00568   0.00000   0.01601   0.01601   2.07212
   R20        2.89051  -0.00181   0.00000  -0.00706  -0.00710   2.88341
   R21        2.05364   0.00436   0.00000   0.01224   0.01224   2.06588
   R22        2.05161   0.00256   0.00000   0.00717   0.00717   2.05878
   R23        2.68781   0.00582   0.00000   0.01438   0.01442   2.70224
   R24        2.04295   0.00448   0.00000   0.01235   0.01235   2.05529
   R25        2.04875   0.00613   0.00000   0.01704   0.01704   2.06580
   R26        2.05346   0.00348   0.00000   0.00977   0.00977   2.06323
   R27        2.04634   0.00461   0.00000   0.01277   0.01277   2.05911
   R28        2.89176  -0.00098   0.00000  -0.00414  -0.00416   2.88760
   R29        2.05267   0.00269   0.00000   0.00753   0.00753   2.06020
   R30        2.05173   0.00365   0.00000   0.01021   0.01021   2.06195
   R31        2.05029   0.00334   0.00000   0.00931   0.00931   2.05959
   R32        2.05450   0.00329   0.00000   0.00923   0.00923   2.06373
    A1        1.95237   0.00028   0.00000  -0.00019  -0.00017   1.95220
    A2        1.89978  -0.00099   0.00000  -0.00311  -0.00316   1.89662
    A3        1.94735  -0.00097   0.00000  -0.01183  -0.01184   1.93551
    A4        1.91416   0.00122   0.00000   0.01052   0.01052   1.92468
    A5        1.85982  -0.00017   0.00000   0.00024   0.00018   1.86000
    A6        1.88910   0.00071   0.00000   0.00500   0.00496   1.89406
    A7        1.92354   0.00476   0.00000   0.02190   0.02181   1.94535
    A8        2.02199  -0.00596   0.00000  -0.03423  -0.03414   1.98785
    A9        1.92100   0.00003   0.00000   0.00050   0.00041   1.92140
   A10        1.85276   0.00098   0.00000   0.00010   0.00033   1.85309
   A11        1.83612  -0.00247   0.00000  -0.00180  -0.00189   1.83423
   A12        1.89834   0.00296   0.00000   0.01641   0.01633   1.91467
   A13        1.94884  -0.00149   0.00000  -0.01190  -0.01187   1.93697
   A14        1.91698   0.00122   0.00000   0.00381   0.00372   1.92070
   A15        1.89683  -0.00045   0.00000  -0.00362  -0.00361   1.89322
   A16        1.86930   0.00045   0.00000  -0.00050  -0.00047   1.86882
   A17        1.92217   0.00078   0.00000   0.00703   0.00698   1.92915
   A18        1.90946  -0.00048   0.00000   0.00561   0.00562   1.91508
   A19        1.91919  -0.00076   0.00000  -0.00256  -0.00280   1.91639
   A20        1.91694   0.00086   0.00000   0.00108   0.00113   1.91807
   A21        1.93967  -0.00050   0.00000  -0.00150  -0.00142   1.93825
   A22        1.90684   0.00023   0.00000  -0.00026  -0.00013   1.90670
   A23        1.90401   0.00008   0.00000  -0.00136  -0.00135   1.90266
   A24        1.87646   0.00014   0.00000   0.00476   0.00472   1.88118
   A25        1.93710   0.00086   0.00000   0.00613   0.00605   1.94315
   A26        1.85638  -0.00086   0.00000  -0.00285  -0.00283   1.85355
   A27        1.90056   0.00085   0.00000   0.00460   0.00465   1.90521
   A28        1.94617  -0.00040   0.00000  -0.00360  -0.00360   1.94257
   A29        1.93015  -0.00097   0.00000  -0.00701  -0.00699   1.92316
   A30        1.89116   0.00055   0.00000   0.00308   0.00305   1.89421
   A31        1.97780  -0.00445   0.00000  -0.02605  -0.02597   1.95183
   A32        1.91389   0.00238   0.00000  -0.00319  -0.00333   1.91056
   A33        1.91143  -0.00114   0.00000  -0.00042  -0.00049   1.91095
   A34        1.93077  -0.00020   0.00000   0.00201   0.00213   1.93290
   A35        1.92683  -0.00094   0.00000  -0.00458  -0.00449   1.92235
   A36        1.91369  -0.00088   0.00000   0.00044   0.00043   1.91412
   A37        1.86685   0.00071   0.00000   0.00591   0.00589   1.87274
   A38        1.94304   0.00221   0.00000   0.00801   0.00817   1.95122
   A39        1.94744   0.00031   0.00000  -0.00091  -0.00093   1.94651
   A40        1.93313  -0.00211   0.00000  -0.00921  -0.00928   1.92385
   A41        1.83846  -0.00141   0.00000  -0.00141  -0.00145   1.83701
   A42        1.91018   0.00044   0.00000   0.00196   0.00192   1.91210
   A43        1.88847   0.00060   0.00000   0.00194   0.00194   1.89041
   A44        1.96403  -0.00194   0.00000  -0.01881  -0.01886   1.94517
   A45        1.84470   0.00009   0.00000   0.00714   0.00716   1.85186
   A46        1.93428   0.00040   0.00000  -0.00795  -0.00803   1.92626
   A47        1.90547   0.00149   0.00000   0.01284   0.01290   1.91837
   A48        1.95003   0.00007   0.00000   0.00004  -0.00028   1.94975
   A49        1.85902   0.00003   0.00000   0.00930   0.00929   1.86830
   A50        1.92493   0.00009   0.00000  -0.00491  -0.00497   1.91997
   A51        1.90649   0.00040   0.00000   0.00179   0.00183   1.90832
   A52        1.90670  -0.00058   0.00000  -0.00187  -0.00189   1.90480
   A53        1.92491  -0.00071   0.00000  -0.00066  -0.00066   1.92425
   A54        1.92728   0.00052   0.00000   0.00073   0.00075   1.92803
   A55        1.87265   0.00028   0.00000   0.00520   0.00519   1.87785
   A56        2.03244  -0.00714   0.00000  -0.03883  -0.03858   1.99386
   A57        2.12768  -0.01678   0.00000  -0.06590  -0.06590   2.06178
   A58        1.94713   0.00093   0.00000  -0.00803  -0.00809   1.93904
   A59        1.91330  -0.00045   0.00000  -0.00465  -0.00462   1.90867
   A60        1.87959  -0.00071   0.00000   0.00044   0.00044   1.88002
   A61        1.93964  -0.00019   0.00000   0.00165   0.00161   1.94125
   A62        1.90873  -0.00007   0.00000   0.00450   0.00451   1.91324
   A63        1.87298   0.00045   0.00000   0.00669   0.00667   1.87965
    D1       -1.12918   0.00085   0.00000   0.02512   0.02512  -1.10406
    D2        0.94187   0.00127   0.00000   0.01949   0.01950   0.96137
    D3        3.03025   0.00114   0.00000   0.02639   0.02636   3.05661
[...]
 424404,-0.02369700,-0.02070794,0.00022273,0.00117745,0.00176590,0.0000
 8975,-0.00004587,0.00011333,0.00000191,0.00000163,0.00000020,0.0000008
 4,0.00000536,0.00000078,0.00036488,-0.00017321,0.00013713,0.00001664,-
 0.00001656,-0.00001584,0.00222822,0.00345116,-0.00196702,-0.00078174,-
 0.00086379,0.00088030,0.00000372,-0.00000206,-0.00000198,0.00000114,0.
 00000099,0.00000093,-0.00018924,-0.00045776,-0.00012590,-0.00003923,-0
 .00023258,-0.00001190,-0.01201135,-0.00925848,-0.00737221,0.08848603,0
 .08429335,0.13036699,0.00026823,0.00008602,-0.00016599,-0.01183448,-0.
 00676021,-0.01077579,0.00109466,-0.00051287,0.00082447,0.00118360,-0.0
 0009663,0.00029400,0.00008005,0.00000131,0.00004618,-0.00024513,-0.000
 05020,0.00007654,0.01106606,0.01070432,0.01047805,-0.00004220,-0.00006
 634,0.00015517,-0.15430687,-0.09138750,-0.09316115,-0.00005660,-0.0000
 7395,-0.00012045,0.00121036,0.00138174,-0.00028261,-0.00268986,-0.0031
 9968,0.00139762,-0.00009658,0.00008371,0.00013659,-0.00012251,0.000040
 21,-0.00000184,0.00004270,-0.00017856,-0.00008237,0.00029597,0.0004486
 5,-0.00001839,-0.00003135,0.00007015,0.00026698,-0.00005557,-0.0004388
 8,-0.00003575,0.00008396,-0.00021910,0.00004306,-0.00002498,-0.0000078
 4,0.00000478,-0.00000983,0.00000532,-0.00001123,-0.00132262,0.00241391
 ,0.00262604,0.00080913,-0.00055756,-0.00076607,0.00003791,0.00000555,-
 0.00002975,-0.00003055,0.00001805,-0.00001785,0.16793156,-0.00010791,-
 0.00004804,-0.00014304,-0.01347247,-0.01296643,-0.01287970,0.00113104,
 -0.00031905,0.00153848,-0.00091581,0.00034870,-0.00003057,0.00002812,0
 .00000953,-0.00000590,-0.00001442,0.00004340,0.00001526,-0.00917490,-0
 .00966740,-0.00962274,0.00005657,-0.00021047,-0.00005716,-0.08934125,-
 0.12297506,-0.07651951,0.00002641,0.00002521,0.00000601,0.00029060,0.0
 0134275,-0.00032598,-0.00377709,-0.00293145,0.00252126,-0.00003596,0.0
 0014388,-0.00024392,-0.00003810,0.00005077,0.00002649,0.00000145,0.000
 04769,0.00004773,0.00048214,0.00088272,0.00022240,0.00042189,0.0002990
 6,-0.00018047,0.00019978,-0.00007489,0.00019681,0.00012802,0.00018362,
 0.00006192,-0.00000361,0.00000374,0.00000283,-0.00000427,0.00000257,-0
 .00000221,0.00194267,-0.00065339,-0.00205773,0.00023832,0.00071539,0.0
 0048896,-0.00001202,-0.00003871,0.00003495,0.00000749,0.00006930,-0.00
 000574,0.09918625,0.13353349,0.00009137,-0.00003820,0.00013021,0.01327
 355,0.01104253,0.01042050,-0.00070639,0.00039343,-0.00134904,-0.000713
 32,0.00105408,0.00082468,-0.00001225,0.00000024,0.00000652,-0.00001322
 ,-0.00001524,0.00000805,-0.01446516,-0.01365786,-0.01526577,0.00035524
 ,-0.00003261,-0.00020471,-0.09592543,-0.07927643,-0.12831073,-0.000016
 49,-0.00002116,-0.00001572,0.00030575,-0.00064457,0.00070450,0.0037970
 4,0.00505312,-0.00139317,-0.00000080,-0.00011956,0.00022882,0.00003866
 ,-0.00003737,-0.00001919,-0.00002111,-0.00004167,-0.00003740,-0.000156
 80,-0.00068530,0.00096191,-0.00000911,-0.00021271,0.00022714,0.0003222
 8,-0.00012524,0.00047802,0.00021188,0.00029281,0.00001793,0.00000151,-
 0.00000174,-0.00000260,0.00000171,-0.00000251,0.00000047,0.00292726,-0
 .00256587,-0.00249210,-0.00038475,0.00071328,0.00078287,-0.00006228,-0
 .00004740,0.00006343,-0.00000089,-0.00000350,-0.00003943,0.09926765,0.
 08601913,0.14180361,-0.00023094,-0.00019873,0.00010675,0.01225502,-0.0
 0897355,0.00461140,-0.00155564,-0.00169143,-0.00150321,-0.00071803,0.0
 0149913,0.00382025,-0.00006925,-0.00012061,-0.00009590,0.00028467,0.00
 012831,-0.00006731,-0.01070544,0.00902565,-0.00749463,-0.00065474,0.00
 005209,0.00069177,-0.16269395,0.11336295,-0.07232047,-0.00004851,-0.00
 003399,0.00000147,0.00046552,-0.00428208,0.00335254,0.00056315,0.00151
 510,-0.00065939,-0.00023677,0.00003927,0.00020119,0.00006354,0.0000361
 4,-0.00006137,-0.00122054,-0.00006314,0.00056488,0.00008511,0.00088650
 ,-0.00055083,-0.00180105,-0.00196429,-0.00053389,0.00018388,-0.0002437
 3,0.00014738,-0.00050913,0.00107679,-0.00060492,0.00002538,0.00002267,
 0.00001109,0.00001037,0.00000372,0.00000996,0.00054281,-0.00025479,0.0
 0004942,0.00025809,-0.00052143,-0.00029671,0.00011699,-0.00000002,-0.0
 0019666,0.00006288,-0.00000676,-0.00007604,-0.01310942,0.01281814,-0.0
 0817332,0.17859505,-0.00042061,-0.00004738,-0.00015953,0.01548919,-0.0
 1192784,0.00564263,-0.00055481,-0.00087237,0.00037845,0.00090654,-0.00
 021129,-0.00323794,-0.00007573,-0.00003454,-0.00011625,0.00048851,0.00
 022849,-0.00005000,0.00918654,-0.00982782,0.00637127,-0.00046535,0.001
 19893,0.00043132,0.11055067,-0.15810546,0.07252452,0.00010460,0.000096
 97,0.00012579,-0.00089289,-0.00359295,0.00402754,-0.00032710,0.0010800
 8,-0.00065116,0.00001655,0.00006151,-0.00042076,0.00012678,-0.00001419
 ,0.00009433,0.00016834,0.00063027,0.00018647,-0.00046943,0.00032724,-0
 .00007154,-0.00099247,-0.00105832,-0.00119889,0.00017635,0.00001411,0.
 00019437,0.00055434,-0.00042840,0.00055463,0.00004093,0.00002895,0.000
 00394,0.00001299,0.00000086,0.00001702,-0.00039395,0.00029107,0.000344
 41,-0.00032785,0.00070095,-0.00008907,0.00004746,-0.00004361,-0.000020
 96,-0.00000839,-0.00009417,-0.00009445,-0.01081816,0.01221434,-0.00705
 745,-0.12219030,0.16930219,0.00013798,0.00018615,0.00008837,-0.0161851
 5,0.00803869,-0.00663621,-0.00071358,-0.00063165,-0.00019676,0.0021541
 7,-0.00242578,-0.00393143,0.00001651,0.00000611,0.00005510,-0.00018937
 ,-0.00016851,-0.00004972,0.01631973,-0.01580512,0.01200713,0.00095359,
 -0.00071506,-0.00124931,-0.07119049,0.07439732,-0.09448347,-0.00006731
 ,-0.00004875,-0.00005868,0.00074954,0.00610554,-0.00335017,0.00013881,
 -0.00029843,0.00038640,-0.00001734,-0.00010526,0.00025210,-0.00006665,
 -0.00001881,-0.00007606,0.00082546,-0.00018990,-0.00034083,0.00016756,
 -0.00071185,0.00034334,-0.00101691,-0.00125224,-0.00013766,0.00007096,
 0.00007666,0.00006019,0.00093925,-0.00111253,0.00060734,-0.00001663,-0
 .00001428,-0.00000185,-0.00000564,-0.00000083,-0.00000575,-0.00094875,
 0.00046761,0.00083695,-0.00063831,0.00083113,0.00102451,-0.00018794,0.
 00008010,0.00023410,-0.00010490,0.00009415,0.00017569,-0.01012041,0.01
 095329,-0.00758062,0.07900678,-0.07772027,0.10201094,-0.00088448,0.000
 24998,0.00065334,0.00039492,0.00015325,0.00032912,-0.00170867,-0.00010
 892,0.00454505,-0.00000480,-0.00000371,0.00000918,0.01180515,0.0089117
 8,0.00598586,0.00031131,0.00526332,0.00233713,0.00001321,-0.00001058,-
 0.00001231,0.00003917,-0.00003236,-0.00004095,-0.00006603,-0.00008329,
 -0.00008367,-0.16014298,-0.11104182,-0.07259926,-0.00018181,0.00007015
 ,-0.00008037,-0.00021612,-0.00036757,0.00000380,-0.01381688,-0.0142334
 6,-0.00946042,0.00012056,0.00000272,-0.00007277,0.00016116,-0.00001372
 ,-0.00023180,-0.00003616,-0.00003516,-0.00005192,-0.00067242,-0.000997
 53,-0.00064585,-0.00000602,0.00000378,-0.00000381,-0.00000833,0.000004
 63,0.00000289,0.00036547,-0.00100897,-0.00012825,0.00054937,-0.0006333
 7,-0.00056340,0.00001544,-0.00001655,-0.00002345,-0.00001772,-0.000001
 29,0.00000813,-0.00000892,0.00000736,0.00000113,-0.00000302,-0.0000007
 9,0.00000551,-0.00005936,-0.00000633,0.00000499,-0.00000363,0.00005492
 ,-0.00002593,0.17178657,0.00103869,0.00108868,-0.00098313,0.00022493,0
 .00006682,0.00001934,-0.00045557,0.00078858,0.00244701,-0.00000264,-0.
 00000093,0.00000580,-0.01923562,-0.01370620,-0.00867733,0.00162844,-0.
 00691238,-0.00306361,0.00000352,0.00000109,-0.00000289,0.00002156,-0.0
 0001771,-0.00002335,0.00001952,-0.00001567,0.00000408,-0.10909980,-0.1
 5842898,-0.07076628,-0.00011662,0.00004270,-0.00004977,-0.00009750,0.0
 0015020,-0.00039425,-0.00533078,-0.00627728,-0.00280752,-0.00007389,-0
 .00008602,0.00016020,-0.00015954,-0.00004993,0.00008872,-0.00003696,-0
 .00002155,-0.00002045,-0.00031359,-0.00033270,-0.00031611,-0.00000350,
 0.00000105,-0.00000251,-0.00000484,0.00000298,0.00000148,0.00017563,0.
 00080119,-0.00009792,-0.00004383,0.00084942,0.00083372,0.00000638,-0.0
 0000944,-0.00001490,-0.00001102,-0.00000143,0.00000358,-0.00000528,0.0
 0000496,0.00000109,-0.00000091,0.00000005,0.00000538,-0.00001758,0.000
 00418,-0.00000445,0.00000952,0.00003215,-0.00001085,0.12180462,0.17070
 177,0.00075334,-0.00000139,-0.00086356,-0.00015789,-0.00007366,0.00000
 084,0.00309353,0.00099556,-0.00421026,0.00000620,0.00000394,-0.0000041
 0,-0.00867795,-0.00402415,-0.00532979,0.00078855,-0.00427783,-0.000129
 15,-0.00000560,0.00000154,0.00000321,-0.00001798,0.00001756,0.00001728
 ,-0.00000796,0.00004044,0.00001135,-0.07298278,-0.07300735,-0.09262014
 ,0.00010231,-0.00003625,0.00005770,-0.00009011,-0.00011366,0.00028112,
 0.01602068,0.01750206,0.00992736,-0.00013298,-0.00003327,0.00009595,-0
 .00014549,-0.00000627,0.00016603,0.00002841,0.00002272,0.00002639,0.00
 074818,0.00101104,0.00045082,0.00000443,-0.00000339,0.00000300,0.00000
 427,-0.00000281,-0.00000066,-0.00000456,0.00058713,0.00007650,0.000199
 13,0.00001721,0.00042382,-0.00000955,0.00001508,0.00002019,0.00001256,
 0.00000183,-0.00000282,0.00000337,-0.00000443,-0.00000121,0.00000053,-
 0.00000143,-0.00000446,0.00002792,-0.00001129,0.00001433,0.00001187,-0
 .00003864,0.00001746,0.07626572,0.07809055,0.09930298,-0.00038859,-0.0
 0013712,0.00041733,0.00003788,0.00008344,0.00020962,0.00074725,0.00021
 596,-0.00074153,0.00000206,0.00000087,0.00000261,-0.01109456,0.0080835
 9,-0.01417596,0.00182209,-0.00109248,0.00063616,0.00000437,-0.00000206
 ,-0.00000162,0.00000114,-0.00000593,-0.00000822,-0.00002955,-0.0000137
 4,-0.00002716,-0.10364631,0.05546771,-0.09307014,-0.00001594,0.0000190
 6,-0.00001447,-0.00138029,-0.00080655,-0.00014230,0.01127383,-0.010385
 02,0.01865425,-0.00008922,-0.00001354,-0.00006784,0.00006264,-0.000008
 52,-0.00004221,0.00001856,-0.00000754,-0.00000780,-0.00004069,0.000173
 47,-0.00002587,-0.00000023,0.00000010,-0.00000068,-0.00000128,0.000000
 01,-0.00000030,0.00046249,-0.00067985,-0.00018036,-0.00060406,0.003236
 77,0.00173780,0.00000217,0.00000073,-0.00000110,-0.00000207,0.00000131
 ,0.00000267,-0.00000175,0.00000011,-0.00000040,-0.00000277,0.00000088,
 0.00000295,-0.00000268,-0.00001161,0.00000756,0.00000328,-0.00000250,0
 .00000522,-0.00931964,0.00973481,-0.01417597,0.11371708,-0.00010832,-0
 .00003074,-0.00002938,-0.00002523,-0.00000194,-0.00010981,0.00072422,-
 0.00014565,0.00045881,-0.00000089,-0.00000087,-0.00000189,0.01430029,-
 0.01436677,0.02036915,-0.00069708,0.00246492,0.00046897,-0.00000067,0.
 00000502,0.00000074,-0.00000650,0.00000212,0.00000812,0.00003253,0.000
 00539,0.00002813,0.05314052,-0.10419247,0.09098946,0.00001726,-0.00000
 541,-0.00000017,-0.00033739,0.00016139,-0.00014909,0.00384533,-0.00434
 198,0.00642964,0.00004229,0.00004467,-0.00000244,-0.00000869,-0.000041
 92,-0.00000732,-0.00000497,-0.00000674,-0.00000153,-0.00009100,-0.0000
 1951,-0.00008161,-0.00000035,0.00000097,-0.00000025,0.00000043,0.00000
 006,-0.00000082,-0.00077422,0.00117205,-0.00028663,0.00257708,-0.00363
 013,-0.00193190,0.00000156,-0.00000151,-0.00000210,-0.00000008,-0.0000
 0098,-0.00000188,0.00000013,-0.00000074,-0.00000060,0.00000236,0.00000
 072,0.00000125,0.00000585,0.00000970,-0.00000889,-0.00000330,0.0000050
 1,-0.00000269,-0.00890082,0.01073288,-0.01574799,-0.06242822,0.1112833
 1,0.00012559,-0.00003098,0.00001433,-0.00000629,-0.00005678,0.00035114
 ,-0.00094216,-0.00027958,-0.00057348,0.00000315,0.00000059,-0.00000172
 ,0.00661295,-0.00707918,0.00960464,0.00047837,0.00167969,0.00058427,0.
 00000315,-0.00000219,-0.00000448,0.00000349,0.00001411,0.00000663,-0.0
 0007355,-0.00003489,-0.00007197,-0.09339509,0.09285030,-0.20150262,0.0
 0004831,0.00000374,0.00001763,-0.00058365,-0.00065248,0.00073006,-0.00
 966176,0.00998463,-0.01851971,0.00001354,-0.00000166,-0.00004596,-0.00
 004708,0.00008213,0.00004490,0.00002812,0.00000685,-0.00001510,0.00017
 220,0.00003010,0.00012323,0.00000073,-0.00000204,0.00000155,0.00000020
 ,-0.00000077,-0.00000041,-0.00044404,0.00070908,0.00093845,0.00105117,
 -0.00269810,0.00021291,-0.00000559,0.00000623,0.00000549,0.00000312,0.
 00000078,0.00000133,0.00000029,-0.00000220,-0.00000023,-0.00000058,-0.
 00000339,-0.00000746,-0.00001158,-0.00002381,0.00002111,0.00000851,-0.
 00001143,0.00000307,-0.00550965,0.00556183,-0.00972457,0.09863251,-0.1
 0114163,0.21904919,-0.00288662,-0.00295336,-0.00140644,0.00013825,-0.0
 0009699,0.00009007,0.01106744,-0.01621356,-0.00710766,0.00001330,0.000
 01641,0.00001580,-0.00278364,-0.00405352,0.00331634,0.00087043,0.00086
 395,-0.00021018,-0.00003676,-0.00002880,-0.00009114,-0.00005550,-0.000
 06485,-0.00003856,0.00002863,0.00000603,0.00003699,-0.01236392,0.01721
 114,0.00486899,0.00008602,0.00002235,0.00008437,0.00155609,0.00001261,
 0.00110084,-0.13818424,0.11990233,0.04519401,-0.00004392,0.00003387,-0
 .00000284,0.00064322,-0.00085033,-0.00057294,0.00002600,0.00000732,0.0
 0003267,0.00087716,0.00089795,0.00046367,0.00000702,-0.00000074,0.0000
 0337,0.00000182,0.00000001,-0.00000274,-0.00052097,0.00139058,0.000820
 81,0.00018179,-0.00025345,-0.00016700,0.00011731,0.00011228,0.00007157
 ,0.00001536,0.00000989,0.00001440,0.00001169,0.00000723,0.00000193,0.0
 0011187,0.00005539,0.00008546,-0.00000385,0.00001046,-0.00000073,0.000
 03395,0.00001499,-0.00000807,0.00039236,0.00003076,-0.00078024,0.00107
 585,-0.00024809,-0.00026671,0.14831161,-0.00578097,-0.00263078,-0.0009
 6865,0.00001439,0.00032893,0.00040924,0.01538416,-0.02112243,-0.006697
 18,-0.00002094,-0.00000759,0.00000050,-0.00229816,-0.00053639,0.001574
 24,0.00102340,0.00062978,-0.00017353,-0.00000809,0.00000858,-0.0000030
 3,0.00003147,0.00000922,0.00000922,0.00001694,-0.00005509,0.00001280,-
 0.00708036,0.01025526,0.00341496,-0.00015311,-0.00001129,-0.00010552,0
 .00099031,0.00191639,0.00129022,0.11788276,-0.20381303,-0.05951151,-0.
 00008695,0.00025356,0.00013465,0.00102863,-0.00099381,-0.00096374,0.00
 007757,0.00005892,0.00006809,0.00019252,0.00084269,0.00050105,-0.00000
 446,0.00000235,0.00000014,-0.00000829,0.00000560,0.00000200,-0.0003747
 2,0.00048641,0.00037385,-0.00004206,0.00001686,0.00004522,-0.00005330,
 -0.00006606,-0.00003680,-0.00001272,-0.00000388,0.00000055,-0.00000671
 ,0.00000166,0.00000096,-0.00009595,-0.00004244,-0.00007020,-0.00003233
 ,0.00000852,-0.00000591,0.00005251,0.00006018,-0.00002795,0.00058129,0
 .00037121,-0.00065338,0.00057336,0.00047578,-0.00050977,-0.12679880,0.
 22128985,-0.00232620,-0.00094214,0.00002071,0.00000731,0.00001931,0.00
 012862,0.00552165,-0.01056752,-0.00557000,-0.00000686,-0.00000611,0.00
 000118,0.00320745,0.00370080,-0.00221624,-0.00052233,0.00011751,0.0003
 9404,0.00000457,0.00002471,0.00001470,-0.00001802,0.00000003,0.0000078
 1,0.00002699,-0.00001160,0.00002890,0.01328972,-0.01802121,-0.00729653
 ,0.00004528,-0.00000754,0.00000526,0.00115470,0.00012685,0.00084485,0.
 04376091,-0.05704388,-0.06936113,0.00023186,-0.00012875,0.00016109,0.0
 0044519,-0.00045901,-0.00009731,0.00003755,0.00003873,0.00004465,-0.00
 028528,0.00050905,0.00023763,-0.00000094,0.00000482,-0.00000353,-0.000
 00179,0.00000222,-0.00000102,0.00066071,-0.00120727,-0.00045868,0.0001
 4862,-0.00023161,0.00007674,-0.00004323,-0.00004534,-0.00003020,-0.000
 00636,-0.00000310,-0.00000463,0.00000148,0.00000007,0.00000002,-0.0000
 0946,0.00000227,-0.00000850,-0.00000365,0.00001185,-0.00001477,0.00002
 490,0.00003032,-0.00001096,-0.00052627,0.00025660,0.00077288,-0.000921
 31,-0.00036760,0.00081376,-0.05000309,0.06440314,0.07295223,0.00020345
 ,0.00085847,0.00026086,0.00150369,0.00079948,-0.00015360,-0.00887560,0
 .00913081,-0.01310268,0.00001159,0.00001693,0.00002668,0.00140511,-0.0
 0046352,-0.00022783,-0.00009437,-0.00008114,-0.00004696,0.00001410,-0.
 00004279,-0.00001061,0.00015404,-0.00011038,-0.00016280,-0.00007727,-0
 .00000596,-0.00011427,0.01048949,-0.00878325,0.02018772,-0.00075473,0.
 00023191,-0.00029412,-0.00478787,-0.00424786,-0.00360077,-0.10777273,0
 .04422072,-0.10243137,0.00038750,-0.00003646,0.00021595,0.00003158,-0.
 00014068,0.00022135,-0.00025392,-0.00025443,-0.00020744,0.00023949,0.0
 0053500,0.00040874,-0.00000589,-0.00000403,-0.00000421,-0.00001717,0.0
 0000107,0.00000980,-0.00000384,-0.00017478,-0.00025147,-0.00003784,0.0
 0009085,-0.00049595,0.00001760,0.00000866,-0.00001321,-0.00002578,0.00
 000474,0.00002627,-0.00002642,0.00002320,0.00001304,0.00001410,0.00001
 910,0.00004681,-0.00005973,-0.00005362,0.00005559,0.00000732,-0.000000
 13,0.00001782,0.00120229,0.00031108,-0.00088195,-0.00261103,-0.0010540
 3,0.00376232,-0.00868773,0.00500860,-0.01389409,0.11841057,0.00055400,
 0.00016398,0.00018267,0.00056832,0.00110482,-0.00017018,-0.00977475,0.
 00922484,-0.01816277,0.00000609,0.00001730,0.00002118,0.00002826,0.000
 12132,-0.00103160,0.00002392,-0.00003168,0.00005171,0.00000241,-0.0000
 3005,-0.00000031,0.00012235,-0.00008746,-0.00013001,-0.00003891,0.0000
 3814,-0.00007498,0.00427300,-0.00524972,0.00948856,-0.00080666,0.00014
 060,-0.00037748,-0.00492130,-0.00373552,-0.00356422,0.04668302,-0.0816
 9794,0.07434855,0.00001899,-0.00037349,-0.00033137,-0.00013011,0.00020
 183,0.00022884,-0.00007012,-0.00015819,-0.00010597,0.00022682,0.001044
 59,0.00050108,-0.00000406,-0.00000373,-0.00000442,-0.00001351,-0.00000
 158,0.00000914,-0.00012830,0.00001558,-0.00009857,-0.00007572,0.000382
 74,-0.00002192,0.00000167,-0.00000597,-0.00000786,-0.00001628,0.000004
 69,0.00001948,-0.00002462,0.00001965,0.00001439,-0.00003079,0.00000033
 ,0.00001741,-0.00003367,-0.00005367,0.00003702,0.00001963,-0.00001497,
 0.00002401,0.00038844,0.00022029,-0.00026945,-0.00199752,0.00042339,0.
 00160085,0.01095695,-0.00773899,0.01979440,-0.04580756,0.08605887,-0.0
 0013152,0.00075777,-0.00008858,0.00070228,0.00070432,0.00042480,-0.004
 17607,0.00546868,-0.00994844,0.00000196,0.00000926,0.00001363,-0.00119
 686,0.00041606,0.00067361,0.00019856,-0.00044498,-0.00028281,0.0000101
 5,-0.00001674,-0.00001103,0.00008860,-0.00005171,-0.00007736,-0.000058
 26,-0.00003361,-0.00010473,-0.00944392,0.00849998,-0.01907437,-0.00044
 189,0.00011646,-0.00022832,-0.00237202,-0.00239054,-0.00053488,-0.1021
 5277,0.07167857,-0.21734169,0.00029335,-0.00024239,0.00012502,0.000039
 43,-0.00012382,0.00021850,-0.00006780,-0.00006717,-0.00007280,0.000080
 97,-0.00009959,0.00072161,-0.00000415,-0.00000216,-0.00000308,-0.00001
 027,0.00000115,0.00000662,0.00020903,-0.00003956,0.00025755,0.00020083
 ,-0.00049601,0.00006582,0.00000446,-0.00000427,-0.00000851,-0.00001330
 ,0.00000138,0.00001408,-0.00001683,0.00001215,0.00000751,-0.00002053,-
 0.00000302,0.00000935,-0.00004016,-0.00003762,0.00003116,0.00001448,0.
 00001136,0.00000678,-0.00009176,-0.00024405,0.00122152,0.00329657,0.00
 112193,-0.00205599,0.00445706,-0.00251365,0.00856842,0.11064038,-0.081
 98817,0.23746662\\0.00000906,-0.00000350,-0.00005891,-0.00104224,-0.00
 042909,0.00242930,0.00237470,-0.00114797,-0.00260577,0.00000047,0.0000
 0278,0.00000533,0.00001433,0.00000555,-0.00001695,-0.00000889,-0.00000
 729,0.00003025,-0.00002632,-0.00003154,0.00001318,-0.00000686,0.000012
 17,0.00000063,-0.00000047,-0.00002558,0.00002226,0.00003280,0.00001080
 ,0.00001452,0.00182206,-0.00010134,-0.00288721,-0.00313831,0.00170234,
 0.00307489,-0.00003210,0.00002085,-0.00001898,0.00000964,-0.00000414,0
 .00000652,-0.00000928,-0.00002497,-0.00000632,0.00001661,-0.00002521,-
 0.00004230,-0.00001455,0.00000849,0.00001191,-0.00000863,-0.00001303,-
 0.00000357,0.00000130,-0.00000919,0.00000514,0.00001597,0.00001855,-0.
 00001487,0.00000478,-0.00000256,0.00000537,0.00000961,0.00001215,-0.00
 000034,-0.00000526,-0.00000592,0.00001279,-0.00001226,0.00000230,-0.00
 000992,0.00002094,0.00000665,0.00001633,-0.00001487,-0.00001480,0.0000
 0051,-0.00000104,0.00000574,0.00000651,-0.00000917,0.00001209,0.000006
 80,-0.00000364,0.00000958,-0.00000789,-0.00000179,0.00002144,0.0000088
 3,0.00000343,-0.00000534,0.00000198\\\@


 SOME PEOPLE TRY TO PULL THE WOOL OVER YOUR EYES
 USING THE WRONG YARN.
 Job cpu time:       0 days 13 hours 13 minutes  8.0 seconds.
 Elapsed time:       0 days  1 hours  6 minutes 21.5 seconds.
 File lengths (MBytes):  RWF=    721 Int=      0 D2E=      0 Chk=     34 Scr=      1
 Normal termination of Gaussian 16 at Fri Mar  8 17:22:07 2019.
