 Entering Gaussian System, Link 0=g16
 Initial command:
 /sw/Projects/G16/g16/l1.exe "/nvme/pbs/tmpdir/pbs.74202[10].flm1/Gau-7720.inp" -scrdir="/nvme/pbs/tmpdir/pbs.74202[10].flm1/"
 Entering Link 1 = /sw/Projects/G16/g16/l1.exe PID=      7721.
  
 Copyright (c) 1988-2017, Gaussian, Inc.  All Rights Reserved.
  
 This is part of the Gaussian(R) 16 program.  It is based on
 the Gaussian(R) 09 system (copyright 2009, Gaussian, Inc.),
 the Gaussian(R) 03 system (copyright 2003, Gaussian, Inc.),
 the Gaussian(R) 98 system (copyright 1998, Gaussian, Inc.),
 the Gaussian(R) 94 system (copyright 1995, Gaussian, Inc.),
 the Gaussian 92(TM) system (copyright 1992, Gaussian, Inc.),
 the Gaussian 90(TM) system (copyright 1990, Gaussian, Inc.),
 the Gaussian 88(TM) system (copyright 1988, Gaussian, Inc.),
 the Gaussian 86(TM) system (copyright 1986, Carnegie Mellon
 University), and the Gaussian 82(TM) system (copyright 1983,
 Carnegie Mellon University). Gaussian is a federally registered
 trademark of Gaussian, Inc.
  
 This software contains proprietary and confidential information,
 including trade secrets, belonging to Gaussian, Inc.
  
 This software is provided under written license and may be
 used, copied, transmitted, or stored only in accord with that
 written license.
  
 The following legend is applicable only to US Government
 contracts under FAR:
  
                    RESTRICTED RIGHTS LEGEND
  
 Use, reproduction and disclosure by the US Government is
 subject to restrictions as set forth in subparagraphs (a)
 and (c) of the Commercial Computer Software - Restricted
 Rights clause in FAR 52.227-19.
  
 Gaussian, Inc.
 340 Quinnipiac St., Bldg. 40, Wallingford CT 06492
  
  
 ---------------------------------------------------------------
 Warning -- This program may not be used in any manner that
 competes with the business of Gaussian, Inc. or will provide
 assistance to any competitor of Gaussian, Inc.  The licensee
 of this program is prohibited from giving any competitor of
 Gaussian, Inc. access to this program.  By using this program,
 the user acknowledges that Gaussian, Inc. is engaged in the
 business of creating and licensing software in the field of
 computational chemistry and represents and warrants to the
 licensee that it is not a competitor of Gaussian, Inc. and that
 it will not use this program in any manner prohibited above.
 ---------------------------------------------------------------
  

 Cite this work as:
 Gaussian 16, Revision B.01,
 M. J. Frisch, G. W. Trucks, H. B. Schlegel, G. E. Scuseria, 
 M. A. Robb, J. R. Cheeseman, G. Scalmani, V. Barone, 
 G. A. Petersson, H. Nakatsuji, X. Li, M. Caricato, A. V. Marenich, 
 J. Bloino, B. G. Janesko, R. Gomperts, B. Mennucci, H. P. Hratchian, 
 J. V. Ortiz, A. F. Izmaylov, J. L. Sonnenberg, D. Williams-Young, 
 F. Ding, F. Lipparini, F. Egidi, J. Goings, B. Peng, A. Petrone, 
 T. Henderson, D. Ranasinghe, V. G. Zakrzewski, J. Gao, N. Rega, 
 G. Zheng, W. Liang, M. Hada, M. Ehara, K. Toyota, R. Fukuda, 
 J. Hasegawa, M. Ishida, T. Nakajima, Y. Honda, O. Kitao, H. Nakai, 
 T. Vreven, K. Throssell, J. A. Montgomery, Jr., J. E. Peralta, 
 F. Ogliaro, M. J. Bearpark, J. J. Heyd, E. N. Brothers, K. N. Kudin, 
 V. N. Staroverov, T. A. Keith, R. Kobayashi, J. Normand, 
 K. Raghavachari, A. P. Rendell, J. C. Burant, S. S. Iyengar, 
 J. Tomasi, M. Cossi, J. M. Millam, M. Klene, C. Adamo, R. Cammi, 
 J. W. Ochterski, R. L. Martin, K. Morokuma, O. Farkas, 
 J. B. Foresman, and D. J. Fox, Gaussian, Inc., Wallingford CT, 2016.
 
 ******************************************
 Gaussian 16:  ES64L-G16RevB.01 20-Dec-2017
                 8-Mar-2019 
 ******************************************
 %mem=20gb
 %nproc=12
 Will use up to   12 processors via shared memory.
 %chk=4c1_a1_a4_4c1_PHI.inp_extract_10.chk
 ----------------------------------------------------------------------
 #M062X/6-311++G(2d,2p) opt=ModRedundant freq=noraman SCRF=(SMD,solvent
 =water)
 ----------------------------------------------------------------------
 1/18=120,19=15,26=3,38=1/1,3;
 2/9=110,12=2,17=6,18=5,40=1/2;
 3/5=4,6=6,7=1212,11=2,25=1,30=1,70=32201,71=1,72=1,74=-55/1,2,3;
 4//1;
 5/5=2,38=5,53=1/2;
 6/7=2,8=2,9=2,10=2,28=1/1;
 7//1,2,3,16;
 1/18=20,19=15,26=3/3(2);
 2/9=110/2;
 99//99;
 2/9=110/2;
 3/5=4,6=6,7=1212,11=2,25=1,30=1,70=32205,71=1,72=1,74=-55/1,2,3;
 4/5=5,16=3,69=1/1;
 5/5=2,38=5,53=1/2;
 7//1,2,3,16;
 1/18=20,19=15,26=3/3(-5);
 2/9=110/2;
 6/7=2,8=2,9=2,10=2,19=2,28=1/1;
 99/9=1/99;
 --------------------------------
 4c1_a1_a4_4c1_PHI.inp_extract_10
 --------------------------------
 Symbolic Z-matrix:
 Charge =  0 Multiplicity = 1
 C                    -1.80512   1.33468  -0.19006 
 C                     1.08374   0.45549   0.9462 
 C                    -0.84734   0.22709  -0.61371 
 C                     3.44268  -0.40199  -0.54206 
 C                    -3.58081  -0.16856   0.22508 
 O                    -2.76695   0.87252   0.73407 
 C                     2.54635   0.67815  -1.14479 
 C                     2.62248  -1.29436   0.37105 
 C                     1.77686   1.40079  -0.03493 
 C                    -2.74269  -1.37989  -0.15188 
 O                     1.97836  -0.532     1.38197 
 O                    -0.06688  -0.21434   0.4852 
 C                    -1.63572  -0.97459  -1.12746 
 H                    -2.30566   1.72997  -1.0713 
 H                    -1.27642   2.14326   0.29482 
 H                     0.81246   0.99827   1.84002 
 H                    -0.21315   0.60303  -1.40168 
 H                     4.24474   0.05591   0.03194 
 H                     3.90038  -1.00715  -1.31937 
 H                    -4.29377  -0.40592   1.00286 
 H                    -4.12777   0.20208  -0.63945 
 H                     1.86261   0.21951  -1.85285 
 H                     3.13673   1.40039  -1.70025 
 H                     3.24295  -2.00594   0.89787 
 H                     1.87994  -1.84655  -0.19523 
 H                     2.48299   1.96702   0.56615 
 H                     1.07322   2.11859  -0.43816 
 H                    -3.38367  -2.13324  -0.6008 
 H                    -2.31557  -1.81351   0.74728 
 H                    -0.95855  -1.80077  -1.31699 
 H                    -2.08033  -0.69517  -2.07954 
 
 The following ModRedundant input section has been read:
 D      11       2      12       3 F                                           
 

 GradGradGradGradGradGradGradGradGradGradGradGradGradGradGradGradGradGrad
 Berny optimization.
 Initialization pass.
                           ----------------------------
                           !    Initial Parameters    !
                           ! (Angstroms and Degrees)  !
 --------------------------                            --------------------------
 ! Name  Definition              Value          Derivative Info.                !
 --------------------------------------------------------------------------------
 ! R1    R(1,3)                  1.5243         estimate D2E/DX2                !
 ! R2    R(1,6)                  1.4116         estimate D2E/DX2                !
 ! R3    R(1,14)                 1.0878         estimate D2E/DX2                !
 ! R4    R(1,15)                 1.0809         estimate D2E/DX2                !
 ! R5    R(2,9)                  1.5286         estimate D2E/DX2                !
 ! R6    R(2,11)                 1.4019         estimate D2E/DX2                !
 ! R7    R(2,12)                 1.4089         estimate D2E/DX2                !
 ! R8    R(2,16)                 1.0803         estimate D2E/DX2                !
 ! R9    R(3,12)                 1.4183         estimate D2E/DX2                !
 ! R10   R(3,13)                 1.5263         estimate D2E/DX2                !
 ! R11   R(3,17)                 1.0791         estimate D2E/DX2                !
 ! R12   R(4,7)                  1.5275         estimate D2E/DX2                !
 ! R13   R(4,8)                  1.5175         estimate D2E/DX2                !
 ! R14   R(4,18)                 1.0874         estimate D2E/DX2                !
 ! R15   R(4,19)                 1.0862         estimate D2E/DX2                !
 ! R16   R(5,6)                  1.4161         estimate D2E/DX2                !
 ! R17   R(5,10)                 1.5205         estimate D2E/DX2                !
 ! R18   R(5,20)                 1.0815         estimate D2E/DX2                !
 ! R19   R(5,21)                 1.0881         estimate D2E/DX2                !
 ! R20   R(7,9)                  1.5317         estimate D2E/DX2                !
 ! R21   R(7,22)                 1.0859         estimate D2E/DX2                !
 ! R22   R(7,23)                 1.0857         estimate D2E/DX2                !
 ! R23   R(8,11)                 1.4206         estimate D2E/DX2                !
 ! R24   R(8,24)                 1.0811         estimate D2E/DX2                !
 ! R25   R(8,25)                 1.0849         estimate D2E/DX2                !
 ! R26   R(9,26)                 1.0865         estimate D2E/DX2                !
 ! R27   R(9,27)                 1.083          estimate D2E/DX2                !
 ! R28   R(10,13)                1.5302         estimate D2E/DX2                !
 ! R29   R(10,28)                1.0862         estimate D2E/DX2                !
 ! R30   R(10,29)                1.0858         estimate D2E/DX2                !
 ! R31   R(13,30)                1.0849         estimate D2E/DX2                !
 ! R32   R(13,31)                1.0873         estimate D2E/DX2                !
 ! A1    A(3,1,6)              111.8495         estimate D2E/DX2                !
 ! A2    A(3,1,14)             109.1474         estimate D2E/DX2                !
 ! A3    A(3,1,15)             111.1539         estimate D2E/DX2                !
 ! A4    A(6,1,14)             109.6199         estimate D2E/DX2                !
 ! A5    A(6,1,15)             106.5292         estimate D2E/DX2                !
 ! A6    A(14,1,15)            108.4587         estimate D2E/DX2                !
 ! A7    A(9,2,11)             110.2277         estimate D2E/DX2                !
 ! A8    A(9,2,12)             117.019          estimate D2E/DX2                !
 ! A9    A(9,2,16)             109.5237         estimate D2E/DX2                !
 ! A10   A(11,2,12)            106.7365         estimate D2E/DX2                !
 ! A11   A(11,2,16)            104.89           estimate D2E/DX2                !
 ! A12   A(12,2,16)            107.7283         estimate D2E/DX2                !
 ! A13   A(1,3,12)             110.8898         estimate D2E/DX2                !
 ! A14   A(1,3,13)             109.9424         estimate D2E/DX2                !
 ! A15   A(1,3,17)             108.6076         estimate D2E/DX2                !
 ! A16   A(12,3,13)            107.4573         estimate D2E/DX2                !
 ! A17   A(12,3,17)            110.5366         estimate D2E/DX2                !
 ! A18   A(13,3,17)            109.3941         estimate D2E/DX2                !
 ! A19   A(7,4,8)              109.6392         estimate D2E/DX2                !
 ! A20   A(7,4,18)             110.0795         estimate D2E/DX2                !
 ! A21   A(7,4,19)             111.0284         estimate D2E/DX2                !
 ! A22   A(8,4,18)             109.1876         estimate D2E/DX2                !
 ! A23   A(8,4,19)             109.3124         estimate D2E/DX2                !
 ! A24   A(18,4,19)            107.5499         estimate D2E/DX2                !
 ! A25   A(6,5,10)             110.9783         estimate D2E/DX2                !
 ! A26   A(6,5,20)             106.3639         estimate D2E/DX2                !
 ! A27   A(6,5,21)             108.9088         estimate D2E/DX2                !
 ! A28   A(10,5,20)            111.5208         estimate D2E/DX2                !
 ! A29   A(10,5,21)            110.5779         estimate D2E/DX2                !
 ! A30   A(20,5,21)            108.3478         estimate D2E/DX2                !
 ! A31   A(1,6,5)              113.3895         estimate D2E/DX2                !
 ! A32   A(4,7,9)              110.028          estimate D2E/DX2                !
 ! A33   A(4,7,22)             109.153          estimate D2E/DX2                !
 ! A34   A(4,7,23)             110.6829         estimate D2E/DX2                !
 ! A35   A(9,7,22)             110.8185         estimate D2E/DX2                !
 ! A36   A(9,7,23)             109.2717         estimate D2E/DX2                !
 ! A37   A(22,7,23)            106.8434         estimate D2E/DX2                !
 ! A38   A(4,8,11)             110.9585         estimate D2E/DX2                !
 ! A39   A(4,8,24)             111.7193         estimate D2E/DX2                !
 ! A40   A(4,8,25)             110.804          estimate D2E/DX2                !
 ! A41   A(11,8,24)            105.4656         estimate D2E/DX2                !
 ! A42   A(11,8,25)            109.5271         estimate D2E/DX2                !
 ! A43   A(24,8,25)            108.1892         estimate D2E/DX2                !
 ! A44   A(2,9,7)              113.6481         estimate D2E/DX2                !
 ! A45   A(2,9,26)             105.1818         estimate D2E/DX2                !
 ! A46   A(2,9,27)             110.7468         estimate D2E/DX2                !
 ! A47   A(7,9,26)             108.677          estimate D2E/DX2                !
 ! A48   A(7,9,27)             111.6726         estimate D2E/DX2                !
 ! A49   A(26,9,27)            106.428          estimate D2E/DX2                !
 ! A50   A(5,10,13)            110.2315         estimate D2E/DX2                !
 ! A51   A(5,10,28)            109.2519         estimate D2E/DX2                !
 ! A52   A(5,10,29)            109.2503         estimate D2E/DX2                !
 ! A53   A(13,10,28)           110.3096         estimate D2E/DX2                !
 ! A54   A(13,10,29)           110.4366         estimate D2E/DX2                !
 ! A55   A(28,10,29)           107.3013         estimate D2E/DX2                !
 ! A56   A(2,11,8)             116.4971         estimate D2E/DX2                !
 ! A57   A(2,12,3)             123.7065         estimate D2E/DX2                !
 ! A58   A(3,13,10)            111.5684         estimate D2E/DX2                !
 ! A59   A(3,13,30)            109.6309         estimate D2E/DX2                !
 ! A60   A(3,13,31)            107.6756         estimate D2E/DX2                !
 ! A61   A(10,13,30)           111.1749         estimate D2E/DX2                !
 ! A62   A(10,13,31)           109.3007         estimate D2E/DX2                !
 ! A63   A(30,13,31)           107.3353         estimate D2E/DX2                !
 ! D1    D(6,1,3,12)           -64.9696         estimate D2E/DX2                !
 ! D2    D(6,1,3,13)            53.72           estimate D2E/DX2                !
 ! D3    D(6,1,3,17)           173.3825         estimate D2E/DX2                !
 ! D4    D(14,1,3,12)          173.5523         estimate D2E/DX2                !
 ! D5    D(14,1,3,13)          -67.7582         estimate D2E/DX2                !
 ! D6    D(14,1,3,17)           51.9044         estimate D2E/DX2                !
 ! D7    D(15,1,3,12)           53.9661         estimate D2E/DX2                !
 ! D8    D(15,1,3,13)          172.6557         estimate D2E/DX2                !
 ! D9    D(15,1,3,17)          -67.6818         estimate D2E/DX2                !
 ! D10   D(3,1,6,5)            -60.4057         estimate D2E/DX2                !
 ! D11   D(14,1,6,5)            60.7994         estimate D2E/DX2                !
 ! D12   D(15,1,6,5)           177.9556         estimate D2E/DX2                !
 ! D13   D(11,2,9,7)            48.7826         estimate D2E/DX2                !
 ! D14   D(11,2,9,26)          -69.9716         estimate D2E/DX2                !
 ! D15   D(11,2,9,27)          175.4369         estimate D2E/DX2                !
 ! D16   D(12,2,9,7)           -73.3852         estimate D2E/DX2                !
 ! D17   D(12,2,9,26)          167.8606         estimate D2E/DX2                !
 ! D18   D(12,2,9,27)           53.2691         estimate D2E/DX2                !
 ! D19   D(16,2,9,7)           163.6939         estimate D2E/DX2                !
 ! D20   D(16,2,9,26)           44.9398         estimate D2E/DX2                !
 ! D21   D(16,2,9,27)          -69.6517         estimate D2E/DX2                !
 ! D22   D(9,2,11,8)           -54.7433         estimate D2E/DX2                !
 ! D23   D(12,2,11,8)           73.3078         estimate D2E/DX2                !
 ! D24   D(16,2,11,8)         -172.5515         estimate D2E/DX2                !
 ! D25   D(9,2,12,3)           -20.8945         estimate D2E/DX2                !
 ! D26   D(11,2,12,3)         -144.8551         Frozen                          !
 ! D27   D(16,2,12,3)          102.9449         estimate D2E/DX2                !
 ! D28   D(1,3,12,2)           -81.0341         estimate D2E/DX2                !
 ! D29   D(13,3,12,2)          158.7855         estimate D2E/DX2                !
 ! D30   D(17,3,12,2)           39.4759         estimate D2E/DX2                !
 ! D31   D(1,3,13,10)          -49.7653         estimate D2E/DX2                !
 ! D32   D(1,3,13,30)         -173.3644         estimate D2E/DX2                !
 ! D33   D(1,3,13,31)           70.1679         estimate D2E/DX2                !
 ! D34   D(12,3,13,10)          71.0143         estimate D2E/DX2                !
 ! D35   D(12,3,13,30)         -52.5848         estimate D2E/DX2                !
 ! D36   D(12,3,13,31)        -169.0525         estimate D2E/DX2                !
 ! D37   D(17,3,13,10)        -168.9476         estimate D2E/DX2                !
 ! D38   D(17,3,13,30)          67.4533         estimate D2E/DX2                !
 ! D39   D(17,3,13,31)         -49.0144         estimate D2E/DX2                !
 ! D40   D(8,4,7,9)             51.9655         estimate D2E/DX2                !
 ! D41   D(8,4,7,22)           -69.8413         estimate D2E/DX2                !
 ! D42   D(8,4,7,23)           172.8368         estimate D2E/DX2                !
 ! D43   D(18,4,7,9)           -68.1663         estimate D2E/DX2                !
 ! D44   D(18,4,7,22)          170.0268         estimate D2E/DX2                !
 ! D45   D(18,4,7,23)           52.705          estimate D2E/DX2                !
 ! D46   D(19,4,7,9)           172.8551         estimate D2E/DX2                !
 ! D47   D(19,4,7,22)           51.0482         estimate D2E/DX2                !
 ! D48   D(19,4,7,23)          -66.2737         estimate D2E/DX2                !
 ! D49   D(7,4,8,11)           -56.5378         estimate D2E/DX2                !
 ! D50   D(7,4,8,24)          -173.9217         estimate D2E/DX2                !
 ! D51   D(7,4,8,25)            65.3616         estimate D2E/DX2                !
 ! D52   D(18,4,8,11)           64.1362         estimate D2E/DX2                !
 ! D53   D(18,4,8,24)          -53.2476         estimate D2E/DX2                !
 ! D54   D(18,4,8,25)         -173.9643         estimate D2E/DX2                !
 ! D55   D(19,4,8,11)         -178.4599         estimate D2E/DX2                !
 ! D56   D(19,4,8,24)           64.1562         estimate D2E/DX2                !
 ! D57   D(19,4,8,25)          -56.5605         estimate D2E/DX2                !
 ! D58   D(10,5,6,1)            60.7173         estimate D2E/DX2                !
 ! D59   D(20,5,6,1)          -177.8125         estimate D2E/DX2                !
 ! D60   D(21,5,6,1)           -61.2373         estimate D2E/DX2                !
 ! D61   D(6,5,10,13)          -54.7898         estimate D2E/DX2                !
 ! D62   D(6,5,10,28)         -176.1586         estimate D2E/DX2                !
 ! D63   D(6,5,10,29)           66.7356         estimate D2E/DX2                !
 ! D64   D(20,5,10,13)        -173.1848         estimate D2E/DX2                !
 ! D65   D(20,5,10,28)          65.4464         estimate D2E/DX2                !
 ! D66   D(20,5,10,29)         -51.6594         estimate D2E/DX2                !
 ! D67   D(21,5,10,13)          66.1859         estimate D2E/DX2                !
 ! D68   D(21,5,10,28)         -55.1829         estimate D2E/DX2                !
 ! D69   D(21,5,10,29)        -172.2887         estimate D2E/DX2                !
 ! D70   D(4,7,9,2)            -49.2443         estimate D2E/DX2                !
 ! D71   D(4,7,9,26)            67.4868         estimate D2E/DX2                !
 ! D72   D(4,7,9,27)          -175.4114         estimate D2E/DX2                !
 ! D73   D(22,7,9,2)            71.5666         estimate D2E/DX2                !
 ! D74   D(22,7,9,26)         -171.7023         estimate D2E/DX2                !
 ! D75   D(22,7,9,27)          -54.6006         estimate D2E/DX2                !
 ! D76   D(23,7,9,2)          -170.9595         estimate D2E/DX2                !
 ! D77   D(23,7,9,26)          -54.2285         estimate D2E/DX2                !
 ! D78   D(23,7,9,27)           62.8733         estimate D2E/DX2                !
 ! D79   D(4,8,11,2)            60.1539         estimate D2E/DX2                !
 ! D80   D(24,8,11,2)         -178.7053         estimate D2E/DX2                !
 ! D81   D(25,8,11,2)          -62.4882         estimate D2E/DX2                !
 ! D82   D(5,10,13,3)           50.6652         estimate D2E/DX2                !
 ! D83   D(5,10,13,30)         173.3853         estimate D2E/DX2                !
 ! D84   D(5,10,13,31)         -68.3056         estimate D2E/DX2                !
 ! D85   D(28,10,13,3)         171.4023         estimate D2E/DX2                !
 ! D86   D(28,10,13,30)        -65.8776         estimate D2E/DX2                !
 ! D87   D(28,10,13,31)         52.4314         estimate D2E/DX2                !
 ! D88   D(29,10,13,3)         -70.1524         estimate D2E/DX2                !
 ! D89   D(29,10,13,30)         52.5676         estimate D2E/DX2                !
 ! D90   D(29,10,13,31)        170.8767         estimate D2E/DX2                !
 --------------------------------------------------------------------------------
 Trust Radius=3.00D-01 FncErr=1.00D-07 GrdErr=1.00D-06 EigMax=2.50D+02 EigMin=1.00D-04
 Number of steps in this run=    186 maximum allowed number of steps=    186.
 GradGradGradGradGradGradGradGradGradGradGradGradGradGradGradGradGradGrad

                          Input orientation:                          
 ---------------------------------------------------------------------
 Center     Atomic      Atomic             Coordinates (Angstroms)
 Number     Number       Type             X           Y           Z
 ---------------------------------------------------------------------
      1          6           0       -1.805120    1.334681   -0.190059
      2          6           0        1.083738    0.455491    0.946203
      3          6           0       -0.847342    0.227093   -0.613705
      4          6           0        3.442675   -0.401993   -0.542060
      5          6           0       -3.580806   -0.168561    0.225078
      6          8           0       -2.766945    0.872517    0.734073
      7          6           0        2.546353    0.678148   -1.144791
      8          6           0        2.622482   -1.294360    0.371046
      9          6           0        1.776861    1.400788   -0.034926
     10          6           0       -2.742693   -1.379890   -0.151875
     11          8           0        1.978362   -0.532004    1.381974
     12          8           0       -0.066877   -0.214338    0.485196
     13          6           0       -1.635722   -0.974592   -1.127459
     14          1           0       -2.305663    1.729965   -1.071295
     15          1           0       -1.276422    2.143259    0.294815
     16          1           0        0.812461    0.998272    1.840023
     17          1           0       -0.213154    0.603025   -1.401684
     18          1           0        4.244743    0.055907    0.031943
     19          1           0        3.900377   -1.007152   -1.319367
     20          1           0       -4.293768   -0.405915    1.002858
     21          1           0       -4.127768    0.202080   -0.639452
     22          1           0        1.862611    0.219509   -1.852854
     23          1           0        3.136730    1.400391   -1.700252
     24          1           0        3.242953   -2.005941    0.897873
     25          1           0        1.879938   -1.846545   -0.195225
     26          1           0        2.482985    1.967017    0.566153
     27          1           0        1.073221    2.118589   -0.438155
     28          1           0       -3.383669   -2.133243   -0.600797
     29          1           0       -2.315565   -1.813512    0.747280
     30          1           0       -0.958553   -1.800771   -1.316988
     31          1           0       -2.080335   -0.695166   -2.079539
 ---------------------------------------------------------------------
                    Distance matrix (angstroms):
                    1          2          3          4          5
     1  C    0.000000
     2  C    3.226386   0.000000
     3  C    1.524325   2.492900   0.000000
     4  C    5.538889   2.918011   4.336488   0.000000
     5  C    2.363289   4.761033   2.886507   7.069107   0.000000
     6  O    1.411638   3.879004   2.432684   6.466241   1.416082
     7  C    4.503095   2.561459   3.464487   1.527541   6.335261
     8  C    5.179803   2.400108   3.914618   1.517497   6.306307
     9  C    3.585948   1.528601   2.932403   2.506420   5.588833
    10  C    2.872176   4.383603   2.527457   6.274337   1.520475
    11  O    4.502281   1.401925   3.541690   2.421368   5.689890
    12  O    2.424236   1.408940   1.418298   3.661615   3.523841
    13  C    2.498030   3.706842   1.526281   5.143994   2.502478
    14  H    1.087828   4.145193   2.143528   6.153757   2.628873
    15  H    1.080936   2.973756   2.163610   5.426651   3.264898
    16  H    3.329585   1.080332   3.061118   3.814851   4.823934
    17  H    2.130190   2.686311   1.079088   3.887686   3.818741
    18  H    6.187519   3.314739   5.135708   1.087412   7.831150
    19  H    6.269945   3.899434   4.956022   1.086239   7.684832
    20  H    3.262835   5.446357   3.858993   7.889191   1.081477
    21  H    2.622867   5.453285   3.280622   7.595130   1.088097
    22  H    4.178606   2.914970   2.979831   2.145005   5.839451
    23  H    5.167870   3.480135   4.293023   2.164162   7.161969
    24  H    6.150316   3.274629   4.899165   2.164704   7.098754
    25  H    4.868252   2.690012   3.451544   2.156194   5.728177
    26  H    4.399949   2.094526   3.938334   2.785920   6.437902
    27  H    2.993478   2.163898   2.701321   3.460989   5.227896
    28  H    3.832365   5.390035   3.464723   7.042702   2.140306
    29  H    3.324196   4.091846   2.858676   6.067299   2.139952
    30  H    3.437689   3.792585   2.149234   4.682724   3.452287
    31  H    2.786783   4.526642   2.125912   5.740508   2.799997
                    6          7          8          9         10
     6  O    0.000000
     7  C    5.639064   0.000000
     8  C    5.820057   2.488844   0.000000
     9  C    4.638599   1.531707   2.853719   0.000000
    10  C    2.420502   5.761546   5.391277   5.307751   0.000000
    11  O    4.991031   2.858605   1.420582   2.404973   5.035868
    12  O    2.921226   3.206612   2.900367   2.505699   2.987367
    13  C    2.856007   4.496843   4.525491   4.299044   1.530168
    14  H    2.051183   4.965257   5.959321   4.224857   3.272236
    15  H    2.007334   4.339657   5.198508   3.159514   3.842143
    16  H    3.748478   3.466695   3.269592   2.146514   4.718308
    17  H    3.340050   2.772457   3.844928   2.542560   3.448557
    18  H    7.093913   2.157873   2.137742   2.811337   7.135795
    19  H    7.225161   2.168892   2.138457   3.457931   6.755172
    20  H    2.009433   7.250851   7.001645   6.418232   2.165149
    21  H    2.046435   6.710134   6.987583   6.055328   2.158424
    22  H    5.343351   1.085913   2.795520   2.169709   5.163355
    23  H    6.407649   1.085687   3.437500   2.150013   6.685436
    24  H    6.665675   3.444134   1.081147   3.824309   6.109163
    25  H    5.463553   2.778463   1.084870   3.252921   4.646328
    26  H    5.365435   2.143018   3.270184   1.086518   6.247004
    27  H    4.204009   2.178147   3.834480   1.083024   5.184835
    28  H    3.346165   6.585211   6.141828   6.280180   1.086242
    29  H    2.723724   5.781570   4.979496   5.262273   1.085793
    30  H    3.824082   4.296401   3.991206   4.401835   2.172046
    31  H    3.293247   4.915891   5.336749   4.842667   2.150222
                   11         12         13         14         15
    11  O    0.000000
    12  O    2.255687   0.000000
    13  C    4.422074   2.374851   0.000000
    14  H    5.430276   3.348901   2.786863   0.000000
    15  H    4.351157   2.656597   3.445715   1.759661   0.000000
    16  H    1.977594   2.019707   4.323395   4.328261   2.839383
    17  H    3.720186   2.061503   2.141909   2.399530   2.526058
    18  H    2.702722   4.343793   6.081612   6.850359   5.908418
    19  H    3.349201   4.429910   5.539520   6.787362   6.271357
    20  H    6.284842   4.262779   3.453528   3.580036   4.012978
    21  H    6.473783   4.234274   2.798750   2.416814   3.573682
    22  H    3.322993   3.062291   3.767016   4.501868   4.262256
    23  H    3.817864   4.200789   5.361430   5.488520   4.899802
    24  H    2.001508   3.786175   5.382111   6.972930   6.164762
    25  H    2.055544   2.630050   3.740218   5.574781   5.110899
    26  H    2.676810   3.356585   5.337146   5.066417   3.773304
    27  H    3.340328   2.755893   4.169086   3.459588   2.461438
    28  H    5.936895   3.982799   2.162213   4.038297   4.850884
    29  H    4.525805   2.771758   2.163474   3.982906   4.115894
    30  H    4.185646   2.561196   1.084920   3.786973   4.272508
    31  H    5.336826   3.295918   1.087298   2.636018   3.786884
                   16         17         18         19         20
    16  H    0.000000
    17  H    3.422977   0.000000
    18  H    3.992213   4.714602   0.000000
    19  H    4.851669   4.418210   1.753488   0.000000
    20  H    5.361545   4.842643   8.605935   8.538046   0.000000
    21  H    5.584584   4.008236   8.400659   8.147125   1.759090
    22  H    3.917477   2.158573   3.042002   2.437580   6.815222
    23  H    4.254112   3.456394   2.456793   2.554309   8.110601
    24  H    3.977466   4.902993   2.450436   2.519115   7.705405
    25  H    3.657147   3.440490   3.043556   2.459766   6.451780
    26  H    2.313409   3.605832   2.653585   3.796033   7.193462
    27  H    2.552097   2.209091   3.812375   4.305764   6.103623
    28  H    5.776807   4.263889   7.961495   7.405522   2.526589
    29  H    4.345660   3.857179   6.858868   6.599938   2.441298
    30  H    4.575790   2.518140   5.686929   4.923316   4.295459
    31  H    5.157419   2.373005   6.710371   6.036896   3.805801
                   21         22         23         24         25
    21  H    0.000000
    22  H    6.112061   0.000000
    23  H    7.438695   1.743889   0.000000
    24  H    7.846417   3.797956   4.285398   0.000000
    25  H    6.362919   2.648889   3.793050   1.754446   0.000000
    26  H    6.947700   3.047990   2.425910   4.058569   3.935304
    27  H    5.546514   2.496200   2.523245   4.848139   4.053652
    28  H    2.451308   5.884432   7.497398   6.795170   5.286988
    29  H    3.044621   5.324568   6.785802   5.563886   4.300192
    30  H    3.809776   3.511075   5.212070   4.753983   3.052455
    31  H    2.659113   4.053991   5.634979   6.238630   4.534322
                   26         27         28         29         30
    26  H    0.000000
    27  H    1.737539   0.000000
    28  H    7.252002   6.161850   0.000000
    29  H    6.111570   5.324523   1.749396   0.000000
    30  H    5.439359   4.501315   2.550422   2.470394   0.000000
    31  H    5.908536   4.533903   2.439964   3.049088   1.749926
                   31
    31  H    0.000000
 Stoichiometry    C10H18O3
 Framework group  C1[X(C10H18O3)]
 Deg. of freedom    87
 Full point group                 C1      NOp   1
 Largest Abelian subgroup         C1      NOp   1
 Largest concise Abelian subgroup C1      NOp   1
                         Standard orientation:                         
 ---------------------------------------------------------------------
 Center     Atomic      Atomic             Coordinates (Angstroms)
 Number     Number       Type             X           Y           Z
 ---------------------------------------------------------------------
      1          6           0        1.805120    1.334681    0.190059
      2          6           0       -1.083738    0.455491   -0.946203
      3          6           0        0.847342    0.227093    0.613705
      4          6           0       -3.442675   -0.401993    0.542060
      5          6           0        3.580806   -0.168561   -0.225078
      6          8           0        2.766945    0.872517   -0.734073
      7          6           0       -2.546353    0.678148    1.144791
      8          6           0       -2.622482   -1.294360   -0.371046
      9          6           0       -1.776861    1.400788    0.034926
     10          6           0        2.742693   -1.379890    0.151875
     11          8           0       -1.978362   -0.532004   -1.381974
     12          8           0        0.066877   -0.214338   -0.485196
     13          6           0        1.635722   -0.974592    1.127459
     14          1           0        2.305663    1.729965    1.071295
     15          1           0        1.276422    2.143259   -0.294815
     16          1           0       -0.812461    0.998272   -1.840023
     17          1           0        0.213154    0.603025    1.401684
     18          1           0       -4.244743    0.055907   -0.031943
     19          1           0       -3.900377   -1.007152    1.319367
     20          1           0        4.293768   -0.405915   -1.002858
     21          1           0        4.127768    0.202080    0.639452
     22          1           0       -1.862611    0.219509    1.852854
     23          1           0       -3.136730    1.400391    1.700252
     24          1           0       -3.242953   -2.005941   -0.897873
     25          1           0       -1.879938   -1.846545    0.195225
     26          1           0       -2.482985    1.967017   -0.566153
     27          1           0       -1.073221    2.118589    0.438155
     28          1           0        3.383669   -2.133243    0.600797
     29          1           0        2.315565   -1.813512   -0.747280
     30          1           0        0.958553   -1.800771    1.316988
     31          1           0        2.080335   -0.695166    2.079539
 ---------------------------------------------------------------------
 Rotational constants (GHZ):           1.7585076           0.4521113           0.4337199
 Standard basis: 6-311++G(2d,2p) (5D, 7F)
 There are   557 symmetry adapted cartesian basis functions of A   symmetry.
 There are   531 symmetry adapted basis functions of A   symmetry.
   531 basis functions,   762 primitive gaussians,   557 cartesian basis functions
    51 alpha electrons       51 beta electrons
       nuclear repulsion energy       906.3368381119 Hartrees.
 NAtoms=   31 NActive=   31 NUniq=   31 SFac= 1.00D+00 NAtFMM=   60 NAOKFM=F Big=F
 Integral buffers will be    131072 words long.
 Raffenetti 2 integral format.
 Two-electron integral symmetry is turned on.
 ------------------------------------------------------------------------------
 Polarizable Continuum Model (PCM)
 =================================
 Model                : PCM.
 Atomic radii         : SMD-Coulomb.
 Polarization charges : Total charges.
 Charge compensation  : None.
 Solution method      : On-the-fly selection.
 Cavity type          : VdW (van der Waals Surface) (Alpha=1.000).
 Cavity algorithm     : GePol (No added spheres)
                        Default sphere list used, NSphG=   31.
                        Lebedev-Laikov grids with approx.  5.0 points / Ang**2.
                        Smoothing algorithm: York/Karplus (Gamma=1.0000).
                        Polarization charges: spherical gaussians, with
                                              point-specific exponents (IZeta= 3).
                        Self-potential: point-specific (ISelfS= 7).
                        Self-field    : sphere-specific E.n sum rule (ISelfD= 2).
 1st derivatives      : Analytical E(r).r(x)/FMM algorithm (CHGder, D1EAlg=3).
                        Cavity 1st derivative terms included.
 Solvent              : Water, Eps=  78.355300 Eps(inf)=   1.777849
 ------------------------------------------------------------------------------
 ------------------------------------------------------------------------------
 Atomic radii for non-electrostatic terms: SMD-CDS.
 ------------------------------------------------------------------------------
 Nuclear repulsion after PCM non-electrostatic terms =      906.3431568234 Hartrees.
 One-electron integrals computed using PRISM.
 NBasis=   531 RedAO= T EigKep=  4.54D-06  NBF=   531
 NBsUse=   531 1.00D-06 EigRej= -1.00D+00 NBFU=   531
 ExpMin= 3.60D-02 ExpMax= 8.59D+03 ExpMxC= 1.30D+03 IAcc=3 IRadAn=         5 AccDes= 0.00D+00
 Harris functional with IExCor= 1009 and IRadAn=       5 diagonalized for initial guess.
 HarFok:  IExCor= 1009 AccDes= 0.00D+00 IRadAn=         5 IDoV= 1 UseB2=F ITyADJ=14
 ICtDFT=  3500011 ScaDFX=  1.000000  1.000000  1.000000  1.000000
 FoFCou: FMM=F IPFlag=           0 FMFlag=      100000 FMFlg1=           0
         NFxFlg=           0 DoJE=T BraDBF=F KetDBF=T FulRan=T
         wScrn=  0.000000 ICntrl=       500 IOpCl=  0 I1Cent=   200000004 NGrid=           0
         NMat0=    1 NMatS0=      1 NMatT0=    0 NMatD0=    1 NMtDS0=    0 NMtDT0=    0
 Petite list used in FoFCou.
 Requested convergence on RMS density matrix=1.00D-08 within 128 cycles.
 Requested convergence on MAX density matrix=1.00D-06.
 Requested convergence on             energy=1.00D-06.
 No special actions if energy rises.
 Inv3:  Mode=1 IEnd=    12084147.
 Iteration    1 A*A^-1 deviation from unit magnitude is 6.88D-15 for    256.
 Iteration    1 A*A^-1 deviation from orthogonality  is 3.79D-15 for   1628    256.
 Iteration    1 A^-1*A deviation from unit magnitude is 5.55D-15 for    218.
 Iteration    1 A^-1*A deviation from orthogonality  is 9.97D-13 for   1862   1829.
 Error on total polarization charges =  0.06115
 SCF Done:  E(RM062X) =  -617.499196411     A.U. after   12 cycles
            NFock= 12  Conv=0.58D-08     -V/T= 2.0035
 SMD-CDS (non-electrostatic) energy       (kcal/mol) =       3.97
 (included in total energy above)

 **********************************************************************

            Population analysis using the SCF Density.

 **********************************************************************

 Orbital symmetries:
       Occupied  (A) (A) (A) (A) (A) (A) (A) (A) (A) (A) (A) (A)
                 (A) (A) (A) (A) (A) (A) (A) (A) (A) (A) (A) (A)
                 (A) (A) (A) (A) (A) (A) (A) (A) (A) (A) (A) (A)
                 (A) (A) (A) (A) (A) (A) (A) (A) (A) (A) (A) (A)
                 (A) (A) (A)
       Virtual   (A) (A) (A) (A) (A) (A) (A) (A) (A) (A) (A) (A)
                 (A) (A) (A) (A) (A) (A) (A) (A) (A) (A) (A) (A)
                 (A) (A) (A) (A) (A) (A) (A) (A) (A) (A) (A) (A)
                 (A) (A) (A) (A) (A) (A) (A) (A) (A) (A) (A) (A)
                 (A) (A) (A) (A) (A) (A) (A) (A) (A) (A) (A) (A)
                 (A) (A) (A) (A) (A) (A) (A) (A) (A) (A) (A) (A)
                 (A) (A) (A) (A) (A) (A) (A) (A) (A) (A) (A) (A)
                 (A) (A) (A) (A) (A) (A) (A) (A) (A) (A) (A) (A)
                 (A) (A) (A) (A) (A) (A) (A) (A) (A) (A) (A) (A)
                 (A) (A) (A) (A) (A) (A) (A) (A) (A) (A) (A) (A)
                 (A) (A) (A) (A) (A) (A) (A) (A) (A) (A) (A) (A)
                 (A) (A) (A) (A) (A) (A) (A) (A) (A) (A) (A) (A)
                 (A) (A) (A) (A) (A) (A) (A) (A) (A) (A) (A) (A)
                 (A) (A) (A) (A) (A) (A) (A) (A) (A) (A) (A) (A)
                 (A) (A) (A) (A) (A) (A) (A) (A) (A) (A) (A) (A)
                 (A) (A) (A) (A) (A) (A) (A) (A) (A) (A) (A) (A)
                 (A) (A) (A) (A) (A) (A) (A) (A) (A) (A) (A) (A)
                 (A) (A) (A) (A) (A) (A) (A) (A) (A) (A) (A) (A)
                 (A) (A) (A) (A) (A) (A) (A) (A) (A) (A) (A) (A)
                 (A) (A) (A) (A) (A) (A) (A) (A) (A) (A) (A) (A)
                 (A) (A) (A) (A) (A) (A) (A) (A) (A) (A) (A) (A)
                 (A) (A) (A) (A) (A) (A) (A) (A) (A) (A) (A) (A)
                 (A) (A) (A) (A) (A) (A) (A) (A) (A) (A) (A) (A)
                 (A) (A) (A) (A) (A) (A) (A) (A) (A) (A) (A) (A)
                 (A) (A) (A) (A) (A) (A) (A) (A) (A) (A) (A) (A)
                 (A) (A) (A) (A) (A) (A) (A) (A) (A) (A) (A) (A)
                 (A) (A) (A) (A) (A) (A) (A) (A) (A) (A) (A) (A)
                 (A) (A) (A) (A) (A) (A) (A) (A) (A) (A) (A) (A)
                 (A) (A) (A) (A) (A) (A) (A) (A) (A) (A) (A) (A)
                 (A) (A) (A) (A) (A) (A) (A) (A) (A) (A) (A) (A)
                 (A) (A) (A) (A) (A) (A) (A) (A) (A) (A) (A) (A)
                 (A) (A) (A) (A) (A) (A) (A) (A) (A) (A) (A) (A)
                 (A) (A) (A) (A) (A) (A) (A) (A) (A) (A) (A) (A)
                 (A) (A) (A) (A) (A) (A) (A) (A) (A) (A) (A) (A)
                 (A) (A) (A) (A) (A) (A) (A) (A) (A) (A) (A) (A)
                 (A) (A) (A) (A) (A) (A) (A) (A) (A) (A) (A) (A)
                 (A) (A) (A) (A) (A) (A) (A) (A) (A) (A) (A) (A)
                 (A) (A) (A) (A) (A) (A) (A) (A) (A) (A) (A) (A)
                 (A) (A) (A) (A) (A) (A) (A) (A) (A) (A) (A) (A)
                 (A) (A) (A) (A) (A) (A) (A) (A) (A) (A) (A) (A)
 The electronic state is 1-A.
 Alpha  occ. eigenvalues --  -19.62901 -19.62703 -19.62584 -10.63298 -10.58261
 Alpha  occ. eigenvalues --  -10.57173 -10.57105 -10.57098 -10.52550 -10.52501
 Alpha  occ. eigenvalues --  -10.52418 -10.52142 -10.52079  -1.19934  -1.16567
 Alpha  occ. eigenvalues --   -1.13246  -0.89954  -0.89551  -0.86696  -0.84692
 Alpha  occ. eigenvalues --   -0.74701  -0.73734  -0.72819  -0.70768  -0.66145
 Alpha  occ. eigenvalues --   -0.61552  -0.59604  -0.58467  -0.57252  -0.55465
 Alpha  occ. eigenvalues --   -0.54519  -0.53149  -0.51646  -0.50115  -0.49529
 Alpha  occ. eigenvalues --   -0.48259  -0.46832  -0.45632  -0.45404  -0.44766
 Alpha  occ. eigenvalues --   -0.43336  -0.42327  -0.40283  -0.39038  -0.38768
 Alpha  occ. eigenvalues --   -0.37839  -0.37008  -0.36607  -0.35052  -0.32765
 Alpha  occ. eigenvalues --   -0.31239
 Alpha virt. eigenvalues --    0.00303   0.01295   0.01452   0.01540   0.02727
 Alpha virt. eigenvalues --    0.02985   0.03174   0.03756   0.03958   0.05073
 Alpha virt. eigenvalues --    0.05159   0.05344   0.05977   0.06424   0.07599
 Alpha virt. eigenvalues --    0.07890   0.08393   0.09033   0.09345   0.10028
 Alpha virt. eigenvalues --    0.10533   0.11083   0.11607   0.11892   0.12712
 Alpha virt. eigenvalues --    0.12910   0.12984   0.13569   0.13790   0.14108
 Alpha virt. eigenvalues --    0.14402   0.14668   0.14920   0.15170   0.15255
 Alpha virt. eigenvalues --    0.15358   0.15965   0.16187   0.16323   0.16694
 Alpha virt. eigenvalues --    0.16936   0.17473   0.18020   0.18041   0.18277
 Alpha virt. eigenvalues --    0.18330   0.18822   0.19128   0.19754   0.20422
 Alpha virt. eigenvalues --    0.20473   0.20645   0.21023   0.21343   0.21985
 Alpha virt. eigenvalues --    0.22888   0.23112   0.23304   0.24095   0.24632
 Alpha virt. eigenvalues --    0.25516   0.26009   0.26814   0.27552   0.28070
 Alpha virt. eigenvalues --    0.28358   0.28611   0.29075   0.29723   0.30005
 Alpha virt. eigenvalues --    0.30840   0.31543   0.31950   0.32099   0.32625
 Alpha virt. eigenvalues --    0.33348   0.33499   0.34242   0.34685   0.35036
 Alpha virt. eigenvalues --    0.35174   0.35670   0.36139   0.36647   0.36958
 Alpha virt. eigenvalues --    0.37105   0.37420   0.37900   0.38327   0.38755
 Alpha virt. eigenvalues --    0.38945   0.39399   0.40013   0.40575   0.41267
 Alpha virt. eigenvalues --    0.41404   0.42551   0.43252   0.44273   0.45728
 Alpha virt. eigenvalues --    0.47217   0.48968   0.50129   0.50382   0.51317
 Alpha virt. eigenvalues --    0.52044   0.53179   0.53404   0.54992   0.56183
 Alpha virt. eigenvalues --    0.57158   0.58233   0.58679   0.59627   0.60380
 Alpha virt. eigenvalues --    0.61218   0.61692   0.61802   0.61933   0.62317
 Alpha virt. eigenvalues --    0.62770   0.63789   0.64049   0.64651   0.65080
 Alpha virt. eigenvalues --    0.65181   0.66167   0.66802   0.67327   0.67923
 Alpha virt. eigenvalues --    0.68337   0.69424   0.69568   0.69980   0.70289
 Alpha virt. eigenvalues --    0.71118   0.71597   0.72353   0.72939   0.73762
 Alpha virt. eigenvalues --    0.73999   0.74391   0.76093   0.76503   0.76873
 Alpha virt. eigenvalues --    0.77469   0.78250   0.78429   0.78666   0.80671
 Alpha virt. eigenvalues --    0.81684   0.83032   0.84036   0.85245   0.86115
 Alpha virt. eigenvalues --    0.87437   0.87838   0.88664   0.89327   0.91014
 Alpha virt. eigenvalues --    0.92051   0.93806   0.94247   0.95502   0.97035
 Alpha virt. eigenvalues --    0.97614   0.99921   1.00075   1.00573   1.01838
 Alpha virt. eigenvalues --    1.02232   1.04180   1.04474   1.06442   1.07409
 Alpha virt. eigenvalues --    1.08589   1.08938   1.10330   1.11803   1.12589
 Alpha virt. eigenvalues --    1.14106   1.14302   1.16495   1.17093   1.18104
 Alpha virt. eigenvalues --    1.18689   1.19855   1.20166   1.20745   1.21726
 Alpha virt. eigenvalues --    1.22135   1.22582   1.23502   1.24183   1.25560
 Alpha virt. eigenvalues --    1.26240   1.26347   1.27628   1.27801   1.28083
 Alpha virt. eigenvalues --    1.28870   1.29233   1.30653   1.32276   1.32603
 Alpha virt. eigenvalues --    1.33657   1.33968   1.34526   1.34911   1.35777
 Alpha virt. eigenvalues --    1.36721   1.36999   1.37126   1.38060   1.39247
 Alpha virt. eigenvalues --    1.40061   1.40369   1.40806   1.41331   1.42055
 Alpha virt. eigenvalues --    1.43436   1.44010   1.44953   1.45312   1.45793
 Alpha virt. eigenvalues --    1.46469   1.46925   1.47999   1.49123   1.49201
 Alpha virt. eigenvalues --    1.50185   1.50557   1.51928   1.52174   1.52809
 Alpha virt. eigenvalues --    1.53293   1.54218   1.55054   1.55606   1.56671
 Alpha virt. eigenvalues --    1.57946   1.58374   1.58465   1.58904   1.59631
 Alpha virt. eigenvalues --    1.59859   1.61100   1.61536   1.62824   1.63659
 Alpha virt. eigenvalues --    1.64237   1.64987   1.65521   1.66952   1.67666
 Alpha virt. eigenvalues --    1.69472   1.69837   1.71181   1.72234   1.72586
 Alpha virt. eigenvalues --    1.74587   1.75345   1.76255   1.77378   1.78021
 Alpha virt. eigenvalues --    1.79882   1.80473   1.82359   1.83092   1.83817
 Alpha virt. eigenvalues --    1.85523   1.90130   1.93914   1.97049   2.02220
 Alpha virt. eigenvalues --    2.04022   2.05620   2.13995   2.19069   2.22165
 Alpha virt. eigenvalues --    2.25902   2.26976   2.27770   2.29934   2.38751
 Alpha virt. eigenvalues --    2.41585   2.42741   2.44283   2.49188   2.52097
 Alpha virt. eigenvalues --    2.58511   2.76409   2.79000   2.80121   2.81625
 Alpha virt. eigenvalues --    2.83677   2.86993   2.93334   2.94090   2.95461
 Alpha virt. eigenvalues --    2.96665   2.99194   2.99886   3.03065   3.03658
 Alpha virt. eigenvalues --    3.07506   3.08014   3.09811   3.10704   3.12320
 Alpha virt. eigenvalues --    3.13887   3.15338   3.17428   3.19172   3.23503
 Alpha virt. eigenvalues --    3.26010   3.29405   3.32384   3.33191   3.34150
 Alpha virt. eigenvalues --    3.36241   3.37676   3.39094   3.41046   3.41459
 Alpha virt. eigenvalues --    3.43653   3.43877   3.45236   3.46669   3.48508
 Alpha virt. eigenvalues --    3.49255   3.49702   3.50808   3.51138   3.52890
 Alpha virt. eigenvalues --    3.53714   3.54486   3.55248   3.56850   3.57509
 Alpha virt. eigenvalues --    3.58131   3.58635   3.59550   3.59968   3.60578
 Alpha virt. eigenvalues --    3.62086   3.62887   3.63997   3.64940   3.65860
 Alpha virt. eigenvalues --    3.66906   3.67255   3.68584   3.69510   3.69942
 Alpha virt. eigenvalues --    3.71089   3.71725   3.73215   3.74117   3.74944
 Alpha virt. eigenvalues --    3.75565   3.75982   3.77340   3.78166   3.78299
 Alpha virt. eigenvalues --    3.79890   3.80037   3.81900   3.82547   3.85086
 Alpha virt. eigenvalues --    3.86894   3.89359   3.89563   3.91683   3.92645
 Alpha virt. eigenvalues --    3.94421   3.95208   3.95487   3.97211   3.98091
 Alpha virt. eigenvalues --    4.01686   4.01860   4.03125   4.03917   4.05515
 Alpha virt. eigenvalues --    4.06047   4.06153   4.06539   4.07597   4.08463
 Alpha virt. eigenvalues --    4.09877   4.10359   4.10824   4.11101   4.11904
 Alpha virt. eigenvalues --    4.12257   4.13470   4.14543   4.16407   4.17000
 Alpha virt. eigenvalues --    4.17805   4.18193   4.19398   4.20423   4.21273
 Alpha virt. eigenvalues --    4.22477   4.24977   4.25770   4.26794   4.27913
 Alpha virt. eigenvalues --    4.29671   4.30457   4.31204   4.32394   4.33898
 Alpha virt. eigenvalues --    4.34990   4.35524   4.36198   4.37962   4.40378
 Alpha virt. eigenvalues --    4.43244   4.43602   4.46042   4.48887   4.52602
 Alpha virt. eigenvalues --    4.59461   4.60265   4.75716   4.76097   4.82445
 Alpha virt. eigenvalues --    4.85921   4.94464   4.95676   5.00108   5.04936
 Alpha virt. eigenvalues --    5.07809   5.08406   5.09088   5.09640   5.12112
 Alpha virt. eigenvalues --    5.13600   5.14408   5.16970   5.31899   5.34587
 Alpha virt. eigenvalues --    5.44438   5.58628   5.59546   5.63164   5.86751
 Alpha virt. eigenvalues --    5.87918   6.01259   7.00584   7.05986   7.08836
 Alpha virt. eigenvalues --    7.09276   7.10664   7.11171   7.13107   7.16340
 Alpha virt. eigenvalues --    7.26462   7.36824   7.40462   7.48730   7.52792
 Alpha virt. eigenvalues --    7.56208   7.60761  23.96414  23.98117  24.07083
 Alpha virt. eigenvalues --   24.08786  24.11869  24.12914  24.14195  24.16080
 Alpha virt. eigenvalues --   24.19125  24.20046  50.17047  50.17256  50.25900
          Condensed to atoms (all electrons):
               1          2          3          4          5          6
     1  C    6.191070  -0.061875  -0.449173  -0.003551  -0.306668   0.155774
     2  C   -0.061875   7.190637  -0.669112   0.037619   0.041134  -0.027254
     3  C   -0.449173  -0.669112   7.643691   0.057871   0.314442  -0.055894
     4  C   -0.003551   0.037619   0.057871   6.138801  -0.004062   0.000774
     5  C   -0.306668   0.041134   0.314442  -0.004062   5.498690   0.050346
     6  O    0.155774  -0.027254  -0.055894   0.000774   0.050346   8.358293
     7  C   -0.072430   0.325747  -0.139030  -0.201651   0.008239   0.001899
     8  C   -0.012280  -0.394070   0.056461  -0.133537   0.000512   0.001312
     9  C    0.156421  -1.363058   0.397163  -0.014159  -0.019001   0.001457
    10  C    0.105891   0.022585  -0.420519   0.000302   0.059540   0.021823
    11  O    0.015046   0.140372  -0.074663  -0.102512  -0.003499   0.000937
    12  O   -0.073154   0.146277   0.081335  -0.029016  -0.012220   0.036512
    13  C   -0.032417   0.222455  -1.106803   0.035665  -0.188786   0.034478
    14  H    0.476065  -0.006318  -0.101277  -0.001549  -0.009743  -0.045723
    15  H    0.399140   0.009243  -0.017214   0.006195   0.013792  -0.078866
    16  H   -0.015013   0.551997   0.002895  -0.003819   0.001498  -0.001552
    17  H   -0.002997  -0.031875   0.394403   0.019493  -0.029260   0.012928
    18  H    0.000860   0.029646  -0.005575   0.454457   0.000002  -0.000027
    19  H   -0.001933   0.012717  -0.001014   0.433398  -0.000011  -0.000009
    20  H    0.002552   0.001719   0.010367  -0.000301   0.444137  -0.066158
    21  H   -0.022207  -0.002058   0.019632   0.000392   0.456683  -0.054694
    22  H   -0.003330  -0.019578   0.001688  -0.104812   0.002797  -0.000169
    23  H   -0.001284   0.017706   0.000729  -0.020563  -0.000061   0.000026
    24  H    0.000636  -0.003977  -0.002508  -0.016136  -0.000353   0.000103
    25  H   -0.009189   0.006651   0.037919  -0.142423   0.005855  -0.000905
    26  H    0.001085  -0.093104   0.000620  -0.029708  -0.000079   0.000144
    27  H    0.009727  -0.068454   0.004930  -0.030165   0.000474   0.000279
    28  H   -0.008501   0.007663  -0.029358  -0.000356  -0.017866   0.011107
    29  H    0.016519  -0.007773  -0.027961   0.001448  -0.094573  -0.009847
    30  H    0.011875  -0.013519  -0.007005   0.013819  -0.018950  -0.001348
    31  H   -0.006404   0.000701  -0.055613  -0.002714  -0.007000  -0.000372
               7          8          9         10         11         12
     1  C   -0.072430  -0.012280   0.156421   0.105891   0.015046  -0.073154
     2  C    0.325747  -0.394070  -1.363058   0.022585   0.140372   0.146277
     3  C   -0.139030   0.056461   0.397163  -0.420519  -0.074663   0.081335
     4  C   -0.201651  -0.133537  -0.014159   0.000302  -0.102512  -0.029016
     5  C    0.008239   0.000512  -0.019001   0.059540  -0.003499  -0.012220
     6  O    0.001899   0.001312   0.001457   0.021823   0.000937   0.036512
     7  C    5.903140   0.027160  -0.573317  -0.019022  -0.017152   0.023963
     8  C    0.027160   5.503959   0.206968   0.020492   0.174747   0.006286
     9  C   -0.573317   0.206968   7.081210  -0.000491   0.024533   0.041287
    10  C   -0.019022   0.020492  -0.000491   5.589732   0.009477  -0.014719
    11  O   -0.017152   0.174747   0.024533   0.009477   8.271643   0.011563
    12  O    0.023963   0.006286   0.041287  -0.014719   0.011563   8.323109
    13  C    0.106126  -0.048227  -0.303285   0.120538   0.013495  -0.063913
    14  H    0.004130   0.002387  -0.002689   0.036371   0.000972   0.016234
    15  H   -0.015625   0.000680   0.011045   0.001146   0.001420  -0.012469
    16  H   -0.006278  -0.017944  -0.077030   0.000311  -0.072207  -0.066119
    17  H    0.012487  -0.035825   0.002620  -0.044296  -0.003315  -0.021022
    18  H    0.008566  -0.061706  -0.051100  -0.000428  -0.008764   0.000190
    19  H   -0.045027  -0.041563   0.003374  -0.000044   0.008809  -0.000318
    20  H   -0.000030   0.000482   0.000399  -0.061899  -0.000088   0.000392
    21  H    0.000151  -0.000594  -0.000909  -0.018795   0.000058   0.001912
    22  H    0.540468   0.020162  -0.052710   0.000693   0.002411  -0.001030
    23  H    0.420659   0.006487  -0.050054  -0.000298  -0.001418  -0.000027
    24  H   -0.001495   0.429256   0.013773   0.002010  -0.062996  -0.001703
    25  H    0.022984   0.496993   0.001245  -0.009830  -0.039090  -0.005990
    26  H   -0.007292   0.019723   0.473790   0.000805  -0.008381   0.005754
    27  H   -0.031318   0.012036   0.470216  -0.000203   0.006463  -0.005293
    28  H    0.000797   0.000183  -0.003184   0.439902   0.000342   0.000948
    29  H   -0.000579  -0.000458   0.000144   0.503187   0.000541   0.002973
    30  H   -0.004816  -0.004333   0.004270  -0.006708   0.001657   0.005626
    31  H   -0.000840   0.001347   0.003876  -0.029836  -0.000806   0.005943
              13         14         15         16         17         18
     1  C   -0.032417   0.476065   0.399140  -0.015013  -0.002997   0.000860
     2  C    0.222455  -0.006318   0.009243   0.551997  -0.031875   0.029646
     3  C   -1.106803  -0.101277  -0.017214   0.002895   0.394403  -0.005575
     4  C    0.035665  -0.001549   0.006195  -0.003819   0.019493   0.454457
     5  C   -0.188786  -0.009743   0.013792   0.001498  -0.029260   0.000002
     6  O    0.034478  -0.045723  -0.078866  -0.001552   0.012928  -0.000027
     7  C    0.106126   0.004130  -0.015625  -0.006278   0.012487   0.008566
     8  C   -0.048227   0.002387   0.000680  -0.017944  -0.035825  -0.061706
     9  C   -0.303285  -0.002689   0.011045  -0.077030   0.002620  -0.051100
    10  C    0.120538   0.036371   0.001146   0.000311  -0.044296  -0.000428
    11  O    0.013495   0.000972   0.001420  -0.072207  -0.003315  -0.008764
    12  O   -0.063913   0.016234  -0.012469  -0.066119  -0.021022   0.000190
    13  C    6.879383  -0.011787   0.016540  -0.006582   0.039731   0.000715
    14  H   -0.011787   0.466318  -0.006274  -0.001172  -0.019725  -0.000022
    15  H    0.016540  -0.006274   0.476758  -0.009686  -0.004399  -0.000285
    16  H   -0.006582  -0.001172  -0.009686   0.445574   0.002336   0.001187
    17  H    0.039731  -0.019725  -0.004399   0.002336   0.509284   0.000621
    18  H    0.000715  -0.000022  -0.000285   0.001187   0.000621   0.463936
    19  H    0.001358  -0.000087  -0.000037   0.001440   0.003123  -0.005155
    20  H    0.009215  -0.001244   0.000680   0.000100  -0.000970  -0.000002
    21  H   -0.024520   0.004883  -0.000745   0.000265   0.004152  -0.000005
    22  H    0.000094   0.002627  -0.001661  -0.002351  -0.014518   0.000332
    23  H   -0.000061  -0.000390   0.000181   0.001951   0.001871   0.000317
    24  H    0.001161   0.000069   0.000152  -0.000165  -0.002114  -0.002596
    25  H   -0.026719  -0.000349   0.000396   0.000751   0.004928   0.000959
    26  H   -0.000345   0.000439  -0.000673  -0.008074  -0.001657  -0.001361
    27  H   -0.009904  -0.000650  -0.002213  -0.008292  -0.028450  -0.001151
    28  H   -0.023384   0.000659   0.001487   0.000068  -0.001330   0.000004
    29  H   -0.011027   0.000296  -0.001770  -0.000767   0.000484  -0.000025
    30  H    0.393277  -0.002329   0.001029  -0.000541  -0.004067  -0.000025
    31  H    0.471998  -0.002271  -0.002397   0.000039  -0.012219   0.000019
              19         20         21         22         23         24
     1  C   -0.001933   0.002552  -0.022207  -0.003330  -0.001284   0.000636
     2  C    0.012717   0.001719  -0.002058  -0.019578   0.017706  -0.003977
     3  C   -0.001014   0.010367   0.019632   0.001688   0.000729  -0.002508
     4  C    0.433398  -0.000301   0.000392  -0.104812  -0.020563  -0.016136
     5  C   -0.000011   0.444137   0.456683   0.002797  -0.000061  -0.000353
     6  O   -0.000009  -0.066158  -0.054694  -0.000169   0.000026   0.000103
     7  C   -0.045027  -0.000030   0.000151   0.540468   0.420659  -0.001495
     8  C   -0.041563   0.000482  -0.000594   0.020162   0.006487   0.429256
     9  C    0.003374   0.000399  -0.000909  -0.052710  -0.050054   0.013773
    10  C   -0.000044  -0.061899  -0.018795   0.000693  -0.000298   0.002010
    11  O    0.008809  -0.000088   0.000058   0.002411  -0.001418  -0.062996
    12  O   -0.000318   0.000392   0.001912  -0.001030  -0.000027  -0.001703
    13  C    0.001358   0.009215  -0.024520   0.000094  -0.000061   0.001161
    14  H   -0.000087  -0.001244   0.004883   0.002627  -0.000390   0.000069
    15  H   -0.000037   0.000680  -0.000745  -0.001661   0.000181   0.000152
    16  H    0.001440   0.000100   0.000265  -0.002351   0.001951  -0.000165
    17  H    0.003123  -0.000970   0.004152  -0.014518   0.001871  -0.002114
    18  H   -0.005155  -0.000002  -0.000005   0.000332   0.000317  -0.002596
    19  H    0.480266  -0.000006   0.000025  -0.006990  -0.007529  -0.012463
    20  H   -0.000006   0.465254  -0.004709   0.000234  -0.000016   0.000006
    21  H    0.000025  -0.004709   0.485226  -0.000578   0.000052  -0.000018
    22  H   -0.006990   0.000234  -0.000578   0.474185  -0.009405  -0.002173
    23  H   -0.007529  -0.000016   0.000052  -0.009405   0.463414   0.001026
    24  H   -0.012463   0.000006  -0.000018  -0.002173   0.001026   0.450612
    25  H    0.004490   0.000170  -0.000043  -0.000125  -0.000439  -0.017546
    26  H   -0.002030   0.000048  -0.000078   0.003971  -0.005833   0.000255
    27  H   -0.000090   0.000355  -0.000944   0.005747  -0.008640   0.001092
    28  H   -0.000036  -0.008135   0.002891   0.000514  -0.000011   0.000052
    29  H    0.000043  -0.003129   0.000654  -0.000248  -0.000032   0.000058
    30  H    0.000196  -0.000110   0.000884  -0.004509   0.000231   0.000911
    31  H   -0.000157  -0.001236  -0.004456   0.001033  -0.000156  -0.000000
              25         26         27         28         29         30
     1  C   -0.009189   0.001085   0.009727  -0.008501   0.016519   0.011875
     2  C    0.006651  -0.093104  -0.068454   0.007663  -0.007773  -0.013519
     3  C    0.037919   0.000620   0.004930  -0.029358  -0.027961  -0.007005
     4  C   -0.142423  -0.029708  -0.030165  -0.000356   0.001448   0.013819
     5  C    0.005855  -0.000079   0.000474  -0.017866  -0.094573  -0.018950
     6  O   -0.000905   0.000144   0.000279   0.011107  -0.009847  -0.001348
     7  C    0.022984  -0.007292  -0.031318   0.000797  -0.000579  -0.004816
     8  C    0.496993   0.019723   0.012036   0.000183  -0.000458  -0.004333
     9  C    0.001245   0.473790   0.470216  -0.003184   0.000144   0.004270
    10  C   -0.009830   0.000805  -0.000203   0.439902   0.503187  -0.006708
    11  O   -0.039090  -0.008381   0.006463   0.000342   0.000541   0.001657
    12  O   -0.005990   0.005754  -0.005293   0.000948   0.002973   0.005626
    13  C   -0.026719  -0.000345  -0.009904  -0.023384  -0.011027   0.393277
    14  H   -0.000349   0.000439  -0.000650   0.000659   0.000296  -0.002329
    15  H    0.000396  -0.000673  -0.002213   0.001487  -0.001770   0.001029
    16  H    0.000751  -0.008074  -0.008292   0.000068  -0.000767  -0.000541
    17  H    0.004928  -0.001657  -0.028450  -0.001330   0.000484  -0.004067
    18  H    0.000959  -0.001361  -0.001151   0.000004  -0.000025  -0.000025
    19  H    0.004490  -0.002030  -0.000090  -0.000036   0.000043   0.000196
    20  H    0.000170   0.000048   0.000355  -0.008135  -0.003129  -0.000110
    21  H   -0.000043  -0.000078  -0.000944   0.002891   0.000654   0.000884
    22  H   -0.000125   0.003971   0.005747   0.000514  -0.000248  -0.004509
    23  H   -0.000439  -0.005833  -0.008640  -0.000011  -0.000032   0.000231
    24  H   -0.017546   0.000255   0.001092   0.000052   0.000058   0.000911
    25  H    0.526994  -0.000255  -0.000378   0.000084  -0.001719  -0.012078
    26  H   -0.000255   0.424461  -0.001002   0.000029  -0.000122   0.000110
    27  H   -0.000378  -0.001002   0.491949  -0.000023   0.000144  -0.002246
    28  H    0.000084   0.000029  -0.000023   0.472334  -0.013488  -0.011672
    29  H   -0.001719  -0.000122   0.000144  -0.013488   0.466979   0.001989
    30  H   -0.012078   0.000110  -0.002246  -0.011672   0.001989   0.483657
    31  H    0.001123  -0.000126   0.002107  -0.008490   0.002635  -0.000930
              31
     1  C   -0.006404
     2  C    0.000701
     3  C   -0.055613
     4  C   -0.002714
     5  C   -0.007000
     6  O   -0.000372
     7  C   -0.000840
     8  C    0.001347
     9  C    0.003876
    10  C   -0.029836
    11  O   -0.000806
    12  O    0.005943
    13  C    0.471998
    14  H   -0.002271
    15  H   -0.002397
    16  H    0.000039
    17  H   -0.012219
    18  H    0.000019
    19  H   -0.000157
    20  H   -0.001236
    21  H   -0.004456
    22  H    0.001033
    23  H   -0.000156
    24  H   -0.000000
    25  H    0.001123
    26  H   -0.000126
    27  H    0.002107
    28  H   -0.008490
    29  H    0.002635
    30  H   -0.000930
    31  H    0.424969
 Mulliken charges:
               1
     1  C   -0.460256
     2  C   -0.002846
     3  C    0.138576
     4  C   -0.359198
     5  C   -0.186006
     6  O   -0.345373
     7  C   -0.270613
     8  C   -0.237091
     9  C   -0.382804
    10  C   -0.307715
    11  O   -0.289599
    12  O   -0.403312
    13  C   -0.488467
    14  H    0.202148
    15  H    0.214430
    16  H    0.287182
    17  H    0.249578
    18  H    0.176418
    19  H    0.175259
    20  H    0.211927
    21  H    0.157494
    22  H    0.167229
    23  H    0.191567
    24  H    0.225072
    25  H    0.155536
    26  H    0.228886
    27  H    0.193897
    28  H    0.186768
    29  H    0.175423
    30  H    0.175656
    31  H    0.220233
 Sum of Mulliken charges =  -0.00000
 Mulliken charges with hydrogens summed into heavy atoms:
               1
     1  C   -0.043678
     2  C    0.284336
     3  C    0.388154
     4  C   -0.007521
     5  C    0.183414
     6  O   -0.345373
     7  C    0.088183
     8  C    0.143517
     9  C    0.039979
    10  C    0.054476
    11  O   -0.289599
    12  O   -0.403312
    13  C   -0.092577
 Electronic spatial extent (au):  <R**2>=           2818.5436
 Charge=             -0.0000 electrons
 Dipole moment (field-independent basis, Debye):
    X=             -0.7017    Y=              0.9570    Z=              5.3636  Tot=              5.4933
 Quadrupole moment (field-independent basis, Debye-Ang):
   XX=            -73.8287   YY=            -76.3945   ZZ=            -83.8755
   XY=             -4.6030   XZ=              1.6704   YZ=             -0.6052
 Traceless Quadrupole moment (field-independent basis, Debye-Ang):
   XX=              4.2042   YY=              1.6384   ZZ=             -5.8426
   XY=             -4.6030   XZ=              1.6704   YZ=             -0.6052
 Octapole moment (field-independent basis, Debye-Ang**2):
  XXX=              2.6774  YYY=              1.5550  ZZZ=              3.7479  XYY=             -7.1759
  XXY=            -19.9443  XXZ=             20.9874  XZZ=              5.9504  YZZ=              3.0907
  YYZ=              0.4432  XYZ=              8.5109
 Hexadecapole moment (field-independent basis, Debye-Ang**3):
 XXXX=          -2629.1651 YYYY=           -560.4529 ZZZZ=           -428.2277 XXXY=            -33.1061
 XXXZ=             13.2918 YYYX=             12.0418 YYYZ=              0.8606 ZZZX=             -6.6613
 ZZZY=             -4.8101 XXYY=           -539.6489 XXZZ=           -545.0377 YYZZ=           -163.1010
 XXYZ=             18.3004 YYXZ=             11.8344 ZZXY=             -7.0739
 N-N= 9.063431568234D+02 E-N=-3.254889445193D+03  KE= 6.153430030607D+02
 D1PCM: PCM CHGder 1st derivatives, ID1Alg=3 FixD1E=F DoIter=F DoCFld=F I1PDM=0.
 Calling FoFJK, ICntrl=      2127 FMM=F ISym2X=0 I1Cent= 0 IOpClX= 0 NMat=1 NMatS=1 NMatT=0.
 ***** Axes restored to original set *****
 -------------------------------------------------------------------
 Center     Atomic                   Forces (Hartrees/Bohr)
 Number     Number              X              Y              Z
 -------------------------------------------------------------------
      1        6           0.001592960   -0.005064121   -0.003734597
      2        6           0.004888439    0.007692347   -0.011805085
      3        6          -0.004307744    0.002915839    0.002150177
      4        6          -0.003193324   -0.000191024   -0.000524912
      5        6           0.004385173   -0.004575660   -0.003400538
      6        8          -0.000565681    0.003932824    0.011665948
      7        6          -0.000427699   -0.000889755    0.004688569
      8        6           0.002094939    0.005354749   -0.005201961
      9        6          -0.000574805   -0.003826307   -0.001672117
     10        6           0.000056601    0.002659246   -0.001878232
     11        8           0.001276246   -0.002612028    0.015608350
     12        8          -0.002918019   -0.014073856    0.000055125
     13        6          -0.001658853    0.002215472    0.003128453
     14        1          -0.002063104    0.001600387   -0.005194453
     15        1           0.003849011    0.003607496    0.002555173
     16        1          -0.000887878    0.003734845    0.005986361
     17        1           0.004294641    0.002837817   -0.005432783
     18        1           0.001884578    0.001617774    0.002311416
     19        1           0.001000836   -0.001524393   -0.002039751
     20        1          -0.002811442   -0.001183146    0.003266026
     21        1          -0.002303955    0.001324386   -0.005124313
     22        1          -0.003366516   -0.002242047   -0.002059356
     23        1           0.001460288    0.001809522   -0.001231880
     24        1           0.002619651   -0.002942736    0.002059249
     25        1          -0.004295935   -0.002600017   -0.004047372
     26        1           0.002342930    0.001419416    0.002265355
     27        1          -0.003817572    0.002321857   -0.001599621
     28        1          -0.001520547   -0.001841209   -0.001218382
     29        1           0.001804966   -0.000671341    0.003241335
     30        1           0.002712814   -0.002286450   -0.000187675
     31        1          -0.001551002    0.001480112   -0.002628509
 -------------------------------------------------------------------
 Cartesian Forces:  Max     0.015608350 RMS     0.004035499

 GradGradGradGradGradGradGradGradGradGradGradGradGradGradGradGradGradGrad
 Berny optimization.
 FormGI is forming the generalized inverse of G from B-inverse, IUseBI=4.
 Internal  Forces:  Max     0.016886787 RMS     0.002502620
 Search for a local minimum.
 Step number   1 out of a maximum of  186
 All quantities printed in internal units (Hartrees-Bohrs-Radians)
 Mixed Optimization -- RFO/linear search
 Second derivative matrix not updated -- first step.
 ITU=  0
     Eigenvalues ---    0.00570   0.00612   0.00717   0.00721   0.01414
     Eigenvalues ---    0.01432   0.01450   0.02624   0.02828   0.03068
     Eigenvalues ---    0.03099   0.03920   0.04358   0.04746   0.04759
     Eigenvalues ---    0.04801   0.04895   0.05000   0.05065   0.05120
     Eigenvalues ---    0.05308   0.05592   0.05847   0.06075   0.06213
     Eigenvalues ---    0.06342   0.06618   0.06732   0.07492   0.07884
     Eigenvalues ---    0.07912   0.07953   0.07963   0.08185   0.08342
     Eigenvalues ---    0.08557   0.09241   0.09427   0.10817   0.11627
     Eigenvalues ---    0.11708   0.11724   0.11806   0.12401   0.12544
     Eigenvalues ---    0.14579   0.14717   0.16213   0.16240   0.17555
     Eigenvalues ---    0.19292   0.21581   0.21814   0.25000   0.28301
     Eigenvalues ---    0.28559   0.28663   0.28783   0.28977   0.29081
     Eigenvalues ---    0.30153   0.30196   0.35034   0.35065   0.35113
     Eigenvalues ---    0.35127   0.35218   0.35251   0.35251   0.35289
     Eigenvalues ---    0.35303   0.35316   0.35406   0.35412   0.35631
     Eigenvalues ---    0.35816   0.35856   0.35881   0.35954   0.36105
     Eigenvalues ---    0.40920   0.41503   0.42234   0.42718   0.43706
     Eigenvalues ---    0.441701000.000001000.000001000.000001000.00000
     Eigenvalues --- 1000.000001000.000001000.000001000.000001000.00000
     Eigenvalues --- 1000.000001000.000001000.000001000.000001000.00000
     Eigenvalues --- 1000.000001000.000001000.000001000.000001000.00000
     Eigenvalues --- 1000.000001000.000001000.000001000.000001000.00000
     Eigenvalues --- 1000.000001000.000001000.000001000.000001000.00000
     Eigenvalues --- 1000.000001000.000001000.000001000.000001000.00000
     Eigenvalues --- 1000.000001000.000001000.000001000.000001000.00000
     Eigenvalues --- 1000.000001000.000001000.000001000.000001000.00000
     Eigenvalues --- 1000.000001000.000001000.000001000.000001000.00000
     Eigenvalues --- 1000.000001000.000001000.000001000.000001000.00000
     Eigenvalues --- 1000.000001000.000001000.000001000.000001000.00000
     Eigenvalues --- 1000.000001000.000001000.000001000.000001000.00000
     Eigenvalues --- 1000.000001000.000001000.000001000.000001000.00000
     Eigenvalues --- 1000.000001000.000001000.000001000.000001000.00000
     Eigenvalues --- 1000.000001000.000001000.000001000.000001000.00000
     Eigenvalues --- 1000.000001000.000001000.000001000.000001000.00000
     Eigenvalues --- 1000.000001000.000001000.000001000.000001000.00000
     Eigenvalues --- 1000.000001000.000001000.000001000.000001000.00000
     Eigenvalues --- 1000.000001000.000001000.000001000.000001000.00000
 RFO step:  Lambda=-4.66074896D-03 EMin= 5.69526212D-03
 Linear search not attempted -- first point.
 Iteration  1 RMS(Cart)=  0.07252984 RMS(Int)=  0.00124567
 Iteration  2 RMS(Cart)=  0.00312268 RMS(Int)=  0.00006276
 Iteration  3 RMS(Cart)=  0.00000447 RMS(Int)=  0.00006272
 Iteration  4 RMS(Cart)=  0.00000000 RMS(Int)=  0.00006272
 Iteration  1 RMS(Cart)=  0.00003074 RMS(Int)=  0.00000675
 Iteration  2 RMS(Cart)=  0.00001646 RMS(Int)=  0.00000754
 Iteration  3 RMS(Cart)=  0.00000882 RMS(Int)=  0.00000850
 Iteration  4 RMS(Cart)=  0.00000472 RMS(Int)=  0.00000912
 Iteration  5 RMS(Cart)=  0.00000253 RMS(Int)=  0.00000947
 Iteration  6 RMS(Cart)=  0.00000135 RMS(Int)=  0.00000967
 Iteration  7 RMS(Cart)=  0.00000073 RMS(Int)=  0.00000978
 Variable       Old X    -DE/DX   Delta X   Delta X   Delta X     New X
                                 (Linear)    (Quad)   (Total)
    R1        2.88056  -0.00089   0.00000  -0.00283  -0.00282   2.87774
    R2        2.66761   0.00600   0.00000   0.01414   0.01416   2.68177
    R3        2.05570   0.00574   0.00000   0.01616   0.01616   2.07186
    R4        2.04267   0.00573   0.00000   0.01576   0.01576   2.05843
    R5        2.88864  -0.00274   0.00000  -0.00908  -0.00907   2.87956
    R6        2.64926   0.00596   0.00000   0.01375   0.01386   2.66311
    R7        2.66251   0.00508   0.00000   0.01138   0.01138   2.67389
    R8        2.04153   0.00705   0.00000   0.01936   0.01936   2.06089
    R9        2.68020   0.00329   0.00000   0.00761   0.00761   2.68781
   R10        2.88425  -0.00195   0.00000  -0.00720  -0.00722   2.87703
   R11        2.03918   0.00748   0.00000   0.02046   0.02046   2.05964
   R12        2.88663  -0.00047   0.00000  -0.00263  -0.00273   2.88390
   R13        2.86765  -0.00043   0.00000  -0.00135  -0.00135   2.86631
   R14        2.05491   0.00329   0.00000   0.00924   0.00924   2.06416
   R15        2.05269   0.00273   0.00000   0.00765   0.00765   2.06035
   R16        2.67601   0.00626   0.00000   0.01490   0.01492   2.69093
   R17        2.87328  -0.00056   0.00000  -0.00182  -0.00183   2.87145
   R18        2.04370   0.00446   0.00000   0.01229   0.01229   2.05599
   R19        2.05620   0.00568   0.00000   0.01601   0.01601   2.07221
   R20        2.89451  -0.00197   0.00000  -0.00738  -0.00742   2.88708
   R21        2.05208   0.00441   0.00000   0.01234   0.01234   2.06442
   R22        2.05165   0.00263   0.00000   0.00734   0.00734   2.05899
   R23        2.68451   0.00597   0.00000   0.01445   0.01450   2.69901
   R24        2.04307   0.00445   0.00000   0.01224   0.01224   2.05531
   R25        2.05011   0.00638   0.00000   0.01777   0.01777   2.06788
   R26        2.05322   0.00351   0.00000   0.00985   0.00985   2.06307
   R27        2.04662   0.00461   0.00000   0.01278   0.01278   2.05940
   R28        2.89160  -0.00099   0.00000  -0.00417  -0.00419   2.88741
   R29        2.05270   0.00267   0.00000   0.00749   0.00749   2.06019
   R30        2.05185   0.00366   0.00000   0.01024   0.01024   2.06209
   R31        2.05020   0.00347   0.00000   0.00966   0.00966   2.05986
   R32        2.05469   0.00331   0.00000   0.00931   0.00931   2.06401
    A1        1.95214   0.00027   0.00000  -0.00007  -0.00006   1.95208
    A2        1.90498  -0.00098   0.00000  -0.00314  -0.00319   1.90179
    A3        1.94000  -0.00096   0.00000  -0.01175  -0.01175   1.92825
    A4        1.91323   0.00123   0.00000   0.01024   0.01024   1.92347
    A5        1.85929  -0.00019   0.00000   0.00030   0.00025   1.85953
    A6        1.89296   0.00071   0.00000   0.00497   0.00493   1.89789
    A7        1.92384   0.00492   0.00000   0.02051   0.02035   1.94419
    A8        2.04237  -0.00661   0.00000  -0.03851  -0.03842   2.00394
    A9        1.91155   0.00038   0.00000   0.00378   0.00374   1.91529
   A10        1.86290   0.00110   0.00000  -0.00145  -0.00131   1.86160
   A11        1.83068  -0.00274   0.00000  -0.00186  -0.00196   1.82871
   A12        1.88021   0.00323   0.00000   0.02097   0.02097   1.90119
   A13        1.93539  -0.00097   0.00000  -0.00766  -0.00763   1.92776
   A14        1.91886   0.00111   0.00000   0.00320   0.00311   1.92197
   A15        1.89556  -0.00046   0.00000  -0.00321  -0.00320   1.89236
   A16        1.87548   0.00012   0.00000  -0.00248  -0.00244   1.87304
   A17        1.92923   0.00068   0.00000   0.00620   0.00617   1.93540
   A18        1.90929  -0.00046   0.00000   0.00419   0.00420   1.91349
   A19        1.91356  -0.00081   0.00000  -0.00318  -0.00342   1.91015
   A20        1.92125   0.00101   0.00000   0.00187   0.00193   1.92318
   A21        1.93781  -0.00061   0.00000  -0.00176  -0.00169   1.93612
   A22        1.90568   0.00014   0.00000  -0.00064  -0.00052   1.90516
   A23        1.90786   0.00017   0.00000  -0.00102  -0.00100   1.90686
   A24        1.87710   0.00013   0.00000   0.00486   0.00482   1.88192
   A25        1.93694   0.00090   0.00000   0.00602   0.00594   1.94287
   A26        1.85640  -0.00088   0.00000  -0.00312  -0.00310   1.85330
   A27        1.90082   0.00085   0.00000   0.00490   0.00496   1.90577
   A28        1.94641  -0.00040   0.00000  -0.00361  -0.00360   1.94280
   A29        1.92995  -0.00098   0.00000  -0.00695  -0.00693   1.92302
   A30        1.89103   0.00056   0.00000   0.00310   0.00307   1.89410
   A31        1.97902  -0.00441   0.00000  -0.02608  -0.02600   1.95302
   A32        1.92035   0.00243   0.00000  -0.00286  -0.00299   1.91736
   A33        1.90508  -0.00121   0.00000  -0.00080  -0.00086   1.90422
   A34        1.93178  -0.00021   0.00000   0.00162   0.00173   1.93351
   A35        1.93415  -0.00094   0.00000  -0.00399  -0.00392   1.93023
   A36        1.90715  -0.00085   0.00000   0.00055   0.00054   1.90769
   A37        1.86477   0.00070   0.00000   0.00571   0.00569   1.87046
   A38        1.93659   0.00233   0.00000   0.00817   0.00832   1.94491
   A39        1.94987   0.00032   0.00000  -0.00081  -0.00083   1.94904
   A40        1.93389  -0.00214   0.00000  -0.00901  -0.00907   1.92483
   A41        1.84072  -0.00150   0.00000  -0.00119  -0.00124   1.83948
   A42        1.91161   0.00039   0.00000   0.00102   0.00098   1.91259
   A43        1.88826   0.00062   0.00000   0.00218   0.00218   1.89044
   A44        1.98353  -0.00192   0.00000  -0.01715  -0.01720   1.96633
   A45        1.83577   0.00007   0.00000   0.00753   0.00756   1.84333
   A46        1.93290   0.00046   0.00000  -0.00837  -0.00848   1.92442
   A47        1.89677   0.00150   0.00000   0.01318   0.01325   1.91002
   A48        1.94905   0.00002   0.00000  -0.00152  -0.00184   1.94722
   A49        1.85752   0.00005   0.00000   0.00939   0.00940   1.86692
   A50        1.92390   0.00001   0.00000  -0.00530  -0.00536   1.91855
   A51        1.90681   0.00039   0.00000   0.00180   0.00184   1.90864
   A52        1.90678  -0.00053   0.00000  -0.00171  -0.00173   1.90504
   A53        1.92526  -0.00068   0.00000  -0.00061  -0.00061   1.92466
   A54        1.92748   0.00054   0.00000   0.00092   0.00094   1.92842
   A55        1.87276   0.00026   0.00000   0.00519   0.00518   1.87794
   A56        2.03326  -0.00745   0.00000  -0.04006  -0.03978   1.99348
   A57        2.15909  -0.01689   0.00000  -0.06631  -0.06631   2.09277
   A58        1.94724   0.00099   0.00000  -0.00806  -0.00813   1.93910
   A59        1.91342  -0.00057   0.00000  -0.00533  -0.00530   1.90812
   A60        1.87929  -0.00064   0.00000   0.00099   0.00099   1.88029
   A61        1.94037  -0.00012   0.00000   0.00189   0.00184   1.94221
   A62        1.90766  -0.00016   0.00000   0.00429   0.00430   1.91196
   A63        1.87336   0.00047   0.00000   0.00685   0.00683   1.88019
    D1       -1.13393   0.00100   0.00000   0.02554   0.02554  -1.10840
    D2        0.93759   0.00126   0.00000   0.01973   0.01974   0.95733
[...]
 0,0.00037683,-0.00018526,0.00010702,0.00003091,-0.00003496,-0.00000372
 ,0.00224429,0.00341126,-0.00190617,-0.00078827,-0.00090133,0.00078393,
 0.00000312,-0.00000031,-0.00000026,0.00000093,-0.00000019,0.00000096,-
 0.00011347,-0.00034264,-0.00022637,-0.00002050,-0.00022291,0.00001083,
 -0.01141419,-0.00658157,-0.00605657,0.09633736,0.07050725,0.12911938,0
 .00031771,0.00003828,-0.00013102,-0.01204376,-0.00623728,-0.00934933,0
 .00103752,-0.00037969,0.00086435,0.00110350,-0.00018009,0.00019724,0.0
 0007501,0.00000495,0.00004522,-0.00022999,-0.00003557,0.00006497,0.010
 80068,0.00964265,0.00964061,-0.00004087,-0.00005623,0.00015073,-0.1653
 4180,-0.09337520,-0.09349014,-0.00003735,-0.00008370,-0.00011764,0.001
 14688,0.00112209,-0.00015597,-0.00239415,-0.00296346,0.00137856,-0.000
 11744,0.00008547,0.00014085,-0.00010979,0.00004120,-0.00000875,0.00002
 951,-0.00014650,-0.00006053,0.00024910,0.00036191,-0.00000337,-0.00007
 687,0.00004163,0.00030294,-0.00010059,-0.00042079,-0.00005565,0.000046
 66,-0.00023415,0.00002455,-0.00002292,-0.00000588,0.00000330,-0.000008
 72,0.00000414,-0.00001157,-0.00099758,0.00222548,0.00261118,0.00084976
 ,-0.00041544,-0.00076614,0.00003063,0.00000609,-0.00002172,-0.00001668
 ,0.00000498,-0.00001898,0.18004952,-0.00013192,-0.00006885,-0.00014339
 ,-0.01491529,-0.01286479,-0.01225878,0.00097115,-0.00013947,0.00158928
 ,-0.00084210,0.00030382,0.00008254,0.00002811,0.00001113,-0.00000241,-
 0.00001995,0.00004803,0.00001560,-0.00964355,-0.00911118,-0.00950538,0
 .00001489,-0.00017157,-0.00006353,-0.09164224,-0.11949453,-0.07123314,
 0.00002821,0.00002359,0.00000483,0.00036665,0.00121581,-0.00007196,-0.
 00329292,-0.00259523,0.00268825,-0.00002072,0.00011178,-0.00023365,-0.
 00003930,0.00004862,0.00001680,-0.00000023,0.00005967,0.00004115,0.000
 54697,0.00098061,0.00011706,0.00043306,0.00026214,-0.00011679,0.000236
 18,-0.00013976,0.00013177,0.00015349,0.00016449,0.00005994,-0.00000402
 ,0.00000368,0.00000194,-0.00000384,0.00000222,-0.00000265,0.00192247,-
 0.00048193,-0.00206126,0.00027008,0.00078747,0.00059187,-0.00001362,-0
 .00003971,0.00003478,0.00001289,0.00007010,-0.00000233,0.10184115,0.12
 889473,0.00008376,-0.00004800,0.00013348,0.01483733,0.01121478,0.00966
 241,-0.00066606,0.00033655,-0.00153995,-0.00056368,0.00091138,0.000813
 98,-0.00001566,-0.00000024,0.00000241,-0.00000814,-0.00001077,0.000010
 95,-0.01586187,-0.01381794,-0.01592488,0.00032230,-0.00004688,-0.00023
 465,-0.09649888,-0.07353918,-0.12021431,-0.00002085,-0.00002495,-0.000
 01455,0.00017006,-0.00074161,0.00045135,0.00396317,0.00497139,-0.00157
 035,-0.00001521,-0.00010345,0.00025372,0.00004553,-0.00003853,-0.00001
 105,-0.00001403,-0.00002766,-0.00002659,0.00018898,-0.00039760,0.00110
 267,0.00004901,-0.00020137,0.00020382,0.00033744,-0.00018795,0.0004088
 3,0.00023197,0.00026847,0.00002257,0.00000251,-0.00000140,-0.00000195,
 0.00000217,-0.00000264,0.00000093,0.00281426,-0.00273686,-0.00282775,-
 0.00043511,0.00069274,0.00091812,-0.00005705,-0.00004781,0.00006001,0.
 00000201,-0.00000116,-0.00004044,0.09872235,0.07967883,0.13488475,-0.0
 0064011,-0.00024895,0.00001638,0.01128271,-0.00912318,0.00366005,-0.00
 104851,-0.00177231,-0.00134867,-0.00037347,0.00103058,0.00363619,-0.00
 005336,-0.00013140,-0.00010039,0.00030975,0.00016261,-0.00003818,-0.00
 988101,0.00846884,-0.00609354,-0.00057724,0.00004651,0.00065857,-0.167
 99339,0.11876949,-0.06519164,-0.00004275,-0.00003214,-0.00000017,0.000
 62199,-0.00409499,0.00302942,0.00055424,0.00146451,-0.00068394,-0.0002
 2036,0.00002689,0.00016855,0.00006982,0.00004140,-0.00004882,-0.002526
 30,0.00004598,0.00076589,0.00007788,0.00083635,-0.00048300,-0.00143834
 ,-0.00183099,-0.00048614,0.00016168,-0.00026034,0.00009752,-0.00042511
 ,0.00103585,-0.00050027,0.00002580,0.00002605,0.00001132,0.00000977,0.
 00000511,0.00001163,0.00047105,-0.00029512,0.00005964,0.00016139,-0.00
 044250,-0.00021819,0.00009776,0.00000598,-0.00019598,0.00005157,-0.000
 00029,-0.00007155,-0.01408327,0.01379598,-0.00768261,0.18537298,-0.000
 47940,0.00006744,-0.00017335,0.01546722,-0.01263085,0.00478315,-0.0005
 2560,-0.00075815,0.00036819,0.00080555,-0.00007922,-0.00320234,-0.0000
 6200,-0.00003556,-0.00010150,0.00042573,0.00019591,-0.00003840,0.00906
 327,-0.00975028,0.00542709,-0.00037910,0.00123494,0.00052344,0.1159135
 4,-0.16229064,0.06566865,0.00008663,0.00010595,0.00012088,-0.00069855,
 -0.00379872,0.00408357,-0.00018979,0.00129058,-0.00060846,0.00006624,0
 .00001570,-0.00040353,0.00010325,-0.00001357,0.00008748,-0.00002219,0.
 00035929,0.00010315,-0.00048391,0.00026362,0.00002330,-0.00080645,-0.0
 0096673,-0.00106146,0.00016690,-0.00001449,0.00016591,0.00053849,-0.00
 047664,0.00048768,0.00003540,0.00002577,0.00000378,0.00001067,0.000001
 83,0.00001624,-0.00043710,0.00032174,0.00038920,-0.00025907,0.00061373
 ,-0.00007365,0.00004063,-0.00004764,-0.00003497,-0.00002049,-0.0000884
 9,-0.00010250,-0.01080748,0.01215363,-0.00612576,-0.12761844,0.1742203
 2,0.00020896,0.00017849,0.00030688,-0.01673085,0.00890099,-0.00567355,
 -0.00050571,-0.00060712,-0.00007663,0.00205601,-0.00224226,-0.00440685
 ,0.00000694,0.00000789,0.00004535,-0.00014508,-0.00014541,-0.00004799,
 0.01732334,-0.01700155,0.01114777,0.00079371,-0.00065510,-0.00132624,-
 0.06409959,0.06746824,-0.08423939,-0.00005050,-0.00004504,-0.00005202,
 0.00068380,0.00610033,-0.00329400,0.00007952,-0.00048429,0.00043445,-0
 .00002913,-0.00008177,0.00022053,-0.00003830,-0.00001669,-0.00006819,0
 .00085199,-0.00022541,-0.00024580,0.00023895,-0.00076252,0.00029451,-0
 .00083843,-0.00106926,-0.00019226,0.00007040,0.00007909,0.00005674,0.0
 0093598,-0.00125002,0.00055000,-0.00001257,-0.00001191,-0.00000170,-0.
 00000417,-0.00000124,-0.00000420,-0.00098376,0.00047824,0.00097747,-0.
 00058832,0.00084699,0.00101463,-0.00017411,0.00007780,0.00025616,-0.00
 009024,0.00008832,0.00017950,-0.00992754,0.01069837,-0.00658074,0.0709
 7354,-0.07031714,0.09071279,-0.00105113,0.00024263,0.00064347,0.000464
 32,0.00010627,0.00028601,-0.00233154,0.00007652,0.00475887,-0.00000775
 ,-0.00000792,0.00000811,0.01211392,0.01049642,0.00693964,-0.00020166,0
 .00601345,0.00196051,0.00001320,-0.00000960,-0.00000678,0.00003203,-0.
 00003502,-0.00004488,-0.00007104,-0.00007410,-0.00007569,-0.14121422,-
 0.10969598,-0.06645642,-0.00018692,0.00008615,-0.00006258,-0.00021097,
 -0.00029612,-0.00002295,-0.01363702,-0.01678778,-0.01015608,0.00014344
 ,0.00000702,-0.00007477,0.00020120,-0.00002444,-0.00022881,-0.00005138
 ,-0.00003440,-0.00005820,-0.00062033,-0.00115095,-0.00066875,-0.000007
 28,0.00000617,-0.00000483,-0.00000820,0.00000504,0.00000369,0.00040136
 ,-0.00105978,-0.00000903,0.00061057,-0.00071864,-0.00054051,0.00001500
 ,-0.00001824,-0.00003327,-0.00002216,-0.00000190,0.00000775,-0.0000078
 5,0.00000839,0.00000212,-0.00000200,0.00000125,0.00000707,-0.00006086,
 -0.00000594,0.00000475,-0.00000373,0.00005658,-0.00002317,0.15154984,0
 .00113052,0.00107030,-0.00100470,0.00025144,0.00004776,-0.00000071,-0.
 00045695,0.00102303,0.00218006,-0.00000376,-0.00000369,0.00000435,-0.0
 1821816,-0.01486249,-0.00929322,0.00216587,-0.00727030,-0.00227598,0.0
 0000213,0.00000123,0.00000317,0.00001766,-0.00001595,-0.00002197,0.000
 01648,-0.00001000,0.00000352,-0.10798318,-0.17739129,-0.07629221,-0.00
 011094,0.00004606,-0.00003558,-0.00013594,0.00009799,-0.00037459,-0.00
 418681,-0.00568569,-0.00227268,-0.00009579,-0.00008419,0.00016618,-0.0
 0017285,-0.00005329,0.00007648,-0.00004367,-0.00002269,-0.00002456,-0.
 00022751,-0.00031094,-0.00031322,-0.00000410,0.00000203,-0.00000281,-0
 .00000431,0.00000319,0.00000188,0.00018821,0.00080764,-0.00015436,-0.0
 0013134,0.00093141,0.00080365,0.00000416,-0.00001029,-0.00001956,-0.00
 001294,-0.00000190,0.00000251,-0.00000449,0.00000506,0.00000125,-0.000
 00159,-0.00000010,0.00000480,-0.00001664,0.00000269,-0.00000286,0.0000
 1202,0.00002949,-0.00000713,0.12025577,0.19129453,0.00067056,-0.000095
 48,-0.00066295,-0.00018399,-0.00002110,0.00007477,0.00326073,0.0007278
 4,-0.00384380,0.00000776,0.00000662,-0.00000235,-0.00559790,-0.0025977
 4,-0.00437689,0.00072154,-0.00324219,0.00062075,-0.00000395,0.00000030
 ,-0.00000390,-0.00001375,0.00001333,0.00001331,-0.00001644,0.00002601,
 0.00000043,-0.06692928,-0.07865394,-0.09258437,0.00008436,-0.00003957,
 0.00003456,-0.00001518,-0.00015287,0.00029211,0.01382509,0.01786876,0.
 00920290,-0.00012281,-0.00002154,0.00007227,-0.00013269,0.00000337,0.0
 0012607,0.00004468,0.00002284,0.00003020,0.00062333,0.00099248,0.00041
 294,0.00000503,-0.00000457,0.00000362,0.00000391,-0.00000293,-0.000000
 80,-0.00000303,0.00043019,0.00003796,0.00021504,-0.00006646,0.00033950
 ,-0.00000635,0.00001573,0.00002726,0.00001544,0.00000246,-0.00000144,0
 .00000249,-0.00000405,-0.00000122,0.00000078,-0.00000136,-0.00000382,0
 .00002556,-0.00001007,0.00001475,0.00000886,-0.00003598,0.00001276,0.0
 6941690,0.08419399,0.09869572,-0.00040644,-0.00010772,0.00037035,0.000
 02292,0.00005517,0.00018901,0.00091039,0.00021636,-0.00070015,0.000001
 88,0.00000013,0.00000431,-0.01087133,0.00745714,-0.01711682,0.00172866
 ,-0.00124983,0.00079041,0.00000134,-0.00000351,0.00000175,-0.00000405,
 -0.00000736,-0.00000882,-0.00002545,-0.00000215,-0.00001438,-0.0905520
 1,0.04004318,-0.08908211,-0.00001288,0.00002118,-0.00001591,-0.0012779
 3,-0.00077294,-0.00034742,0.01047701,-0.00904291,0.02179751,-0.0000843
 2,-0.00001863,-0.00006596,0.00006969,-0.00001515,-0.00003993,0.0000163
 4,-0.00000689,-0.00000464,-0.00004273,0.00017639,-0.00005018,0.0000000
 3,0.00000065,-0.00000119,-0.00000111,0.00000027,-0.00000050,0.00055121
 ,-0.00076262,-0.00014016,-0.00102161,0.00365744,0.00140187,0.00000160,
 0.00000055,-0.00000033,-0.00000345,0.00000176,0.00000270,-0.00000127,0
 .00000054,0.00000008,0.00000125,0.00000305,0.00000520,-0.00000027,-0.0
 0000824,0.00000420,0.00000386,-0.00000193,0.00000418,-0.00760766,0.007
 53449,-0.01422573,0.10009427,-0.00012215,-0.00005560,-0.00000811,-0.00
 005184,0.00001200,-0.00006511,0.00068742,-0.00013223,0.00045173,-0.000
 00147,-0.00000164,-0.00000325,0.01292422,-0.01255512,0.02283751,-0.000
 72753,0.00269373,0.00031001,0.00000101,0.00000536,0.00000152,-0.000003
 03,0.00000500,0.00001362,0.00002444,0.00000220,0.00002060,0.03796795,-
 0.08684199,0.08216907,0.00002257,-0.00001213,-0.00000378,-0.00044362,0
 .00002594,-0.00019785,0.00305245,-0.00334347,0.00617414,0.00003886,0.0
 0004392,-0.00001186,-0.00000962,-0.00003582,-0.00000596,-0.00000382,-0
 .00000562,-0.00000203,-0.00006603,-0.00001602,-0.00007700,-0.00000039,
 0.00000069,-0.00000015,0.00000060,-0.00000007,-0.00000086,-0.00079658,
 0.00115529,-0.00038147,0.00289655,-0.00378566,-0.00130727,0.00000087,-
 0.00000148,-0.00000189,-0.00000009,-0.00000091,-0.00000205,-0.00000052
 ,-0.00000097,-0.00000107,-0.00000079,-0.00000216,-0.00000069,0.0000053
 6,0.00000760,-0.00000797,-0.00000144,0.00000345,-0.00000153,-0.0084633
 1,0.00979629,-0.01857130,-0.04577231,0.09209037,0.00009543,-0.00003521
 ,0.00006500,-0.00001158,-0.00004286,0.00040583,-0.00088660,-0.00030042
 ,-0.00068391,0.00000360,0.00000218,-0.00000071,0.00396984,-0.00443564,
 0.00728260,0.00057633,0.00148268,0.00057481,0.00000160,-0.00000280,-0.
 00000792,0.00000501,0.00000503,-0.00000203,-0.00008459,-0.00003302,-0.
 00007535,-0.08939126,0.08410542,-0.23167016,0.00001976,0.00000662,0.00
 000370,-0.00062018,-0.00066463,0.00064519,-0.00764327,0.00767321,-0.01
 867293,0.00000679,-0.00000795,-0.00004852,-0.00004481,0.00008835,0.000
 03400,0.00003725,0.00001280,-0.00000827,0.00015223,0.00005102,0.000137
 66,0.00000137,-0.00000268,0.00000167,-0.00000021,-0.00000093,-0.000000
 05,-0.00042951,0.00060194,0.00085246,0.00078096,-0.00202278,0.00074884
 ,-0.00000513,0.00000686,0.00000973,0.00000496,0.00000179,0.00000293,0.
 00000116,-0.00000111,0.00000072,0.00000091,0.00000173,-0.00000569,-0.0
 0001187,-0.00002428,0.00002294,0.00000767,-0.00001048,0.00000185,-0.00
 484253,0.00452229,-0.01040814,0.09480143,-0.09190006,0.25168180,-0.002
 34146,-0.00299639,-0.00137505,0.00002151,-0.00005531,0.00009953,0.0109
 2638,-0.01466948,-0.00443478,0.00001578,0.00001872,0.00001144,-0.00315
 297,-0.00413058,0.00347251,0.00087894,0.00086051,-0.00021648,-0.000030
 87,-0.00001438,-0.00010213,-0.00008690,-0.00007935,-0.00007090,0.00002
 516,0.00000645,0.00003228,-0.01413020,0.01829505,0.00272803,0.00009123
 ,0.00001358,0.00007796,0.00142442,0.00002990,0.00118040,-0.15210479,0.
 12835738,0.03013056,-0.00006088,0.00004786,-0.00002238,0.00066622,-0.0
 0080231,-0.00041287,0.00002881,0.00001433,0.00002708,0.00081124,0.0008
 9001,0.00044173,0.00000602,-0.00000352,0.00000644,0.00000206,-0.000000
 37,-0.00000146,-0.00067097,0.00150920,0.00067335,0.00019192,-0.0002431
 0,-0.00013359,0.00012908,0.00011314,0.00006522,0.00001758,0.00000892,0
 .00001736,0.00000709,0.00000608,-0.00000273,0.00011775,0.00006697,0.00
 005259,-0.00000220,0.00000651,0.00000165,0.00002720,0.00000874,-0.0000
 0457,0.00048066,-0.00005278,-0.00078309,0.00113204,-0.00023076,-0.0001
 8220,0.16369578,-0.00591433,-0.00296093,-0.00125721,0.00006929,0.00037
 108,0.00041480,0.01737351,-0.02252109,-0.00418541,-0.00002193,-0.00001
 201,0.00000262,-0.00223051,-0.00032737,0.00133798,0.00100114,0.0006944
 0,-0.00012170,-0.00001801,0.00000909,0.00001187,0.00002590,-0.00001474
 ,0.00001322,0.00001470,-0.00004720,0.00002071,-0.00693370,0.00938637,0
 .00168927,-0.00018469,0.00001573,-0.00010535,0.00088897,0.00203998,0.0
 0129859,0.12647965,-0.20287365,-0.03643428,-0.00008155,0.00026297,0.00
 014489,0.00118409,-0.00112927,-0.00083378,0.00009655,0.00004156,0.0000
 4713,0.00014509,0.00097573,0.00044624,-0.00000392,0.00000688,-0.000002
 30,-0.00000767,0.00000556,0.00000215,-0.00038353,0.00044859,0.00029172
 ,-0.00003162,-0.00000345,0.00004369,-0.00006273,-0.00007206,-0.0000444
 1,-0.00001679,-0.00000355,-0.00000201,0.00000319,0.00000641,0.00000638
 ,-0.00012184,-0.00001871,-0.00005260,-0.00003082,0.00000799,-0.0000056
 9,0.00005399,0.00005944,-0.00002161,0.00058660,0.00036514,-0.00059993,
 0.00055399,0.00040528,-0.00043169,-0.13632748,0.22067323,-0.00203573,-
 0.00108061,-0.00013996,-0.00002505,0.00000234,0.00011358,0.00580228,-0
 .01037623,-0.00435626,-0.00000142,-0.00000587,0.00000483,0.00317786,0.
 00330841,-0.00203320,-0.00056281,0.00014676,0.00032296,0.00000528,0.00
 002073,0.00002586,-0.00003357,-0.00001346,0.00000292,0.00002531,-0.000
 00664,0.00002965,0.01368724,-0.01730399,-0.00456728,0.00005535,-0.0000
 0480,0.00000467,0.00116619,-0.00000533,0.00093529,0.02876034,-0.033673
 09,-0.05574865,0.00021844,-0.00013654,0.00016896,0.00043103,-0.0004430
 5,0.00000294,0.00003757,0.00003174,0.00003500,-0.00024077,0.00051801,0
 .00016420,0.00000001,0.00000673,-0.00000537,-0.00000061,0.00000133,-0.
 00000219,0.00070402,-0.00112644,-0.00026128,0.00017278,-0.00024861,0.0
 0009982,-0.00004490,-0.00004351,-0.00003400,-0.00000808,-0.00000342,-0
 .00000686,0.00000521,0.00000246,-0.00000021,-0.00000002,0.00001966,-0.
 00000735,-0.00000179,0.00001060,-0.00001447,0.00002321,0.00002372,-0.0
 0000719,-0.00060275,0.00027059,0.00068890,-0.00090131,-0.00037845,0.00
 073906,-0.03365640,0.03922688,0.05777069,0.00017251,0.00073812,0.00021
 103,0.00172284,0.00021404,-0.00053088,-0.00733995,0.00710084,-0.012880
 40,0.00001069,0.00000992,0.00002362,0.00147479,-0.00050904,0.00002104,
 -0.00009835,-0.00006086,-0.00002926,0.00000739,-0.00004458,-0.00001134
 ,0.00011686,-0.00009788,-0.00016722,-0.00007844,0.00001041,-0.00008310
 ,0.00949556,-0.00730476,0.02299206,-0.00054643,0.00026674,-0.00010112,
 -0.00440301,-0.00380879,-0.00332915,-0.09312899,0.03010885,-0.09649232
 ,0.00034411,-0.00002041,0.00022752,0.00001414,-0.00011513,0.00020529,-
 0.00038618,-0.00025469,-0.00021175,0.00018028,0.00054737,0.00028263,-0
 .00000563,-0.00000227,-0.00000271,-0.00001436,0.00000215,0.00000947,0.
 00001042,-0.00018451,-0.00024762,-0.00007260,0.00009645,-0.00047746,0.
 00001257,0.00001068,-0.00001299,-0.00002373,0.00000571,0.00002634,-0.0
 0002053,0.00002029,0.00001375,0.00003389,0.00001936,0.00004303,-0.0000
 5137,-0.00004394,0.00005569,0.00000751,0.00000263,0.00001873,0.0012781
 6,0.00028500,-0.00089787,-0.00309997,-0.00092699,0.00368747,-0.0081156
 1,0.00389447,-0.01615692,0.10250342,0.00062720,0.00019749,0.00028468,0
 .00109455,0.00069539,-0.00055934,-0.00876518,0.00801911,-0.02065807,0.
 00000881,0.00001307,0.00002309,0.00006083,0.00005242,-0.00102808,0.000
 03449,-0.00005778,0.00003963,0.00000165,-0.00003396,-0.00000026,0.0001
 0770,-0.00007051,-0.00012272,-0.00005633,0.00005084,-0.00006680,0.0032
 3027,-0.00404349,0.00939268,-0.00070182,0.00022408,-0.00022870,-0.0053
 4813,-0.00381550,-0.00358689,0.03225146,-0.06892703,0.06209057,0.00008
 732,-0.00044766,-0.00030315,-0.00016049,0.00021227,0.00023118,-0.00022
 673,-0.00022387,-0.00015984,0.00013682,0.00110460,0.00045581,-0.000004
 46,-0.00000319,-0.00000574,-0.00001359,-0.00000036,0.00000923,-0.00010
 581,-0.00000126,-0.00009526,-0.00004790,0.00031295,-0.00007949,0.00000
 610,-0.00000188,-0.00000682,-0.00001776,0.00000628,0.00002365,-0.00002
 092,0.00001916,0.00001502,-0.00004458,0.00000606,0.00002462,-0.0000364
 6,-0.00005278,0.00004414,0.00002397,-0.00001185,0.00002225,0.00043585,
 0.00019896,-0.00018284,-0.00195011,0.00054377,0.00135464,0.00935247,-0
 .00579139,0.02126009,-0.02995920,0.07182608,-0.00014094,0.00073486,-0.
 00018059,0.00105246,0.00036544,0.00008214,-0.00339033,0.00459833,-0.01
 015706,0.00000126,0.00000520,0.00001359,-0.00112385,0.00042655,0.00051
 745,0.00022098,-0.00044555,-0.00022629,0.00001203,-0.00001436,-0.00000
 872,0.00007328,-0.00004383,-0.00007709,-0.00005869,-0.00001580,-0.0000
 9393,-0.00756544,0.00648354,-0.01934945,-0.00038527,0.00016761,-0.0001
 3231,-0.00256565,-0.00218747,-0.00027286,-0.09611700,0.05930384,-0.244
 38752,0.00031849,-0.00021640,0.00020516,0.00002783,-0.00013020,0.00022
 448,-0.00015887,-0.00009339,-0.00009650,0.00001996,-0.00008695,0.00072
 259,-0.00000414,-0.00000049,-0.00000320,-0.00000984,0.00000181,0.00000
 687,0.00020178,-0.00003611,0.00026946,0.00025709,-0.00053427,0.0000668
 7,0.00000183,-0.00000486,-0.00001558,-0.00001481,0.00000104,0.00001492
 ,-0.00001479,0.00001261,0.00000843,-0.00002221,0.00000332,0.00001336,-
 0.00004041,-0.00003402,0.00003398,0.00001467,0.00001409,0.00000539,-0.
 00012690,-0.00013857,0.00118889,0.00334252,0.00095149,-0.00162709,0.00
 238049,-0.00090019,0.00607493,0.10381443,-0.06818727,0.26717969\\0.000
 01105,0.00000651,-0.00001561,-0.00070766,-0.00091865,0.00322070,0.0025
 2593,-0.00229974,-0.00264174,0.00000296,0.00000090,-0.00000334,0.00000
 819,0.00000741,-0.00000258,-0.00000269,0.00001406,0.00002298,0.0000027
 2,-0.00001419,0.00000059,-0.00001355,0.00001240,0.00000348,0.00000037,
 -0.00002008,-0.00001045,0.00000167,0.00000380,0.00000664,0.00157381,-0
 .00018112,-0.00357762,-0.00338728,0.00343421,0.00301882,-0.00001380,-0
 .00000818,0.00000074,0.00000472,-0.00000252,-0.00000624,-0.00001855,0.
 00000333,-0.00000316,0.00000399,0.00000253,-0.00000425,0.00000964,-0.0
 0000536,-0.00000480,-0.00000228,-0.00000441,-0.00000574,0.00000023,-0.
 00001170,-0.00000005,0.00000269,0.00001176,0.00000300,-0.00000221,-0.0
 0000196,-0.00000061,0.00000318,-0.00000761,-0.00000270,0.00000158,-0.0
 0001004,-0.00000836,-0.00000202,-0.00000117,-0.00000039,-0.00000166,-0
 .00000666,0.00000119,0.00000175,-0.00000038,-0.00000494,0.00001016,-0.
 00000401,-0.00001113,-0.00000825,-0.00000065,0.00001015,-0.00000174,0.
 00000924,0.00000281,-0.00000275,-0.00000206,0.00000551,-0.00000022,-0.
 00000568,0.00000711\\\@


 IF YOU PERCEIVE THAT THERE ARE FOUR POSSIBLE WAYS IN
 WHICH A PROCEDURE CAN GO WRONG AND CIRCUMVENT THESE, 
 THEN A FIFTH WAY WILL DEVELOP.

                              -- MURPHY'S TWELFTH LAW
 Job cpu time:       0 days 13 hours 19 minutes 34.1 seconds.
 Elapsed time:       0 days  1 hours  6 minutes 54.6 seconds.
 File lengths (MBytes):  RWF=    721 Int=      0 D2E=      0 Chk=     34 Scr=      1
 Normal termination of Gaussian 16 at Fri Mar  8 17:33:07 2019.
