 Entering Gaussian System, Link 0=g16
 Initial command:
 /apps/gaussian/g16a03/g16/l1.exe "/jobfs/local/2012028.r-man2/Gau-7222.inp" -scrdir="/jobfs/local/2012028.r-man2/"
 Entering Link 1 = /apps/gaussian/g16a03/g16/l1.exe PID=      7223.
  
 Copyright (c) 1988,1990,1992,1993,1995,1998,2003,2009,2016,
            Gaussian, Inc.  All Rights Reserved.
  
 This is part of the Gaussian(R) 16 program.  It is based on
 the Gaussian(R) 09 system (copyright 2009, Gaussian, Inc.),
 the Gaussian(R) 03 system (copyright 2003, Gaussian, Inc.),
 the Gaussian(R) 98 system (copyright 1998, Gaussian, Inc.),
 the Gaussian(R) 94 system (copyright 1995, Gaussian, Inc.),
 the Gaussian 92(TM) system (copyright 1992, Gaussian, Inc.),
 the Gaussian 90(TM) system (copyright 1990, Gaussian, Inc.),
 the Gaussian 88(TM) system (copyright 1988, Gaussian, Inc.),
 the Gaussian 86(TM) system (copyright 1986, Carnegie Mellon
 University), and the Gaussian 82(TM) system (copyright 1983,
 Carnegie Mellon University). Gaussian is a federally registered
 trademark of Gaussian, Inc.
  
 This software contains proprietary and confidential information,
 including trade secrets, belonging to Gaussian, Inc.
  
 This software is provided under written license and may be
 used, copied, transmitted, or stored only in accord with that
 written license.
  
 The following legend is applicable only to US Government
 contracts under FAR:
  
                    RESTRICTED RIGHTS LEGEND
  
 Use, reproduction and disclosure by the US Government is
 subject to restrictions as set forth in subparagraphs (a)
 and (c) of the Commercial Computer Software - Restricted
 Rights clause in FAR 52.227-19.
  
 Gaussian, Inc.
 340 Quinnipiac St., Bldg. 40, Wallingford CT 06492
  
  
 ---------------------------------------------------------------
 Warning -- This program may not be used in any manner that
 competes with the business of Gaussian, Inc. or will provide
 assistance to any competitor of Gaussian, Inc.  The licensee
 of this program is prohibited from giving any competitor of
 Gaussian, Inc. access to this program.  By using this program,
 the user acknowledges that Gaussian, Inc. is engaged in the
 business of creating and licensing software in the field of
 computational chemistry and represents and warrants to the
 licensee that it is not a competitor of Gaussian, Inc. and that
 it will not use this program in any manner prohibited above.
 ---------------------------------------------------------------
  

 Cite this work as:
 Gaussian 16, Revision A.03,
 M. J. Frisch, G. W. Trucks, H. B. Schlegel, G. E. Scuseria, 
 M. A. Robb, J. R. Cheeseman, G. Scalmani, V. Barone, 
 G. A. Petersson, H. Nakatsuji, X. Li, M. Caricato, A. V. Marenich, 
 J. Bloino, B. G. Janesko, R. Gomperts, B. Mennucci, H. P. Hratchian, 
 J. V. Ortiz, A. F. Izmaylov, J. L. Sonnenberg, D. Williams-Young, 
 F. Ding, F. Lipparini, F. Egidi, J. Goings, B. Peng, A. Petrone, 
 T. Henderson, D. Ranasinghe, V. G. Zakrzewski, J. Gao, N. Rega, 
 G. Zheng, W. Liang, M. Hada, M. Ehara, K. Toyota, R. Fukuda, 
 J. Hasegawa, M. Ishida, T. Nakajima, Y. Honda, O. Kitao, H. Nakai, 
 T. Vreven, K. Throssell, J. A. Montgomery, Jr., J. E. Peralta, 
 F. Ogliaro, M. J. Bearpark, J. J. Heyd, E. N. Brothers, K. N. Kudin, 
 V. N. Staroverov, T. A. Keith, R. Kobayashi, J. Normand, 
 K. Raghavachari, A. P. Rendell, J. C. Burant, S. S. Iyengar, 
 J. Tomasi, M. Cossi, J. M. Millam, M. Klene, C. Adamo, R. Cammi, 
 J. W. Ochterski, R. L. Martin, K. Morokuma, O. Farkas, 
 J. B. Foresman, and D. J. Fox, Gaussian, Inc., Wallingford CT, 2016.
 
 ******************************************
 Gaussian 16:  ES64L-G16RevA.03 25-Dec-2016
                 4-Nov-2018 
 ******************************************
 %mem=6000mb
 %nproc=24
 Will use up to   24 processors via shared memory.
 %chk=D_a1-4_2SO_PSI.inp_extract_2.chk
 ----------------------------------------------------------------------
 #M062X/6-311++G(2d,2p) opt=ModRedundant freq=noraman SCRF=(Solvent=Wat
 er)
 ----------------------------------------------------------------------
 1/18=120,19=15,26=3,38=1/1,3;
 2/9=110,12=2,17=6,18=5,40=1/2;
 3/5=4,6=6,7=1212,11=2,25=1,30=1,70=2201,71=1,72=1,74=-55/1,2,3;
 4//1;
 5/5=2,38=5,53=1/2;
 6/7=2,8=2,9=2,10=2,28=1/1;
 7//1,2,3,16;
 1/18=20,19=15,26=3/3(2);
 2/9=110/2;
 99//99;
 2/9=110/2;
 3/5=4,6=6,7=1212,11=2,25=1,30=1,70=2205,71=1,72=1,74=-55/1,2,3;
 4/5=5,16=3,69=1/1;
 5/5=2,38=5,53=1/2;
 7//1,2,3,16;
 1/18=20,19=15,26=3/3(-5);
 2/9=110/2;
 6/7=2,8=2,9=2,10=2,19=2,28=1/1;
 99/9=1/99;
 ----------------------------
 D_a1-4_2SO_PSI.inp_extract_2
 ----------------------------
 Symbolic Z-matrix:
 Charge =  0 Multiplicity = 1
 C                     1.03846   0.21467  -0.49806 
 C                     3.72228  -0.49337   0.54071 
 O                    -1.78248  -0.23259  -1.29916 
 C                     1.58374  -1.18439  -0.19872 
 C                     2.07238   1.27071  -0.10092 
 O                    -0.17005   0.44583   0.21522 
 C                    -2.33703   1.40537   0.39381 
 C                    -3.00801   0.31754   1.23315 
 C                    -1.27919   0.83617  -0.53894 
 C                    -3.51017  -0.79822   0.31733 
 C                    -2.37981  -1.29577  -0.56745 
 C                     3.47987   0.73211  -0.34861 
 O                     2.5095   -1.15675   0.86558 
 H                     0.83094   0.27448  -1.55919 
 H                     4.39509  -1.19797   0.06088 
 H                     4.15518  -0.20003   1.48768 
 H                     0.78543  -1.85023   0.09273 
 H                     2.06336  -1.59328  -1.08328 
 H                     1.95011   1.49516   0.95435 
 H                     1.89861   2.19029  -0.64964 
 H                    -1.8813    2.16676   1.01745 
 H                    -3.08373   1.8949   -0.22538 
 H                    -2.30236  -0.08926   1.95265 
 H                    -3.82861   0.74542   1.80076 
 H                    -0.97488   1.57435  -1.26794 
 H                    -3.9007   -1.63203   0.89382 
 H                    -4.31857  -0.42622  -0.3079 
 H                    -2.73697  -1.99388  -1.31188 
 H                    -1.62226  -1.79401   0.02694 
 H                     3.59057   0.46888  -1.39678 
 H                     4.22916   1.48582  -0.13227 
 
 The following ModRedundant input section has been read:
 D       5       1       6       9 F                                           
 

 GradGradGradGradGradGradGradGradGradGradGradGradGradGradGradGradGradGrad
 Berny optimization.
 Initialization pass.
                           ----------------------------
                           !    Initial Parameters    !
                           ! (Angstroms and Degrees)  !
 --------------------------                            --------------------------
 ! Name  Definition              Value          Derivative Info.                !
 --------------------------------------------------------------------------------
 ! R1    R(1,4)                  1.5311         estimate D2E/DX2                !
 ! R2    R(1,5)                  1.5303         estimate D2E/DX2                !
 ! R3    R(1,6)                  1.4222         estimate D2E/DX2                !
 ! R4    R(1,14)                 1.0829         estimate D2E/DX2                !
 ! R5    R(2,12)                 1.5334         estimate D2E/DX2                !
 ! R6    R(2,13)                 1.42           estimate D2E/DX2                !
 ! R7    R(2,15)                 1.086          estimate D2E/DX2                !
 ! R8    R(2,16)                 1.0818         estimate D2E/DX2                !
 ! R9    R(3,9)                  1.4048         estimate D2E/DX2                !
 ! R10   R(3,11)                 1.4222         estimate D2E/DX2                !
 ! R11   R(4,13)                 1.4109         estimate D2E/DX2                !
 ! R12   R(4,17)                 1.0796         estimate D2E/DX2                !
 ! R13   R(4,18)                 1.0861         estimate D2E/DX2                !
 ! R14   R(5,12)                 1.5272         estimate D2E/DX2                !
 ! R15   R(5,19)                 1.0858         estimate D2E/DX2                !
 ! R16   R(5,20)                 1.0849         estimate D2E/DX2                !
 ! R17   R(6,9)                  1.3969         estimate D2E/DX2                !
 ! R18   R(7,8)                  1.5291         estimate D2E/DX2                !
 ! R19   R(7,9)                  1.5209         estimate D2E/DX2                !
 ! R20   R(7,21)                 1.0846         estimate D2E/DX2                !
 ! R21   R(7,22)                 1.0866         estimate D2E/DX2                !
 ! R22   R(8,10)                 1.5283         estimate D2E/DX2                !
 ! R23   R(8,23)                 1.0868         estimate D2E/DX2                !
 ! R24   R(8,24)                 1.0856         estimate D2E/DX2                !
 ! R25   R(9,25)                 1.0812         estimate D2E/DX2                !
 ! R26   R(10,11)                1.5193         estimate D2E/DX2                !
 ! R27   R(10,26)                1.0863         estimate D2E/DX2                !
 ! R28   R(10,27)                1.0876         estimate D2E/DX2                !
 ! R29   R(11,28)                1.0812         estimate D2E/DX2                !
 ! R30   R(11,29)                1.0842         estimate D2E/DX2                !
 ! R31   R(12,30)                1.0864         estimate D2E/DX2                !
 ! R32   R(12,31)                1.0846         estimate D2E/DX2                !
 ! A1    A(4,1,5)              109.8283         estimate D2E/DX2                !
 ! A2    A(4,1,6)              110.6763         estimate D2E/DX2                !
 ! A3    A(4,1,14)             108.0768         estimate D2E/DX2                !
 ! A4    A(5,1,6)              109.3772         estimate D2E/DX2                !
 ! A5    A(5,1,14)             110.2216         estimate D2E/DX2                !
 ! A6    A(6,1,14)             108.6413         estimate D2E/DX2                !
 ! A7    A(12,2,13)            111.7783         estimate D2E/DX2                !
 ! A8    A(12,2,15)            111.1124         estimate D2E/DX2                !
 ! A9    A(12,2,16)            110.7462         estimate D2E/DX2                !
 ! A10   A(13,2,15)            109.0936         estimate D2E/DX2                !
 ! A11   A(13,2,16)            105.5566         estimate D2E/DX2                !
 ! A12   A(15,2,16)            108.3481         estimate D2E/DX2                !
 ! A13   A(9,3,11)             116.1547         estimate D2E/DX2                !
 ! A14   A(1,4,13)             111.3012         estimate D2E/DX2                !
 ! A15   A(1,4,17)             110.6695         estimate D2E/DX2                !
 ! A16   A(1,4,18)             110.0013         estimate D2E/DX2                !
 ! A17   A(13,4,17)            107.0755         estimate D2E/DX2                !
 ! A18   A(13,4,18)            109.3892         estimate D2E/DX2                !
 ! A19   A(17,4,18)            108.3125         estimate D2E/DX2                !
 ! A20   A(1,5,12)             109.7062         estimate D2E/DX2                !
 ! A21   A(1,5,19)             108.5894         estimate D2E/DX2                !
 ! A22   A(1,5,20)             110.21           estimate D2E/DX2                !
 ! A23   A(12,5,19)            109.5303         estimate D2E/DX2                !
 ! A24   A(12,5,20)            111.3782         estimate D2E/DX2                !
 ! A25   A(19,5,20)            107.3565         estimate D2E/DX2                !
 ! A26   A(1,6,9)              116.7018         estimate D2E/DX2                !
 ! A27   A(8,7,9)              112.0619         estimate D2E/DX2                !
 ! A28   A(8,7,21)             111.6033         estimate D2E/DX2                !
 ! A29   A(8,7,22)             109.3762         estimate D2E/DX2                !
 ! A30   A(9,7,21)             108.8521         estimate D2E/DX2                !
 ! A31   A(9,7,22)             107.2845         estimate D2E/DX2                !
 ! A32   A(21,7,22)            107.4671         estimate D2E/DX2                !
 ! A33   A(7,8,10)             109.5498         estimate D2E/DX2                !
 ! A34   A(7,8,23)             110.1682         estimate D2E/DX2                !
 ! A35   A(7,8,24)             109.7723         estimate D2E/DX2                !
 ! A36   A(10,8,23)            109.6809         estimate D2E/DX2                !
 ! A37   A(10,8,24)            110.6511         estimate D2E/DX2                !
 ! A38   A(23,8,24)            106.9881         estimate D2E/DX2                !
 ! A39   A(3,9,6)              111.3481         estimate D2E/DX2                !
 ! A40   A(3,9,7)              111.558          estimate D2E/DX2                !
 ! A41   A(3,9,25)             104.7962         estimate D2E/DX2                !
 ! A42   A(6,9,7)              109.0104         estimate D2E/DX2                !
 ! A43   A(6,9,25)             109.349          estimate D2E/DX2                !
 ! A44   A(7,9,25)             110.7179         estimate D2E/DX2                !
 ! A45   A(8,10,11)            110.0968         estimate D2E/DX2                !
 ! A46   A(8,10,26)            111.1291         estimate D2E/DX2                !
 ! A47   A(8,10,27)            109.816          estimate D2E/DX2                !
 ! A48   A(11,10,26)           108.9751         estimate D2E/DX2                !
 ! A49   A(11,10,27)           109.2849         estimate D2E/DX2                !
 ! A50   A(26,10,27)           107.4819         estimate D2E/DX2                !
 ! A51   A(3,11,10)            111.5495         estimate D2E/DX2                !
 ! A52   A(3,11,28)            105.4968         estimate D2E/DX2                !
 ! A53   A(3,11,29)            109.3988         estimate D2E/DX2                !
 ! A54   A(10,11,28)           111.509          estimate D2E/DX2                !
 ! A55   A(10,11,29)           110.5548         estimate D2E/DX2                !
 ! A56   A(28,11,29)           108.1532         estimate D2E/DX2                !
 ! A57   A(2,12,5)             109.479          estimate D2E/DX2                !
 ! A58   A(2,12,30)            110.4753         estimate D2E/DX2                !
 ! A59   A(2,12,31)            109.298          estimate D2E/DX2                !
 ! A60   A(5,12,30)            109.623          estimate D2E/DX2                !
 ! A61   A(5,12,31)            111.0546         estimate D2E/DX2                !
 ! A62   A(30,12,31)           106.8849         estimate D2E/DX2                !
 ! A63   A(2,13,4)             113.389          estimate D2E/DX2                !
 ! D1    D(5,1,4,13)            27.7254         estimate D2E/DX2                !
 ! D2    D(5,1,4,17)           146.6685         estimate D2E/DX2                !
 ! D3    D(5,1,4,18)           -93.6822         estimate D2E/DX2                !
 ! D4    D(6,1,4,13)           -93.1424         estimate D2E/DX2                !
 ! D5    D(6,1,4,17)            25.8007         estimate D2E/DX2                !
 ! D6    D(6,1,4,18)           145.45           estimate D2E/DX2                !
 ! D7    D(14,1,4,13)          148.0042         estimate D2E/DX2                !
 ! D8    D(14,1,4,17)          -93.0527         estimate D2E/DX2                !
 ! D9    D(14,1,4,18)           26.5966         estimate D2E/DX2                !
 ! D10   D(4,1,5,12)            34.1252         estimate D2E/DX2                !
 ! D11   D(4,1,5,19)           -85.552          estimate D2E/DX2                !
 ! D12   D(4,1,5,20)           157.1126         estimate D2E/DX2                !
 ! D13   D(6,1,5,12)           155.7731         estimate D2E/DX2                !
 ! D14   D(6,1,5,19)            36.0959         estimate D2E/DX2                !
 ! D15   D(6,1,5,20)           -81.2395         estimate D2E/DX2                !
 ! D16   D(14,1,5,12)          -84.8438         estimate D2E/DX2                !
 ! D17   D(14,1,5,19)          155.479          estimate D2E/DX2                !
 ! D18   D(14,1,5,20)           38.1436         estimate D2E/DX2                !
 ! D19   D(4,1,6,9)           -125.4695         estimate D2E/DX2                !
 ! D20   D(5,1,6,9)            113.3953         Frozen                          !
 ! D21   D(14,1,6,9)            -6.9586         estimate D2E/DX2                !
 ! D22   D(13,2,12,5)           26.5477         estimate D2E/DX2                !
 ! D23   D(13,2,12,30)         -94.2703         estimate D2E/DX2                !
 ! D24   D(13,2,12,31)         148.3916         estimate D2E/DX2                !
 ! D25   D(15,2,12,5)          148.6794         estimate D2E/DX2                !
 ! D26   D(15,2,12,30)          27.8613         estimate D2E/DX2                !
 ! D27   D(15,2,12,31)         -89.4767         estimate D2E/DX2                !
 ! D28   D(16,2,12,5)          -90.8502         estimate D2E/DX2                !
 ! D29   D(16,2,12,30)         148.3318         estimate D2E/DX2                !
 ! D30   D(16,2,12,31)          30.9937         estimate D2E/DX2                !
 ! D31   D(12,2,13,4)           37.8681         estimate D2E/DX2                !
 ! D32   D(15,2,13,4)          -85.4142         estimate D2E/DX2                !
 ! D33   D(16,2,13,4)          158.3447         estimate D2E/DX2                !
 ! D34   D(11,3,9,6)            67.9659         estimate D2E/DX2                !
 ! D35   D(11,3,9,7)           -54.0707         estimate D2E/DX2                !
 ! D36   D(11,3,9,25)         -173.9238         estimate D2E/DX2                !
 ! D37   D(9,3,11,10)           56.5924         estimate D2E/DX2                !
 ! D38   D(9,3,11,28)          177.8286         estimate D2E/DX2                !
 ! D39   D(9,3,11,29)          -66.0416         estimate D2E/DX2                !
 ! D40   D(1,4,13,2)           -68.6268         estimate D2E/DX2                !
 ! D41   D(17,4,13,2)          170.3023         estimate D2E/DX2                !
 ! D42   D(18,4,13,2)           53.137          estimate D2E/DX2                !
 ! D43   D(1,5,12,2)           -62.7328         estimate D2E/DX2                !
 ! D44   D(1,5,12,30)           58.6014         estimate D2E/DX2                !
 ! D45   D(1,5,12,31)          176.4845         estimate D2E/DX2                !
 ! D46   D(19,5,12,2)           56.3673         estimate D2E/DX2                !
 ! D47   D(19,5,12,30)         177.7014         estimate D2E/DX2                !
 ! D48   D(19,5,12,31)         -64.4155         estimate D2E/DX2                !
 ! D49   D(20,5,12,2)          174.9724         estimate D2E/DX2                !
 ! D50   D(20,5,12,30)         -63.6934         estimate D2E/DX2                !
 ! D51   D(20,5,12,31)          54.1897         estimate D2E/DX2                !
 ! D52   D(1,6,9,3)             72.2104         estimate D2E/DX2                !
 ! D53   D(1,6,9,7)           -164.29           estimate D2E/DX2                !
 ! D54   D(1,6,9,25)           -43.1214         estimate D2E/DX2                !
 ! D55   D(9,7,8,10)           -51.9827         estimate D2E/DX2                !
 ! D56   D(9,7,8,23)            68.7581         estimate D2E/DX2                !
 ! D57   D(9,7,8,24)          -173.6743         estimate D2E/DX2                !
 ! D58   D(21,7,8,10)         -174.3597         estimate D2E/DX2                !
 ! D59   D(21,7,8,23)          -53.6189         estimate D2E/DX2                !
 ! D60   D(21,7,8,24)           63.9487         estimate D2E/DX2                !
 ! D61   D(22,7,8,10)           66.8578         estimate D2E/DX2                !
 ! D62   D(22,7,8,23)         -172.4013         estimate D2E/DX2                !
 ! D63   D(22,7,8,24)          -54.8338         estimate D2E/DX2                !
 ! D64   D(8,7,9,3)             51.2582         estimate D2E/DX2                !
 ! D65   D(8,7,9,6)            -72.1165         estimate D2E/DX2                !
 ! D66   D(8,7,9,25)           167.5539         estimate D2E/DX2                !
 ! D67   D(21,7,9,3)           175.1873         estimate D2E/DX2                !
 ! D68   D(21,7,9,6)            51.8126         estimate D2E/DX2                !
 ! D69   D(21,7,9,25)          -68.5169         estimate D2E/DX2                !
 ! D70   D(22,7,9,3)           -68.8096         estimate D2E/DX2                !
 ! D71   D(22,7,9,6)           167.8157         estimate D2E/DX2                !
 ! D72   D(22,7,9,25)           47.4862         estimate D2E/DX2                !
 ! D73   D(7,8,10,11)           53.3584         estimate D2E/DX2                !
 ! D74   D(7,8,10,26)          174.1949         estimate D2E/DX2                !
 ! D75   D(7,8,10,27)          -67.0165         estimate D2E/DX2                !
 ! D76   D(23,8,10,11)         -67.6777         estimate D2E/DX2                !
 ! D77   D(23,8,10,26)          53.1588         estimate D2E/DX2                !
 ! D78   D(23,8,10,27)         171.9474         estimate D2E/DX2                !
 ! D79   D(24,8,10,11)         174.5205         estimate D2E/DX2                !
 ! D80   D(24,8,10,26)         -64.643          estimate D2E/DX2                !
 ! D81   D(24,8,10,27)          54.1457         estimate D2E/DX2                !
 ! D82   D(8,10,11,3)          -54.946          estimate D2E/DX2                !
 ! D83   D(8,10,11,28)        -172.6173         estimate D2E/DX2                !
 ! D84   D(8,10,11,29)          67.0233         estimate D2E/DX2                !
 ! D85   D(26,10,11,3)        -177.0667         estimate D2E/DX2                !
 ! D86   D(26,10,11,28)         65.262          estimate D2E/DX2                !
 ! D87   D(26,10,11,29)        -55.0974         estimate D2E/DX2                !
 ! D88   D(27,10,11,3)          65.7486         estimate D2E/DX2                !
 ! D89   D(27,10,11,28)        -51.9227         estimate D2E/DX2                !
 ! D90   D(27,10,11,29)       -172.2821         estimate D2E/DX2                !
 --------------------------------------------------------------------------------
 Trust Radius=3.00D-01 FncErr=1.00D-07 GrdErr=1.00D-06 EigMax=2.50D+02 EigMin=1.00D-04
 Number of steps in this run=    186 maximum allowed number of steps=    186.
 GradGradGradGradGradGradGradGradGradGradGradGradGradGradGradGradGradGrad

                          Input orientation:                          
 ---------------------------------------------------------------------
 Center     Atomic      Atomic             Coordinates (Angstroms)
 Number     Number       Type             X           Y           Z
 ---------------------------------------------------------------------
      1          6           0        1.038456    0.214669   -0.498059
      2          6           0        3.722277   -0.493374    0.540711
      3          8           0       -1.782476   -0.232589   -1.299159
      4          6           0        1.583743   -1.184386   -0.198716
      5          6           0        2.072382    1.270709   -0.100924
      6          8           0       -0.170049    0.445829    0.215221
      7          6           0       -2.337026    1.405373    0.393808
      8          6           0       -3.008015    0.317541    1.233154
      9          6           0       -1.279193    0.836166   -0.538939
     10          6           0       -3.510173   -0.798219    0.317330
     11          6           0       -2.379808   -1.295774   -0.567450
     12          6           0        3.479874    0.732112   -0.348611
     13          8           0        2.509502   -1.156750    0.865584
     14          1           0        0.830943    0.274475   -1.559193
     15          1           0        4.395092   -1.197969    0.060883
     16          1           0        4.155181   -0.200027    1.487678
     17          1           0        0.785430   -1.850225    0.092731
     18          1           0        2.063364   -1.593279   -1.083276
     19          1           0        1.950110    1.495164    0.954354
     20          1           0        1.898611    2.190293   -0.649641
     21          1           0       -1.881295    2.166758    1.017451
     22          1           0       -3.083726    1.894904   -0.225378
     23          1           0       -2.302359   -0.089261    1.952648
     24          1           0       -3.828608    0.745421    1.800763
     25          1           0       -0.974878    1.574348   -1.267944
     26          1           0       -3.900700   -1.632032    0.893820
     27          1           0       -4.318574   -0.426218   -0.307895
     28          1           0       -2.736967   -1.993884   -1.311881
     29          1           0       -1.622256   -1.794005    0.026935
     30          1           0        3.590566    0.468878   -1.396776
     31          1           0        4.229158    1.485824   -0.132271
 ---------------------------------------------------------------------
                    Distance matrix (angstroms):
                    1          2          3          4          5
     1  C    0.000000
     2  C    2.963657   0.000000
     3  O    2.966388   5.809943   0.000000
     4  C    1.531110   2.365920   3.667195   0.000000
     5  C    1.530340   2.499167   4.307621   2.505159   0.000000
     6  O    1.422212   4.017244   2.313767   2.429965   2.410160
     7  C    3.688778   6.351533   2.420038   4.736071   4.439118
     8  C    4.402455   6.814242   2.866566   5.038877   5.338420
     9  C    2.399881   5.286589   1.404801   3.520623   3.407894
    10  C    4.730838   7.242317   2.432676   5.134531   5.968276
    11  C    3.737751   6.253584   1.422169   3.982224   5.160085
    12  C    2.500121   1.533450   5.433831   2.700138   1.527242
    13  O    2.429874   1.420012   4.895024   1.410861   2.649107
    14  H    1.082887   3.654997   2.674825   2.132107   2.158750
    15  H    3.684422   1.085988   6.398751   2.823342   3.393455
    16  H    3.718750   1.081760   6.559214   3.228805   3.004126
    17  H    2.162601   3.266007   3.338899   1.079623   3.381416
    18  H    2.159072   2.568875   4.085164   1.086129   3.027792
    19  H    2.140160   2.695544   4.689952   2.940031   1.085791
    20  H    2.160077   3.456120   4.454507   3.419201   1.084860
    21  H    3.825228   6.221222   3.336662   4.971490   4.205381
    22  H    4.459813   7.253443   2.715232   5.591780   5.195244
    23  H    4.154441   6.201057   3.296221   4.574872   5.020462
    24  H    5.408751   7.754883   3.840921   6.084046   6.222059
    25  H    2.548522   5.441505   1.979447   3.911573   3.277183
    26  H    5.453705   7.715634   3.354768   5.610092   6.715142
    27  H    5.398580   8.085785   2.729815   5.951814   6.615642
    28  H    4.449026   6.885162   2.003341   4.534640   5.937493
    29  H    3.374875   5.524458   2.054803   3.271236   4.801996
    30  H    2.717642   2.167287   5.419517   2.862860   2.151057
    31  H    3.454014   2.151060   6.360371   3.759343   2.167704
                    6          7          8          9         10
     6  O    0.000000
     7  C    2.376638   0.000000
     8  C    3.017730   1.529087   0.000000
     9  C    1.396897   1.520863   2.529449   0.000000
    10  C    3.565741   2.497587   1.528338   2.895114   0.000000
    11  C    2.920409   2.867410   2.497920   2.399445   1.519250
    12  C    3.704295   5.902609   6.690781   4.764008   7.186525
    13  O    3.189236   5.502352   5.722904   4.505398   6.055214
    14  H    2.044478   3.889623   4.747279   2.410205   4.849464
    15  H    4.854524   7.225624   7.647024   6.057640   7.919519
    16  H    4.554546   6.776622   7.186379   5.891799   7.777223
    17  H    2.489941   4.520984   4.515529   3.446501   4.428246
    18  H    3.291229   5.526040   5.893723   4.167876   5.801563
    19  H    2.478406   4.324559   5.103678   3.618370   5.956517
    20  H    2.840862   4.432325   5.579166   3.456060   6.254693
    21  H    2.556078   1.084587   2.176150   2.134327   3.454635
    22  H    3.283818   1.086551   2.149679   2.115558   2.780162
    23  H    2.802092   2.159888   1.086789   2.848033   2.153068
    24  H    3.998594   2.154037   1.085649   3.461496   2.164440
    25  H    2.030045   2.155324   3.459581   1.081189   3.817052
    26  H    4.323859   3.452668   2.170914   3.875190   1.086322
    27  H    4.271344   2.788126   2.155359   3.299217   1.087568
    28  H    3.856593   3.824170   3.448674   3.275932   2.163745
    29  H    2.676044   3.298714   2.798914   2.712140   2.154101
    30  H    4.091612   6.262552   7.104978   4.958360   7.413784
    31  H    4.533802   6.587716   7.456939   5.561418   8.081846
                   11         12         13         14         15
    11  C    0.000000
    12  C    6.204521   0.000000
    13  O    5.096888   2.446158   0.000000
    14  H    3.709199   2.948182   3.278034   0.000000
    15  H    6.804678   2.174976   2.050535   4.182810   0.000000
    16  H    6.937600   2.167229   2.002643   4.534218   1.757609
    17  H    3.280547   3.758095   2.012619   2.691705   3.668257
    18  H    4.482897   2.820226   2.046375   2.287764   2.627228
    19  H    5.371537   2.149452   2.711724   3.010072   3.745556
    20  H    5.519446   2.171935   3.724485   2.374354   4.268206
    21  H    3.840515   5.715459   5.508890   4.192382   7.185363
    22  H    3.285261   6.666942   6.464286   4.441789   8.098181
    23  H    2.795097   6.277314   5.047301   4.720478   7.047259
    24  H    3.445857   7.617998   6.683147   5.763897   8.627467
    25  H    3.271410   4.625943   4.914442   2.243989   6.187738
    26  H    2.135765   7.848929   6.427860   5.660432   8.348794
    27  H    2.140633   7.884109   6.966588   5.345488   8.755545
    28  H    1.081248   6.856242   5.741741   4.235162   7.306451
    29  H    1.084165   5.705614   4.263901   3.579469   6.046891
    30  H    6.280696   1.086368   2.988250   2.771226   2.355931
    31  H    7.183669   1.084579   3.306982   3.879605   2.695846
                   16         17         18         19         20
    16  H    0.000000
    17  H    4.003030   0.000000
    18  H    3.595366   1.755599   0.000000
    19  H    2.832039   3.645614   3.701789   0.000000
    20  H    3.920953   4.256298   3.811902   1.748901   0.000000
    21  H    6.500910   4.909448   5.840485   3.890332   4.131276
    22  H    7.728200   5.394215   6.276619   5.185660   5.009085
    23  H    6.475206   4.011823   5.526160   4.646556   5.442097
    24  H    8.045668   5.562742   6.964376   5.888302   6.394777
    25  H    6.087640   4.083849   4.393049   3.674294   3.003103
    26  H    8.203690   4.759114   6.283349   6.634380   7.115086
    27  H    8.664858   5.314052   6.533941   6.676929   6.753985
    28  H    7.652265   3.794846   4.822439   6.267214   6.279688
    29  H    6.168737   2.409241   3.854433   4.943737   5.359934
    30  H    3.014349   3.932640   2.585173   3.045024   2.526696
    31  H    2.339188   4.799907   3.882776   2.524857   2.489056
                   21         22         23         24         25
    21  H    0.000000
    22  H    1.750534   0.000000
    23  H    2.478207   3.048154   0.000000
    24  H    2.534917   2.445692   1.746196   0.000000
    25  H    2.528947   2.374224   3.860313   4.271751   0.000000
    26  H    4.303962   3.789370   2.460885   2.545589   4.849178
    27  H    3.797420   2.630450   3.047740   2.461553   4.013012
    28  H    4.844471   4.052580   3.804421   4.287660   3.979845
    29  H    4.090949   3.975878   2.660275   3.803043   3.666280
    30  H    6.217118   6.924731   6.801230   8.083618   4.699143
    31  H    6.254852   7.324909   7.034806   8.319400   5.327249
                   26         27         28         29         30
    26  H    0.000000
    27  H    1.752919   0.000000
    28  H    2.519986   2.442754   0.000000
    29  H    2.443160   3.041888   1.753557   0.000000
    30  H    8.110470   8.033763   6.790440   5.858422   0.000000
    31  H    8.767467   8.760735   7.875706   6.709819   1.743833
                   31
    31  H    0.000000
 Stoichiometry    C10H18O3
 Framework group  C1[X(C10H18O3)]
 Deg. of freedom    87
 Full point group                 C1      NOp   1
 Largest Abelian subgroup         C1      NOp   1
 Largest concise Abelian subgroup C1      NOp   1
                         Standard orientation:                         
 ---------------------------------------------------------------------
 Center     Atomic      Atomic             Coordinates (Angstroms)
 Number     Number       Type             X           Y           Z
 ---------------------------------------------------------------------
      1          6           0        1.038456    0.214669   -0.498059
      2          6           0        3.722277   -0.493374    0.540711
      3          8           0       -1.782476   -0.232589   -1.299159
      4          6           0        1.583743   -1.184386   -0.198716
      5          6           0        2.072382    1.270709   -0.100924
      6          8           0       -0.170049    0.445829    0.215221
      7          6           0       -2.337026    1.405373    0.393808
      8          6           0       -3.008015    0.317541    1.233154
      9          6           0       -1.279193    0.836166   -0.538939
     10          6           0       -3.510173   -0.798219    0.317330
     11          6           0       -2.379808   -1.295774   -0.567450
     12          6           0        3.479874    0.732112   -0.348611
     13          8           0        2.509502   -1.156750    0.865584
     14          1           0        0.830943    0.274475   -1.559193
     15          1           0        4.395092   -1.197969    0.060883
     16          1           0        4.155181   -0.200027    1.487678
     17          1           0        0.785430   -1.850225    0.092731
     18          1           0        2.063364   -1.593279   -1.083276
     19          1           0        1.950110    1.495164    0.954354
     20          1           0        1.898611    2.190293   -0.649641
     21          1           0       -1.881295    2.166758    1.017451
     22          1           0       -3.083726    1.894904   -0.225378
     23          1           0       -2.302359   -0.089261    1.952648
     24          1           0       -3.828608    0.745421    1.800763
     25          1           0       -0.974878    1.574348   -1.267944
     26          1           0       -3.900700   -1.632032    0.893820
     27          1           0       -4.318574   -0.426218   -0.307895
     28          1           0       -2.736967   -1.993884   -1.311881
     29          1           0       -1.622256   -1.794005    0.026935
     30          1           0        3.590566    0.468878   -1.396776
     31          1           0        4.229158    1.485824   -0.132271
 ---------------------------------------------------------------------
 Rotational constants (GHZ):           1.8739156           0.4122720           0.3891335
 Standard basis: 6-311++G(2d,2p) (5D, 7F)
 There are   557 symmetry adapted cartesian basis functions of A   symmetry.
 There are   531 symmetry adapted basis functions of A   symmetry.
   531 basis functions,   762 primitive gaussians,   557 cartesian basis functions
    51 alpha electrons       51 beta electrons
       nuclear repulsion energy       893.8577871328 Hartrees.
 NAtoms=   31 NActive=   31 NUniq=   31 SFac= 1.00D+00 NAtFMM=   60 NAOKFM=F Big=F
 Integral buffers will be    131072 words long.
 Raffenetti 2 integral format.
 Two-electron integral symmetry is turned on.
 ------------------------------------------------------------------------------
 Polarizable Continuum Model (PCM)
 =================================
 Model                : PCM.
 Atomic radii         : UFF (Universal Force Field).
 Polarization charges : Total charges.
 Charge compensation  : None.
 Solution method      : On-the-fly selection.
 Cavity type          : Scaled VdW (van der Waals Surface) (Alpha=1.100).
 Cavity algorithm     : GePol (No added spheres)
                        Default sphere list used, NSphG=   31.
                        Lebedev-Laikov grids with approx.  5.0 points / Ang**2.
                        Smoothing algorithm: York/Karplus (Gamma=1.0000).
                        Polarization charges: spherical gaussians, with
                                              point-specific exponents (IZeta= 3).
                        Self-potential: point-specific (ISelfS= 7).
                        Self-field    : sphere-specific E.n sum rule (ISelfD= 2).
 1st derivatives      : Analytical E(r).r(x)/FMM algorithm (CHGder, D1EAlg=3).
                        Cavity 1st derivative terms included.
 Solvent              : Water, Eps=  78.355300 Eps(inf)=   1.777849
 ------------------------------------------------------------------------------
 One-electron integrals computed using PRISM.
 NBasis=   531 RedAO= T EigKep=  4.84D-06  NBF=   531
 NBsUse=   531 1.00D-06 EigRej= -1.00D+00 NBFU=   531
 ExpMin= 3.60D-02 ExpMax= 8.59D+03 ExpMxC= 1.30D+03 IAcc=3 IRadAn=         5 AccDes= 0.00D+00
 Harris functional with IExCor= 1009 and IRadAn=       5 diagonalized for initial guess.
 HarFok:  IExCor= 1009 AccDes= 0.00D+00 IRadAn=         5 IDoV= 1 UseB2=F ITyADJ=14
 ICtDFT=  3500011 ScaDFX=  1.000000  1.000000  1.000000  1.000000
 FoFCou: FMM=F IPFlag=           0 FMFlag=      100000 FMFlg1=           0
         NFxFlg=           0 DoJE=T BraDBF=F KetDBF=T FulRan=T
         wScrn=  0.000000 ICntrl=       500 IOpCl=  0 I1Cent=   200000004 NGrid=           0
         NMat0=    1 NMatS0=      1 NMatT0=    0 NMatD0=    1 NMtDS0=    0 NMtDT0=    0
 Petite list used in FoFCou.
 Requested convergence on RMS density matrix=1.00D-08 within 128 cycles.
 Requested convergence on MAX density matrix=1.00D-06.
 Requested convergence on             energy=1.00D-06.
 No special actions if energy rises.
 Inv3:  Mode=1 IEnd=    12904428.
 Iteration    1 A*A^-1 deviation from unit magnitude is 3.66D-15 for   2035.
 Iteration    1 A*A^-1 deviation from orthogonality  is 1.89D-15 for   1819   1236.
 Iteration    1 A^-1*A deviation from unit magnitude is 3.66D-15 for   2035.
 Iteration    1 A^-1*A deviation from orthogonality  is 1.17D-15 for   1947   1118.
 Error on total polarization charges =  0.01485
 SCF Done:  E(RM062X) =  -617.493901561     A.U. after   12 cycles
            NFock= 12  Conv=0.38D-08     -V/T= 2.0035

 **********************************************************************

            Population analysis using the SCF density.

 **********************************************************************

 Orbital symmetries:
       Occupied  (A) (A) (A) (A) (A) (A) (A) (A) (A) (A) (A) (A)
                 (A) (A) (A) (A) (A) (A) (A) (A) (A) (A) (A) (A)
                 (A) (A) (A) (A) (A) (A) (A) (A) (A) (A) (A) (A)
                 (A) (A) (A) (A) (A) (A) (A) (A) (A) (A) (A) (A)
                 (A) (A) (A)
       Virtual   (A) (A) (A) (A) (A) (A) (A) (A) (A) (A) (A) (A)
                 (A) (A) (A) (A) (A) (A) (A) (A) (A) (A) (A) (A)
                 (A) (A) (A) (A) (A) (A) (A) (A) (A) (A) (A) (A)
                 (A) (A) (A) (A) (A) (A) (A) (A) (A) (A) (A) (A)
                 (A) (A) (A) (A) (A) (A) (A) (A) (A) (A) (A) (A)
                 (A) (A) (A) (A) (A) (A) (A) (A) (A) (A) (A) (A)
                 (A) (A) (A) (A) (A) (A) (A) (A) (A) (A) (A) (A)
                 (A) (A) (A) (A) (A) (A) (A) (A) (A) (A) (A) (A)
                 (A) (A) (A) (A) (A) (A) (A) (A) (A) (A) (A) (A)
                 (A) (A) (A) (A) (A) (A) (A) (A) (A) (A) (A) (A)
                 (A) (A) (A) (A) (A) (A) (A) (A) (A) (A) (A) (A)
                 (A) (A) (A) (A) (A) (A) (A) (A) (A) (A) (A) (A)
                 (A) (A) (A) (A) (A) (A) (A) (A) (A) (A) (A) (A)
                 (A) (A) (A) (A) (A) (A) (A) (A) (A) (A) (A) (A)
                 (A) (A) (A) (A) (A) (A) (A) (A) (A) (A) (A) (A)
                 (A) (A) (A) (A) (A) (A) (A) (A) (A) (A) (A) (A)
                 (A) (A) (A) (A) (A) (A) (A) (A) (A) (A) (A) (A)
                 (A) (A) (A) (A) (A) (A) (A) (A) (A) (A) (A) (A)
                 (A) (A) (A) (A) (A) (A) (A) (A) (A) (A) (A) (A)
                 (A) (A) (A) (A) (A) (A) (A) (A) (A) (A) (A) (A)
                 (A) (A) (A) (A) (A) (A) (A) (A) (A) (A) (A) (A)
                 (A) (A) (A) (A) (A) (A) (A) (A) (A) (A) (A) (A)
                 (A) (A) (A) (A) (A) (A) (A) (A) (A) (A) (A) (A)
                 (A) (A) (A) (A) (A) (A) (A) (A) (A) (A) (A) (A)
                 (A) (A) (A) (A) (A) (A) (A) (A) (A) (A) (A) (A)
                 (A) (A) (A) (A) (A) (A) (A) (A) (A) (A) (A) (A)
                 (A) (A) (A) (A) (A) (A) (A) (A) (A) (A) (A) (A)
                 (A) (A) (A) (A) (A) (A) (A) (A) (A) (A) (A) (A)
                 (A) (A) (A) (A) (A) (A) (A) (A) (A) (A) (A) (A)
                 (A) (A) (A) (A) (A) (A) (A) (A) (A) (A) (A) (A)
                 (A) (A) (A) (A) (A) (A) (A) (A) (A) (A) (A) (A)
                 (A) (A) (A) (A) (A) (A) (A) (A) (A) (A) (A) (A)
                 (A) (A) (A) (A) (A) (A) (A) (A) (A) (A) (A) (A)
                 (A) (A) (A) (A) (A) (A) (A) (A) (A) (A) (A) (A)
                 (A) (A) (A) (A) (A) (A) (A) (A) (A) (A) (A) (A)
                 (A) (A) (A) (A) (A) (A) (A) (A) (A) (A) (A) (A)
                 (A) (A) (A) (A) (A) (A) (A) (A) (A) (A) (A) (A)
                 (A) (A) (A) (A) (A) (A) (A) (A) (A) (A) (A) (A)
                 (A) (A) (A) (A) (A) (A) (A) (A) (A) (A) (A) (A)
                 (A) (A) (A) (A) (A) (A) (A) (A) (A) (A) (A) (A)
 The electronic state is 1-A.
 Alpha  occ. eigenvalues --  -19.62782 -19.62716 -19.62550 -10.63367 -10.58692
 Alpha  occ. eigenvalues --  -10.57807 -10.57798 -10.57643 -10.53191 -10.53068
 Alpha  occ. eigenvalues --  -10.52973 -10.52935 -10.52759  -1.20106  -1.16463
 Alpha  occ. eigenvalues --   -1.13392  -0.90843  -0.89695  -0.87331  -0.84529
 Alpha  occ. eigenvalues --   -0.74783  -0.74608  -0.73285  -0.71426  -0.64793
 Alpha  occ. eigenvalues --   -0.62992  -0.59901  -0.59696  -0.57584  -0.56392
 Alpha  occ. eigenvalues --   -0.54951  -0.53142  -0.52685  -0.50590  -0.49779
 Alpha  occ. eigenvalues --   -0.47267  -0.46781  -0.45841  -0.45202  -0.44721
 Alpha  occ. eigenvalues --   -0.43969  -0.42546  -0.42120  -0.40813  -0.39550
 Alpha  occ. eigenvalues --   -0.38507  -0.36964  -0.35900  -0.35092  -0.33342
 Alpha  occ. eigenvalues --   -0.31663
 Alpha virt. eigenvalues --   -0.00127   0.00745   0.00919   0.01050   0.02192
 Alpha virt. eigenvalues --    0.02444   0.02585   0.03394   0.03598   0.04407
 Alpha virt. eigenvalues --    0.04444   0.04676   0.05425   0.05812   0.07052
 Alpha virt. eigenvalues --    0.07483   0.07758   0.07992   0.08998   0.09234
 Alpha virt. eigenvalues --    0.09529   0.10825   0.10976   0.11650   0.12093
 Alpha virt. eigenvalues --    0.12145   0.12538   0.12798   0.13016   0.13317
 Alpha virt. eigenvalues --    0.13560   0.13908   0.14030   0.14450   0.14798
 Alpha virt. eigenvalues --    0.15155   0.15483   0.15856   0.16030   0.16270
 Alpha virt. eigenvalues --    0.16517   0.16928   0.17068   0.17233   0.17732
 Alpha virt. eigenvalues --    0.17918   0.18343   0.19041   0.19241   0.19316
 Alpha virt. eigenvalues --    0.19933   0.20081   0.20490   0.20861   0.21533
 Alpha virt. eigenvalues --    0.21755   0.22226   0.22674   0.23416   0.23878
 Alpha virt. eigenvalues --    0.23954   0.24852   0.25360   0.25875   0.26867
 Alpha virt. eigenvalues --    0.27456   0.28068   0.28836   0.29005   0.29491
 Alpha virt. eigenvalues --    0.29967   0.30790   0.31047   0.31739   0.31864
 Alpha virt. eigenvalues --    0.32299   0.33148   0.33605   0.34272   0.34415
 Alpha virt. eigenvalues --    0.34815   0.35222   0.35889   0.36137   0.36512
 Alpha virt. eigenvalues --    0.36682   0.36885   0.37594   0.38360   0.38714
 Alpha virt. eigenvalues --    0.38848   0.39333   0.39645   0.40753   0.41455
 Alpha virt. eigenvalues --    0.42305   0.43091   0.43970   0.44458   0.44933
 Alpha virt. eigenvalues --    0.46062   0.48086   0.49187   0.50464   0.51112
 Alpha virt. eigenvalues --    0.51624   0.52227   0.52942   0.53813   0.54371
 Alpha virt. eigenvalues --    0.56013   0.56371   0.56851   0.58604   0.58885
 Alpha virt. eigenvalues --    0.59493   0.60291   0.60591   0.61055   0.61290
 Alpha virt. eigenvalues --    0.61715   0.62129   0.63329   0.63626   0.63966
 Alpha virt. eigenvalues --    0.64601   0.65181   0.66125   0.66430   0.67000
 Alpha virt. eigenvalues --    0.67363   0.68055   0.68970   0.69311   0.69554
 Alpha virt. eigenvalues --    0.70331   0.71129   0.71733   0.73037   0.73401
 Alpha virt. eigenvalues --    0.73932   0.74155   0.74839   0.75061   0.75392
 Alpha virt. eigenvalues --    0.76209   0.76642   0.77076   0.78364   0.78995
 Alpha virt. eigenvalues --    0.79864   0.80973   0.83716   0.85190   0.85759
 Alpha virt. eigenvalues --    0.86108   0.87465   0.87839   0.88343   0.89770
 Alpha virt. eigenvalues --    0.91127   0.92257   0.93797   0.94153   0.94491
 Alpha virt. eigenvalues --    0.96764   0.97582   0.99210   1.01557   1.02446
 Alpha virt. eigenvalues --    1.02626   1.04309   1.04916   1.05376   1.06545
 Alpha virt. eigenvalues --    1.07579   1.08347   1.09539   1.10498   1.11891
 Alpha virt. eigenvalues --    1.13208   1.13964   1.14819   1.16421   1.16873
 Alpha virt. eigenvalues --    1.17421   1.18551   1.19490   1.20118   1.21697
 Alpha virt. eigenvalues --    1.21905   1.22967   1.23747   1.24288   1.24925
 Alpha virt. eigenvalues --    1.25345   1.25609   1.25985   1.26709   1.27163
 Alpha virt. eigenvalues --    1.27573   1.28604   1.29608   1.30119   1.30921
 Alpha virt. eigenvalues --    1.31256   1.32760   1.33539   1.33952   1.34370
 Alpha virt. eigenvalues --    1.34890   1.35580   1.36406   1.37687   1.37917
 Alpha virt. eigenvalues --    1.39389   1.39755   1.40363   1.40810   1.41438
 Alpha virt. eigenvalues --    1.42245   1.43222   1.43906   1.44457   1.45014
 Alpha virt. eigenvalues --    1.45899   1.46078   1.46189   1.47215   1.47770
 Alpha virt. eigenvalues --    1.48524   1.49647   1.50017   1.50911   1.52195
 Alpha virt. eigenvalues --    1.52939   1.53421   1.54126   1.54627   1.55340
 Alpha virt. eigenvalues --    1.56091   1.56363   1.57725   1.58063   1.58985
 Alpha virt. eigenvalues --    1.59220   1.59787   1.60413   1.60906   1.61156
 Alpha virt. eigenvalues --    1.62026   1.63850   1.64464   1.65065   1.66110
 Alpha virt. eigenvalues --    1.66814   1.67875   1.68668   1.69106   1.71703
 Alpha virt. eigenvalues --    1.73181   1.73773   1.74155   1.74960   1.75703
 Alpha virt. eigenvalues --    1.77370   1.79505   1.80102   1.80602   1.83175
 Alpha virt. eigenvalues --    1.83877   1.87574   1.89831   1.97053   1.97783
 Alpha virt. eigenvalues --    2.01438   2.07894   2.10316   2.15536   2.19831
 Alpha virt. eigenvalues --    2.21789   2.26360   2.29680   2.33282   2.39826
 Alpha virt. eigenvalues --    2.41500   2.43088   2.44906   2.45755   2.52171
 Alpha virt. eigenvalues --    2.60050   2.76522   2.77505   2.79774   2.82303
 Alpha virt. eigenvalues --    2.84272   2.87389   2.90245   2.91165   2.92640
 Alpha virt. eigenvalues --    2.93597   2.95893   2.97507   3.01999   3.02765
 Alpha virt. eigenvalues --    3.04457   3.05914   3.08328   3.09711   3.10998
 Alpha virt. eigenvalues --    3.12700   3.14909   3.16632   3.18481   3.20026
 Alpha virt. eigenvalues --    3.25031   3.30105   3.31638   3.32051   3.33374
 Alpha virt. eigenvalues --    3.35044   3.35965   3.36572   3.37787   3.39579
 Alpha virt. eigenvalues --    3.40723   3.43234   3.43645   3.44753   3.45030
 Alpha virt. eigenvalues --    3.46568   3.49039   3.49675   3.50747   3.51095
 Alpha virt. eigenvalues --    3.52063   3.53094   3.53643   3.54838   3.56204
 Alpha virt. eigenvalues --    3.56479   3.57664   3.57872   3.58543   3.59178
 Alpha virt. eigenvalues --    3.60183   3.61811   3.63352   3.63710   3.64497
 Alpha virt. eigenvalues --    3.65269   3.66628   3.68177   3.68660   3.69447
 Alpha virt. eigenvalues --    3.69831   3.71125   3.71353   3.73110   3.73974
 Alpha virt. eigenvalues --    3.75071   3.75408   3.77305   3.77872   3.79860
 Alpha virt. eigenvalues --    3.79927   3.81417   3.82133   3.82726   3.84019
 Alpha virt. eigenvalues --    3.85978   3.87860   3.88918   3.90200   3.91743
 Alpha virt. eigenvalues --    3.93979   3.94825   3.96862   3.97310   3.98953
 Alpha virt. eigenvalues --    4.00281   4.01134   4.02121   4.02798   4.03807
 Alpha virt. eigenvalues --    4.03996   4.05186   4.06914   4.07425   4.08106
 Alpha virt. eigenvalues --    4.08636   4.08653   4.09627   4.10792   4.11731
 Alpha virt. eigenvalues --    4.12477   4.12911   4.13390   4.14382   4.15125
 Alpha virt. eigenvalues --    4.16230   4.17610   4.17769   4.18358   4.19654
 Alpha virt. eigenvalues --    4.22138   4.22999   4.25219   4.26201   4.26992
 Alpha virt. eigenvalues --    4.28256   4.28881   4.30034   4.31729   4.32354
 Alpha virt. eigenvalues --    4.33386   4.34021   4.34230   4.35903   4.36513
 Alpha virt. eigenvalues --    4.39360   4.42057   4.42490   4.46781   4.47125
 Alpha virt. eigenvalues --    4.57845   4.61855   4.73774   4.75520   4.82096
 Alpha virt. eigenvalues --    4.85029   4.93188   4.95241   5.00180   5.01487
 Alpha virt. eigenvalues --    5.04638   5.07078   5.07848   5.11496   5.12687
 Alpha virt. eigenvalues --    5.13777   5.14475   5.16386   5.32659   5.39015
 Alpha virt. eigenvalues --    5.43330   5.57466   5.61219   5.65101   5.85305
 Alpha virt. eigenvalues --    5.87627   6.06629   7.03357   7.04654   7.07373
 Alpha virt. eigenvalues --    7.09170   7.10054   7.10931   7.15427   7.19103
 Alpha virt. eigenvalues --    7.26190   7.36096   7.37125   7.43884   7.53149
 Alpha virt. eigenvalues --    7.54738   7.66340  23.96394  23.97755  24.06076
 Alpha virt. eigenvalues --   24.07157  24.10817  24.12034  24.12976  24.15310
 Alpha virt. eigenvalues --   24.17396  24.19845  50.15369  50.18794  50.25998
          Condensed to atoms (all electrons):
               1          2          3          4          5          6
     1  C    8.734478   0.080776   0.005535  -0.808195  -1.521540  -0.003856
     2  C    0.080776   5.628292  -0.003237  -0.133719  -0.047806   0.016426
     3  O    0.005535  -0.003237   8.196247  -0.041488   0.024002  -0.038383
     4  C   -0.808195  -0.133719  -0.041488   6.514186   0.047824  -0.053844
     5  C   -1.521540  -0.047806   0.024002   0.047824   6.866703  -0.142439
     6  O   -0.003856   0.016426  -0.038383  -0.053844  -0.142439   8.272468
     7  C    0.072121  -0.002745  -0.070860  -0.114175   0.038587  -0.030123
     8  C   -0.041158   0.000391  -0.004675   0.014694   0.010981  -0.032920
     9  C   -1.181415   0.045412   0.331445   0.101802   0.380915   0.289339
    10  C    0.070181  -0.000301  -0.057310  -0.004353  -0.012779  -0.017863
    11  C    0.140943  -0.003289   0.109097  -0.011754  -0.033865   0.009191
    12  C    0.269591  -0.268453   0.005758   0.021225  -0.195908  -0.013811
    13  O   -0.035596   0.076146  -0.000033   0.107496  -0.034037   0.017265
    14  H    0.518911  -0.002579  -0.010356  -0.015090  -0.086566  -0.024625
    15  H    0.037746   0.521205   0.000083  -0.024457  -0.030373  -0.000406
    16  H   -0.014389   0.408611  -0.000176   0.014608  -0.004191   0.001165
    17  H    0.022344   0.025836   0.005145   0.390227  -0.046403  -0.021874
    18  H   -0.114570   0.038048  -0.002666   0.436573   0.041705   0.016269
    19  H   -0.129946  -0.038218   0.000287  -0.017157   0.534849  -0.003794
    20  H   -0.060338  -0.001846  -0.000232   0.014144   0.440531   0.003057
    21  H   -0.014921   0.001291   0.009548   0.006156   0.001421  -0.004943
    22  H    0.012552  -0.000341  -0.008896  -0.004682   0.001308   0.010282
    23  H   -0.008513   0.000834   0.001373  -0.002734   0.002466  -0.005913
    24  H   -0.000544   0.000004  -0.004244   0.000363   0.000054   0.000377
    25  H    0.022921   0.004572  -0.058484   0.004034  -0.020792  -0.020075
    26  H    0.001296   0.000111   0.010408   0.003237  -0.001931   0.000415
    27  H   -0.005691   0.000070  -0.001455  -0.001511   0.000995  -0.001174
    28  H    0.008509  -0.000030  -0.072637  -0.000498  -0.002247   0.000767
    29  H   -0.050937  -0.001744  -0.034451  -0.002732   0.030977   0.018709
    30  H   -0.057620  -0.086009   0.000204  -0.016275   0.006214   0.001248
    31  H    0.010317  -0.020518   0.000245   0.002925  -0.039094  -0.001876
               7          8          9         10         11         12
     1  C    0.072121  -0.041158  -1.181415   0.070181   0.140943   0.269591
     2  C   -0.002745   0.000391   0.045412  -0.000301  -0.003289  -0.268453
     3  O   -0.070860  -0.004675   0.331445  -0.057310   0.109097   0.005758
     4  C   -0.114175   0.014694   0.101802  -0.004353  -0.011754   0.021225
     5  C    0.038587   0.010981   0.380915  -0.012779  -0.033865  -0.195908
     6  O   -0.030123  -0.032920   0.289339  -0.017863   0.009191  -0.013811
     7  C    6.769127  -0.209397  -0.849484  -0.045282   0.086433   0.015696
     8  C   -0.209397   5.705999  -0.001853  -0.028030   0.047826  -0.002547
     9  C   -0.849484  -0.001853   7.134094   0.119022  -0.446031  -0.192545
    10  C   -0.045282  -0.028030   0.119022   5.705184  -0.097806  -0.000193
    11  C    0.086433   0.047826  -0.446031  -0.097806   5.506563   0.008008
    12  C    0.015696  -0.002547  -0.192545  -0.000193   0.008008   5.909465
    13  O    0.003177   0.000135   0.002986  -0.000021   0.002853   0.034490
    14  H   -0.030326   0.000417  -0.041524   0.001610   0.010243   0.020908
    15  H   -0.000098  -0.000133  -0.004800   0.000026   0.000807  -0.096637
    16  H    0.000117   0.000281   0.003212  -0.000041  -0.000600   0.011878
    17  H   -0.018868   0.012760  -0.009499  -0.004004   0.006396  -0.004947
    18  H    0.009276  -0.003248   0.034599  -0.000028  -0.004601  -0.057483
    19  H   -0.003494   0.004772  -0.000387  -0.000910   0.000802  -0.001242
    20  H    0.002415   0.000252   0.020522  -0.000356   0.000374  -0.023403
    21  H    0.395011  -0.032032   0.002955  -0.008487   0.011580  -0.003630
    22  H    0.554497  -0.016876  -0.165765  -0.013442   0.011404   0.001003
    23  H   -0.046115   0.509612  -0.005695  -0.062170  -0.000268  -0.000505
    24  H   -0.050289   0.420156   0.020567  -0.023076   0.011224   0.000166
    25  H   -0.074304  -0.000738   0.491110   0.012845  -0.022921  -0.008299
    26  H   -0.010586  -0.034629   0.002718   0.433954  -0.034799  -0.000065
    27  H   -0.015687  -0.024282   0.012253   0.494281  -0.086772  -0.000165
    28  H   -0.004960   0.010039  -0.010868  -0.021760   0.438443   0.000284
    29  H    0.034495  -0.006663   0.018265  -0.076811   0.464150  -0.001389
    30  H    0.000779   0.000783   0.006460  -0.000117  -0.000712   0.518965
    31  H    0.001554  -0.000512  -0.003054  -0.000003   0.000154   0.404124
              13         14         15         16         17         18
     1  C   -0.035596   0.518911   0.037746  -0.014389   0.022344  -0.114570
     2  C    0.076146  -0.002579   0.521205   0.408611   0.025836   0.038048
     3  O   -0.000033  -0.010356   0.000083  -0.000176   0.005145  -0.002666
     4  C    0.107496  -0.015090  -0.024457   0.014608   0.390227   0.436573
     5  C   -0.034037  -0.086566  -0.030373  -0.004191  -0.046403   0.041705
     6  O    0.017265  -0.024625  -0.000406   0.001165  -0.021874   0.016269
     7  C    0.003177  -0.030326  -0.000098   0.000117  -0.018868   0.009276
     8  C    0.000135   0.000417  -0.000133   0.000281   0.012760  -0.003248
     9  C    0.002986  -0.041524  -0.004800   0.003212  -0.009499   0.034599
    10  C   -0.000021   0.001610   0.000026  -0.000041  -0.004004  -0.000028
    11  C    0.002853   0.010243   0.000807  -0.000600   0.006396  -0.004601
    12  C    0.034490   0.020908  -0.096637   0.011878  -0.004947  -0.057483
    13  O    8.383464   0.008334  -0.064562  -0.078405  -0.080216  -0.030621
    14  H    0.008334   0.441604   0.001170  -0.000052   0.004937  -0.009753
    15  H   -0.064562   0.001170   0.523856  -0.027790   0.002210   0.006721
    16  H   -0.078405  -0.000052  -0.027790   0.510408  -0.001574  -0.002688
    17  H   -0.080216   0.004937   0.002210  -0.001574   0.514181  -0.018024
    18  H   -0.030621  -0.009753   0.006721  -0.002688  -0.018024   0.489924
    19  H   -0.000584   0.001974  -0.004114   0.005840   0.001719   0.000003
    20  H    0.000564  -0.009244   0.001309  -0.001780   0.000407   0.000096
    21  H    0.000357   0.000164   0.000026   0.000020  -0.000085   0.000237
    22  H    0.000057   0.000286  -0.000000  -0.000010   0.000101  -0.000010
    23  H    0.000304  -0.000495   0.000032  -0.000039   0.000601   0.000242
    24  H    0.000046  -0.000089  -0.000008   0.000012   0.000025   0.000034
    25  H   -0.001516   0.001905  -0.000145   0.000009  -0.000099   0.000083
    26  H    0.000044   0.000574   0.000018  -0.000011   0.000895  -0.000210
    27  H   -0.000003  -0.000504   0.000001  -0.000001   0.000771  -0.000017
    28  H    0.000249   0.001580   0.000077  -0.000038   0.003312  -0.000492
    29  H   -0.001736  -0.004992  -0.001157   0.000759  -0.016012   0.003744
    30  H   -0.000240  -0.005309  -0.015069   0.008049  -0.002032  -0.004960
    31  H    0.010101   0.000158   0.002530  -0.009482   0.001962  -0.001095
              19         20         21         22         23         24
     1  C   -0.129946  -0.060338  -0.014921   0.012552  -0.008513  -0.000544
     2  C   -0.038218  -0.001846   0.001291  -0.000341   0.000834   0.000004
     3  O    0.000287  -0.000232   0.009548  -0.008896   0.001373  -0.004244
     4  C   -0.017157   0.014144   0.006156  -0.004682  -0.002734   0.000363
     5  C    0.534849   0.440531   0.001421   0.001308   0.002466   0.000054
     6  O   -0.003794   0.003057  -0.004943   0.010282  -0.005913   0.000377
     7  C   -0.003494   0.002415   0.395011   0.554497  -0.046115  -0.050289
     8  C    0.004772   0.000252  -0.032032  -0.016876   0.509612   0.420156
     9  C   -0.000387   0.020522   0.002955  -0.165765  -0.005695   0.020567
    10  C   -0.000910  -0.000356  -0.008487  -0.013442  -0.062170  -0.023076
    11  C    0.000802   0.000374   0.011580   0.011404  -0.000268   0.011224
    12  C   -0.001242  -0.023403  -0.003630   0.001003  -0.000505   0.000166
    13  O   -0.000584   0.000564   0.000357   0.000057   0.000304   0.000046
    14  H    0.001974  -0.009244   0.000164   0.000286  -0.000495  -0.000089
    15  H   -0.004114   0.001309   0.000026  -0.000000   0.000032  -0.000008
    16  H    0.005840  -0.001780   0.000020  -0.000010  -0.000039   0.000012
    17  H    0.001719   0.000407  -0.000085   0.000101   0.000601   0.000025
    18  H    0.000003   0.000096   0.000237  -0.000010   0.000242   0.000034
    19  H    0.461908  -0.016704  -0.001152   0.000292  -0.000585   0.000156
    20  H   -0.016704   0.491241   0.000371   0.000107   0.000214  -0.000070
    21  H   -0.001152   0.000371   0.480982  -0.006355  -0.002390  -0.008245
    22  H    0.000292   0.000107  -0.006355   0.453744   0.001878  -0.002359
    23  H   -0.000585   0.000214  -0.002390   0.001878   0.456340  -0.005472
    24  H    0.000156  -0.000070  -0.008245  -0.002359  -0.005472   0.464735
    25  H    0.000521  -0.008035  -0.009086  -0.012442  -0.002227   0.001924
    26  H   -0.000002  -0.000016   0.001644  -0.002562  -0.004465  -0.006710
    27  H   -0.000019  -0.000026  -0.002007  -0.002566   0.001881  -0.002348
    28  H    0.000159  -0.000099   0.001074   0.000504  -0.002365   0.001847
    29  H    0.000035   0.000138  -0.000348  -0.001052  -0.002466  -0.002171
    30  H    0.002938  -0.002289  -0.000045  -0.000018  -0.000030   0.000019
    31  H    0.002316  -0.011128  -0.000073   0.000054   0.000051  -0.000007
              25         26         27         28         29         30
     1  C    0.022921   0.001296  -0.005691   0.008509  -0.050937  -0.057620
     2  C    0.004572   0.000111   0.000070  -0.000030  -0.001744  -0.086009
     3  O   -0.058484   0.010408  -0.001455  -0.072637  -0.034451   0.000204
     4  C    0.004034   0.003237  -0.001511  -0.000498  -0.002732  -0.016275
     5  C   -0.020792  -0.001931   0.000995  -0.002247   0.030977   0.006214
     6  O   -0.020075   0.000415  -0.001174   0.000767   0.018709   0.001248
     7  C   -0.074304  -0.010586  -0.015687  -0.004960   0.034495   0.000779
     8  C   -0.000738  -0.034629  -0.024282   0.010039  -0.006663   0.000783
     9  C    0.491110   0.002718   0.012253  -0.010868   0.018265   0.006460
    10  C    0.012845   0.433954   0.494281  -0.021760  -0.076811  -0.000117
    11  C   -0.022921  -0.034799  -0.086772   0.438443   0.464150  -0.000712
    12  C   -0.008299  -0.000065  -0.000165   0.000284  -0.001389   0.518965
    13  O   -0.001516   0.000044  -0.000003   0.000249  -0.001736  -0.000240
    14  H    0.001905   0.000574  -0.000504   0.001580  -0.004992  -0.005309
    15  H   -0.000145   0.000018   0.000001   0.000077  -0.001157  -0.015069
    16  H    0.000009  -0.000011  -0.000001  -0.000038   0.000759   0.008049
    17  H   -0.000099   0.000895   0.000771   0.003312  -0.016012  -0.002032
    18  H    0.000083  -0.000210  -0.000017  -0.000492   0.003744  -0.004960
    19  H    0.000521  -0.000002  -0.000019   0.000159   0.000035   0.002938
    20  H   -0.008035  -0.000016  -0.000026  -0.000099   0.000138  -0.002289
    21  H   -0.009086   0.001644  -0.002007   0.001074  -0.000348  -0.000045
    22  H   -0.012442  -0.002562  -0.002566   0.000504  -0.001052  -0.000018
    23  H   -0.002227  -0.004465   0.001881  -0.002365  -0.002466  -0.000030
    24  H    0.001924  -0.006710  -0.002348   0.001847  -0.002171   0.000019
    25  H    0.452535   0.001197   0.000301   0.000090  -0.000818  -0.000302
    26  H    0.001197   0.487166  -0.011159  -0.008366  -0.001205  -0.000014
    27  H    0.000301  -0.011159   0.484413  -0.007243   0.001511   0.000009
    28  H    0.000090  -0.008366  -0.007243   0.480850  -0.024100  -0.000069
    29  H   -0.000818  -0.001205   0.001511  -0.024100   0.547007   0.000704
    30  H   -0.000302  -0.000014   0.000009  -0.000069   0.000704   0.466896
    31  H   -0.000107  -0.000012   0.000006   0.000008  -0.000052  -0.006736
              31
     1  C    0.010317
     2  C   -0.020518
     3  O    0.000245
     4  C    0.002925
     5  C   -0.039094
     6  O   -0.001876
     7  C    0.001554
     8  C   -0.000512
     9  C   -0.003054
    10  C   -0.000003
    11  C    0.000154
    12  C    0.404124
    13  O    0.010101
    14  H    0.000158
    15  H    0.002530
    16  H   -0.009482
    17  H    0.001962
    18  H   -0.001095
    19  H    0.002316
    20  H   -0.011128
    21  H   -0.000073
    22  H    0.000054
    23  H    0.000051
    24  H   -0.000007
    25  H   -0.000107
    26  H   -0.000012
    27  H    0.000006
    28  H    0.000008
    29  H   -0.000052
    30  H   -0.006736
    31  H    0.485800
 Mulliken charges:
               1
     1  C    0.041008
     2  C   -0.237190
     3  O   -0.289793
     4  C   -0.426828
     5  C   -0.209561
     6  O   -0.239060
     7  C   -0.406491
     8  C   -0.299408
     9  C   -0.104757
    10  C   -0.361959
    11  C   -0.123071
    12  C   -0.350339
    13  O   -0.320498
    14  H    0.226729
    15  H    0.171931
    16  H    0.176297
    17  H    0.229806
    18  H    0.172913
    19  H    0.199738
    20  H    0.159826
    21  H    0.180963
    22  H    0.189308
    23  H    0.176618
    24  H    0.183920
    25  H    0.246342
    26  H    0.173064
    27  H    0.166142
    28  H    0.207979
    29  H    0.110343
    30  H    0.184581
    31  H    0.171445
 Sum of Mulliken charges =  -0.00000
 Mulliken charges with hydrogens summed into heavy atoms:
               1
     1  C    0.267738
     2  C    0.111038
     3  O   -0.289793
     4  C   -0.024109
     5  C    0.150003
     6  O   -0.239060
     7  C   -0.036219
     8  C    0.061130
     9  C    0.141585
    10  C   -0.022754
    11  C    0.195250
    12  C    0.005688
    13  O   -0.320498
 Electronic spatial extent (au):  <R**2>=           3053.0240
 Charge=              0.0000 electrons
 Dipole moment (field-independent basis, Debye):
    X=              0.1930    Y=              1.2237    Z=             -1.2430  Tot=              1.7549
 Quadrupole moment (field-independent basis, Debye-Ang):
   XX=            -69.1459   YY=            -77.4791   ZZ=            -84.5171
   XY=              4.1380   XZ=             -6.5831   YZ=              1.5110
 Traceless Quadrupole moment (field-independent basis, Debye-Ang):
   XX=              7.9015   YY=             -0.4317   ZZ=             -7.4698
   XY=              4.1380   XZ=             -6.5831   YZ=              1.5110
 Octapole moment (field-independent basis, Debye-Ang**2):
  XXX=             16.8114  YYY=             -0.7636  ZZZ=              1.5610  XYY=             -9.8298
  XXY=              5.8572  XXZ=              1.6734  XZZ=              4.3795  YZZ=              2.9849
  YYZ=             -6.8174  XYZ=              6.2722
 Hexadecapole moment (field-independent basis, Debye-Ang**3):
 XXXX=          -2970.7519 YYYY=           -574.1559 ZZZZ=           -370.8432 XXXY=             19.4685
 XXXZ=              7.5955 YYYX=             10.3354 YYYZ=              3.0593 ZZZX=             -0.6535
 ZZZY=              1.7717 XXYY=           -610.7639 XXZZ=           -593.0488 YYZZ=           -154.0976
 XXYZ=             21.8508 YYXZ=             -1.8957 ZZXY=              5.1598
 N-N= 8.938577871328D+02 E-N=-3.229755339549D+03  KE= 6.153414370135D+02
 D1PCM: PCM CHGder 1st derivatives, ID1Alg=3 FixD1E=F DoIter=F DoCFld=F I1PDM=0.
 Calling FoFJK, ICntrl=      2127 FMM=F ISym2X=0 I1Cent= 0 IOpClX= 0 NMat=1 NMatS=1 NMatT=0.
 ***** Axes restored to original set *****
 -------------------------------------------------------------------
 Center     Atomic                   Forces (Hartrees/Bohr)
 Number     Number              X              Y              Z
 -------------------------------------------------------------------
      1        6          -0.000421991    0.000146762    0.002300115
      2        6          -0.004394888    0.002241665   -0.004229992
      3        8           0.000105782    0.000160117   -0.011073246
      4        6           0.004857367    0.005638561    0.000001072
      5        6           0.001915890   -0.002983338   -0.001803264
      6        8           0.000201645   -0.000812256    0.011347361
      7        6           0.001081252   -0.002235968    0.001393598
      8        6           0.000691525   -0.000223671   -0.003827470
      9        6          -0.003129291   -0.004771015    0.005006511
     10        6           0.002628099   -0.000005712    0.001277454
     11        6          -0.002060503    0.006046228    0.002841823
     12        6          -0.001005224   -0.000179237    0.001555888
     13        8          -0.003217747   -0.002741751    0.008593317
     14        1          -0.001088563    0.000386025   -0.006762414
     15        1           0.003742205   -0.002756014   -0.003033227
     16        1           0.001603206    0.001669383    0.004143967
     17        1          -0.004836954   -0.002174895    0.001466489
     18        1           0.002085140   -0.002027115   -0.005627630
     19        1          -0.001091082   -0.000674372    0.003702653
     20        1          -0.000721873    0.002312113   -0.001608755
     21        1           0.001562478    0.001965663    0.001913819
     22        1          -0.002359719    0.001003206   -0.002268153
     23        1           0.003025918   -0.001331727    0.001490228
     24        1          -0.002001300    0.001023307    0.001263778
     25        1           0.001551987    0.004977939   -0.005960920
     26        1          -0.001210855   -0.001935457    0.001704964
     27        1          -0.001918396    0.001454665   -0.002288932
     28        1          -0.001495939   -0.002824503   -0.003006208
     29        1           0.004205743   -0.002438509    0.004623693
     30        1          -0.000108482   -0.000978049   -0.003356694
     31        1           0.001804571    0.002067955    0.000220175
 -------------------------------------------------------------------
 Cartesian Forces:  Max     0.011347361 RMS     0.003289948

 GradGradGradGradGradGradGradGradGradGradGradGradGradGradGradGradGradGrad
 Berny optimization.
 FormGI is forming the generalized inverse of G from B-inverse, IUseBI=4.
 Internal  Forces:  Max     0.009891779 RMS     0.001952967
 Search for a local minimum.
 Step number   1 out of a maximum of  186
 All quantities printed in internal units (Hartrees-Bohrs-Radians)
 Mixed Optimization -- RFO/linear search
 Second derivative matrix not updated -- first step.
 ITU=  0
     Eigenvalues ---    0.00428   0.00611   0.00631   0.00729   0.01401
     Eigenvalues ---    0.01440   0.01733   0.02698   0.02808   0.03076
     Eigenvalues ---    0.03361   0.04097   0.04192   0.04591   0.04749
     Eigenvalues ---    0.04750   0.04888   0.04920   0.05098   0.05140
     Eigenvalues ---    0.05256   0.05631   0.05694   0.05987   0.06177
     Eigenvalues ---    0.06224   0.06477   0.06931   0.07577   0.07819
     Eigenvalues ---    0.07832   0.07839   0.07948   0.08091   0.08257
     Eigenvalues ---    0.08842   0.09299   0.10186   0.11199   0.11620
     Eigenvalues ---    0.11678   0.11768   0.11784   0.12411   0.12675
     Eigenvalues ---    0.14756   0.14791   0.16521   0.17818   0.19221
     Eigenvalues ---    0.19770   0.21964   0.22514   0.25000   0.27073
     Eigenvalues ---    0.27727   0.28588   0.28681   0.28894   0.28971
     Eigenvalues ---    0.29368   0.30361   0.35095   0.35186   0.35214
     Eigenvalues ---    0.35236   0.35241   0.35264   0.35280   0.35304
     Eigenvalues ---    0.35320   0.35413   0.35446   0.35447   0.35496
     Eigenvalues ---    0.35648   0.35783   0.35844   0.35851   0.36040
     Eigenvalues ---    0.40200   0.40778   0.41582   0.42129   0.43334
     Eigenvalues ---    0.461391000.000001000.000001000.000001000.00000
     Eigenvalues --- 1000.000001000.000001000.000001000.000001000.00000
     Eigenvalues --- 1000.000001000.000001000.000001000.000001000.00000
     Eigenvalues --- 1000.000001000.000001000.000001000.000001000.00000
     Eigenvalues --- 1000.000001000.000001000.000001000.000001000.00000
     Eigenvalues --- 1000.000001000.000001000.000001000.000001000.00000
     Eigenvalues --- 1000.000001000.000001000.000001000.000001000.00000
     Eigenvalues --- 1000.000001000.000001000.000001000.000001000.00000
     Eigenvalues --- 1000.000001000.000001000.000001000.000001000.00000
     Eigenvalues --- 1000.000001000.000001000.000001000.000001000.00000
     Eigenvalues --- 1000.000001000.000001000.000001000.000001000.00000
     Eigenvalues --- 1000.000001000.000001000.000001000.000001000.00000
     Eigenvalues --- 1000.000001000.000001000.000001000.000001000.00000
     Eigenvalues --- 1000.000001000.000001000.000001000.000001000.00000
     Eigenvalues --- 1000.000001000.000001000.000001000.000001000.00000
     Eigenvalues --- 1000.000001000.000001000.000001000.000001000.00000
     Eigenvalues --- 1000.000001000.000001000.000001000.000001000.00000
     Eigenvalues --- 1000.000001000.000001000.000001000.000001000.00000
     Eigenvalues --- 1000.000001000.000001000.000001000.000001000.00000
     Eigenvalues --- 1000.000001000.000001000.000001000.000001000.00000
 RFO step:  Lambda=-3.00325560D-03 EMin= 4.27955309D-03
 Linear search not attempted -- first point.
 Iteration  1 RMS(Cart)=  0.04584750 RMS(Int)=  0.00051499
 Iteration  2 RMS(Cart)=  0.00141549 RMS(Int)=  0.00005093
 Iteration  3 RMS(Cart)=  0.00000068 RMS(Int)=  0.00005093
 Iteration  1 RMS(Cart)=  0.00001237 RMS(Int)=  0.00000290
 Iteration  2 RMS(Cart)=  0.00000689 RMS(Int)=  0.00000324
 Iteration  3 RMS(Cart)=  0.00000383 RMS(Int)=  0.00000367
 Iteration  4 RMS(Cart)=  0.00000213 RMS(Int)=  0.00000395
 Iteration  5 RMS(Cart)=  0.00000119 RMS(Int)=  0.00000413
 Iteration  6 RMS(Cart)=  0.00000066 RMS(Int)=  0.00000423
 Variable       Old X    -DE/DX   Delta X   Delta X   Delta X     New X
                                 (Linear)    (Quad)   (Total)
    R1        2.89338   0.00009   0.00000  -0.00013  -0.00013   2.89325
    R2        2.89192  -0.00097   0.00000  -0.00472  -0.00473   2.88719
    R3        2.68759   0.00148   0.00000   0.00350   0.00350   2.69109
    R4        2.04636   0.00686   0.00000   0.01907   0.01907   2.06543
    R5        2.89780   0.00066   0.00000   0.00326   0.00326   2.90106
    R6        2.68343   0.00334   0.00000   0.00922   0.00923   2.69266
    R7        2.05222   0.00545   0.00000   0.01531   0.01531   2.06752
    R8        2.04423   0.00472   0.00000   0.01309   0.01309   2.05732
    R9        2.65469   0.00360   0.00000   0.00761   0.00762   2.66231
   R10        2.68751   0.00283   0.00000   0.00647   0.00647   2.69398
   R11        2.66614   0.00277   0.00000   0.00651   0.00652   2.67266
   R12        2.04019   0.00531   0.00000   0.01462   0.01462   2.05482
   R13        2.05249   0.00627   0.00000   0.01762   0.01762   2.07011
   R14        2.88607  -0.00030   0.00000  -0.00232  -0.00233   2.88374
   R15        2.05185   0.00358   0.00000   0.01006   0.01006   2.06191
   R16        2.05009   0.00289   0.00000   0.00809   0.00809   2.05818
   R17        2.63975   0.00344   0.00000   0.00740   0.00740   2.64716
   R18        2.88956  -0.00138   0.00000  -0.00436  -0.00437   2.88519
   R19        2.87401  -0.00073   0.00000  -0.00260  -0.00262   2.87140
   R20        2.04957   0.00314   0.00000   0.00877   0.00877   2.05834
   R21        2.05328   0.00337   0.00000   0.00948   0.00948   2.06276
   R22        2.88814  -0.00083   0.00000  -0.00222  -0.00223   2.88591
   R23        2.05373   0.00345   0.00000   0.00972   0.00972   2.06345
   R24        2.05158   0.00258   0.00000   0.00723   0.00723   2.05881
   R25        2.04315   0.00785   0.00000   0.02173   0.02173   2.06488
   R26        2.87097   0.00005   0.00000   0.00035   0.00038   2.87134
   R27        2.05285   0.00283   0.00000   0.00795   0.00795   2.06080
   R28        2.05520   0.00324   0.00000   0.00915   0.00915   2.06436
   R29        2.04326   0.00439   0.00000   0.01214   0.01214   2.05540
   R30        2.04877   0.00660   0.00000   0.01842   0.01842   2.06720
   R31        2.05294   0.00346   0.00000   0.00975   0.00975   2.06269
   R32        2.04956   0.00273   0.00000   0.00763   0.00763   2.05719
    A1        1.91687   0.00028   0.00000  -0.00649  -0.00661   1.91026
    A2        1.93167  -0.00104   0.00000  -0.00341  -0.00338   1.92829
    A3        1.88630   0.00045   0.00000   0.00360   0.00364   1.88994
    A4        1.90899   0.00080   0.00000   0.00129   0.00131   1.91031
    A5        1.92373  -0.00077   0.00000   0.00083   0.00084   1.92457
    A6        1.89615   0.00027   0.00000   0.00431   0.00429   1.90044
    A7        1.95090   0.00182   0.00000   0.00530   0.00520   1.95610
    A8        1.93928  -0.00114   0.00000  -0.00638  -0.00641   1.93287
    A9        1.93289  -0.00083   0.00000  -0.00548  -0.00544   1.92745
   A10        1.90404   0.00047   0.00000   0.00719   0.00726   1.91130
   A11        1.84231  -0.00090   0.00000  -0.00229  -0.00226   1.84005
   A12        1.89103   0.00060   0.00000   0.00200   0.00196   1.89299
   A13        2.02728  -0.00559   0.00000  -0.03608  -0.03601   1.99127
   A14        1.94257   0.00083   0.00000   0.00043   0.00024   1.94281
   A15        1.93155  -0.00171   0.00000  -0.01693  -0.01692   1.91463
   A16        1.91988  -0.00049   0.00000   0.00138   0.00135   1.92124
   A17        1.86882  -0.00043   0.00000  -0.00098  -0.00101   1.86781
   A18        1.90920   0.00119   0.00000   0.01334   0.01337   1.92258
   A19        1.89041   0.00064   0.00000   0.00307   0.00302   1.89343
   A20        1.91473  -0.00066   0.00000  -0.00696  -0.00714   1.90759
   A21        1.89524  -0.00026   0.00000  -0.00909  -0.00906   1.88618
   A22        1.92353  -0.00022   0.00000   0.00003   0.00012   1.92365
   A23        1.91166   0.00088   0.00000   0.00335   0.00332   1.91499
   A24        1.94392   0.00001   0.00000   0.00495   0.00498   1.94890
   A25        1.87372   0.00027   0.00000   0.00769   0.00764   1.88137
   A26        2.03683  -0.00989   0.00000  -0.03910  -0.03910   1.99773
   A27        1.95585  -0.00154   0.00000  -0.01389  -0.01404   1.94181
   A28        1.94785  -0.00028   0.00000  -0.00127  -0.00135   1.94649
   A29        1.90897   0.00112   0.00000   0.00668   0.00677   1.91574
   A30        1.89983   0.00069   0.00000  -0.00056  -0.00052   1.89931
   A31        1.87247   0.00006   0.00000   0.00326   0.00327   1.87573
   A32        1.87565   0.00002   0.00000   0.00680   0.00677   1.88243
   A33        1.91200   0.00180   0.00000  -0.00170  -0.00170   1.91031
   A34        1.92280  -0.00093   0.00000  -0.00601  -0.00602   1.91677
   A35        1.91589  -0.00047   0.00000   0.00200   0.00200   1.91789
   A36        1.91429  -0.00079   0.00000  -0.00185  -0.00194   1.91236
   A37        1.93123  -0.00027   0.00000   0.00191   0.00197   1.93319
   A38        1.86730   0.00061   0.00000   0.00573   0.00574   1.87303
   A39        1.94339   0.00036   0.00000  -0.00195  -0.00180   1.94159
   A40        1.94705   0.00322   0.00000   0.01133   0.01113   1.95818
   A41        1.82904  -0.00221   0.00000  -0.01052  -0.01053   1.81851
   A42        1.90259  -0.00323   0.00000  -0.01548  -0.01540   1.88719
   A43        1.90850   0.00188   0.00000   0.01366   0.01365   1.92215
   A44        1.93239   0.00011   0.00000   0.00381   0.00389   1.93628
   A45        1.92155  -0.00098   0.00000  -0.00568  -0.00587   1.91568
   A46        1.93957  -0.00051   0.00000  -0.00145  -0.00142   1.93815
   A47        1.91665   0.00092   0.00000   0.00175   0.00182   1.91847
   A48        1.90197   0.00063   0.00000   0.00409   0.00415   1.90612
   A49        1.90738  -0.00003   0.00000  -0.00211  -0.00206   1.90532
   A50        1.87591   0.00000   0.00000   0.00362   0.00359   1.87951
   A51        1.94691   0.00234   0.00000   0.00616   0.00609   1.95300
   A52        1.84127  -0.00132   0.00000  -0.00154  -0.00155   1.83972
   A53        1.90937   0.00026   0.00000   0.00236   0.00244   1.91181
   A54        1.94620  -0.00023   0.00000  -0.00121  -0.00115   1.94505
   A55        1.92955  -0.00177   0.00000  -0.00904  -0.00908   1.92046
   A56        1.88763   0.00073   0.00000   0.00372   0.00370   1.89133
   A57        1.91077  -0.00041   0.00000  -0.00890  -0.00898   1.90178
   A58        1.92816   0.00062   0.00000   0.00293   0.00291   1.93107
   A59        1.90761  -0.00013   0.00000   0.00383   0.00386   1.91147
   A60        1.91328  -0.00043   0.00000  -0.00136  -0.00136   1.91193
   A61        1.93827   0.00039   0.00000   0.00165   0.00171   1.93998
   A62        1.86549  -0.00002   0.00000   0.00223   0.00220   1.86770
   A63        1.97901  -0.00469   0.00000  -0.02892  -0.02896   1.95005
    D1        0.48390   0.00182   0.00000   0.01754   0.01755   0.50145
    D2        2.55985   0.00070   0.00000   0.00550   0.00553   2.56538
    D3       -1.63506   0.00010   0.00000  -0.00053  -0.00049  -1.63555
    D4       -1.62564   0.00132   0.00000   0.02238   0.02236  -1.60328
    D5        0.45031   0.00020   0.00000   0.01034   0.01034   0.46065
    D6        2.53858  -0.00041   0.00000   0.00431   0.00432   2.54291
    D7        2.58316   0.00132   0.00000   0.01691   0.01688   2.60004
    D8       -1.62408   0.00020   0.00000   0.00488   0.00486  -1.61921
[...]
 ,0.00000871,-0.00002111,-0.00000854,-0.00000794,0.00004838,-0.00017985
 ,-0.00002979,-0.00017301,0.00016123,0.00000640,0.00007940,0.00006258,-
 0.00000789,-0.00018408,-0.00006843,0.00000438,-0.00053760,-0.00007351,
 0.00029049,-0.00004094,-0.00030382,0.00085191,-0.00020165,-0.00005543,
 0.00007258,0.00049761,0.00097631,-0.00060197,-0.04941179,-0.12189882,0
 .17832014,0.00023355,-0.00005645,-0.00008718,0.00002562,-0.00000082,-0
 .00000047,-0.00536792,-0.00008833,0.00467351,0.00001702,-0.00004246,0.
 00005066,-0.00002396,0.00003729,-0.00000336,-0.00055889,0.00000536,-0.
 00024670,0.00050817,-0.00082491,-0.00190136,-0.00442654,-0.00718747,0.
 00437351,0.00114568,0.00146856,0.00093998,-0.08099455,-0.07018679,0.04
 769912,-0.00692698,-0.02165920,0.01058056,-0.00000698,-0.00002388,-0.0
 0000807,-0.00005067,0.00002032,-0.00003182,0.00002175,0.00000329,-0.00
 002123,-0.00000441,0.00000469,0.00000160,-0.00000457,-0.00000140,-0.00
 000212,0.00000724,-0.00000577,-0.00000295,-0.00001789,0.00001871,-0.00
 000078,-0.00000881,-0.00000609,-0.00000319,0.00000132,-0.00000396,0.00
 000300,0.00006347,-0.00037711,0.00037798,-0.00001245,-0.00029528,0.000
 26225,0.00013457,0.00022859,0.00037290,0.00031736,0.00034175,-0.000257
 48,-0.00003204,-0.00014147,-0.00010488,0.08512382,0.00013187,0.0000116
 3,-0.00011007,0.00001728,0.00000095,-0.00000232,0.00260070,0.00146269,
 -0.00225864,-0.00000039,-0.00000707,0.00003374,-0.00001841,0.00002642,
 0.00001838,-0.00028945,0.00013967,0.00023069,-0.00149811,-0.00245841,-
 0.00491345,-0.00766764,-0.01779654,0.01309304,0.00081549,-0.00066490,-
 0.00091856,-0.07193999,-0.21023810,0.10884503,0.00279925,0.00818562,-0
 .00478495,-0.00000691,-0.00001613,-0.00000623,-0.00003694,0.00000412,-
 0.00001782,-0.00001516,-0.00000288,0.00001862,-0.00000308,0.00000251,0
 .00000115,-0.00000346,-0.00000116,-0.00000128,0.00000773,-0.00001255,0
 .00000477,-0.00001507,0.00001486,0.00000024,0.00000304,-0.00000074,-0.
 00000024,0.00000190,-0.00000415,0.00000095,-0.00099749,-0.00104157,0.0
 0098475,0.00023641,0.00029421,-0.00015801,0.00001102,0.00107700,-0.000
 02739,0.00071195,0.00057962,0.00033037,-0.00005621,0.00017007,0.000195
 17,0.07994008,0.22798260,-0.00014977,0.00004566,0.00000914,-0.00001900
 ,-0.00000105,0.00000405,0.00592012,0.00035378,-0.00240670,-0.00003825,
 0.00001120,-0.00001911,0.00000916,-0.00001377,0.00001769,0.00038786,0.
 00014593,0.00036797,-0.00134386,-0.00327337,-0.00286439,-0.00868790,-0
 .01789263,0.01275690,-0.00065640,-0.00159582,-0.00153110,0.04932649,0.
 10889151,-0.11930491,0.00249300,0.01604631,-0.00886085,0.00000245,0.00
 001224,0.00000331,0.00004377,-0.00000640,0.00001934,-0.00002492,-0.000
 00834,0.00003288,0.00000334,-0.00000282,-0.00000152,0.00000394,0.00000
 144,0.00000127,-0.00000709,0.00001423,-0.00000655,0.00001130,-0.000006
 50,-0.00000250,0.00001159,0.00000571,0.00000211,0.00000168,0.00000287,
 -0.00000191,-0.00061419,-0.00104511,0.00066050,0.00008991,-0.00009448,
 0.00003496,0.00028261,0.00090071,0.00090774,0.00056905,0.00092462,0.00
 079996,-0.00003461,0.00024970,0.00013870,-0.05362124,-0.11654397,0.128
 13780,0.00016909,0.00003961,-0.00008590,0.00003680,0.00000943,-0.00002
 717,0.00261032,-0.00096112,-0.00054688,0.00011885,0.00008798,-0.000019
 19,-0.00000642,0.00001072,0.00001831,-0.00009125,-0.00020143,0.0000472
 4,0.00001968,0.00058185,-0.00003675,-0.00701181,0.00279709,-0.00582973
 ,-0.00024931,0.00009791,0.00000890,-0.18671354,0.06318992,-0.11054803,
 -0.02144142,0.01130416,-0.01535083,-0.00000490,-0.00001089,-0.00000544
 ,-0.00012016,-0.00004139,-0.00000974,0.00000348,-0.00000294,0.00002282
 ,-0.00000676,0.00000268,0.00000436,-0.00001274,-0.00000553,-0.00000053
 ,0.00004691,-0.00008240,0.00005184,-0.00003002,-0.00000492,0.00001241,
 0.00000100,0.,-0.00000225,-0.00000274,-0.00000855,-0.00000030,0.000178
 19,-0.00013345,0.00011543,-0.00018875,-0.00042738,0.00017128,0.0005289
 7,-0.00141747,-0.00105146,0.00063240,-0.00029267,0.00016911,-0.0000936
 3,-0.00004197,0.00000872,0.00946950,-0.00341785,0.00682473,0.20405002,
 -0.00009082,-0.00006434,0.00010929,-0.00002370,-0.00000381,0.00001466,
 -0.00105069,0.00158511,-0.00058675,-0.00006536,-0.00002903,-0.00000726
 ,0.00000291,-0.00000738,-0.00000363,0.00024762,0.00015002,0.00012990,-
 0.00010757,0.00161747,-0.00039886,-0.01898006,0.00773529,-0.01527293,-
 0.00023146,-0.00046058,-0.00041006,0.06459460,-0.07974417,0.05349084,0
 .00854776,-0.00645564,0.00755932,0.00000424,0.00000754,0.00000349,0.00
 007185,0.00002287,0.00001169,-0.00002537,0.00000383,0.00000044,0.00000
 394,-0.00000201,-0.00000233,0.00000794,0.00000283,0.00000055,-0.000047
 72,0.00004074,-0.00003064,0.00001448,-0.00000283,-0.00000532,0.0000020
 5,0.00000145,0.00000118,0.00000122,0.00000525,0.00000021,0.00035610,0.
 00009382,0.00001974,0.00033051,-0.00024815,0.00023468,-0.00200043,-0.0
 0313948,-0.00313100,0.00059946,0.00103257,0.00074434,0.00002019,0.0000
 7418,0.00007112,0.01853445,-0.00830712,0.01332533,-0.07221831,0.085546
 84,0.00007037,-0.00009519,-0.00001307,-0.00000718,-0.00000517,0.000018
 23,-0.00216702,-0.00063285,0.00106547,-0.00005489,-0.00007857,0.000042
 55,-0.00001580,0.00001658,-0.00000010,-0.00024921,0.00016436,0.0000427
 4,0.00083084,0.00101653,0.00064984,-0.01609959,0.00678487,-0.01488068,
 0.00021174,-0.00011714,0.00000344,-0.11227759,0.05437871,-0.13798734,0
 .01682596,-0.00795232,0.01148811,-0.00000341,-0.00000846,-0.00000220,0
 .00005285,0.00003631,-0.00000817,-0.00001132,0.00000053,0.00000688,0.0
 0000148,0.00000093,-0.00000177,0.00000617,0.00000272,-0.00000086,-0.00
 002347,0.00005080,-0.00003981,0.00000813,0.00001485,-0.00000960,0.0000
 0075,-0.00000014,0.00000008,0.00000263,0.00000263,0.00000197,0.0003201
 8,-0.00014182,0.00008124,-0.00006076,-0.00040249,0.00055839,-0.0011074
 9,-0.00393900,-0.00168996,0.00053816,0.00046245,0.00050584,-0.00009799
 ,0.00004180,0.00005986,-0.01189630,0.00509317,-0.00976601,0.12242243,-
 0.05414798,0.15040103,0.00049954,-0.00003470,-0.00022275,0.00006183,0.
 00001216,-0.00003147,-0.00581469,-0.01538257,-0.00752905,0.00012348,0.
 00012676,0.00004140,-0.00003911,0.00005102,0.00002694,-0.00034698,-0.0
 0048307,0.00008786,-0.00029979,-0.00037279,-0.00007013,-0.00465284,0.0
 0081494,0.00261479,-0.00042555,0.00001335,0.00260605,0.00911561,0.0190
 2168,0.01913232,-0.07287825,-0.04798884,-0.05491178,-0.00001179,-0.000
 03560,-0.00001551,-0.00018382,-0.00002977,-0.00003604,-0.00000029,-0.0
 0000584,0.00001633,-0.00001224,0.00000730,0.00000600,-0.00001895,-0.00
 000726,-0.00000329,0.00007761,-0.00013455,0.00003224,-0.00007836,-0.00
 000572,0.00002222,-0.00000456,-0.00000392,-0.00000391,0.00000086,-0.00
 001176,0.00000280,0.00016025,0.00002459,-0.00014434,0.00004267,0.00003
 599,-0.00006447,0.00010252,-0.00006972,0.00017798,0.00047487,0.0012739
 1,0.00109196,-0.00018122,-0.00068089,-0.00036405,0.00077044,-0.0008153
 1,-0.00074690,0.00123980,-0.00030956,-0.00089824,0.07806193,0.00039133
 ,-0.00001586,-0.00017679,0.00002863,-0.00000315,0.00000750,-0.01520174
 ,-0.03072104,-0.01563660,-0.00002431,-0.00010155,0.00006435,-0.0000262
 7,0.00003610,-0.00000097,-0.00086201,0.00082602,-0.00085860,-0.0003174
 9,0.00014510,0.00008917,0.00174039,0.00080896,-0.00061387,0.00070890,-
 0.00038436,0.00660281,-0.00146947,-0.00488037,-0.00726210,-0.04672162,
 -0.15954219,-0.11974320,-0.00000791,-0.00002926,-0.00001001,-0.0000373
 4,0.00003943,-0.00003799,0.00003874,-0.00000583,-0.00001802,-0.0000049
 4,0.00000634,0.00000081,-0.00000266,-0.00000020,-0.00000261,-0.0000668
 6,0.00001814,-0.00000974,-0.00001295,0.00004467,-0.00000619,-0.0000078
 1,-0.00000390,-0.00000052,0.00000350,-0.00000142,0.00000334,0.00008999
 ,-0.00001573,-0.00016538,0.00001877,-0.00001647,0.00001301,-0.00012392
 ,-0.00003922,-0.00016252,-0.00030452,-0.00026077,-0.00029848,-0.000489
 49,-0.00125235,-0.00071250,0.00029778,0.00017414,-0.00022029,-0.000387
 69,0.00008858,0.00036580,0.05965875,0.18458555,0.00005014,-0.00003856,
 -0.00001266,0.00003006,0.00000796,-0.00002736,0.00901383,0.01949526,0.
 01473725,0.00012988,0.00012637,-0.00004915,-0.00001548,0.00002836,0.00
 001844,0.00023772,-0.00070819,0.00070777,0.00024919,0.00056446,-0.0001
 1683,0.00448574,-0.00039444,-0.00102306,0.00076387,0.00294773,-0.00247
 110,-0.00670637,-0.01082114,-0.01163612,-0.05943559,-0.13064198,-0.187
 12632,-0.00000578,-0.00001244,-0.00000689,-0.00010812,-0.00004069,-0.0
 0000199,-0.00003940,-0.00000414,0.00000534,-0.00000591,0.00000206,0.00
 000389,-0.00001209,-0.00000489,-0.00000027,0.00001179,-0.00010606,0.00
 003067,-0.00003253,-0.00001594,0.00002219,0.00000186,-0.00000267,-0.00
 000458,-0.00000051,-0.00001001,0.00000011,-0.00016362,-0.00007007,0.00
 013143,-0.00000374,-0.00005180,0.00005639,0.00008105,0.00032021,0.0003
 2141,-0.00034204,-0.00128370,-0.00066036,0.00021219,0.00076876,0.00038
 320,-0.00005543,0.00037013,0.00013081,0.00019788,0.00028361,0.00104284
 ,0.05578013,0.13066673,0.19681397,0.00023396,-0.00018685,0.00000194,-0
 .00008322,-0.00002850,0.00003509,0.01368401,-0.00901310,0.01113445,-0.
 00077840,-0.00031853,-0.00009735,-0.00006963,0.00002584,-0.00001328,-0
 .00134702,-0.00092717,0.00014034,0.00000145,-0.00005296,0.00012320,0.0
 0100350,-0.00094539,-0.00099944,0.00096393,0.00044938,0.00006887,-0.02
 088181,0.01026144,-0.01467197,-0.18570553,0.07450829,-0.10633732,0.000
 00086,-0.00000320,0.00000321,0.00017154,0.00000607,0.00005553,0.000003
 97,-0.00004489,0.00009642,0.00001073,-0.00000112,-0.00000621,0.0000163
 5,0.00000931,-0.00000300,-0.00116255,0.00016715,-0.00017076,0.00013909
 ,0.00011837,-0.00003590,0.00002368,0.00001478,0.00000096,0.00002270,0.
 00002931,0.00000851,0.00006858,0.00007099,-0.00006035,-0.00005532,-0.0
 0007917,0.00000512,0.00043376,0.00041824,0.00065359,0.00017503,-0.0002
 9046,0.00020187,-0.00017616,0.00011027,-0.00005358,0.00061079,-0.00048
 649,-0.00004418,-0.00312455,0.00180774,0.00368256,-0.00576149,0.003110
 75,-0.00431266,0.20157776,-0.00035507,-0.00027892,0.00020916,-0.000069
 30,-0.00002534,0.00006794,0.01018857,-0.02465866,0.02445289,-0.0001914
 6,-0.00022437,0.00004712,0.00003454,-0.00003811,-0.00006433,-0.0013851
 0,0.00109428,-0.00139795,-0.00036440,-0.00045724,-0.00027606,0.0001061
 7,0.00010616,0.00111342,0.00416401,0.00185043,0.00442519,0.00912751,-0
 .00269164,0.00497574,0.07070654,-0.08792133,0.04847778,0.00002085,0.00
 002411,0.00001602,0.00028099,0.00011907,-0.00000632,0.00007747,-0.0000
 0933,-0.00006913,0.00001567,-0.00000367,-0.00001024,0.00003172,0.00001
 357,0.00000138,0.00000447,0.00047589,-0.00007675,0.00008784,0.00002565
 ,-0.00004862,-0.00000468,-0.00000186,0.00000013,0.00000634,0.00002364,
 0.00000362,0.00008469,-0.00007039,-0.00016870,-0.00005719,0.00009339,0
 .00001712,-0.00010050,-0.00014845,-0.00036042,-0.00017831,0.00015515,-
 0.00012892,-0.00036128,-0.00016727,-0.00034772,-0.00000575,0.00042166,
 -0.00022354,0.00153422,0.00045652,-0.00091553,-0.01467494,0.01049190,-
 0.01137526,-0.07873578,0.10134359,-0.00016111,0.00026716,0.00012921,0.
 00005384,0.00003271,-0.00009635,-0.00522378,0.02045830,-0.01406482,0.0
 0028025,0.00031865,-0.00019380,0.00005842,-0.00004787,-0.00002012,0.00
 083908,-0.00135700,0.00135520,0.00035447,0.00005918,0.00020718,0.00045
 267,0.00049348,0.00148046,-0.00230589,-0.00294963,-0.00280317,0.014809
 94,-0.00899115,0.01101399,-0.10473410,0.05296673,-0.13114420,0.0000133
 5,0.00002279,-0.00000235,-0.00030700,-0.00019491,0.00003321,-0.0000189
 7,0.00000382,0.00001112,-0.00001187,-0.00000155,0.00001041,-0.00003598
 ,-0.00001533,0.00000325,0.00002559,-0.00021835,0.00036756,-0.00002516,
 -0.00003134,0.00003188,-0.00000084,-0.00000468,-0.00000987,-0.00000582
 ,-0.00001439,-0.00000737,-0.00011064,0.00004939,0.00015838,-0.00002264
 ,0.00001691,-0.00005936,-0.00033292,0.00038479,-0.00016077,-0.00013785
 ,0.00022679,0.00001684,0.00020083,0.00023435,0.00012982,-0.00109364,0.
 00052111,0.00074279,0.00343657,-0.00200270,-0.00156968,-0.01660271,0.0
 0811854,-0.01127131,0.11059423,-0.06833436,0.14571050,0.00105574,0.000
 25441,0.00154764,-0.00250580,-0.00074770,-0.00714809,-0.00000040,0.000
 00206,-0.00002943,-0.00011785,-0.00024057,0.00018740,-0.00269804,0.009
 39465,0.03182324,0.00029926,-0.00014740,-0.00047858,0.00002556,-0.0000
 0232,0.00002507,0.00000123,-0.00000624,-0.00000021,-0.00006137,-0.0000
 1518,-0.00012555,0.00000085,0.00000140,0.00000063,-0.00001107,-0.00000
 753,-0.00000711,-0.04919179,0.00038979,0.00987253,0.00045490,-0.000108
 46,0.00005065,-0.00026416,-0.00004704,-0.00053516,0.00055668,-0.000256
 41,-0.00024495,0.00055059,0.00175555,-0.00121455,0.00003219,0.00004680
 ,-0.00011645,-0.00014086,-0.00060154,0.00014439,-0.00557646,0.00230995
 ,0.00097762,0.00113052,-0.00017572,-0.00068209,-0.00000138,0.00000019,
 -0.00000233,0.00001080,-0.00000534,-0.00000577,-0.00000071,-0.00000097
 ,0.00000305,0.00000363,0.00000130,-0.00000178,-0.00001194,-0.00000165,
 0.00001076,0.00000178,0.00000112,-0.00000142,0.00000194,-0.00000159,-0
 .00000026,0.00000309,0.00000143,0.00000165,-0.00000151,-0.00000489,0.0
 0000363,0.05495120,-0.00092666,0.00021986,0.00059215,0.00102129,0.0070
 8383,0.02722441,0.00009963,0.00005036,0.00004406,-0.00012620,-0.000312
 97,0.00030816,0.00086042,-0.00422991,-0.01343426,0.00026006,-0.0000050
 6,0.00005717,0.00001260,0.00000039,0.00001544,0.00000199,-0.00000713,-
 0.00000028,-0.00019255,0.00005597,-0.00012862,-0.00000160,0.00000370,-
 0.00000355,-0.00002491,-0.00002954,0.00001879,0.00099002,-0.07015328,-
 0.07259078,-0.00019358,-0.00081455,0.00022095,0.00029615,0.00015041,-0
 .00009947,-0.00049304,0.00167453,-0.00044779,0.00055176,-0.00310508,0.
 00318071,0.00001306,0.00008396,-0.00003227,-0.00057416,-0.00044172,0.0
 0006211,0.00278460,-0.00017498,0.00011888,-0.00051733,0.00001852,0.000
 14174,-0.00000086,0.00000138,-0.00000002,0.00001336,-0.00000209,-0.000
 00407,-0.00000061,-0.00000079,0.00000272,0.00000493,0.00000201,-0.0000
 0303,0.00000478,-0.00000134,0.00001123,0.00000334,0.00000182,-0.000002
 19,0.00000143,-0.00000119,0.00000118,0.00000477,0.00000469,0.00000078,
 0.00000100,-0.00000220,-0.00000104,-0.00551342,0.07656591,-0.00024331,
 -0.00054194,0.00061537,-0.00140939,-0.00653946,-0.01746848,0.00007527,
 0.00003560,0.00003684,-0.00051183,-0.00087861,-0.00132139,0.00180764,-
 0.00189888,-0.00543090,0.00019368,0.00000802,0.00015386,0.00000853,0.0
 0000114,0.00001144,0.00000125,-0.00000512,-0.00000005,-0.00010304,0.00
 006633,-0.00010341,-0.00000112,0.00000348,-0.00000399,-0.00001534,-0.0
 0002366,0.00001389,0.00922055,-0.06958743,-0.28872757,0.00103244,0.001
 70844,0.00003314,0.00064188,0.00026973,-0.00018705,0.00024356,-0.00000
 802,0.00159781,-0.00017273,0.00317136,-0.00095964,0.00002480,0.0001503
 1,0.00031112,-0.00032552,0.00026081,0.00052722,0.00091034,-0.00054399,
 0.00111212,0.00041778,-0.00018302,0.00031207,-0.00000041,0.00000109,-0
 .00000056,0.00000862,-0.00000305,-0.00000293,-0.00000104,-0.00000043,0
 .00000194,0.00000342,0.00000128,-0.00000238,-0.00000403,-0.00000644,0.
 00000114,0.00000241,0.00000113,-0.00000174,0.00000108,-0.00000059,0.00
 000094,0.00000352,0.00000355,0.00000072,0.00000073,-0.00000139,-0.0000
 0169,-0.01133315,0.07619558,0.31389285,-0.00160523,0.00456619,0.002260
 67,0.00404154,0.00428903,0.00073332,-0.00037704,-0.00025019,-0.0002557
 7,-0.00024111,0.00090154,-0.00014339,-0.02101964,-0.02143562,-0.006086
 18,-0.00344363,-0.00070508,-0.00017777,-0.00010404,0.00002043,-0.00015
 641,0.00000172,0.00004105,-0.00000554,0.00079665,-0.00043389,0.0010683
 3,0.00001248,-0.00001158,0.00001582,0.00011306,0.00012792,-0.00007244,
 -0.18275651,-0.13326484,-0.02889511,0.00097742,0.00075993,-0.00057122,
 -0.00002531,-0.00008365,-0.00025111,-0.00086141,-0.00016730,0.00049358
 ,0.00121139,0.00009375,0.00014872,0.00004062,-0.00007844,0.00011228,0.
 00012615,-0.00006194,0.00003744,0.00122954,-0.00015690,0.00030625,0.00
 129950,0.00009027,-0.00052361,0.00000269,-0.00000074,0.00000471,-0.000
 07978,0.00003087,0.00003724,0.00000362,0.00000409,-0.00002012,-0.00002
 728,-0.00000900,0.00001498,0.00002362,0.00004947,-0.00010804,-0.000015
 42,-0.00000989,0.00000872,-0.00000895,0.00000560,-0.00000372,-0.000024
 58,-0.00001998,-0.00000772,0.00000551,0.00001705,0.00000805,0.00150339
 ,0.00163972,-0.00047660,0.19920103,0.00229130,-0.00141431,-0.00099886,
 -0.01742884,-0.01422419,-0.00528093,0.00007283,0.00005575,0.00006324,0
 .00142315,-0.00004808,0.00068572,0.01178729,0.01174335,0.00359306,0.00
 140085,0.00037584,-0.00004683,0.00003167,-0.00001791,0.00004008,-0.000
 00462,-0.00000805,0.00000324,-0.00008702,0.00014078,-0.00028158,-0.000
 00621,0.00000299,-0.00000967,-0.00001570,-0.00003577,0.00003043,-0.134
 85458,-0.17720233,-0.02880967,-0.00110387,-0.00425925,0.00269303,-0.00
 002346,0.00013568,0.00013804,0.00111674,-0.00074822,0.00042855,-0.0003
 4288,0.00171882,0.00004897,-0.00012632,0.00003333,-0.00002959,-0.00018
 855,0.00009597,0.00003403,-0.00087359,0.00028460,0.00003567,-0.0008659
 5,0.00068101,0.00028505,-0.00000105,-0.00000047,-0.00000069,0.00001865
 ,-0.00001057,-0.00000960,-0.00000011,-0.00000084,0.00000343,0.00000502
 ,0.00000163,-0.00000157,-0.00001039,-0.00001844,0.00003129,0.00000290,
 0.00000171,-0.00000097,-0.00000105,0.00000082,0.00000242,0.00000159,0.
 00000405,-0.00000045,0.00000470,0.00000375,-0.00001042,-0.00627465,-0.
 00663550,-0.00165583,0.14405215,0.18934383,0.00048648,-0.00059361,0.00
 050581,0.01509176,0.01246011,0.00175959,0.00002340,0.00000782,0.000019
 81,-0.00097726,-0.00058818,-0.00124454,0.00505275,0.00524501,0.0003560
 7,0.00034481,0.00001242,0.00007755,0.00000523,0.00000042,0.00000421,0.
 00000047,-0.00000165,0.00000013,0.00000373,0.00005711,-0.00005222,0.,-
 0.00000023,0.00000110,-0.00000785,-0.00000353,0.00000315,-0.03112987,-
 0.03045214,-0.05353436,0.00163392,0.00526693,-0.00284324,0.00031643,0.
 00015150,0.00003997,-0.00057587,0.00050841,0.00016700,0.00081836,-0.00
 020288,0.00087226,0.00007380,0.00005773,0.00022621,-0.00012829,0.00017
 895,0.00038737,-0.00039005,0.00045575,0.00028907,-0.00043034,-0.000123
 94,0.00012019,0.00000005,-0.00000018,-0.00000040,0.00000225,-0.0000019
 8,-0.00000165,-0.00000015,-0.00000004,0.00000024,0.00000152,0.00000049
 ,-0.00000136,-0.00000184,-0.00000459,-0.00000031,0.00000069,0.00000048
 ,-0.00000062,0.00000110,-0.00000036,-0.00000019,0.00000209,0.00000075,
 0.00000154,-0.00000060,-0.00000228,0.00000303,-0.02272136,-0.02144869,
 -0.00441070,0.03250464,0.02902040,0.05725530\\-0.00018055,0.00012773,-
 0.00047529,0.00005023,0.00000352,-0.00000883,0.00000399,0.00003434,0.0
 0000619,-0.00002119,0.00001137,0.00000164,0.00012684,-0.00023551,0.000
 30684,0.00019524,0.00054919,0.00019263,0.00002232,-0.00001167,-0.00000
 053,-0.00000092,0.00000870,0.00001016,-0.00011711,-0.00044132,-0.00008
 361,-0.00000329,-0.00001564,0.00000191,-0.00001028,-0.00004477,0.00001
 546,-0.00001542,-0.00000281,0.00000172,-0.00001535,-0.00002019,0.00000
 492,-0.00000321,0.00000202,0.00002121,-0.00001390,0.00001091,0.0000128
 1,-0.00001459,-0.00000215,-0.00000431,0.00001823,0.00000301,0.00000553
 ,-0.00000640,0.00000180,0.00000619,0.00000168,0.00000033,-0.00000959,-
 0.00000224,-0.00000927,-0.00000203,-0.00001059,0.00000277,-0.00000202,
 0.00000075,0.00000512,-0.00000386,-0.00000499,0.00000191,-0.00000135,0
 .00001065,0.00000899,-0.00000698,-0.00000950,-0.00001527,0.00001594,-0
 .00000669,0.00001179,-0.00000311,0.00000441,-0.00000022,0.00000159,0.0
 0000721,0.00000865,0.00000754,-0.00000872,0.00001249,-0.00000655,0.000
 00384,-0.00000177,0.00000189,-0.00000045,-0.00000405,-0.00000610\\\@


 WHEN A MATHEMATICIAN ENGAGED IN INVESTIGATING
 PHYSICAL ACTIONS AND RESULTS HAS ARRIVED AT HIS
 CONCLUSIONS, MAY THEY NOT BE EXPRESSED IN COMMON
 LANGUAGE AS FULLY, CLEARLY, AND DEFINITELY AS IN
 MATHEMATICAL FORMULAE?
           - LETTER FROM M. FARADAY TO J.C. MAXWELL, 1857.
 Job cpu time:       0 days 14 hours 33 minutes  5.2 seconds.
 Elapsed time:       0 days  0 hours 54 minutes 35.6 seconds.
 File lengths (MBytes):  RWF=    690 Int=      0 D2E=      0 Chk=     33 Scr=      1
 Normal termination of Gaussian 16 at Sun Nov  4 22:48:33 2018.
