 Entering Gaussian System, Link 0=g16
 Initial command:
 /apps/gaussian/g16a03/g16/l1.exe "/jobfs/local/2012023.r-man2/Gau-4289.inp" -scrdir="/jobfs/local/2012023.r-man2/"
 Entering Link 1 = /apps/gaussian/g16a03/g16/l1.exe PID=      4290.
  
 Copyright (c) 1988,1990,1992,1993,1995,1998,2003,2009,2016,
            Gaussian, Inc.  All Rights Reserved.
  
 This is part of the Gaussian(R) 16 program.  It is based on
 the Gaussian(R) 09 system (copyright 2009, Gaussian, Inc.),
 the Gaussian(R) 03 system (copyright 2003, Gaussian, Inc.),
 the Gaussian(R) 98 system (copyright 1998, Gaussian, Inc.),
 the Gaussian(R) 94 system (copyright 1995, Gaussian, Inc.),
 the Gaussian 92(TM) system (copyright 1992, Gaussian, Inc.),
 the Gaussian 90(TM) system (copyright 1990, Gaussian, Inc.),
 the Gaussian 88(TM) system (copyright 1988, Gaussian, Inc.),
 the Gaussian 86(TM) system (copyright 1986, Carnegie Mellon
 University), and the Gaussian 82(TM) system (copyright 1983,
 Carnegie Mellon University). Gaussian is a federally registered
 trademark of Gaussian, Inc.
  
 This software contains proprietary and confidential information,
 including trade secrets, belonging to Gaussian, Inc.
  
 This software is provided under written license and may be
 used, copied, transmitted, or stored only in accord with that
 written license.
  
 The following legend is applicable only to US Government
 contracts under FAR:
  
                    RESTRICTED RIGHTS LEGEND
  
 Use, reproduction and disclosure by the US Government is
 subject to restrictions as set forth in subparagraphs (a)
 and (c) of the Commercial Computer Software - Restricted
 Rights clause in FAR 52.227-19.
  
 Gaussian, Inc.
 340 Quinnipiac St., Bldg. 40, Wallingford CT 06492
  
  
 ---------------------------------------------------------------
 Warning -- This program may not be used in any manner that
 competes with the business of Gaussian, Inc. or will provide
 assistance to any competitor of Gaussian, Inc.  The licensee
 of this program is prohibited from giving any competitor of
 Gaussian, Inc. access to this program.  By using this program,
 the user acknowledges that Gaussian, Inc. is engaged in the
 business of creating and licensing software in the field of
 computational chemistry and represents and warrants to the
 licensee that it is not a competitor of Gaussian, Inc. and that
 it will not use this program in any manner prohibited above.
 ---------------------------------------------------------------
  

 Cite this work as:
 Gaussian 16, Revision A.03,
 M. J. Frisch, G. W. Trucks, H. B. Schlegel, G. E. Scuseria, 
 M. A. Robb, J. R. Cheeseman, G. Scalmani, V. Barone, 
 G. A. Petersson, H. Nakatsuji, X. Li, M. Caricato, A. V. Marenich, 
 J. Bloino, B. G. Janesko, R. Gomperts, B. Mennucci, H. P. Hratchian, 
 J. V. Ortiz, A. F. Izmaylov, J. L. Sonnenberg, D. Williams-Young, 
 F. Ding, F. Lipparini, F. Egidi, J. Goings, B. Peng, A. Petrone, 
 T. Henderson, D. Ranasinghe, V. G. Zakrzewski, J. Gao, N. Rega, 
 G. Zheng, W. Liang, M. Hada, M. Ehara, K. Toyota, R. Fukuda, 
 J. Hasegawa, M. Ishida, T. Nakajima, Y. Honda, O. Kitao, H. Nakai, 
 T. Vreven, K. Throssell, J. A. Montgomery, Jr., J. E. Peralta, 
 F. Ogliaro, M. J. Bearpark, J. J. Heyd, E. N. Brothers, K. N. Kudin, 
 V. N. Staroverov, T. A. Keith, R. Kobayashi, J. Normand, 
 K. Raghavachari, A. P. Rendell, J. C. Burant, S. S. Iyengar, 
 J. Tomasi, M. Cossi, J. M. Millam, M. Klene, C. Adamo, R. Cammi, 
 J. W. Ochterski, R. L. Martin, K. Morokuma, O. Farkas, 
 J. B. Foresman, and D. J. Fox, Gaussian, Inc., Wallingford CT, 2016.
 
 ******************************************
 Gaussian 16:  ES64L-G16RevA.03 25-Dec-2016
                 4-Nov-2018 
 ******************************************
 %mem=6000mb
 %nproc=24
 Will use up to   24 processors via shared memory.
 %chk=D_a1-4_2SO_PSI.inp_extract_21.chk
 ----------------------------------------------------------------------
 #M062X/6-311++G(2d,2p) opt=ModRedundant freq=noraman SCRF=(Solvent=Wat
 er)
 ----------------------------------------------------------------------
 1/18=120,19=15,26=3,38=1/1,3;
 2/9=110,12=2,17=6,18=5,40=1/2;
 3/5=4,6=6,7=1212,11=2,25=1,30=1,70=2201,71=1,72=1,74=-55/1,2,3;
 4//1;
 5/5=2,38=5,53=1/2;
 6/7=2,8=2,9=2,10=2,28=1/1;
 7//1,2,3,16;
 1/18=20,19=15,26=3/3(2);
 2/9=110/2;
 99//99;
 2/9=110/2;
 3/5=4,6=6,7=1212,11=2,25=1,30=1,70=2205,71=1,72=1,74=-55/1,2,3;
 4/5=5,16=3,69=1/1;
 5/5=2,38=5,53=1/2;
 7//1,2,3,16;
 1/18=20,19=15,26=3/3(-5);
 2/9=110/2;
 6/7=2,8=2,9=2,10=2,19=2,28=1/1;
 99/9=1/99;
 -----------------------------
 D_a1-4_2SO_PSI.inp_extract_21
 -----------------------------
 Symbolic Z-matrix:
 Charge =  0 Multiplicity = 1
 C                     0.96698  -0.15754   0.50645 
 C                     3.81066   0.22543  -0.20575 
 O                    -1.64463  -1.26783  -0.23263 
 C                     1.93249   0.89144   1.06044 
 C                     1.6553   -0.98304  -0.58611 
 O                    -0.21318   0.51967   0.0851 
 C                    -2.17019   0.8898   -1.19204 
 C                    -3.13319   1.17423  -0.03851 
 C                    -1.09028  -0.10805  -0.80131 
 C                    -3.65866  -0.14326   0.53181 
 C                    -2.50067  -1.06209   0.88351 
 C                     3.12865  -1.14719  -0.21293 
 O                     2.89184   1.26512   0.09707 
 H                     0.68733  -0.81887   1.32015 
 H                     4.62735   0.25273   0.50945 
 H                     4.20605   0.46176  -1.18455 
 H                     1.39557   1.78565   1.34169 
 H                     2.43669   0.50587   1.94095 
 H                     1.59374  -0.46536  -1.53802 
 H                     1.17388  -1.94614  -0.70358 
 H                    -1.69699   1.79812  -1.54929 
 H                    -2.71968   0.45967  -2.02497 
 H                    -2.62613   1.73408   0.74264 
 H                    -3.95386   1.79248  -0.38933 
 H                    -0.56181  -0.45296  -1.67452 
 H                    -4.25832   0.02768   1.42139 
 H                    -4.29454  -0.6346   -0.20108 
 H                    -2.84776  -2.04582   1.16825 
 H                    -1.92604  -0.65486   1.70863 
 H                     3.21015  -1.61864   0.76226 
 H                     3.6356   -1.79488  -0.91965 
 
 The following ModRedundant input section has been read:
 D       5       1       6       9 F                                           
 

 GradGradGradGradGradGradGradGradGradGradGradGradGradGradGradGradGradGrad
 Berny optimization.
 Initialization pass.
                           ----------------------------
                           !    Initial Parameters    !
                           ! (Angstroms and Degrees)  !
 --------------------------                            --------------------------
 ! Name  Definition              Value          Derivative Info.                !
 --------------------------------------------------------------------------------
 ! R1    R(1,4)                  1.5295         estimate D2E/DX2                !
 ! R2    R(1,5)                  1.5326         estimate D2E/DX2                !
 ! R3    R(1,6)                  1.4244         estimate D2E/DX2                !
 ! R4    R(1,14)                 1.0852         estimate D2E/DX2                !
 ! R5    R(2,12)                 1.5327         estimate D2E/DX2                !
 ! R6    R(2,13)                 1.4202         estimate D2E/DX2                !
 ! R7    R(2,15)                 1.0859         estimate D2E/DX2                !
 ! R8    R(2,16)                 1.0818         estimate D2E/DX2                !
 ! R9    R(3,9)                  1.4056         estimate D2E/DX2                !
 ! R10   R(3,11)                 1.4216         estimate D2E/DX2                !
 ! R11   R(4,13)                 1.41           estimate D2E/DX2                !
 ! R12   R(4,17)                 1.0803         estimate D2E/DX2                !
 ! R13   R(4,18)                 1.0854         estimate D2E/DX2                !
 ! R14   R(5,12)                 1.5287         estimate D2E/DX2                !
 ! R15   R(5,19)                 1.0853         estimate D2E/DX2                !
 ! R16   R(5,20)                 1.0831         estimate D2E/DX2                !
 ! R17   R(6,9)                  1.3961         estimate D2E/DX2                !
 ! R18   R(7,8)                  1.5294         estimate D2E/DX2                !
 ! R19   R(7,9)                  1.5214         estimate D2E/DX2                !
 ! R20   R(7,21)                 1.0847         estimate D2E/DX2                !
 ! R21   R(7,22)                 1.0866         estimate D2E/DX2                !
 ! R22   R(8,10)                 1.5288         estimate D2E/DX2                !
 ! R23   R(8,23)                 1.0866         estimate D2E/DX2                !
 ! R24   R(8,24)                 1.0857         estimate D2E/DX2                !
 ! R25   R(9,25)                 1.0774         estimate D2E/DX2                !
 ! R26   R(10,11)                1.5195         estimate D2E/DX2                !
 ! R27   R(10,26)                1.0864         estimate D2E/DX2                !
 ! R28   R(10,27)                1.0876         estimate D2E/DX2                !
 ! R29   R(11,28)                1.0813         estimate D2E/DX2                !
 ! R30   R(11,29)                1.0848         estimate D2E/DX2                !
 ! R31   R(12,30)                1.0862         estimate D2E/DX2                !
 ! R32   R(12,31)                1.0844         estimate D2E/DX2                !
 ! A1    A(4,1,5)              110.1265         estimate D2E/DX2                !
 ! A2    A(4,1,6)              107.7033         estimate D2E/DX2                !
 ! A3    A(4,1,14)             108.0004         estimate D2E/DX2                !
 ! A4    A(5,1,6)              114.6648         estimate D2E/DX2                !
 ! A5    A(5,1,14)             108.785          estimate D2E/DX2                !
 ! A6    A(6,1,14)             107.339          estimate D2E/DX2                !
 ! A7    A(12,2,13)            111.6373         estimate D2E/DX2                !
 ! A8    A(12,2,15)            111.1146         estimate D2E/DX2                !
 ! A9    A(12,2,16)            110.7349         estimate D2E/DX2                !
 ! A10   A(13,2,15)            109.1315         estimate D2E/DX2                !
 ! A11   A(13,2,16)            105.6326         estimate D2E/DX2                !
 ! A12   A(15,2,16)            108.3933         estimate D2E/DX2                !
 ! A13   A(9,3,11)             115.8313         estimate D2E/DX2                !
 ! A14   A(1,4,13)             111.3327         estimate D2E/DX2                !
 ! A15   A(1,4,17)             110.3799         estimate D2E/DX2                !
 ! A16   A(1,4,18)             110.0857         estimate D2E/DX2                !
 ! A17   A(13,4,17)            107.2583         estimate D2E/DX2                !
 ! A18   A(13,4,18)            109.4108         estimate D2E/DX2                !
 ! A19   A(17,4,18)            108.2829         estimate D2E/DX2                !
 ! A20   A(1,5,12)             108.4611         estimate D2E/DX2                !
 ! A21   A(1,5,19)             110.0511         estimate D2E/DX2                !
 ! A22   A(1,5,20)             110.8933         estimate D2E/DX2                !
 ! A23   A(12,5,19)            108.6627         estimate D2E/DX2                !
 ! A24   A(12,5,20)            111.0618         estimate D2E/DX2                !
 ! A25   A(19,5,20)            107.6862         estimate D2E/DX2                !
 ! A26   A(1,6,9)              119.6422         estimate D2E/DX2                !
 ! A27   A(8,7,9)              112.0387         estimate D2E/DX2                !
 ! A28   A(8,7,21)             111.5536         estimate D2E/DX2                !
 ! A29   A(8,7,22)             109.4732         estimate D2E/DX2                !
 ! A30   A(9,7,21)             108.9144         estimate D2E/DX2                !
 ! A31   A(9,7,22)             107.2292         estimate D2E/DX2                !
 ! A32   A(21,7,22)            107.435          estimate D2E/DX2                !
 ! A33   A(7,8,10)             109.7268         estimate D2E/DX2                !
 ! A34   A(7,8,23)             110.1338         estimate D2E/DX2                !
 ! A35   A(7,8,24)             109.764          estimate D2E/DX2                !
 ! A36   A(10,8,23)            109.6466         estimate D2E/DX2                !
 ! A37   A(10,8,24)            110.5773         estimate D2E/DX2                !
 ! A38   A(23,8,24)            106.9553         estimate D2E/DX2                !
 ! A39   A(3,9,6)              111.2156         estimate D2E/DX2                !
 ! A40   A(3,9,7)              111.4161         estimate D2E/DX2                !
 ! A41   A(3,9,25)             104.9048         estimate D2E/DX2                !
 ! A42   A(6,9,7)              108.3075         estimate D2E/DX2                !
 ! A43   A(6,9,25)             110.5096         estimate D2E/DX2                !
 ! A44   A(7,9,25)             110.4876         estimate D2E/DX2                !
 ! A45   A(8,10,11)            110.214          estimate D2E/DX2                !
 ! A46   A(8,10,26)            111.0764         estimate D2E/DX2                !
 ! A47   A(8,10,27)            109.8095         estimate D2E/DX2                !
 ! A48   A(11,10,26)           109.0436         estimate D2E/DX2                !
 ! A49   A(11,10,27)           109.1685         estimate D2E/DX2                !
 ! A50   A(26,10,27)           107.4669         estimate D2E/DX2                !
 ! A51   A(3,11,10)            111.3889         estimate D2E/DX2                !
 ! A52   A(3,11,28)            105.5678         estimate D2E/DX2                !
 ! A53   A(3,11,29)            109.4225         estimate D2E/DX2                !
 ! A54   A(10,11,28)           111.4963         estimate D2E/DX2                !
 ! A55   A(10,11,29)           110.6539         estimate D2E/DX2                !
 ! A56   A(28,11,29)           108.1344         estimate D2E/DX2                !
 ! A57   A(2,12,5)             109.5014         estimate D2E/DX2                !
 ! A58   A(2,12,30)            110.5543         estimate D2E/DX2                !
 ! A59   A(2,12,31)            109.2638         estimate D2E/DX2                !
 ! A60   A(5,12,30)            109.7599         estimate D2E/DX2                !
 ! A61   A(5,12,31)            110.8301         estimate D2E/DX2                !
 ! A62   A(30,12,31)           106.9042         estimate D2E/DX2                !
 ! A63   A(2,13,4)             113.0705         estimate D2E/DX2                !
 ! D1    D(5,1,4,13)            27.6011         estimate D2E/DX2                !
 ! D2    D(5,1,4,17)           146.6042         estimate D2E/DX2                !
 ! D3    D(5,1,4,18)           -93.9123         estimate D2E/DX2                !
 ! D4    D(6,1,4,13)           -98.0975         estimate D2E/DX2                !
 ! D5    D(6,1,4,17)            20.9056         estimate D2E/DX2                !
 ! D6    D(6,1,4,18)           140.3891         estimate D2E/DX2                !
 ! D7    D(14,1,4,13)          146.2661         estimate D2E/DX2                !
 ! D8    D(14,1,4,17)          -94.7308         estimate D2E/DX2                !
 ! D9    D(14,1,4,18)           24.7527         estimate D2E/DX2                !
 ! D10   D(4,1,5,12)            34.7107         estimate D2E/DX2                !
 ! D11   D(4,1,5,19)           -84.038          estimate D2E/DX2                !
 ! D12   D(4,1,5,20)           156.9173         estimate D2E/DX2                !
 ! D13   D(6,1,5,12)           156.3564         estimate D2E/DX2                !
 ! D14   D(6,1,5,19)            37.6076         estimate D2E/DX2                !
 ! D15   D(6,1,5,20)           -81.4371         estimate D2E/DX2                !
 ! D16   D(14,1,5,12)          -83.4722         estimate D2E/DX2                !
 ! D17   D(14,1,5,19)          157.779          estimate D2E/DX2                !
 ! D18   D(14,1,5,20)           38.7343         estimate D2E/DX2                !
 ! D19   D(4,1,6,9)            161.3545         estimate D2E/DX2                !
 ! D20   D(5,1,6,9)             38.3954         Frozen                          !
 ! D21   D(14,1,6,9)           -82.5743         estimate D2E/DX2                !
 ! D22   D(13,2,12,5)           28.0631         estimate D2E/DX2                !
 ! D23   D(13,2,12,30)         -92.99           estimate D2E/DX2                !
 ! D24   D(13,2,12,31)         149.6225         estimate D2E/DX2                !
 ! D25   D(15,2,12,5)          150.1455         estimate D2E/DX2                !
 ! D26   D(15,2,12,30)          29.0924         estimate D2E/DX2                !
 ! D27   D(15,2,12,31)         -88.295          estimate D2E/DX2                !
 ! D28   D(16,2,12,5)          -89.3331         estimate D2E/DX2                !
 ! D29   D(16,2,12,30)         149.6138         estimate D2E/DX2                !
 ! D30   D(16,2,12,31)          32.2263         estimate D2E/DX2                !
 ! D31   D(12,2,13,4)           37.1784         estimate D2E/DX2                !
 ! D32   D(15,2,13,4)          -86.0381         estimate D2E/DX2                !
 ! D33   D(16,2,13,4)          157.6101         estimate D2E/DX2                !
 ! D34   D(11,3,9,6)            65.8768         estimate D2E/DX2                !
 ! D35   D(11,3,9,7)           -55.0672         estimate D2E/DX2                !
 ! D36   D(11,3,9,25)         -174.6349         estimate D2E/DX2                !
 ! D37   D(9,3,11,10)           57.4494         estimate D2E/DX2                !
 ! D38   D(9,3,11,28)          178.6243         estimate D2E/DX2                !
 ! D39   D(9,3,11,29)          -65.2188         estimate D2E/DX2                !
 ! D40   D(1,4,13,2)           -68.545          estimate D2E/DX2                !
 ! D41   D(17,4,13,2)          170.6036         estimate D2E/DX2                !
 ! D42   D(18,4,13,2)           53.3605         estimate D2E/DX2                !
 ! D43   D(1,5,12,2)           -64.0282         estimate D2E/DX2                !
 ! D44   D(1,5,12,30)           57.5046         estimate D2E/DX2                !
 ! D45   D(1,5,12,31)          175.3604         estimate D2E/DX2                !
 ! D46   D(19,5,12,2)           55.5938         estimate D2E/DX2                !
 ! D47   D(19,5,12,30)         177.1267         estimate D2E/DX2                !
 ! D48   D(19,5,12,31)         -65.0175         estimate D2E/DX2                !
 ! D49   D(20,5,12,2)          173.868          estimate D2E/DX2                !
 ! D50   D(20,5,12,30)         -64.5992         estimate D2E/DX2                !
 ! D51   D(20,5,12,31)          53.2566         estimate D2E/DX2                !
 ! D52   D(1,6,9,3)             63.2898         estimate D2E/DX2                !
 ! D53   D(1,6,9,7)           -173.9581         estimate D2E/DX2                !
 ! D54   D(1,6,9,25)           -52.8013         estimate D2E/DX2                !
 ! D55   D(9,7,8,10)           -51.4526         estimate D2E/DX2                !
 ! D56   D(9,7,8,23)            69.3371         estimate D2E/DX2                !
 ! D57   D(9,7,8,24)          -173.161          estimate D2E/DX2                !
 ! D58   D(21,7,8,10)         -173.8574         estimate D2E/DX2                !
 ! D59   D(21,7,8,23)          -53.0678         estimate D2E/DX2                !
 ! D60   D(21,7,8,24)           64.4341         estimate D2E/DX2                !
 ! D61   D(22,7,8,10)           67.3681         estimate D2E/DX2                !
 ! D62   D(22,7,8,23)         -171.8423         estimate D2E/DX2                !
 ! D63   D(22,7,8,24)          -54.3404         estimate D2E/DX2                !
 ! D64   D(8,7,9,3)             51.5118         estimate D2E/DX2                !
 ! D65   D(8,7,9,6)            -71.1183         estimate D2E/DX2                !
 ! D66   D(8,7,9,25)           167.7112         estimate D2E/DX2                !
 ! D67   D(21,7,9,3)           175.4063         estimate D2E/DX2                !
 ! D68   D(21,7,9,6)            52.7762         estimate D2E/DX2                !
 ! D69   D(21,7,9,25)          -68.3943         estimate D2E/DX2                !
 ! D70   D(22,7,9,3)           -68.6257         estimate D2E/DX2                !
 ! D71   D(22,7,9,6)           168.7441         estimate D2E/DX2                !
 ! D72   D(22,7,9,25)           47.5736         estimate D2E/DX2                !
 ! D73   D(7,8,10,11)           52.7739         estimate D2E/DX2                !
 ! D74   D(7,8,10,26)          173.7403         estimate D2E/DX2                !
 ! D75   D(7,8,10,27)          -67.5267         estimate D2E/DX2                !
 ! D76   D(23,8,10,11)         -68.3098         estimate D2E/DX2                !
 ! D77   D(23,8,10,26)          52.6566         estimate D2E/DX2                !
 ! D78   D(23,8,10,27)         171.3896         estimate D2E/DX2                !
 ! D79   D(24,8,10,11)         173.9941         estimate D2E/DX2                !
 ! D80   D(24,8,10,26)         -65.0395         estimate D2E/DX2                !
 ! D81   D(24,8,10,27)          53.6936         estimate D2E/DX2                !
 ! D82   D(8,10,11,3)          -55.0006         estimate D2E/DX2                !
 ! D83   D(8,10,11,28)        -172.6482         estimate D2E/DX2                !
 ! D84   D(8,10,11,29)          66.9575         estimate D2E/DX2                !
 ! D85   D(26,10,11,3)        -177.175          estimate D2E/DX2                !
 ! D86   D(26,10,11,28)         65.1773         estimate D2E/DX2                !
 ! D87   D(26,10,11,29)        -55.217          estimate D2E/DX2                !
 ! D88   D(27,10,11,3)          65.6852         estimate D2E/DX2                !
 ! D89   D(27,10,11,28)        -51.9625         estimate D2E/DX2                !
 ! D90   D(27,10,11,29)       -172.3567         estimate D2E/DX2                !
 --------------------------------------------------------------------------------
 Trust Radius=3.00D-01 FncErr=1.00D-07 GrdErr=1.00D-06 EigMax=2.50D+02 EigMin=1.00D-04
 Number of steps in this run=    186 maximum allowed number of steps=    186.
 GradGradGradGradGradGradGradGradGradGradGradGradGradGradGradGradGradGrad

                          Input orientation:                          
 ---------------------------------------------------------------------
 Center     Atomic      Atomic             Coordinates (Angstroms)
 Number     Number       Type             X           Y           Z
 ---------------------------------------------------------------------
      1          6           0        0.966981   -0.157539    0.506446
      2          6           0        3.810660    0.225432   -0.205752
      3          8           0       -1.644633   -1.267828   -0.232630
      4          6           0        1.932491    0.891438    1.060441
      5          6           0        1.655301   -0.983036   -0.586114
      6          8           0       -0.213177    0.519665    0.085098
      7          6           0       -2.170190    0.889799   -1.192043
      8          6           0       -3.133194    1.174233   -0.038511
      9          6           0       -1.090285   -0.108050   -0.801314
     10          6           0       -3.658659   -0.143261    0.531814
     11          6           0       -2.500671   -1.062094    0.883508
     12          6           0        3.128650   -1.147186   -0.212929
     13          8           0        2.891842    1.265123    0.097068
     14          1           0        0.687331   -0.818872    1.320154
     15          1           0        4.627351    0.252725    0.509448
     16          1           0        4.206053    0.461762   -1.184548
     17          1           0        1.395567    1.785645    1.341694
     18          1           0        2.436690    0.505874    1.940946
     19          1           0        1.593739   -0.465361   -1.538019
     20          1           0        1.173880   -1.946142   -0.703576
     21          1           0       -1.696986    1.798117   -1.549286
     22          1           0       -2.719683    0.459674   -2.024975
     23          1           0       -2.626131    1.734078    0.742642
     24          1           0       -3.953856    1.792475   -0.389326
     25          1           0       -0.561806   -0.452957   -1.674516
     26          1           0       -4.258321    0.027675    1.421389
     27          1           0       -4.294537   -0.634602   -0.201080
     28          1           0       -2.847764   -2.045815    1.168248
     29          1           0       -1.926037   -0.654861    1.708630
     30          1           0        3.210152   -1.618639    0.762259
     31          1           0        3.635600   -1.794878   -0.919646
 ---------------------------------------------------------------------
                    Distance matrix (angstroms):
                    1          2          3          4          5
     1  C    0.000000
     2  C    2.956417   0.000000
     3  O    2.932491   5.656038   0.000000
     4  C    1.529534   2.361001   4.373817   0.000000
     5  C    1.532618   2.500129   3.331009   2.510305   0.000000
     6  O    1.424399   4.045050   2.311958   2.386085   2.489949
     7  C    3.718013   6.097928   2.419099   4.680350   4.302214
     8  C    4.345346   7.010371   2.866559   5.191227   5.280470
     9  C    2.438243   4.948249   1.405627   3.688127   2.889663
    10  C    4.625732   7.514697   2.430088   5.710605   5.494830
    11  C    3.603471   6.532772   1.421581   4.847733   4.408871
    12  C    2.483891   1.532733   4.774848   2.684819   1.528715
    13  O    2.428301   1.420170   5.206164   1.409994   2.655182
    14  H    1.085212   3.629620   2.837385   2.131440   2.144242
    15  H    3.683291   1.085928   6.496195   2.823795   3.400065
    16  H    3.706020   1.081771   6.174800   3.223923   2.991973
    17  H    2.158075   3.265200   4.587484   1.080276   3.383711
    18  H    2.158229   2.564128   4.952540   1.085433   3.035367
    19  H    2.160421   2.677101   3.582603   2.950873   1.085311
    20  H    2.169346   3.451981   2.936991   3.426238   1.083114
    21  H    3.891959   5.883246   3.337116   4.561342   4.460980
    22  H    4.514481   6.783054   2.711549   5.599012   4.826201
    23  H    4.067488   6.678903   3.305440   4.646727   5.242038
    24  H    5.368389   7.923196   3.836993   6.128848   6.261376
    25  H    2.679749   4.662182   1.978778   3.938135   2.526097
    26  H    5.308032   8.233781   3.353427   6.261192   6.326336
    27  H    5.330268   8.150699   2.724695   6.534226   5.972456
    28  H    4.307650   7.168058   2.003808   5.611588   4.948220
    29  H    3.172086   6.111421   2.055093   4.207069   4.266091
    30  H    2.689251   2.167545   4.968079   2.832281   2.153988
    31  H    3.440370   2.149870   5.350760   3.746681   2.166083
                    6          7          8          9         10
     6  O    0.000000
     7  C    2.366007   0.000000
     8  C    2.995036   1.529351   0.000000
     9  C    1.396091   1.521370   2.529742   0.000000
    10  C    3.537000   2.500887   1.528782   2.893962   0.000000
    11  C    2.893449   2.868278   2.500273   2.395415   1.519500
    12  C    3.746334   5.760701   6.680576   4.384679   6.901454
    13  O    3.193273   5.237064   6.027247   4.306975   6.714284
    14  H    2.031738   4.170865   4.518279   2.857589   4.468284
    15  H    4.866420   7.036157   7.834251   5.877042   8.295497
    16  H    4.598364   6.390598   7.462276   5.340669   8.072524
    17  H    2.402040   4.465085   4.773727   3.789198   5.470081
    18  H    3.235144   5.584475   5.948829   4.509595   6.289699
    19  H    2.621017   4.015385   5.223092   2.806134   5.654701
    20  H    2.937029   4.411798   5.360032   2.917975   5.303772
    21  H    2.550949   1.084706   2.175860   2.135655   3.456600
    22  H    3.276977   1.086612   2.151192   2.115324   2.789691
    23  H    2.780200   2.159559   1.086618   2.852378   2.152897
    24  H    3.979674   2.154215   1.085717   3.461469   2.163958
    25  H    2.040534   2.150040   3.454894   1.077373   3.815010
    26  H    4.288463   3.454501   2.170671   3.872374   1.086350
    27  H    4.251086   2.796186   2.155697   3.302237   1.087608
    28  H    3.833530   3.827259   3.450572   3.274575   2.163865
    29  H    2.636144   3.295374   2.802733   2.701352   2.156063
    30  H    4.092685   6.249771   6.977063   4.818755   7.029254
    31  H    4.602141   6.402256   7.443695   5.019301   7.618451
                   11         12         13         14         15
    11  C    0.000000
    12  C    5.735736   0.000000
    13  O    5.925675   2.443647   0.000000
    14  H    3.226945   2.901409   3.270909   0.000000
    15  H    7.257918   2.174324   2.051097   4.162850   0.000000
    16  H    7.181862   2.166461   2.003766   4.504993   1.758070
    17  H    4.847703   3.744586   2.014665   2.699180   3.672452
    18  H    5.287176   2.801891   2.045363   2.280481   2.629119
    19  H    4.794171   2.139322   2.711670   3.019221   3.729688
    20  H    4.099110   2.167992   3.728894   2.367055   4.270001
    21  H    3.839948   5.809253   4.904274   4.557114   6.828167
    22  H    3.289835   6.329969   6.053183   4.942905   7.774641
    23  H    2.802528   6.506328   5.575366   4.222571   7.406874
    24  H    3.446798   7.670372   6.883187   5.593038   8.764459
    25  H    3.267068   4.029597   4.244761   3.265316   5.674067
    26  H    2.136878   7.656281   7.376309   5.018602   8.935181
    27  H    2.139401   7.440873   7.439213   5.212208   8.994014
    28  H    1.081322   6.199412   6.712139   3.745045   7.848226
    29  H    1.084836   5.429975   5.430969   2.647169   6.723737
    30  H    5.739159   1.086233   2.976556   2.704718   2.361010
    31  H    6.437558   1.084413   3.309152   3.829045   2.686737
                   16         17         18         19         20
    16  H    0.000000
    17  H    4.004172   0.000000
    18  H    3.591839   1.755236   0.000000
    19  H    2.794402   3.660471   3.709051   0.000000
    20  H    3.901719   4.261280   3.821069   1.750797   0.000000
    21  H    6.063394   4.233415   5.562274   3.994037   4.793388
    22  H    6.976542   5.479776   6.505294   4.438291   4.763809
    23  H    7.211906   4.066396   5.345706   5.276955   5.484127
    24  H    8.305859   5.622526   6.922759   6.098617   6.353714
    25  H    4.879473   4.235584   4.793944   2.159898   2.486952
    26  H    8.867072   5.921424   6.732146   6.576305   6.157941
    27  H    8.627239   6.372992   7.155304   6.040517   5.645903
    28  H    7.847288   5.719793   5.918922   5.435868   4.437035
    29  H    6.871670   4.138087   4.520472   4.792229   4.134686
    30  H    3.018268   3.900976   2.549726   3.038769   2.530283
    31  H    2.342651   4.790778   3.861843   2.513801   2.475809
                   21         22         23         24         25
    21  H    0.000000
    22  H    1.750320   0.000000
    23  H    2.473933   3.048370   0.000000
    24  H    2.537519   2.444359   1.745742   0.000000
    25  H    2.524213   2.368998   3.858395   4.266108   0.000000
    26  H    4.303465   3.798875   2.456940   2.546744   4.845602
    27  H    3.805661   2.646545   3.047103   2.458089   4.017125
    28  H    4.846142   4.060856   3.810230   4.287417   3.980466
    29  H    4.084554   3.976414   2.670261   3.808270   3.653432
    30  H    6.410730   6.873936   6.730772   8.017784   4.639435
    31  H    6.460846   6.833329   7.377398   8.411313   4.470883
                   26         27         28         29         30
    26  H    0.000000
    27  H    1.752806   0.000000
    28  H    2.520538   2.441257   0.000000
    29  H    2.447021   3.042564   1.753952   0.000000
    30  H    7.676125   7.629987   6.086514   5.310831   0.000000
    31  H    8.433038   8.046717   6.815884   6.256139   1.743809
                   31
    31  H    0.000000
 Stoichiometry    C10H18O3
 Framework group  C1[X(C10H18O3)]
 Deg. of freedom    87
 Full point group                 C1      NOp   1
 Largest Abelian subgroup         C1      NOp   1
 Largest concise Abelian subgroup C1      NOp   1
                         Standard orientation:                         
 ---------------------------------------------------------------------
 Center     Atomic      Atomic             Coordinates (Angstroms)
 Number     Number       Type             X           Y           Z
 ---------------------------------------------------------------------
      1          6           0        0.966981    0.157539   -0.506446
      2          6           0        3.810660   -0.225432    0.205752
      3          8           0       -1.644633    1.267828    0.232630
      4          6           0        1.932491   -0.891438   -1.060441
      5          6           0        1.655301    0.983036    0.586114
      6          8           0       -0.213177   -0.519665   -0.085098
      7          6           0       -2.170190   -0.889799    1.192043
      8          6           0       -3.133194   -1.174233    0.038511
      9          6           0       -1.090285    0.108050    0.801314
     10          6           0       -3.658659    0.143261   -0.531814
     11          6           0       -2.500671    1.062094   -0.883508
     12          6           0        3.128650    1.147186    0.212929
     13          8           0        2.891842   -1.265123   -0.097068
     14          1           0        0.687331    0.818872   -1.320154
     15          1           0        4.627351   -0.252725   -0.509448
     16          1           0        4.206053   -0.461762    1.184548
     17          1           0        1.395567   -1.785645   -1.341694
     18          1           0        2.436690   -0.505874   -1.940946
     19          1           0        1.593739    0.465361    1.538019
     20          1           0        1.173880    1.946142    0.703576
     21          1           0       -1.696986   -1.798117    1.549286
     22          1           0       -2.719683   -0.459674    2.024975
     23          1           0       -2.626131   -1.734078   -0.742642
     24          1           0       -3.953856   -1.792475    0.389326
     25          1           0       -0.561806    0.452957    1.674516
     26          1           0       -4.258321   -0.027675   -1.421389
     27          1           0       -4.294537    0.634602    0.201080
     28          1           0       -2.847764    2.045815   -1.168248
     29          1           0       -1.926037    0.654861   -1.708630
     30          1           0        3.210152    1.618639   -0.762259
     31          1           0        3.635600    1.794878    0.919646
 ---------------------------------------------------------------------
 Rotational constants (GHZ):           1.9990264           0.4106429           0.3878405
 Standard basis: 6-311++G(2d,2p) (5D, 7F)
 There are   557 symmetry adapted cartesian basis functions of A   symmetry.
 There are   531 symmetry adapted basis functions of A   symmetry.
   531 basis functions,   762 primitive gaussians,   557 cartesian basis functions
    51 alpha electrons       51 beta electrons
       nuclear repulsion energy       896.6859543504 Hartrees.
 NAtoms=   31 NActive=   31 NUniq=   31 SFac= 1.00D+00 NAtFMM=   60 NAOKFM=F Big=F
 Integral buffers will be    131072 words long.
 Raffenetti 2 integral format.
 Two-electron integral symmetry is turned on.
 ------------------------------------------------------------------------------
 Polarizable Continuum Model (PCM)
 =================================
 Model                : PCM.
 Atomic radii         : UFF (Universal Force Field).
 Polarization charges : Total charges.
 Charge compensation  : None.
 Solution method      : On-the-fly selection.
 Cavity type          : Scaled VdW (van der Waals Surface) (Alpha=1.100).
 Cavity algorithm     : GePol (No added spheres)
                        Default sphere list used, NSphG=   31.
                        Lebedev-Laikov grids with approx.  5.0 points / Ang**2.
                        Smoothing algorithm: York/Karplus (Gamma=1.0000).
                        Polarization charges: spherical gaussians, with
                                              point-specific exponents (IZeta= 3).
                        Self-potential: point-specific (ISelfS= 7).
                        Self-field    : sphere-specific E.n sum rule (ISelfD= 2).
 1st derivatives      : Analytical E(r).r(x)/FMM algorithm (CHGder, D1EAlg=3).
                        Cavity 1st derivative terms included.
 Solvent              : Water, Eps=  78.355300 Eps(inf)=   1.777849
 ------------------------------------------------------------------------------
 One-electron integrals computed using PRISM.
 NBasis=   531 RedAO= T EigKep=  4.12D-06  NBF=   531
 NBsUse=   531 1.00D-06 EigRej= -1.00D+00 NBFU=   531
 ExpMin= 3.60D-02 ExpMax= 8.59D+03 ExpMxC= 1.30D+03 IAcc=3 IRadAn=         5 AccDes= 0.00D+00
 Harris functional with IExCor= 1009 and IRadAn=       5 diagonalized for initial guess.
 HarFok:  IExCor= 1009 AccDes= 0.00D+00 IRadAn=         5 IDoV= 1 UseB2=F ITyADJ=14
 ICtDFT=  3500011 ScaDFX=  1.000000  1.000000  1.000000  1.000000
 FoFCou: FMM=F IPFlag=           0 FMFlag=      100000 FMFlg1=           0
         NFxFlg=           0 DoJE=T BraDBF=F KetDBF=T FulRan=T
         wScrn=  0.000000 ICntrl=       500 IOpCl=  0 I1Cent=   200000004 NGrid=           0
         NMat0=    1 NMatS0=      1 NMatT0=    0 NMatD0=    1 NMtDS0=    0 NMtDT0=    0
 Petite list used in FoFCou.
 Requested convergence on RMS density matrix=1.00D-08 within 128 cycles.
 Requested convergence on MAX density matrix=1.00D-06.
 Requested convergence on             energy=1.00D-06.
 No special actions if energy rises.
 Inv3:  Mode=1 IEnd=    12558348.
 Iteration    1 A*A^-1 deviation from unit magnitude is 4.66D-15 for   2026.
 Iteration    1 A*A^-1 deviation from orthogonality  is 1.69D-15 for   1704    244.
 Iteration    1 A^-1*A deviation from unit magnitude is 4.66D-15 for   2026.
 Iteration    1 A^-1*A deviation from orthogonality  is 9.47D-16 for   1030    996.
 Error on total polarization charges =  0.01476
 SCF Done:  E(RM062X) =  -617.493629576     A.U. after   13 cycles
            NFock= 13  Conv=0.28D-08     -V/T= 2.0035

 **********************************************************************

            Population analysis using the SCF density.

 **********************************************************************

 Orbital symmetries:
       Occupied  (A) (A) (A) (A) (A) (A) (A) (A) (A) (A) (A) (A)
                 (A) (A) (A) (A) (A) (A) (A) (A) (A) (A) (A) (A)
                 (A) (A) (A) (A) (A) (A) (A) (A) (A) (A) (A) (A)
                 (A) (A) (A) (A) (A) (A) (A) (A) (A) (A) (A) (A)
                 (A) (A) (A)
       Virtual   (A) (A) (A) (A) (A) (A) (A) (A) (A) (A) (A) (A)
                 (A) (A) (A) (A) (A) (A) (A) (A) (A) (A) (A) (A)
                 (A) (A) (A) (A) (A) (A) (A) (A) (A) (A) (A) (A)
                 (A) (A) (A) (A) (A) (A) (A) (A) (A) (A) (A) (A)
                 (A) (A) (A) (A) (A) (A) (A) (A) (A) (A) (A) (A)
                 (A) (A) (A) (A) (A) (A) (A) (A) (A) (A) (A) (A)
                 (A) (A) (A) (A) (A) (A) (A) (A) (A) (A) (A) (A)
                 (A) (A) (A) (A) (A) (A) (A) (A) (A) (A) (A) (A)
                 (A) (A) (A) (A) (A) (A) (A) (A) (A) (A) (A) (A)
                 (A) (A) (A) (A) (A) (A) (A) (A) (A) (A) (A) (A)
                 (A) (A) (A) (A) (A) (A) (A) (A) (A) (A) (A) (A)
                 (A) (A) (A) (A) (A) (A) (A) (A) (A) (A) (A) (A)
                 (A) (A) (A) (A) (A) (A) (A) (A) (A) (A) (A) (A)
                 (A) (A) (A) (A) (A) (A) (A) (A) (A) (A) (A) (A)
                 (A) (A) (A) (A) (A) (A) (A) (A) (A) (A) (A) (A)
                 (A) (A) (A) (A) (A) (A) (A) (A) (A) (A) (A) (A)
                 (A) (A) (A) (A) (A) (A) (A) (A) (A) (A) (A) (A)
                 (A) (A) (A) (A) (A) (A) (A) (A) (A) (A) (A) (A)
                 (A) (A) (A) (A) (A) (A) (A) (A) (A) (A) (A) (A)
                 (A) (A) (A) (A) (A) (A) (A) (A) (A) (A) (A) (A)
                 (A) (A) (A) (A) (A) (A) (A) (A) (A) (A) (A) (A)
                 (A) (A) (A) (A) (A) (A) (A) (A) (A) (A) (A) (A)
                 (A) (A) (A) (A) (A) (A) (A) (A) (A) (A) (A) (A)
                 (A) (A) (A) (A) (A) (A) (A) (A) (A) (A) (A) (A)
                 (A) (A) (A) (A) (A) (A) (A) (A) (A) (A) (A) (A)
                 (A) (A) (A) (A) (A) (A) (A) (A) (A) (A) (A) (A)
                 (A) (A) (A) (A) (A) (A) (A) (A) (A) (A) (A) (A)
                 (A) (A) (A) (A) (A) (A) (A) (A) (A) (A) (A) (A)
                 (A) (A) (A) (A) (A) (A) (A) (A) (A) (A) (A) (A)
                 (A) (A) (A) (A) (A) (A) (A) (A) (A) (A) (A) (A)
                 (A) (A) (A) (A) (A) (A) (A) (A) (A) (A) (A) (A)
                 (A) (A) (A) (A) (A) (A) (A) (A) (A) (A) (A) (A)
                 (A) (A) (A) (A) (A) (A) (A) (A) (A) (A) (A) (A)
                 (A) (A) (A) (A) (A) (A) (A) (A) (A) (A) (A) (A)
                 (A) (A) (A) (A) (A) (A) (A) (A) (A) (A) (A) (A)
                 (A) (A) (A) (A) (A) (A) (A) (A) (A) (A) (A) (A)
                 (A) (A) (A) (A) (A) (A) (A) (A) (A) (A) (A) (A)
                 (A) (A) (A) (A) (A) (A) (A) (A) (A) (A) (A) (A)
                 (A) (A) (A) (A) (A) (A) (A) (A) (A) (A) (A) (A)
                 (A) (A) (A) (A) (A) (A) (A) (A) (A) (A) (A) (A)
 The electronic state is 1-A.
 Alpha  occ. eigenvalues --  -19.62848 -19.62628 -19.62626 -10.63174 -10.58812
 Alpha  occ. eigenvalues --  -10.57884 -10.57856 -10.57587 -10.53394 -10.53348
 Alpha  occ. eigenvalues --  -10.52916 -10.52877 -10.52716  -1.20040  -1.16559
 Alpha  occ. eigenvalues --   -1.13225  -0.90868  -0.89620  -0.87606  -0.84537
 Alpha  occ. eigenvalues --   -0.75534  -0.74552  -0.73062  -0.71026  -0.64976
 Alpha  occ. eigenvalues --   -0.62434  -0.60474  -0.58942  -0.58521  -0.55486
 Alpha  occ. eigenvalues --   -0.54391  -0.54272  -0.52629  -0.50360  -0.49573
 Alpha  occ. eigenvalues --   -0.48445  -0.46206  -0.45828  -0.45300  -0.44994
 Alpha  occ. eigenvalues --   -0.43598  -0.42832  -0.41916  -0.41091  -0.39311
 Alpha  occ. eigenvalues --   -0.38562  -0.37231  -0.35832  -0.34175  -0.33345
 Alpha  occ. eigenvalues --   -0.32142
 Alpha virt. eigenvalues --   -0.00157   0.00773   0.00835   0.01119   0.02194
 Alpha virt. eigenvalues --    0.02411   0.02615   0.03522   0.03612   0.04384
 Alpha virt. eigenvalues --    0.04520   0.04588   0.05606   0.05894   0.06931
 Alpha virt. eigenvalues --    0.07317   0.07505   0.08559   0.08780   0.09188
 Alpha virt. eigenvalues --    0.09784   0.10308   0.10944   0.11902   0.12270
 Alpha virt. eigenvalues --    0.12325   0.12651   0.12706   0.13159   0.13529
 Alpha virt. eigenvalues --    0.13660   0.14143   0.14395   0.14641   0.14860
 Alpha virt. eigenvalues --    0.15175   0.15506   0.15662   0.16021   0.16070
 Alpha virt. eigenvalues --    0.16750   0.16838   0.17333   0.17579   0.17693
 Alpha virt. eigenvalues --    0.17975   0.18119   0.18700   0.19188   0.19232
 Alpha virt. eigenvalues --    0.19893   0.20321   0.21015   0.21269   0.21573
 Alpha virt. eigenvalues --    0.22074   0.22526   0.23010   0.23474   0.23585
 Alpha virt. eigenvalues --    0.24586   0.25509   0.25993   0.26495   0.27109
 Alpha virt. eigenvalues --    0.27465   0.27968   0.28653   0.28995   0.29806
 Alpha virt. eigenvalues --    0.30033   0.30452   0.30624   0.31176   0.32078
 Alpha virt. eigenvalues --    0.32230   0.32738   0.33472   0.34662   0.34811
 Alpha virt. eigenvalues --    0.35084   0.35444   0.35837   0.36076   0.36185
 Alpha virt. eigenvalues --    0.36668   0.36910   0.37561   0.37978   0.38450
 Alpha virt. eigenvalues --    0.39330   0.39436   0.40029   0.40879   0.41065
 Alpha virt. eigenvalues --    0.41551   0.43113   0.44064   0.44290   0.45185
 Alpha virt. eigenvalues --    0.45956   0.47734   0.49470   0.50167   0.51203
 Alpha virt. eigenvalues --    0.51901   0.53171   0.53649   0.54047   0.55020
 Alpha virt. eigenvalues --    0.55781   0.56675   0.57411   0.58593   0.58815
 Alpha virt. eigenvalues --    0.59460   0.59787   0.60901   0.61299   0.61425
 Alpha virt. eigenvalues --    0.62196   0.62516   0.63020   0.63270   0.64594
 Alpha virt. eigenvalues --    0.64732   0.65518   0.65866   0.66680   0.66879
 Alpha virt. eigenvalues --    0.67422   0.68221   0.68605   0.69378   0.69884
 Alpha virt. eigenvalues --    0.70967   0.71257   0.72341   0.72457   0.72947
 Alpha virt. eigenvalues --    0.73623   0.73743   0.74395   0.74759   0.75754
 Alpha virt. eigenvalues --    0.76005   0.76661   0.77761   0.77962   0.78649
 Alpha virt. eigenvalues --    0.79468   0.81943   0.83732   0.83973   0.86116
 Alpha virt. eigenvalues --    0.86769   0.87401   0.88280   0.88920   0.89777
 Alpha virt. eigenvalues --    0.90231   0.91960   0.93153   0.93952   0.95272
 Alpha virt. eigenvalues --    0.96485   0.99842   1.00005   1.01555   1.02001
 Alpha virt. eigenvalues --    1.02281   1.04455   1.05223   1.05366   1.06413
 Alpha virt. eigenvalues --    1.06957   1.07976   1.10396   1.12098   1.12433
 Alpha virt. eigenvalues --    1.12831   1.15247   1.15496   1.16307   1.16756
 Alpha virt. eigenvalues --    1.17544   1.18529   1.19300   1.20048   1.20859
 Alpha virt. eigenvalues --    1.21018   1.22665   1.22814   1.23562   1.24626
 Alpha virt. eigenvalues --    1.24900   1.25812   1.26419   1.27083   1.27411
 Alpha virt. eigenvalues --    1.28041   1.29245   1.30060   1.30768   1.31447
 Alpha virt. eigenvalues --    1.31674   1.32678   1.33322   1.34168   1.35061
 Alpha virt. eigenvalues --    1.36028   1.36600   1.37086   1.38408   1.38560
 Alpha virt. eigenvalues --    1.39253   1.40396   1.41415   1.41640   1.41818
 Alpha virt. eigenvalues --    1.42527   1.43219   1.43925   1.44555   1.45451
 Alpha virt. eigenvalues --    1.46367   1.46689   1.47436   1.48133   1.48752
 Alpha virt. eigenvalues --    1.49321   1.49444   1.50880   1.51402   1.51811
 Alpha virt. eigenvalues --    1.52399   1.52997   1.54019   1.54965   1.55688
 Alpha virt. eigenvalues --    1.56301   1.57610   1.57696   1.58180   1.58494
 Alpha virt. eigenvalues --    1.59775   1.60251   1.60630   1.60874   1.62463
 Alpha virt. eigenvalues --    1.63448   1.63955   1.64530   1.65619   1.66603
 Alpha virt. eigenvalues --    1.67375   1.67487   1.69142   1.69915   1.71264
 Alpha virt. eigenvalues --    1.71743   1.73933   1.74653   1.74961   1.77208
 Alpha virt. eigenvalues --    1.77821   1.78907   1.80501   1.82553   1.83395
 Alpha virt. eigenvalues --    1.86273   1.87085   1.89445   1.95462   1.98605
 Alpha virt. eigenvalues --    2.03264   2.08795   2.12155   2.16271   2.20147
 Alpha virt. eigenvalues --    2.22413   2.25677   2.30758   2.32235   2.40007
 Alpha virt. eigenvalues --    2.42388   2.42591   2.44924   2.47146   2.51945
 Alpha virt. eigenvalues --    2.61702   2.75810   2.77257   2.81114   2.82683
 Alpha virt. eigenvalues --    2.84727   2.88201   2.91509   2.92425   2.93253
 Alpha virt. eigenvalues --    2.94139   2.95581   2.99900   3.03087   3.04448
 Alpha virt. eigenvalues --    3.05344   3.07148   3.08185   3.11130   3.12108
 Alpha virt. eigenvalues --    3.12654   3.14058   3.17771   3.18655   3.23239
 Alpha virt. eigenvalues --    3.26031   3.26703   3.31658   3.32203   3.33793
 Alpha virt. eigenvalues --    3.34195   3.35930   3.36736   3.37773   3.39052
 Alpha virt. eigenvalues --    3.41226   3.43063   3.45314   3.45530   3.46316
 Alpha virt. eigenvalues --    3.46615   3.48123   3.49377   3.51397   3.51909
 Alpha virt. eigenvalues --    3.52356   3.53139   3.54453   3.55325   3.55511
 Alpha virt. eigenvalues --    3.56346   3.56919   3.58443   3.58674   3.59460
 Alpha virt. eigenvalues --    3.60835   3.62959   3.64147   3.64445   3.65593
 Alpha virt. eigenvalues --    3.66049   3.67650   3.68251   3.69691   3.69780
 Alpha virt. eigenvalues --    3.70793   3.71132   3.72165   3.73803   3.74418
 Alpha virt. eigenvalues --    3.74586   3.75365   3.76757   3.78067   3.78451
 Alpha virt. eigenvalues --    3.79331   3.80248   3.82437   3.85523   3.86418
 Alpha virt. eigenvalues --    3.86758   3.87878   3.89485   3.90526   3.91989
 Alpha virt. eigenvalues --    3.92963   3.94597   3.94779   3.97500   4.00014
 Alpha virt. eigenvalues --    4.00249   4.01251   4.01602   4.02908   4.04025
 Alpha virt. eigenvalues --    4.04940   4.05913   4.06623   4.07221   4.08207
 Alpha virt. eigenvalues --    4.08983   4.09446   4.09900   4.10886   4.12001
 Alpha virt. eigenvalues --    4.12542   4.12904   4.13871   4.14645   4.15270
 Alpha virt. eigenvalues --    4.16291   4.16649   4.17528   4.19903   4.20861
 Alpha virt. eigenvalues --    4.21684   4.24036   4.25540   4.25797   4.27211
 Alpha virt. eigenvalues --    4.28967   4.29347   4.31652   4.32402   4.32529
 Alpha virt. eigenvalues --    4.32883   4.33624   4.35251   4.37184   4.40744
 Alpha virt. eigenvalues --    4.42370   4.44805   4.45521   4.49431   4.50187
 Alpha virt. eigenvalues --    4.59396   4.61809   4.72283   4.75455   4.82192
 Alpha virt. eigenvalues --    4.85336   4.92925   4.95509   4.99724   5.03317
 Alpha virt. eigenvalues --    5.04870   5.06821   5.07826   5.11879   5.12853
 Alpha virt. eigenvalues --    5.14010   5.15396   5.16895   5.31304   5.40061
 Alpha virt. eigenvalues --    5.40926   5.59866   5.60630   5.65826   5.84731
 Alpha virt. eigenvalues --    5.88335   6.06081   7.03662   7.04749   7.07190
 Alpha virt. eigenvalues --    7.09208   7.11093   7.11511   7.15563   7.19393
 Alpha virt. eigenvalues --    7.25734   7.34908   7.38789   7.46638   7.52911
 Alpha virt. eigenvalues --    7.55624   7.66725  23.96813  23.97635  24.05773
 Alpha virt. eigenvalues --   24.07321  24.10782  24.11423  24.12701  24.15292
 Alpha virt. eigenvalues --   24.17379  24.22870  50.16311  50.18347  50.26628
          Condensed to atoms (all electrons):
               1          2          3          4          5          6
     1  C    9.159734   0.066019   0.047052  -0.880222  -2.074339  -0.023674
     2  C    0.066019   5.555531  -0.002189  -0.170217   0.002591   0.013316
     3  O    0.047052  -0.002189   8.204239   0.017553  -0.094819  -0.047771
     4  C   -0.880222  -0.170217   0.017553   6.255789   0.272875  -0.109942
     5  C   -2.074339   0.002591  -0.094819   0.272875   7.609238  -0.011088
     6  O   -0.023674   0.013316  -0.047771  -0.109942  -0.011088   8.328840
     7  C    0.328022  -0.014376   0.002487  -0.007819  -0.369830  -0.062743
     8  C    0.153351   0.004009   0.014664   0.003183  -0.082682  -0.022172
     9  C   -1.625634   0.022154   0.282936   0.248931   0.736576   0.268251
    10  C   -0.093907  -0.003141  -0.078459   0.013154   0.061374  -0.005660
    11  C    0.230372   0.003077   0.099972  -0.031329  -0.086447  -0.004984
    12  C    0.397222  -0.175227  -0.013729  -0.075121  -0.568175  -0.023080
    13  O   -0.047314   0.105665  -0.000367   0.105337  -0.009428   0.026009
    14  H    0.673207  -0.007592   0.001633  -0.110955  -0.118225  -0.045365
    15  H    0.059112   0.516113   0.000002  -0.035403  -0.032162  -0.000281
    16  H   -0.019992   0.417380   0.000168   0.024114  -0.017852   0.001770
    17  H    0.034650   0.010655   0.000494   0.377768  -0.015397  -0.008109
    18  H   -0.058429   0.032368   0.000352   0.456221  -0.000598   0.014238
    19  H   -0.034608  -0.039122  -0.001143  -0.016361   0.413573  -0.002537
    20  H   -0.063951  -0.003613   0.011636   0.013756   0.446296  -0.000231
    21  H   -0.012940   0.000852   0.009079  -0.004169   0.011847  -0.006172
    22  H    0.007629  -0.000471  -0.006826   0.001482  -0.003057   0.008970
    23  H   -0.013005  -0.000015   0.001357  -0.000185   0.007609  -0.002495
    24  H    0.010004  -0.000002  -0.004744  -0.000729  -0.005141   0.000501
    25  H   -0.089112   0.005575  -0.075349   0.007257   0.078068  -0.019033
    26  H    0.001821   0.000039   0.009404  -0.001506   0.002622   0.001259
    27  H   -0.003276  -0.000036  -0.002309   0.000668  -0.001418  -0.000821
    28  H    0.002217  -0.000152  -0.066529   0.001283   0.005207   0.002222
    29  H   -0.021817   0.000913  -0.031879   0.012661  -0.005367   0.007078
    30  H   -0.071074  -0.074758  -0.000074   0.007689   0.008488   0.002241
    31  H   -0.018582  -0.010607  -0.000756   0.005728  -0.012017  -0.001342
               7          8          9         10         11         12
     1  C    0.328022   0.153351  -1.625634  -0.093907   0.230372   0.397222
     2  C   -0.014376   0.004009   0.022154  -0.003141   0.003077  -0.175227
     3  O    0.002487   0.014664   0.282936  -0.078459   0.099972  -0.013729
     4  C   -0.007819   0.003183   0.248931   0.013154  -0.031329  -0.075121
     5  C   -0.369830  -0.082682   0.736576   0.061374  -0.086447  -0.568175
     6  O   -0.062743  -0.022172   0.268251  -0.005660  -0.004984  -0.023080
     7  C    7.649947   0.098490  -1.769133  -0.254273   0.189300  -0.077557
     8  C    0.098490   5.695220  -0.376638  -0.044218   0.016372  -0.005731
     9  C   -1.769133  -0.376638   8.356074   0.459556  -0.560019  -0.196809
    10  C   -0.254273  -0.044218   0.459556   5.695545  -0.105541  -0.002130
    11  C    0.189300   0.016372  -0.560019  -0.105541   5.600418   0.002602
    12  C   -0.077557  -0.005731  -0.196809  -0.002130   0.002602   6.339214
    13  O    0.007193   0.000464  -0.002724  -0.000144   0.000181  -0.007985
    14  H    0.017731   0.002790  -0.096512  -0.010678   0.015139   0.025423
    15  H    0.000042   0.000248  -0.005118  -0.000154   0.000241  -0.102999
    16  H   -0.000391  -0.000439  -0.000861  -0.000031   0.000274   0.021008
    17  H    0.006466  -0.000649  -0.022270   0.001968  -0.000396   0.009364
    18  H   -0.000589   0.003194  -0.007354  -0.000802   0.000056  -0.039617
    19  H    0.030476   0.005549  -0.022921  -0.001095   0.000770   0.025688
    20  H    0.004071  -0.000693  -0.000387  -0.000259   0.002544  -0.024956
    21  H    0.407611  -0.046723   0.009074  -0.005341   0.007184  -0.000667
    22  H    0.514049   0.002261  -0.138205  -0.015452   0.013586   0.001104
    23  H   -0.066274   0.511145   0.006992  -0.061294   0.002323   0.000672
    24  H   -0.033153   0.438570  -0.008406  -0.031494   0.007599  -0.000449
    25  H   -0.142923  -0.024507   0.530162   0.030474  -0.055151   0.004401
    26  H   -0.011469  -0.044725   0.010085   0.441685  -0.037031   0.000060
    27  H    0.003198  -0.026683  -0.006946   0.492988  -0.086967   0.000007
    28  H   -0.008874   0.012366  -0.003234  -0.021758   0.428479  -0.000133
    29  H    0.039695   0.001723  -0.026966  -0.062205   0.463092  -0.001413
    30  H    0.001065  -0.000868   0.005801   0.000586   0.000292   0.491318
    31  H   -0.001718  -0.000221   0.002472   0.000325  -0.001376   0.397208
              13         14         15         16         17         18
     1  C   -0.047314   0.673207   0.059112  -0.019992   0.034650  -0.058429
     2  C    0.105665  -0.007592   0.516113   0.417380   0.010655   0.032368
     3  O   -0.000367   0.001633   0.000002   0.000168   0.000494   0.000352
     4  C    0.105337  -0.110955  -0.035403   0.024114   0.377768   0.456221
     5  C   -0.009428  -0.118225  -0.032162  -0.017852  -0.015397  -0.000598
     6  O    0.026009  -0.045365  -0.000281   0.001770  -0.008109   0.014238
     7  C    0.007193   0.017731   0.000042  -0.000391   0.006466  -0.000589
     8  C    0.000464   0.002790   0.000248  -0.000439  -0.000649   0.003194
     9  C   -0.002724  -0.096512  -0.005118  -0.000861  -0.022270  -0.007354
    10  C   -0.000144  -0.010678  -0.000154  -0.000031   0.001968  -0.000802
    11  C    0.000181   0.015139   0.000241   0.000274  -0.000396   0.000056
    12  C   -0.007985   0.025423  -0.102999   0.021008   0.009364  -0.039617
    13  O    8.379381   0.004879  -0.070154  -0.078009  -0.071803  -0.042905
    14  H    0.004879   0.471538   0.001476   0.000627   0.003524  -0.008096
    15  H   -0.070154   0.001476   0.525943  -0.027683  -0.001634   0.009729
    16  H   -0.078009   0.000627  -0.027683   0.509129   0.000576  -0.004292
    17  H   -0.071803   0.003524  -0.001634   0.000576   0.481664  -0.007238
    18  H   -0.042905  -0.008096   0.009729  -0.004292  -0.007238   0.471926
    19  H   -0.004381   0.003382  -0.003077   0.001323   0.003395  -0.001652
    20  H    0.000136  -0.007049   0.000913  -0.001918  -0.000436   0.001239
    21  H    0.000181  -0.000142   0.000021  -0.000088  -0.000350  -0.000046
    22  H   -0.000087  -0.000815  -0.000032   0.000088   0.000158   0.000053
    23  H   -0.000094  -0.000584  -0.000070   0.000117  -0.002279   0.000037
    24  H    0.000067   0.000677   0.000010  -0.000024   0.000361   0.000093
    25  H    0.001659  -0.002937   0.000134   0.000033  -0.002359   0.001690
    26  H    0.000017   0.000376   0.000005  -0.000007  -0.000008   0.000023
    27  H   -0.000021   0.000124  -0.000002   0.000003   0.000050  -0.000066
    28  H   -0.000001   0.000004   0.000007  -0.000003   0.000194   0.000010
    29  H   -0.000081  -0.010325  -0.000079   0.000036  -0.001835   0.000897
    30  H    0.001558  -0.009048  -0.016302   0.009371  -0.001363  -0.007046
    31  H    0.010407  -0.001878   0.002808  -0.013218   0.001430  -0.000300
              19         20         21         22         23         24
     1  C   -0.034608  -0.063951  -0.012940   0.007629  -0.013005   0.010004
     2  C   -0.039122  -0.003613   0.000852  -0.000471  -0.000015  -0.000002
     3  O   -0.001143   0.011636   0.009079  -0.006826   0.001357  -0.004744
     4  C   -0.016361   0.013756  -0.004169   0.001482  -0.000185  -0.000729
     5  C    0.413573   0.446296   0.011847  -0.003057   0.007609  -0.005141
     6  O   -0.002537  -0.000231  -0.006172   0.008970  -0.002495   0.000501
     7  C    0.030476   0.004071   0.407611   0.514049  -0.066274  -0.033153
     8  C    0.005549  -0.000693  -0.046723   0.002261   0.511145   0.438570
     9  C   -0.022921  -0.000387   0.009074  -0.138205   0.006992  -0.008406
    10  C   -0.001095  -0.000259  -0.005341  -0.015452  -0.061294  -0.031494
    11  C    0.000770   0.002544   0.007184   0.013586   0.002323   0.007599
    12  C    0.025688  -0.024956  -0.000667   0.001104   0.000672  -0.000449
    13  O   -0.004381   0.000136   0.000181  -0.000087  -0.000094   0.000067
    14  H    0.003382  -0.007049  -0.000142  -0.000815  -0.000584   0.000677
    15  H   -0.003077   0.000913   0.000021  -0.000032  -0.000070   0.000010
    16  H    0.001323  -0.001918  -0.000088   0.000088   0.000117  -0.000024
    17  H    0.003395  -0.000436  -0.000350   0.000158  -0.002279   0.000361
    18  H   -0.001652   0.001239  -0.000046   0.000053   0.000037   0.000093
    19  H    0.468570  -0.017438  -0.001238   0.001531  -0.000238   0.000156
    20  H   -0.017438   0.461359   0.000206  -0.000142   0.000070  -0.000048
    21  H   -0.001238   0.000206   0.470636  -0.003204  -0.000038  -0.011163
    22  H    0.001531  -0.000142  -0.003204   0.451063   0.002194  -0.003948
    23  H   -0.000238   0.000070  -0.000038   0.002194   0.460382  -0.008606
    24  H    0.000156  -0.000048  -0.011163  -0.003948  -0.008606   0.471296
    25  H   -0.010000  -0.013247  -0.011717  -0.017645  -0.002471   0.003103
    26  H    0.000010  -0.000127   0.001102  -0.002290  -0.002724  -0.008221
    27  H   -0.000157   0.000085  -0.001358  -0.002937   0.000151  -0.000664
    28  H   -0.000037  -0.000475   0.000869   0.000809  -0.001581   0.000934
    29  H   -0.000446   0.000647  -0.000624  -0.000804  -0.002009  -0.000765
    30  H   -0.000561  -0.002284  -0.000033   0.000144   0.000108  -0.000030
    31  H   -0.001207  -0.009839   0.000073  -0.000129  -0.000036   0.000009
              25         26         27         28         29         30
     1  C   -0.089112   0.001821  -0.003276   0.002217  -0.021817  -0.071074
     2  C    0.005575   0.000039  -0.000036  -0.000152   0.000913  -0.074758
     3  O   -0.075349   0.009404  -0.002309  -0.066529  -0.031879  -0.000074
     4  C    0.007257  -0.001506   0.000668   0.001283   0.012661   0.007689
     5  C    0.078068   0.002622  -0.001418   0.005207  -0.005367   0.008488
     6  O   -0.019033   0.001259  -0.000821   0.002222   0.007078   0.002241
     7  C   -0.142923  -0.011469   0.003198  -0.008874   0.039695   0.001065
     8  C   -0.024507  -0.044725  -0.026683   0.012366   0.001723  -0.000868
     9  C    0.530162   0.010085  -0.006946  -0.003234  -0.026966   0.005801
    10  C    0.030474   0.441685   0.492988  -0.021758  -0.062205   0.000586
    11  C   -0.055151  -0.037031  -0.086967   0.428479   0.463092   0.000292
    12  C    0.004401   0.000060   0.000007  -0.000133  -0.001413   0.491318
    13  O    0.001659   0.000017  -0.000021  -0.000001  -0.000081   0.001558
    14  H   -0.002937   0.000376   0.000124   0.000004  -0.010325  -0.009048
    15  H    0.000134   0.000005  -0.000002   0.000007  -0.000079  -0.016302
    16  H    0.000033  -0.000007   0.000003  -0.000003   0.000036   0.009371
    17  H   -0.002359  -0.000008   0.000050   0.000194  -0.001835  -0.001363
    18  H    0.001690   0.000023  -0.000066   0.000010   0.000897  -0.007046
    19  H   -0.010000   0.000010  -0.000157  -0.000037  -0.000446  -0.000561
    20  H   -0.013247  -0.000127   0.000085  -0.000475   0.000647  -0.002284
    21  H   -0.011717   0.001102  -0.001358   0.000869  -0.000624  -0.000033
    22  H   -0.017645  -0.002290  -0.002937   0.000809  -0.000804   0.000144
    23  H   -0.002471  -0.002724   0.000151  -0.001581  -0.002009   0.000108
    24  H    0.003103  -0.008221  -0.000664   0.000934  -0.000765  -0.000030
    25  H    0.513117   0.001105   0.000989  -0.000861   0.002078  -0.000439
    26  H    0.001105   0.487978  -0.011666  -0.010253   0.000046  -0.000029
    27  H    0.000989  -0.011666   0.482270  -0.004969   0.004111   0.000008
    28  H   -0.000861  -0.010253  -0.004969   0.477243  -0.012458  -0.000007
    29  H    0.002078   0.000046   0.004111  -0.012458   0.507215   0.000360
    30  H   -0.000439  -0.000029   0.000008  -0.000007   0.000360   0.474579
    31  H    0.003745   0.000013  -0.000004   0.000016   0.000003  -0.012168
              31
     1  C   -0.018582
     2  C   -0.010607
     3  O   -0.000756
     4  C    0.005728
     5  C   -0.012017
     6  O   -0.001342
     7  C   -0.001718
     8  C   -0.000221
     9  C    0.002472
    10  C    0.000325
    11  C   -0.001376
    12  C    0.397208
    13  O    0.010407
    14  H   -0.001878
    15  H    0.002808
    16  H   -0.013218
    17  H    0.001430
    18  H   -0.000300
    19  H   -0.001207
    20  H   -0.009839
    21  H    0.000073
    22  H   -0.000129
    23  H   -0.000036
    24  H    0.000009
    25  H    0.003745
    26  H    0.000013
    27  H   -0.000004
    28  H    0.000016
    29  H    0.000003
    30  H   -0.012168
    31  H    0.498069
 Mulliken charges:
               1
     1  C   -0.018536
     2  C   -0.254737
     3  O   -0.276086
     4  C   -0.381492
     5  C   -0.148321
     6  O   -0.277198
     7  C   -0.478722
     8  C   -0.286651
     9  C   -0.068927
    10  C   -0.399618
    11  C   -0.114632
    12  C   -0.399511
    13  O   -0.307639
    14  H    0.207673
    15  H    0.178345
    16  H    0.178791
    17  H    0.203410
    18  H    0.186909
    19  H    0.203799
    20  H    0.204130
    21  H    0.187276
    22  H    0.190922
    23  H    0.170839
    24  H    0.184207
    25  H    0.284161
    26  H    0.172406
    27  H    0.165649
    28  H    0.199466
    29  H    0.138517
    30  H    0.192477
    31  H    0.163092
 Sum of Mulliken charges =  -0.00000
 Mulliken charges with hydrogens summed into heavy atoms:
               1
     1  C    0.189137
     2  C    0.102398
     3  O   -0.276086
     4  C    0.008827
     5  C    0.259608
     6  O   -0.277198
     7  C   -0.100524
     8  C    0.068396
     9  C    0.215234
    10  C   -0.061563
    11  C    0.223351
    12  C   -0.043943
    13  O   -0.307639
 Electronic spatial extent (au):  <R**2>=           3042.2447
 Charge=              0.0000 electrons
 Dipole moment (field-independent basis, Debye):
    X=             -0.2010    Y=              1.6148    Z=             -0.7383  Tot=              1.7869
 Quadrupole moment (field-independent basis, Debye-Ang):
   XX=            -71.5775   YY=            -85.8130   ZZ=            -75.4690
   XY=              8.4021   XZ=              0.6706   YZ=             -0.8802
 Traceless Quadrupole moment (field-independent basis, Debye-Ang):
   XX=              6.0423   YY=             -8.1932   ZZ=              2.1508
   XY=              8.4021   XZ=              0.6706   YZ=             -0.8802
 Octapole moment (field-independent basis, Debye-Ang**2):
  XXX=              2.8405  YYY=              1.6395  ZZZ=              0.0014  XYY=             -6.3840
  XXY=             17.5697  XXZ=             -2.3740  XZZ=              3.3685  YZZ=             -0.4812
  YYZ=             -3.6851  XYZ=              6.8245
 Hexadecapole moment (field-independent basis, Debye-Ang**3):
 XXXX=          -3027.6414 YYYY=           -538.1848 ZZZZ=           -358.7090 XXXY=             39.9736
 XXXZ=             23.3773 YYYX=              5.4994 YYYZ=             -1.7915 ZZZX=             -1.3124
 ZZZY=              2.1725 XXYY=           -647.4096 XXZZ=           -560.9524 YYZZ=           -145.7882
 XXYZ=             -8.0390 YYXZ=              5.8297 ZZXY=             -7.2411
 N-N= 8.966859543504D+02 E-N=-3.235375586572D+03  KE= 6.153335091430D+02
 D1PCM: PCM CHGder 1st derivatives, ID1Alg=3 FixD1E=F DoIter=F DoCFld=F I1PDM=0.
 Calling FoFJK, ICntrl=      2127 FMM=F ISym2X=0 I1Cent= 0 IOpClX= 0 NMat=1 NMatS=1 NMatT=0.
 ***** Axes restored to original set *****
 -------------------------------------------------------------------
 Center     Atomic                   Forces (Hartrees/Bohr)
 Number     Number              X              Y              Z
 -------------------------------------------------------------------
      1        6          -0.003787737   -0.005073400   -0.001704150
      2        6          -0.005117709   -0.002959285    0.002482673
      3        8           0.002240877   -0.010584285   -0.004377297
      4        6           0.002579984   -0.004670462   -0.004462867
      5        6           0.003591540    0.003346741    0.003360936
      6        8           0.002224061    0.015291631   -0.001665757
      7        6           0.000259726    0.000637130    0.002818352
      8        6           0.001260454   -0.003532516   -0.000966090
      9        6          -0.005475338    0.000501587    0.009224598
     10        6           0.002366745    0.001302086    0.000906501
     11        6          -0.001493763    0.005063797   -0.004306078
     12        6          -0.000737820    0.001699720   -0.001479573
     13        8          -0.001564055    0.008065498   -0.004632663
     14        1          -0.001037601   -0.005111188    0.004511412
     15        1           0.004135588   -0.000935527    0.003539018
     16        1           0.001370608    0.000779393   -0.004511066
     17        1          -0.003560741    0.003584319    0.000641906
     18        1           0.002032293   -0.002820063    0.005317759
     19        1          -0.000347539    0.003428221   -0.003127431
     20        1          -0.002364803   -0.002772104   -0.000185494
     21        1           0.001534129    0.002672147   -0.000720491
     22        1          -0.001710436   -0.001861476   -0.002253236
     23        1           0.002569575    0.001066831    0.002353244
     24        1          -0.001995392    0.001371830   -0.000921191
     25        1           0.003687060   -0.003711588   -0.006743448
     26        1          -0.001745655    0.000692524    0.002142178
     27        1          -0.001333080   -0.001665073   -0.002559135
     28        1          -0.001515603   -0.003989358    0.001060673
     29        1           0.003059825    0.003467218    0.004594752
     30        1          -0.000334699   -0.001303580    0.003280213
     31        1           0.001209506   -0.001980772   -0.001618247
 -------------------------------------------------------------------
 Cartesian Forces:  Max     0.015291631 RMS     0.003668531

 GradGradGradGradGradGradGradGradGradGradGradGradGradGradGradGradGradGrad
 Berny optimization.
 FormGI is forming the generalized inverse of G from B-inverse, IUseBI=4.
 Internal  Forces:  Max     0.015546696 RMS     0.002191438
 Search for a local minimum.
 Step number   1 out of a maximum of  186
 All quantities printed in internal units (Hartrees-Bohrs-Radians)
 Mixed Optimization -- RFO/linear search
 Second derivative matrix not updated -- first step.
 ITU=  0
     Eigenvalues ---    0.00426   0.00614   0.00621   0.00725   0.01410
     Eigenvalues ---    0.01455   0.01743   0.02699   0.02768   0.03073
     Eigenvalues ---    0.03368   0.04083   0.04086   0.04562   0.04751
     Eigenvalues ---    0.04754   0.04889   0.04917   0.05075   0.05141
     Eigenvalues ---    0.05270   0.05614   0.05683   0.06010   0.06177
     Eigenvalues ---    0.06211   0.06648   0.07028   0.07613   0.07624
     Eigenvalues ---    0.07819   0.07865   0.07965   0.08076   0.08252
     Eigenvalues ---    0.08834   0.09233   0.10217   0.11158   0.11602
     Eigenvalues ---    0.11673   0.11763   0.11768   0.12398   0.12700
     Eigenvalues ---    0.14728   0.14826   0.16485   0.17887   0.19141
     Eigenvalues ---    0.19940   0.21947   0.22546   0.25000   0.27114
     Eigenvalues ---    0.27584   0.28533   0.28648   0.28872   0.28937
     Eigenvalues ---    0.29408   0.30326   0.35091   0.35206   0.35207
     Eigenvalues ---    0.35238   0.35252   0.35287   0.35312   0.35346
     Eigenvalues ---    0.35360   0.35372   0.35416   0.35432   0.35466
     Eigenvalues ---    0.35621   0.35781   0.35835   0.35961   0.36314
     Eigenvalues ---    0.40200   0.40847   0.41675   0.41805   0.43189
     Eigenvalues ---    0.462741000.000001000.000001000.000001000.00000
     Eigenvalues --- 1000.000001000.000001000.000001000.000001000.00000
     Eigenvalues --- 1000.000001000.000001000.000001000.000001000.00000
     Eigenvalues --- 1000.000001000.000001000.000001000.000001000.00000
     Eigenvalues --- 1000.000001000.000001000.000001000.000001000.00000
     Eigenvalues --- 1000.000001000.000001000.000001000.000001000.00000
     Eigenvalues --- 1000.000001000.000001000.000001000.000001000.00000
     Eigenvalues --- 1000.000001000.000001000.000001000.000001000.00000
     Eigenvalues --- 1000.000001000.000001000.000001000.000001000.00000
     Eigenvalues --- 1000.000001000.000001000.000001000.000001000.00000
     Eigenvalues --- 1000.000001000.000001000.000001000.000001000.00000
     Eigenvalues --- 1000.000001000.000001000.000001000.000001000.00000
     Eigenvalues --- 1000.000001000.000001000.000001000.000001000.00000
     Eigenvalues --- 1000.000001000.000001000.000001000.000001000.00000
     Eigenvalues --- 1000.000001000.000001000.000001000.000001000.00000
     Eigenvalues --- 1000.000001000.000001000.000001000.000001000.00000
     Eigenvalues --- 1000.000001000.000001000.000001000.000001000.00000
     Eigenvalues --- 1000.000001000.000001000.000001000.000001000.00000
     Eigenvalues --- 1000.000001000.000001000.000001000.000001000.00000
     Eigenvalues --- 1000.000001000.000001000.000001000.000001000.00000
 RFO step:  Lambda=-3.79625051D-03 EMin= 4.26395425D-03
 Linear search not attempted -- first point.
 Iteration  1 RMS(Cart)=  0.05981717 RMS(Int)=  0.00070845
 Iteration  2 RMS(Cart)=  0.00240745 RMS(Int)=  0.00005233
 Iteration  3 RMS(Cart)=  0.00000171 RMS(Int)=  0.00005232
 Iteration  4 RMS(Cart)=  0.00000000 RMS(Int)=  0.00005232
 Iteration  1 RMS(Cart)=  0.00000365 RMS(Int)=  0.00000083
 Iteration  2 RMS(Cart)=  0.00000202 RMS(Int)=  0.00000092
 Iteration  3 RMS(Cart)=  0.00000112 RMS(Int)=  0.00000105
 Iteration  4 RMS(Cart)=  0.00000062 RMS(Int)=  0.00000113
 Variable       Old X    -DE/DX   Delta X   Delta X   Delta X     New X
                                 (Linear)    (Quad)   (Total)
    R1        2.89040   0.00007   0.00000  -0.00066  -0.00063   2.88977
    R2        2.89623  -0.00160   0.00000  -0.00786  -0.00785   2.88838
    R3        2.69172   0.00038   0.00000   0.00089   0.00089   2.69262
    R4        2.05075   0.00677   0.00000   0.01893   0.01893   2.06968
    R5        2.89644   0.00033   0.00000   0.00279   0.00276   2.89921
    R6        2.68373   0.00316   0.00000   0.00956   0.00955   2.69328
    R7        2.05211   0.00542   0.00000   0.01520   0.01520   2.06731
    R8        2.04425   0.00475   0.00000   0.01313   0.01313   2.05738
    R9        2.65625   0.00380   0.00000   0.00813   0.00814   2.66440
   R10        2.68640   0.00300   0.00000   0.00686   0.00687   2.69327
   R11        2.66450   0.00280   0.00000   0.00674   0.00675   2.67125
   R12        2.04143   0.00490   0.00000   0.01350   0.01350   2.05492
   R13        2.05117   0.00626   0.00000   0.01752   0.01752   2.06870
   R14        2.88885  -0.00046   0.00000  -0.00335  -0.00336   2.88549
   R15        2.05094   0.00439   0.00000   0.01230   0.01230   2.06324
   R16        2.04679   0.00354   0.00000   0.00982   0.00982   2.05661
   R17        2.63823   0.00264   0.00000   0.00566   0.00566   2.64389
   R18        2.89006  -0.00143   0.00000  -0.00458  -0.00459   2.88547
   R19        2.87497  -0.00064   0.00000  -0.00232  -0.00234   2.87263
   R20        2.04980   0.00315   0.00000   0.00879   0.00879   2.05858
   R21        2.05340   0.00333   0.00000   0.00936   0.00936   2.06276
   R22        2.88898  -0.00076   0.00000  -0.00207  -0.00208   2.88690
   R23        2.05341   0.00344   0.00000   0.00966   0.00966   2.06307
   R24        2.05171   0.00259   0.00000   0.00725   0.00725   2.05896
   R25        2.03594   0.00846   0.00000   0.02307   0.02307   2.05901
   R26        2.87144   0.00012   0.00000   0.00059   0.00060   2.87204
   R27        2.05290   0.00282   0.00000   0.00793   0.00793   2.06083
   R28        2.05528   0.00326   0.00000   0.00919   0.00919   2.06447
   R29        2.04340   0.00439   0.00000   0.01213   0.01213   2.05553
   R30        2.05004   0.00642   0.00000   0.01792   0.01792   2.06796
   R31        2.05268   0.00349   0.00000   0.00980   0.00980   2.06248
   R32        2.04924   0.00280   0.00000   0.00781   0.00781   2.05706
    A1        1.92207  -0.00013   0.00000  -0.00628  -0.00645   1.91562
    A2        1.87978  -0.00053   0.00000  -0.00034  -0.00049   1.87929
    A3        1.88496   0.00054   0.00000   0.01204   0.01205   1.89701
    A4        2.00128  -0.00077   0.00000  -0.01471  -0.01471   1.98657
    A5        1.89866  -0.00014   0.00000  -0.00238  -0.00230   1.89635
    A6        1.87342   0.00113   0.00000   0.01377   0.01371   1.88713
    A7        1.94844   0.00146   0.00000   0.00497   0.00484   1.95328
    A8        1.93932  -0.00106   0.00000  -0.00580  -0.00583   1.93349
    A9        1.93269  -0.00081   0.00000  -0.00636  -0.00631   1.92637
   A10        1.90470   0.00068   0.00000   0.00780   0.00788   1.91258
   A11        1.84364  -0.00082   0.00000  -0.00223  -0.00221   1.84142
   A12        1.89182   0.00057   0.00000   0.00196   0.00191   1.89373
   A13        2.02164  -0.00575   0.00000  -0.03641  -0.03630   1.98533
   A14        1.94312   0.00098   0.00000   0.00064   0.00050   1.94362
   A15        1.92649  -0.00156   0.00000  -0.01527  -0.01526   1.91124
   A16        1.92136  -0.00085   0.00000  -0.00135  -0.00138   1.91998
   A17        1.87201  -0.00065   0.00000  -0.00072  -0.00076   1.87125
   A18        1.90958   0.00138   0.00000   0.01311   0.01315   1.92273
   A19        1.88989   0.00073   0.00000   0.00392   0.00386   1.89376
   A20        1.89300  -0.00020   0.00000  -0.00606  -0.00623   1.88677
   A21        1.92075  -0.00017   0.00000  -0.00839  -0.00836   1.91240
   A22        1.93545  -0.00081   0.00000  -0.00359  -0.00351   1.93195
   A23        1.89652   0.00070   0.00000   0.00219   0.00217   1.89870
   A24        1.93839   0.00022   0.00000   0.00937   0.00939   1.94778
   A25        1.87948   0.00030   0.00000   0.00652   0.00645   1.88593
   A26        2.08815  -0.01555   0.00000  -0.06126  -0.06126   2.02689
   A27        1.95544  -0.00168   0.00000  -0.01450  -0.01462   1.94082
   A28        1.94698  -0.00027   0.00000  -0.00131  -0.00140   1.94558
   A29        1.91067   0.00121   0.00000   0.00731   0.00739   1.91806
   A30        1.90092   0.00078   0.00000  -0.00025  -0.00023   1.90068
   A31        1.87150   0.00004   0.00000   0.00310   0.00310   1.87460
   A32        1.87510  -0.00001   0.00000   0.00670   0.00667   1.88176
   A33        1.91509   0.00190   0.00000  -0.00135  -0.00135   1.91375
   A34        1.92220  -0.00099   0.00000  -0.00648  -0.00649   1.91571
   A35        1.91574  -0.00053   0.00000   0.00160   0.00159   1.91734
   A36        1.91369  -0.00082   0.00000  -0.00165  -0.00174   1.91196
   A37        1.92994  -0.00027   0.00000   0.00187   0.00193   1.93186
   A38        1.86672   0.00065   0.00000   0.00611   0.00611   1.87283
   A39        1.94108   0.00022   0.00000  -0.00291  -0.00276   1.93832
   A40        1.94458   0.00339   0.00000   0.01321   0.01304   1.95761
   A41        1.83093  -0.00244   0.00000  -0.01323  -0.01325   1.81768
   A42        1.89032  -0.00311   0.00000  -0.01460  -0.01452   1.87581
   A43        1.92876   0.00174   0.00000   0.01204   0.01204   1.94079
   A44        1.92837   0.00035   0.00000   0.00631   0.00638   1.93475
   A45        1.92360  -0.00097   0.00000  -0.00511  -0.00530   1.91829
   A46        1.93865  -0.00053   0.00000  -0.00174  -0.00171   1.93694
   A47        1.91654   0.00093   0.00000   0.00177   0.00185   1.91839
   A48        1.90317   0.00060   0.00000   0.00357   0.00362   1.90679
   A49        1.90535   0.00001   0.00000  -0.00161  -0.00156   1.90379
   A50        1.87565  -0.00001   0.00000   0.00334   0.00331   1.87896
   A51        1.94410   0.00234   0.00000   0.00615   0.00610   1.95020
   A52        1.84251  -0.00134   0.00000  -0.00214  -0.00215   1.84036
   A53        1.90978   0.00020   0.00000   0.00188   0.00194   1.91172
   A54        1.94598  -0.00025   0.00000  -0.00189  -0.00183   1.94415
   A55        1.93128  -0.00168   0.00000  -0.00778  -0.00782   1.92346
   A56        1.88730   0.00075   0.00000   0.00414   0.00412   1.89142
   A57        1.91116  -0.00037   0.00000  -0.00979  -0.00989   1.90127
   A58        1.92954   0.00078   0.00000   0.00377   0.00374   1.93328
   A59        1.90701  -0.00025   0.00000   0.00418   0.00421   1.91122
   A60        1.91567  -0.00071   0.00000  -0.00345  -0.00346   1.91222
   A61        1.93435   0.00057   0.00000   0.00328   0.00335   1.93770
   A62        1.86583  -0.00000   0.00000   0.00246   0.00244   1.86827
   A63        1.97345  -0.00422   0.00000  -0.02697  -0.02698   1.94647
    D1        0.48173   0.00114   0.00000   0.00708   0.00710   0.48883
    D2        2.55873  -0.00007   0.00000  -0.00338  -0.00336   2.55536
    D3       -1.63908  -0.00068   0.00000  -0.00900  -0.00896  -1.64803
    D4       -1.71212   0.00254   0.00000   0.02984   0.02987  -1.68226
    D5        0.36487   0.00134   0.00000   0.01939   0.01941   0.38428
    D6        2.45025   0.00073   0.00000   0.01376   0.01381   2.46407
    D7        2.55282   0.00122   0.00000   0.00779   0.00776   2.56059
    D8       -1.65337   0.00001   0.00000  -0.00267  -0.00270  -1.65606
    D9        0.43202  -0.00060   0.00000  -0.00829  -0.00829   0.42373
[...]
 83,-0.00020709,0.00017914,0.00063939,-0.00025760,0.00010696,0.00017337
 ,-0.00034062,0.00041052,-0.00001745,0.00001759,0.00007808,-0.00000467,
 -0.00001589,0.00002674,0.00000003,0.00006304,0.00015538,0.00011379,-0.
 00013794,-0.00002493,-0.00003780,-0.00003688,-0.00050387,0.00093125,-0
 .00017468,0.00057419,-0.00021313,0.00065943,-0.00035600,0.00002408,0.0
 0053878,-0.00036686,0.00063973,-0.00005656,0.00010574,0.00013804,-0.00
 046630,0.00011811,0.00041016,-0.11668562,0.06327644,0.24780437,0.00028
 501,-0.00009490,0.00012596,0.00001824,0.00000476,-0.00000811,-0.006476
 86,0.00374587,0.00060346,0.00003179,0.00005478,-0.00001506,-0.00006538
 ,0.00003665,-0.00002580,-0.00054770,-0.00033910,-0.00023862,0.00074217
 ,-0.00205548,-0.00010757,-0.00543396,0.00064000,0.00670743,0.00135356,
 0.00171943,-0.00077313,-0.12427738,0.01902782,0.11650946,-0.01149660,0
 .00047717,0.02336008,0.00000511,-0.00001916,0.00002705,-0.00005789,-0.
 00001907,0.00001382,-0.00001531,0.00003937,-0.00000507,-0.00001006,-0.
 00000782,-0.00000522,-0.00000478,-0.00000067,0.00000434,-0.00000008,-0
 .00000224,0.00000369,-0.00002974,-0.00000781,-0.00001222,0.00000371,0.
 00000230,-0.00000948,0.00002742,-0.00005891,-0.00001232,-0.00009671,0.
 00021662,0.00045913,-0.00007666,0.00011361,0.00029469,0.00008790,0.000
 29584,-0.00011268,0.00039035,-0.00018966,-0.00028747,-0.00002340,-0.00
 016163,0.00008392,0.13311255,-0.00007711,-0.00005294,-0.00003192,-0.00
 000025,-0.00000432,0.00000473,0.00639514,-0.00152832,-0.00068812,-0.00
 002395,0.00000585,-0.00000718,0.00001108,-0.00002340,0.00000274,0.0001
 3740,0.00047718,-0.00002112,-0.00145412,-0.00608161,0.00150845,-0.0173
 7339,0.00503678,0.02615544,-0.00011956,-0.00215570,0.00076570,0.019851
 89,-0.05141521,-0.02961743,0.00624307,-0.00166791,-0.01724320,0.000002
 47,0.00002443,-0.00001387,0.00001448,0.00000722,-0.00000254,-0.0000151
 0,0.00000105,-0.00002478,0.00000331,0.00000369,0.00000135,0.00000145,0
 .00000067,-0.00000129,0.00000537,0.00000222,0.00000348,0.00000343,-0.0
 0000256,-0.00000009,0.00000736,0.00000548,-0.00000298,-0.00002120,0.00
 003970,0.00001635,-0.00130287,0.00027705,0.00146518,0.00016349,0.00001
 834,0.00004056,0.00031018,0.00133040,-0.00078811,0.00081687,0.00123950
 ,-0.00051420,-0.00002782,0.00028544,-0.00019722,-0.02070816,0.05593713
 ,-0.00011593,0.00007197,-0.00002956,-0.00001410,0.00000363,0.00000241,
 -0.00159257,0.00126428,0.00165158,-0.00001322,-0.00003318,0.00000795,0
 .00002549,-0.00000363,0.00002024,0.00026985,-0.00010819,0.00010574,0.0
 0050402,0.00314784,0.00061257,0.00492877,-0.00221122,-0.00906764,-0.00
 074791,0.00042017,-0.00024767,0.11870500,-0.02952013,-0.23482758,-0.00
 408758,0.00026952,0.00562096,-0.00000306,-0.00000601,-0.00000889,0.000
 03254,0.00000897,-0.00001021,0.00000785,-0.00001311,0.00000781,0.00000
 407,0.00000141,0.00000226,0.00000222,-0.00000026,-0.00000208,-0.000001
 48,0.00000003,-0.00000307,0.00001608,0.00000629,0.00000677,-0.00000621
 ,-0.00000496,0.00000195,0.00000158,0.00000471,-0.00000375,0.00082670,-
 0.00026075,-0.00051299,-0.00027499,0.00002282,0.00034555,-0.00003654,0
 .00017400,0.00074884,-0.00036610,-0.00011068,-0.00000387,0.00002715,-0
 .00016033,0.00003154,-0.13049381,0.03041133,0.25218713,0.00012179,0.00
 000372,-0.00003734,0.00001874,-0.00000732,-0.00000314,0.00275298,-0.00
 073514,0.00072615,0.00003480,0.00002615,0.00003041,-0.00001020,-0.0000
 1417,-0.00000216,-0.00006299,0.00001097,0.00015986,-0.00002600,0.00007
 471,-0.00065665,-0.00539818,-0.00447351,-0.00579580,-0.00026484,-0.000
 06514,-0.00012002,-0.13290267,-0.06972227,-0.09714660,-0.01793637,-0.0
 1195147,-0.02061678,0.00000533,0.00000671,0.00000940,-0.00005017,-0.00
 001872,0.00001618,0.00007096,-0.00003772,0.00003843,-0.00000407,-0.000
 00017,-0.00000221,-0.00000284,0.00000049,0.00000218,0.00000051,-0.0000
 0305,0.00000034,-0.00000937,-0.00000210,-0.00000292,-0.00000505,0.0000
 0543,0.00000982,-0.00000406,0.00000252,0.00000265,0.00013125,0.0000698
 9,0.00015796,-0.00021185,-0.00006491,0.00036691,0.00045141,-0.00149720
 ,0.00070469,0.00054856,0.00013400,0.00039209,-0.00007035,-0.00002074,0
 .00001912,0.01105438,0.00841555,0.01123890,0.14415784,0.00004626,-0.00
 003268,0.00014010,-0.00000322,0.00000430,0.00000020,-0.00223330,0.0004
 2349,-0.00004348,-0.00000887,0.00000020,-0.00002953,-0.00003503,0.0000
 2550,-0.00002366,-0.00009645,0.00010587,-0.00011336,0.00082879,0.00111
 466,-0.00110835,-0.01771791,-0.01689665,-0.02062314,0.00004659,-0.0002
 4554,0.00020719,-0.07053100,-0.10452302,-0.08302978,0.01325691,0.00900
 277,0.01561586,-0.00000331,0.00000337,0.00000492,0.00001539,0.00001169
 ,-0.00000437,-0.00007108,0.00004679,-0.00004188,-0.00000009,-0.0000012
 8,-0.00000002,-0.00000015,-0.00000015,0.00000010,0.00000410,0.00000467
 ,0.00000329,-0.00000421,-0.00000196,-0.00000264,0.00001012,-0.00000338
 ,-0.00001143,0.00000144,-0.00000656,0.00000123,0.00039590,0.00008032,0
 .00021553,-0.00013543,0.00035848,0.00068653,-0.00191451,-0.00477305,0.
 00312625,0.00074408,0.00109714,-0.00028505,-0.00008487,0.00008874,-0.0
 0004491,-0.00195397,-0.00256246,-0.00257674,0.07645157,0.11720745,0.00
 017159,-0.00008979,0.00001879,0.00001318,-0.00000345,-0.00000305,0.000
 24459,0.00011410,0.00214404,0.00001394,0.00003523,0.00000742,-0.000017
 54,0.00000264,-0.00000264,-0.00032150,-0.00013772,-0.00003482,0.000121
 39,0.00014318,0.00118266,0.00793281,0.00596751,0.00823686,0.00021176,0
 .00050899,-0.00016352,-0.09913289,-0.08209343,-0.16655017,-0.00390098,
 -0.00353126,-0.00769740,0.00000395,-0.00000120,0.00000673,-0.00003958,
 -0.00001333,0.00001186,0.00006083,0.00000131,-0.00000124,-0.00000437,-
 0.00000169,-0.00000254,-0.00000253,0.00000031,0.00000231,0.00000305,-0
 .00000091,0.00000129,-0.00001199,-0.00000452,-0.00000536,0.00000148,0.
 00000308,0.00000043,0.00000162,-0.00000981,-0.00000003,-0.00019946,-0.
 00005380,0.00012085,-0.00036109,-0.00002268,-0.00004838,0.00128450,0.0
 0242050,0.00004846,-0.00024529,-0.00077084,0.00054115,-0.00005703,-0.0
 0007275,0.00001770,-0.01547625,-0.01155271,-0.01715455,0.11075952,0.08
 753909,0.17824596,0.00052533,-0.00015598,0.00012548,0.00003751,-0.0000
 0596,-0.00000754,-0.01020476,-0.02057730,0.01389729,0.00005887,0.00007
 450,-0.00001189,-0.00008161,-0.00001850,0.00000682,-0.00047300,-0.0002
 9267,0.00007703,-0.00041543,-0.00023616,0.00029036,-0.00522563,0.00230
 420,-0.00084706,-0.00111443,0.00322861,0.00190459,0.00917577,0.0265652
 3,-0.00858867,-0.06704284,-0.06283100,0.01556353,0.00001850,0.00000827
 ,0.00002224,-0.00009529,-0.00002636,0.00002709,0.00003093,0.00002578,-
 0.00000107,-0.00001231,-0.00000566,-0.00000669,-0.00000663,0.00000116,
 0.00000598,0.00000452,0.00000080,0.00000666,-0.00004080,-0.00001127,-0
 .00001477,-0.00000109,0.00003112,-0.00002155,0.00001182,-0.00002302,0.
 00000109,0.00022521,-0.00013952,-0.00006532,0.00006173,-0.00004011,-0.
 00005897,0.00002938,0.00005569,0.00015892,0.00046933,0.00164036,-0.000
 76953,-0.00029724,-0.00090928,0.00058524,0.00080846,-0.00097054,0.0006
 1340,0.00125575,-0.00094437,0.00015597,0.07610107,0.00024914,-0.000066
 82,0.00005446,0.00002716,-0.00000799,-0.00000602,0.00106359,0.00779969
 ,-0.00091227,0.00004478,0.00005204,0.00001587,-0.00006106,0.00000459,-
 0.00002978,-0.00028695,0.00007972,0.00031949,0.00015612,0.00015278,-0.
 00051016,0.00444133,-0.00039248,0.00046682,0.00125200,0.00173369,-0.00
 186331,-0.00530549,-0.01537371,0.00363636,-0.06846921,-0.28554753,0.07
 029852,0.00000509,0.00000052,0.00002555,-0.00007349,-0.00002349,0.0000
 2103,-0.00001269,-0.00006642,0.00005735,-0.00000864,-0.00000329,-0.000
 00450,-0.00000502,0.00000065,0.00000402,0.00000176,-0.00000306,0.00000
 366,-0.00002463,-0.00000880,-0.00000967,-0.00000174,0.00001134,0.00000
 463,0.00001162,-0.00001408,-0.00000020,-0.00011636,-0.00000186,0.00005
 635,-0.00000804,0.00002483,0.00007044,0.00002212,0.00032171,-0.0001519
 6,-0.00043721,-0.00107623,0.00073798,0.00000766,0.00008810,-0.00011688
 ,0.00017482,0.00012148,-0.00028301,-0.00001192,0.00106604,0.00016424,0
 .07025034,0.30219087,-0.00019893,0.00010938,-0.00005692,-0.00000872,-0
 .00000847,0.00000525,0.01725590,0.03106616,-0.01903830,0.00001162,-0.0
 0003959,0.00003851,0.00005179,-0.00001624,-0.00000920,0.00022444,0.000
 49442,0.00153308,0.00033703,-0.00008897,0.00001638,-0.00097449,0.00025
 839,0.00076587,0.00084650,-0.00520896,-0.00402003,0.00012693,0.0069369
 7,-0.00128942,0.01367935,0.06006514,-0.06664710,-0.00001161,0.00001030
 ,0.00000878,0.00002448,0.00000727,-0.00000455,0.00011998,-0.00010181,0
 .00003118,0.00000651,0.00000667,0.00000327,0.00000262,0.00000049,-0.00
 000319,0.00000098,-0.00000348,-0.00000485,0.00002450,0.00000567,0.0000
 1080,-0.00002257,-0.00001679,0.00004129,-0.00001117,0.00004821,0.00000
 089,-0.00014356,0.00014616,0.00004720,-0.00001020,-0.00000501,-0.00000
 831,0.00011878,0.00034303,0.00000608,0.00018486,0.00022538,0.00012950,
 0.00050461,0.00127677,-0.00075282,-0.00018278,0.00002320,0.00017088,0.
 00066367,-0.00003860,0.00011436,-0.02731014,-0.07505174,0.08045046,-0.
 00000228,-0.00076506,0.00114946,-0.00003517,0.00002407,0.00000402,0.01
 008404,0.01051659,0.02303725,-0.00009353,-0.00003625,-0.00005290,0.000
 02867,0.00019902,-0.00012614,-0.00187182,-0.00071054,0.00015960,-0.000
 13438,-0.00002112,0.00011325,0.00097946,-0.00123193,0.00070371,0.00181
 761,0.00149045,-0.00020531,-0.01684968,-0.01169237,-0.01976160,-0.1330
 1140,-0.06318262,-0.10528343,-0.00002792,0.00000204,-0.00000964,0.0000
 9634,0.00005330,-0.00003715,-0.00025424,0.00045070,-0.00023751,0.00000
 518,-0.00000087,0.00000396,0.00000506,-0.00000032,-0.00000354,0.000030
 60,0.00001186,0.00000767,0.00001225,-0.00000158,-0.00000630,0.00005363
 ,-0.00003498,-0.00004611,-0.00000589,0.00001689,0.00001613,0.00012198,
 -0.00007155,-0.00006930,-0.00007280,-0.00001039,0.00004733,0.00037291,
 0.00068579,-0.00003172,0.00009124,0.00005411,0.00035749,-0.00015529,-0
 .00012349,-0.00013499,0.00071655,-0.00029209,0.00053863,-0.00363686,0.
 00394160,-0.00120017,-0.00376978,-0.00286430,-0.00533369,0.14549941,-0
 .00027249,0.00007721,-0.00009527,0.00000110,-0.00000813,-0.00000074,0.
 00197077,0.00134140,-0.00793585,0.00004567,-0.00003191,0.00009214,0.00
 009856,-0.00002235,0.00005744,-0.00053881,0.00017134,0.00124058,0.0001
 2286,0.00005362,0.00019141,0.00019186,0.00176725,0.00032898,-0.0005012
 0,-0.00162327,0.00143074,0.01196705,0.00790882,0.01437699,-0.06214724,
 -0.09941408,-0.07496956,0.00000815,0.00000289,-0.00001855,-0.00001930,
 -0.00002587,0.00000185,0.00042111,0.00000367,-0.00002408,0.00000243,0.
 00000416,0.00000248,0.00000082,0.00000014,-0.00000079,0.00000077,-0.00
 002648,-0.00001528,0.00002453,0.00000582,0.00001436,-0.00002575,0.0000
 0302,0.00002152,-0.00002784,0.00003513,-0.00000201,-0.00006276,0.00007
 086,-0.00000767,-0.00003041,-0.00003104,-0.00006937,-0.00020491,-0.000
 05329,-0.00047950,-0.00013868,0.00006826,-0.00026324,0.00002702,0.0000
 4814,-0.00014551,-0.00093607,0.00068281,-0.00051289,0.00342268,-0.0015
 9538,0.00145788,-0.01700546,-0.01106603,-0.02043874,0.06359115,0.10165
 880,0.00036430,0.00007794,-0.00023121,0.00005758,-0.00003668,-0.000002
 71,-0.00069512,-0.01260972,-0.03695717,0.00013589,0.00005937,0.0001335
 5,-0.00000311,-0.00012522,0.00003878,0.00050616,0.00124718,0.00234343,
 0.00042908,0.00054764,-0.00014679,0.00040063,-0.00057099,-0.00010613,-
 0.00384833,-0.00596240,-0.00040768,-0.00577437,-0.00298966,-0.00323034
 ,-0.10144603,-0.07025262,-0.17102068,0.00001099,0.00005344,0.00003402,
 -0.00014248,-0.00005709,0.00005088,0.00050313,-0.00017311,0.00016197,-
 0.00000595,0.00000893,-0.00000378,-0.00000564,0.00000299,0.00000405,0.
 00001500,-0.00001989,-0.00000682,-0.00000660,-0.00000629,0.00000224,-0
 .00005937,0.00001828,0.00005693,-0.00007457,0.00008573,0.00000789,-0.0
 0012117,0.00021056,-0.00003057,0.00003527,-0.00006512,0.00007493,-0.00
 000341,0.00047317,-0.00016839,0.00009599,0.00011049,0.00018580,0.00029
 766,0.00046584,0.00001738,-0.00041921,0.00030633,0.00034478,-0.0009125
 4,0.00043810,0.00096591,0.00427461,0.00300943,0.00845247,0.10639534,0.
 08575632,0.19943859,0.00127870,0.00039492,-0.00159550,-0.00362334,-0.0
 0733715,0.01670438,-0.00002624,0.00000550,0.00011509,0.00000312,0.0001
 8751,0.00027504,-0.00151409,0.01456220,-0.03121911,0.00039456,-0.00042
 077,0.00041569,-0.00001849,0.00000690,0.00018747,-0.00003845,0.0000376
 8,-0.00003809,-0.00011954,-0.00009401,-0.00054545,0.00000526,0.0000075
 4,0.00001015,0.00001384,-0.00002841,-0.00004613,-0.04768539,0.00248158
 ,-0.00121713,0.00045697,-0.00044554,-0.00033963,-0.00021569,-0.0002192
 2,0.00047576,0.00091807,0.00038743,0.00033698,-0.00096486,-0.00370152,
 -0.00015866,-0.00000786,-0.00007572,0.00000747,0.00014498,0.00044237,0
 .00001814,-0.00621811,0.00116358,-0.00151217,0.00111369,-0.00065890,0.
 00046727,-0.00000101,0.00000777,-0.00000556,0.00001034,-0.00000730,-0.
 00000079,-0.00000022,0.00000224,0.00000515,-0.00001674,0.00000492,0.00
 001894,-0.00000807,0.00009752,0.00025159,-0.00000532,-0.00000029,0.000
 00235,0.00000075,-0.00000221,-0.00000149,-0.00000731,-0.00000177,0.000
 01343,-0.00000500,0.00000416,0.00001509,0.05595996,0.00022639,0.000004
 48,0.00087229,-0.00125602,-0.01058118,0.02709689,-0.00000900,-0.000040
 95,-0.00003979,-0.00016094,-0.00055065,0.00101459,0.00133160,-0.002427
 57,0.00405755,-0.00014578,0.00018120,-0.00025792,-0.00001027,-0.000017
 22,-0.00004336,0.00000751,-0.00000606,0.00000491,0.00006204,0.00009425
 ,0.00018016,-0.00000008,-0.00000174,-0.00000365,0.00001457,0.00000775,
 0.00000779,0.00123857,-0.09239116,0.09426781,0.00001853,-0.00128168,-0
 .00100457,0.00021654,-0.00005911,-0.00021232,0.00076588,0.00148395,-0.
 00042610,-0.00210640,-0.00380446,-0.00024591,0.00000654,0.00015493,-0.
 00020089,0.00013097,-0.00048568,-0.00069658,0.00082304,0.00069495,0.00
 041130,0.00025688,0.00012369,-0.00021513,0.00000130,-0.00000263,0.0000
 0166,-0.00000997,0.00000444,-0.00000212,0.00000094,-0.00000207,-0.0000
 0114,0.00000104,0.00000061,-0.00000220,0.00000425,-0.00002458,-0.00005
 854,0.00000043,-0.00000029,0.00000058,-0.00000135,0.00000036,-0.000000
 65,-0.00000071,-0.00000123,-0.00000192,0.00000635,-0.00000337,-0.00000
 722,-0.00018172,0.09992428,0.00070040,-0.00128148,0.00038189,0.0001681
 8,-0.00232965,0.00147209,-0.00014751,-0.00001906,0.00011338,0.00034016
 ,-0.00037963,-0.00132344,-0.00164530,0.00414255,-0.00862027,-0.0003415
 1,0.00007667,0.00000393,-0.00001118,-0.00001145,0.00006139,-0.00001359
 ,0.00001938,-0.00002449,0.00021531,0.00004530,-0.00019795,-0.00000140,
 0.00000452,0.00001387,0.00004491,-0.00001095,-0.00006300,-0.00016171,0
 .09708854,-0.26764883,-0.00045437,0.00072439,0.00076424,-0.00049256,0.
 00056863,0.00019673,0.00026927,0.00013835,0.00132623,-0.00015372,-0.00
 010676,0.00132720,-0.00000998,-0.00000984,0.00030534,0.00050440,-0.000
 67183,0.00019000,-0.00192404,-0.00025145,0.00076049,-0.00017944,-0.000
 15938,0.00010981,-0.00000238,0.00000603,-0.00000074,-0.00001155,0.0000
 0177,-0.00000445,0.00000156,-0.00000349,-0.00000019,-0.00001465,0.0000
 0385,0.00000926,-0.00006006,0.00001359,0.00012881,-0.00000897,0.000002
 26,0.00000315,-0.00000247,-0.00000098,-0.00000354,-0.00001380,-0.00000
 669,0.00001041,0.00000531,0.00000461,-0.00000005,0.00374167,-0.1055538
 7,0.28937321,-0.00379090,-0.00046611,-0.00480418,0.00771676,-0.0094391
 4,-0.00974759,-0.00035192,-0.00026310,0.00007559,-0.00116891,-0.000559
 21,-0.00006875,-0.01500831,0.01969637,0.02175613,-0.00274001,0.0018493
 2,0.00090068,-0.00004376,-0.00011481,-0.00004859,-0.00000364,0.0000193
 4,-0.00003459,0.00102262,0.00069679,0.00078859,0.00000245,0.00001096,0
 .00001757,0.00013864,0.00000739,-0.00011615,-0.10156744,0.07796288,0.0
 7683720,0.00024884,-0.00367163,-0.00052883,0.00007649,-0.00018113,0.00
 031270,-0.00113451,0.00058618,-0.00020005,0.00139169,0.00006318,-0.000
 02683,0.00013601,0.00012065,-0.00006853,0.00017845,-0.00000347,-0.0000
 3645,0.00138261,-0.00016197,-0.00022029,0.00140860,-0.00071072,0.00040
 820,0.00000491,0.00000105,0.00000787,-0.00007438,0.00002517,-0.0000277
 6,0.00000766,-0.00002117,-0.00002129,-0.00003564,0.00000470,0.00000515
 ,0.00007487,-0.00011535,-0.00006280,-0.00001937,0.00000389,0.00000889,
 -0.00000918,-0.00000279,-0.00000804,-0.00002603,-0.00001901,0.00000991
 ,0.00001110,0.00001024,-0.00001880,0.00017547,-0.00123111,-0.00034098,
 0.11199685,-0.00036116,0.00095460,0.00051474,0.01423764,-0.01569278,-0
 .01609536,0.00010130,0.00004460,-0.00002630,-0.00142116,0.00011611,0.0
 0155871,0.00095023,-0.00224223,-0.00119126,0.00024114,0.00005540,-0.00
 007392,0.00000635,0.00002090,-0.00000307,0.00000396,-0.00000663,0.0000
 0937,-0.00018025,-0.00012366,-0.00011579,-0.00000003,-0.00000182,-0.00
 000606,-0.00003862,-0.00000262,0.00003851,0.07812207,-0.15626665,-0.10
 773637,-0.00100180,-0.00685904,-0.00133027,0.00021233,-0.00006337,-0.0
 0009126,-0.00112461,-0.00051119,-0.00015924,0.00082339,0.00109918,0.00
 045966,0.00011030,0.00001066,-0.00013899,0.00001053,0.00007912,-0.0001
 9091,-0.00006578,-0.00005259,-0.00011120,0.00006970,0.00049054,0.00034
 441,0.00000022,-0.00000301,-0.00000099,0.00001388,-0.00000521,0.000004
 78,-0.00000148,0.00000370,0.00000308,0.00000859,-0.00000150,-0.0000023
 5,-0.00001115,0.00001459,-0.00000298,0.00000518,-0.00000171,-0.0000024
 6,0.00000251,0.00000027,0.00000247,0.00000781,0.00000500,-0.00000328,-
 0.00000447,-0.00000213,0.00000428,-0.00661924,0.00900674,0.00795609,-0
 .08409739,0.16993473,-0.00181184,-0.00006228,-0.00052736,-0.00056973,0
 .00253515,-0.00048713,0.00001091,-0.00001320,-0.00001222,-0.00010410,0
 .00009597,-0.00068390,-0.00580616,0.00820441,0.00779527,-0.00075194,0.
 00048753,0.00037384,0.00000794,0.00000492,-0.00002018,0.00000156,-0.00
 000069,0.00000500,0.00013879,0.00007607,0.00015198,0.00000045,0.000000
 08,-0.00000248,-0.00000276,0.00000061,0.00000663,0.07900328,-0.1102650
 1,-0.15605418,-0.00007935,0.00170057,0.00062795,-0.00016877,0.00012011
 ,0.00025542,-0.00021626,-0.00028466,0.00029545,-0.00031360,0.00037969,
 0.00115694,0.00000087,-0.00008320,0.00017863,0.00022436,-0.00010775,0.
 00033634,0.00077962,-0.00005898,0.00047579,0.00076069,-0.00013870,0.00
 033179,-0.00000021,-0.00000072,0.00000114,-0.00000121,-0.00000019,-0.0
 0000185,-0.00000089,-0.00000306,-0.00000473,-0.00000085,-0.00000235,-0
 .00000401,0.00002691,-0.00002953,-0.00004880,0.00000075,-0.00000036,-0
 .00000025,0.00000034,-0.00000048,0.00000047,0.00000072,-0.00000001,-0.
 00000196,0.00000037,0.00000176,-0.00000131,0.01361806,-0.01894164,-0.0
 1866449,-0.08474797,0.11638595,0.16452218\\0.00410080,0.00483282,-0.00
 273590,0.00003600,-0.00003313,-0.00000746,0.00000965,-0.00000919,-0.00
 003526,-0.00002575,0.00000885,0.00001851,-0.00215924,-0.00290147,0.000
 92457,-0.00406945,-0.00346567,0.00499422,0.00001003,0.00000370,0.00001
 580,-0.00001233,0.00000818,-0.00000635,0.00215191,0.00152522,-0.003216
 34,0.00000008,-0.00000323,0.00001512,-0.00002082,-0.00001318,0.0000498
 5,-0.00000957,0.00001102,-0.00000924,-0.00000886,0.00002013,0.00002060
 ,-0.00000090,0.00000856,-0.00001473,-0.00000740,0.00000224,-0.00001064
 ,-0.00000894,0.00000307,-0.00000005,-0.00000232,-0.00000676,0.00000239
 ,0.00000280,0.00000783,-0.00000811,0.00000109,0.00000394,0.00000591,0.
 00000185,0.00000547,-0.00000199,-0.00000649,0.00000087,-0.00000385,-0.
 00000131,-0.00000077,0.00000149,-0.00000104,-0.00000697,0.00000144,0.0
 0000654,0.00000068,0.00000392,-0.00000152,0.00001094,0.00001915,-0.000
 00386,-0.00001329,-0.00000719,0.00000552,-0.00000298,-0.00000369,0.000
 00708,0.00000121,0.00000153,-0.00000462,-0.00000500,-0.00001505,0.0000
 0022,0.00000231,-0.00000326,0.00001081,0.00000457,0.00000458\\\@


 THE FIRST MORNING OF CREATION WROTE WHAT THE LAST DAWN OF
 RECKONING SHALL READ. -- OMAR KHAYYAM
 Job cpu time:       0 days 14 hours 56 minutes 12.9 seconds.
 Elapsed time:       0 days  0 hours 56 minutes  2.4 seconds.
 File lengths (MBytes):  RWF=    689 Int=      0 D2E=      0 Chk=     32 Scr=      1
 Normal termination of Gaussian 16 at Sun Nov  4 22:50:58 2018.
