 Entering Gaussian System, Link 0=g16
 Initial command:
 /apps/gaussian/g16a03/g16/l1.exe "/jobfs/local/2012030.r-man2/Gau-13562.inp" -scrdir="/jobfs/local/2012030.r-man2/"
 Entering Link 1 = /apps/gaussian/g16a03/g16/l1.exe PID=     13563.
  
 Copyright (c) 1988,1990,1992,1993,1995,1998,2003,2009,2016,
            Gaussian, Inc.  All Rights Reserved.
  
 This is part of the Gaussian(R) 16 program.  It is based on
 the Gaussian(R) 09 system (copyright 2009, Gaussian, Inc.),
 the Gaussian(R) 03 system (copyright 2003, Gaussian, Inc.),
 the Gaussian(R) 98 system (copyright 1998, Gaussian, Inc.),
 the Gaussian(R) 94 system (copyright 1995, Gaussian, Inc.),
 the Gaussian 92(TM) system (copyright 1992, Gaussian, Inc.),
 the Gaussian 90(TM) system (copyright 1990, Gaussian, Inc.),
 the Gaussian 88(TM) system (copyright 1988, Gaussian, Inc.),
 the Gaussian 86(TM) system (copyright 1986, Carnegie Mellon
 University), and the Gaussian 82(TM) system (copyright 1983,
 Carnegie Mellon University). Gaussian is a federally registered
 trademark of Gaussian, Inc.
  
 This software contains proprietary and confidential information,
 including trade secrets, belonging to Gaussian, Inc.
  
 This software is provided under written license and may be
 used, copied, transmitted, or stored only in accord with that
 written license.
  
 The following legend is applicable only to US Government
 contracts under FAR:
  
                    RESTRICTED RIGHTS LEGEND
  
 Use, reproduction and disclosure by the US Government is
 subject to restrictions as set forth in subparagraphs (a)
 and (c) of the Commercial Computer Software - Restricted
 Rights clause in FAR 52.227-19.
  
 Gaussian, Inc.
 340 Quinnipiac St., Bldg. 40, Wallingford CT 06492
  
  
 ---------------------------------------------------------------
 Warning -- This program may not be used in any manner that
 competes with the business of Gaussian, Inc. or will provide
 assistance to any competitor of Gaussian, Inc.  The licensee
 of this program is prohibited from giving any competitor of
 Gaussian, Inc. access to this program.  By using this program,
 the user acknowledges that Gaussian, Inc. is engaged in the
 business of creating and licensing software in the field of
 computational chemistry and represents and warrants to the
 licensee that it is not a competitor of Gaussian, Inc. and that
 it will not use this program in any manner prohibited above.
 ---------------------------------------------------------------
  

 Cite this work as:
 Gaussian 16, Revision A.03,
 M. J. Frisch, G. W. Trucks, H. B. Schlegel, G. E. Scuseria, 
 M. A. Robb, J. R. Cheeseman, G. Scalmani, V. Barone, 
 G. A. Petersson, H. Nakatsuji, X. Li, M. Caricato, A. V. Marenich, 
 J. Bloino, B. G. Janesko, R. Gomperts, B. Mennucci, H. P. Hratchian, 
 J. V. Ortiz, A. F. Izmaylov, J. L. Sonnenberg, D. Williams-Young, 
 F. Ding, F. Lipparini, F. Egidi, J. Goings, B. Peng, A. Petrone, 
 T. Henderson, D. Ranasinghe, V. G. Zakrzewski, J. Gao, N. Rega, 
 G. Zheng, W. Liang, M. Hada, M. Ehara, K. Toyota, R. Fukuda, 
 J. Hasegawa, M. Ishida, T. Nakajima, Y. Honda, O. Kitao, H. Nakai, 
 T. Vreven, K. Throssell, J. A. Montgomery, Jr., J. E. Peralta, 
 F. Ogliaro, M. J. Bearpark, J. J. Heyd, E. N. Brothers, K. N. Kudin, 
 V. N. Staroverov, T. A. Keith, R. Kobayashi, J. Normand, 
 K. Raghavachari, A. P. Rendell, J. C. Burant, S. S. Iyengar, 
 J. Tomasi, M. Cossi, J. M. Millam, M. Klene, C. Adamo, R. Cammi, 
 J. W. Ochterski, R. L. Martin, K. Morokuma, O. Farkas, 
 J. B. Foresman, and D. J. Fox, Gaussian, Inc., Wallingford CT, 2016.
 
 ******************************************
 Gaussian 16:  ES64L-G16RevA.03 25-Dec-2016
                 4-Nov-2018 
 ******************************************
 %mem=6000mb
 %nproc=24
 Will use up to   24 processors via shared memory.
 %chk=D_a1-4_2SO_PSI.inp_extract_4.chk
 ----------------------------------------------------------------------
 #M062X/6-311++G(2d,2p) opt=ModRedundant freq=noraman SCRF=(Solvent=Wat
 er)
 ----------------------------------------------------------------------
 1/18=120,19=15,26=3,38=1/1,3;
 2/9=110,12=2,17=6,18=5,40=1/2;
 3/5=4,6=6,7=1212,11=2,25=1,30=1,70=2201,71=1,72=1,74=-55/1,2,3;
 4//1;
 5/5=2,38=5,53=1/2;
 6/7=2,8=2,9=2,10=2,28=1/1;
 7//1,2,3,16;
 1/18=20,19=15,26=3/3(2);
 2/9=110/2;
 99//99;
 2/9=110/2;
 3/5=4,6=6,7=1212,11=2,25=1,30=1,70=2205,71=1,72=1,74=-55/1,2,3;
 4/5=5,16=3,69=1/1;
 5/5=2,38=5,53=1/2;
 7//1,2,3,16;
 1/18=20,19=15,26=3/3(-5);
 2/9=110/2;
 6/7=2,8=2,9=2,10=2,19=2,28=1/1;
 99/9=1/99;
 ----------------------------
 D_a1-4_2SO_PSI.inp_extract_4
 ----------------------------
 Symbolic Z-matrix:
 Charge =  0 Multiplicity = 1
 C                     1.08657   0.47635  -0.56093 
 C                     3.55893  -0.68094   0.60488 
 O                    -1.69106  -0.5616   -1.17191 
 C                     1.52552  -0.99146  -0.56625 
 C                     2.11913   1.31822   0.19217 
 O                    -0.17      0.67492   0.07144 
 C                    -2.42975   1.40893   0.02069 
 C                    -3.00098   0.52939   1.13307 
 C                    -1.30689   0.71825  -0.73932 
 C                    -3.37824  -0.83608   0.55987 
 C                    -2.19014  -1.43896  -0.17002 
 C                     3.51474   0.72846   0.00439 
 O                     2.28202  -1.30107   0.58432 
 H                     1.00744   0.81115  -1.58941 
 H                     4.26833  -1.30974   0.07499 
 H                     3.84844  -0.6441    1.64664 
 H                     0.67596  -1.65447  -0.57266 
 H                     2.1187   -1.19242  -1.45388 
 H                     1.864     1.31247   1.24757 
 H                     2.07631   2.34822  -0.14487 
 H                    -2.06169   2.3532    0.40681 
 H                    -3.21352   1.63392  -0.69763 
 H                    -2.26787   0.40372   1.92557 
 H                    -3.86699   1.01205   1.57548 
 H                    -1.07393   1.25809  -1.64651 
 H                    -3.69278  -1.51748   1.34526 
 H                    -4.21002  -0.72894  -0.13256 
 H                    -2.462    -2.34706  -0.6902 
 H                    -1.39721  -1.67551   0.53088 
 H                     3.7608    0.69952  -1.05324 
 H                     4.26502   1.34641   0.48562 
 
 The following ModRedundant input section has been read:
 D       5       1       6       9 F                                           
 

 GradGradGradGradGradGradGradGradGradGradGradGradGradGradGradGradGradGrad
 Berny optimization.
 Initialization pass.
                           ----------------------------
                           !    Initial Parameters    !
                           ! (Angstroms and Degrees)  !
 --------------------------                            --------------------------
 ! Name  Definition              Value          Derivative Info.                !
 --------------------------------------------------------------------------------
 ! R1    R(1,4)                  1.532          estimate D2E/DX2                !
 ! R2    R(1,5)                  1.5304         estimate D2E/DX2                !
 ! R3    R(1,6)                  1.4207         estimate D2E/DX2                !
 ! R4    R(1,14)                 1.0845         estimate D2E/DX2                !
 ! R5    R(2,12)                 1.5326         estimate D2E/DX2                !
 ! R6    R(2,13)                 1.4197         estimate D2E/DX2                !
 ! R7    R(2,15)                 1.086          estimate D2E/DX2                !
 ! R8    R(2,16)                 1.0819         estimate D2E/DX2                !
 ! R9    R(3,9)                  1.4045         estimate D2E/DX2                !
 ! R10   R(3,11)                 1.4222         estimate D2E/DX2                !
 ! R11   R(4,13)                 1.4114         estimate D2E/DX2                !
 ! R12   R(4,17)                 1.0777         estimate D2E/DX2                !
 ! R13   R(4,18)                 1.0863         estimate D2E/DX2                !
 ! R14   R(5,12)                 1.5267         estimate D2E/DX2                !
 ! R15   R(5,19)                 1.0858         estimate D2E/DX2                !
 ! R16   R(5,20)                 1.0846         estimate D2E/DX2                !
 ! R17   R(6,9)                  1.397          estimate D2E/DX2                !
 ! R18   R(7,8)                  1.5288         estimate D2E/DX2                !
 ! R19   R(7,9)                  1.5217         estimate D2E/DX2                !
 ! R20   R(7,21)                 1.0845         estimate D2E/DX2                !
 ! R21   R(7,22)                 1.0867         estimate D2E/DX2                !
 ! R22   R(8,10)                 1.5282         estimate D2E/DX2                !
 ! R23   R(8,23)                 1.0869         estimate D2E/DX2                !
 ! R24   R(8,24)                 1.0857         estimate D2E/DX2                !
 ! R25   R(9,25)                 1.0811         estimate D2E/DX2                !
 ! R26   R(10,11)                1.5191         estimate D2E/DX2                !
 ! R27   R(10,26)                1.0863         estimate D2E/DX2                !
 ! R28   R(10,27)                1.0876         estimate D2E/DX2                !
 ! R29   R(11,28)                1.0813         estimate D2E/DX2                !
 ! R30   R(11,29)                1.0844         estimate D2E/DX2                !
 ! R31   R(12,30)                1.0863         estimate D2E/DX2                !
 ! R32   R(12,31)                1.0846         estimate D2E/DX2                !
 ! A1    A(4,1,5)              109.5991         estimate D2E/DX2                !
 ! A2    A(4,1,6)              112.8848         estimate D2E/DX2                !
 ! A3    A(4,1,14)             108.2633         estimate D2E/DX2                !
 ! A4    A(5,1,6)              107.5078         estimate D2E/DX2                !
 ! A5    A(5,1,14)             110.248          estimate D2E/DX2                !
 ! A6    A(6,1,14)             108.3273         estimate D2E/DX2                !
 ! A7    A(12,2,13)            111.721          estimate D2E/DX2                !
 ! A8    A(12,2,15)            111.1066         estimate D2E/DX2                !
 ! A9    A(12,2,16)            110.713          estimate D2E/DX2                !
 ! A10   A(13,2,15)            109.1198         estimate D2E/DX2                !
 ! A11   A(13,2,16)            105.6353         estimate D2E/DX2                !
 ! A12   A(15,2,16)            108.3453         estimate D2E/DX2                !
 ! A13   A(9,3,11)             116.1775         estimate D2E/DX2                !
 ! A14   A(1,4,13)             111.1562         estimate D2E/DX2                !
 ! A15   A(1,4,17)             111.3202         estimate D2E/DX2                !
 ! A16   A(1,4,18)             109.6645         estimate D2E/DX2                !
 ! A17   A(13,4,17)            107.0038         estimate D2E/DX2                !
 ! A18   A(13,4,18)            109.4414         estimate D2E/DX2                !
 ! A19   A(17,4,18)            108.1672         estimate D2E/DX2                !
 ! A20   A(1,5,12)             110.1046         estimate D2E/DX2                !
 ! A21   A(1,5,19)             108.4735         estimate D2E/DX2                !
 ! A22   A(1,5,20)             110.0509         estimate D2E/DX2                !
 ! A23   A(12,5,19)            109.4084         estimate D2E/DX2                !
 ! A24   A(12,5,20)            111.3909         estimate D2E/DX2                !
 ! A25   A(19,5,20)            107.326          estimate D2E/DX2                !
 ! A26   A(1,6,9)              117.7617         estimate D2E/DX2                !
 ! A27   A(8,7,9)              112.21           estimate D2E/DX2                !
 ! A28   A(8,7,21)             111.633          estimate D2E/DX2                !
 ! A29   A(8,7,22)             109.304          estimate D2E/DX2                !
 ! A30   A(9,7,21)             108.8194         estimate D2E/DX2                !
 ! A31   A(9,7,22)             107.2204         estimate D2E/DX2                !
 ! A32   A(21,7,22)            107.448          estimate D2E/DX2                !
 ! A33   A(7,8,10)             109.4735         estimate D2E/DX2                !
 ! A34   A(7,8,23)             110.1838         estimate D2E/DX2                !
 ! A35   A(7,8,24)             109.8031         estimate D2E/DX2                !
 ! A36   A(10,8,23)            109.6752         estimate D2E/DX2                !
 ! A37   A(10,8,24)            110.6814         estimate D2E/DX2                !
 ! A38   A(23,8,24)            106.9962         estimate D2E/DX2                !
 ! A39   A(3,9,6)              111.9049         estimate D2E/DX2                !
 ! A40   A(3,9,7)              111.4443         estimate D2E/DX2                !
 ! A41   A(3,9,25)             104.8042         estimate D2E/DX2                !
 ! A42   A(6,9,7)              108.9487         estimate D2E/DX2                !
 ! A43   A(6,9,25)             109.0944         estimate D2E/DX2                !
 ! A44   A(7,9,25)             110.5782         estimate D2E/DX2                !
 ! A45   A(8,10,11)            109.9834         estimate D2E/DX2                !
 ! A46   A(8,10,26)            111.1474         estimate D2E/DX2                !
 ! A47   A(8,10,27)            109.8513         estimate D2E/DX2                !
 ! A48   A(11,10,26)           108.9587         estimate D2E/DX2                !
 ! A49   A(11,10,27)           109.3502         estimate D2E/DX2                !
 ! A50   A(26,10,27)           107.4969         estimate D2E/DX2                !
 ! A51   A(3,11,10)            111.5986         estimate D2E/DX2                !
 ! A52   A(3,11,28)            105.5113         estimate D2E/DX2                !
 ! A53   A(3,11,29)            109.4688         estimate D2E/DX2                !
 ! A54   A(10,11,28)           111.5809         estimate D2E/DX2                !
 ! A55   A(10,11,29)           110.3583         estimate D2E/DX2                !
 ! A56   A(28,11,29)           108.1548         estimate D2E/DX2                !
 ! A57   A(2,12,5)             109.4756         estimate D2E/DX2                !
 ! A58   A(2,12,30)            110.5148         estimate D2E/DX2                !
 ! A59   A(2,12,31)            109.2781         estimate D2E/DX2                !
 ! A60   A(5,12,30)            109.7014         estimate D2E/DX2                !
 ! A61   A(5,12,31)            110.9583         estimate D2E/DX2                !
 ! A62   A(30,12,31)           106.8866         estimate D2E/DX2                !
 ! A63   A(2,13,4)             113.4585         estimate D2E/DX2                !
 ! D1    D(5,1,4,13)            29.6941         estimate D2E/DX2                !
 ! D2    D(5,1,4,17)           148.8802         estimate D2E/DX2                !
 ! D3    D(5,1,4,18)           -91.4569         estimate D2E/DX2                !
 ! D4    D(6,1,4,13)           -90.1021         estimate D2E/DX2                !
 ! D5    D(6,1,4,17)            29.0839         estimate D2E/DX2                !
 ! D6    D(6,1,4,18)           148.7469         estimate D2E/DX2                !
 ! D7    D(14,1,4,13)          149.983          estimate D2E/DX2                !
 ! D8    D(14,1,4,17)          -90.8309         estimate D2E/DX2                !
 ! D9    D(14,1,4,18)           28.832          estimate D2E/DX2                !
 ! D10   D(4,1,5,12)            32.3029         estimate D2E/DX2                !
 ! D11   D(4,1,5,19)           -87.3915         estimate D2E/DX2                !
 ! D12   D(4,1,5,20)           155.4678         estimate D2E/DX2                !
 ! D13   D(6,1,5,12)           155.339          estimate D2E/DX2                !
 ! D14   D(6,1,5,19)            35.6447         estimate D2E/DX2                !
 ! D15   D(6,1,5,20)           -81.4961         estimate D2E/DX2                !
 ! D16   D(14,1,5,12)          -86.7694         estimate D2E/DX2                !
 ! D17   D(14,1,5,19)          153.5362         estimate D2E/DX2                !
 ! D18   D(14,1,5,20)           36.3954         estimate D2E/DX2                !
 ! D19   D(4,1,6,9)            -95.6117         estimate D2E/DX2                !
 ! D20   D(5,1,6,9)            143.3953         Frozen                          !
 ! D21   D(14,1,6,9)            24.2663         estimate D2E/DX2                !
 ! D22   D(13,2,12,5)           27.7558         estimate D2E/DX2                !
 ! D23   D(13,2,12,30)         -93.1826         estimate D2E/DX2                !
 ! D24   D(13,2,12,31)         149.466          estimate D2E/DX2                !
 ! D25   D(15,2,12,5)          149.8765         estimate D2E/DX2                !
 ! D26   D(15,2,12,30)          28.9382         estimate D2E/DX2                !
 ! D27   D(15,2,12,31)         -88.4132         estimate D2E/DX2                !
 ! D28   D(16,2,12,5)          -89.6826         estimate D2E/DX2                !
 ! D29   D(16,2,12,30)         149.379          estimate D2E/DX2                !
 ! D30   D(16,2,12,31)          32.0276         estimate D2E/DX2                !
 ! D31   D(12,2,13,4)           36.6288         estimate D2E/DX2                !
 ! D32   D(15,2,13,4)          -86.6259         estimate D2E/DX2                !
 ! D33   D(16,2,13,4)          157.0824         estimate D2E/DX2                !
 ! D34   D(11,3,9,6)            68.3665         estimate D2E/DX2                !
 ! D35   D(11,3,9,7)           -53.9068         estimate D2E/DX2                !
 ! D36   D(11,3,9,25)         -173.5372         estimate D2E/DX2                !
 ! D37   D(9,3,11,10)           56.7028         estimate D2E/DX2                !
 ! D38   D(9,3,11,28)          178.0632         estimate D2E/DX2                !
 ! D39   D(9,3,11,29)          -65.7637         estimate D2E/DX2                !
 ! D40   D(1,4,13,2)           -69.1483         estimate D2E/DX2                !
 ! D41   D(17,4,13,2)          169.1146         estimate D2E/DX2                !
 ! D42   D(18,4,13,2)           52.1334         estimate D2E/DX2                !
 ! D43   D(1,5,12,2)           -62.5427         estimate D2E/DX2                !
 ! D44   D(1,5,12,30)           58.8877         estimate D2E/DX2                !
 ! D45   D(1,5,12,31)          176.7632         estimate D2E/DX2                !
 ! D46   D(19,5,12,2)           56.5825         estimate D2E/DX2                !
 ! D47   D(19,5,12,30)         178.0129         estimate D2E/DX2                !
 ! D48   D(19,5,12,31)         -64.1116         estimate D2E/DX2                !
 ! D49   D(20,5,12,2)          175.0799         estimate D2E/DX2                !
 ! D50   D(20,5,12,30)         -63.4897         estimate D2E/DX2                !
 ! D51   D(20,5,12,31)          54.3858         estimate D2E/DX2                !
 ! D52   D(1,6,9,3)             76.1661         estimate D2E/DX2                !
 ! D53   D(1,6,9,7)           -160.1458         estimate D2E/DX2                !
 ! D54   D(1,6,9,25)           -39.3413         estimate D2E/DX2                !
 ! D55   D(9,7,8,10)           -52.0519         estimate D2E/DX2                !
 ! D56   D(9,7,8,23)            68.643          estimate D2E/DX2                !
 ! D57   D(9,7,8,24)          -173.7518         estimate D2E/DX2                !
 ! D58   D(21,7,8,10)         -174.5158         estimate D2E/DX2                !
 ! D59   D(21,7,8,23)          -53.8209         estimate D2E/DX2                !
 ! D60   D(21,7,8,24)           63.7843         estimate D2E/DX2                !
 ! D61   D(22,7,8,10)           66.7536         estimate D2E/DX2                !
 ! D62   D(22,7,8,23)         -172.5515         estimate D2E/DX2                !
 ! D63   D(22,7,8,24)          -54.9463         estimate D2E/DX2                !
 ! D64   D(8,7,9,3)             51.1513         estimate D2E/DX2                !
 ! D65   D(8,7,9,6)            -72.81           estimate D2E/DX2                !
 ! D66   D(8,7,9,25)           167.2998         estimate D2E/DX2                !
 ! D67   D(21,7,9,3)           175.1963         estimate D2E/DX2                !
 ! D68   D(21,7,9,6)            51.235          estimate D2E/DX2                !
 ! D69   D(21,7,9,25)          -68.6551         estimate D2E/DX2                !
 ! D70   D(22,7,9,3)           -68.8738         estimate D2E/DX2                !
 ! D71   D(22,7,9,6)           167.1649         estimate D2E/DX2                !
 ! D72   D(22,7,9,25)           47.2747         estimate D2E/DX2                !
 ! D73   D(7,8,10,11)           53.4682         estimate D2E/DX2                !
 ! D74   D(7,8,10,26)          174.2204         estimate D2E/DX2                !
 ! D75   D(7,8,10,27)          -66.9383         estimate D2E/DX2                !
 ! D76   D(23,8,10,11)         -67.5355         estimate D2E/DX2                !
 ! D77   D(23,8,10,26)          53.2168         estimate D2E/DX2                !
 ! D78   D(23,8,10,27)         172.0581         estimate D2E/DX2                !
 ! D79   D(24,8,10,11)         174.6381         estimate D2E/DX2                !
 ! D80   D(24,8,10,26)         -64.6096         estimate D2E/DX2                !
 ! D81   D(24,8,10,27)          54.2317         estimate D2E/DX2                !
 ! D82   D(8,10,11,3)          -55.1423         estimate D2E/DX2                !
 ! D83   D(8,10,11,28)        -172.9109         estimate D2E/DX2                !
 ! D84   D(8,10,11,29)          66.8127         estimate D2E/DX2                !
 ! D85   D(26,10,11,3)        -177.2031         estimate D2E/DX2                !
 ! D86   D(26,10,11,28)         65.0283         estimate D2E/DX2                !
 ! D87   D(26,10,11,29)        -55.2482         estimate D2E/DX2                !
 ! D88   D(27,10,11,3)          65.5664         estimate D2E/DX2                !
 ! D89   D(27,10,11,28)        -52.2022         estimate D2E/DX2                !
 ! D90   D(27,10,11,29)       -172.4787         estimate D2E/DX2                !
 --------------------------------------------------------------------------------
 Trust Radius=3.00D-01 FncErr=1.00D-07 GrdErr=1.00D-06 EigMax=2.50D+02 EigMin=1.00D-04
 Number of steps in this run=    186 maximum allowed number of steps=    186.
 GradGradGradGradGradGradGradGradGradGradGradGradGradGradGradGradGradGrad

                          Input orientation:                          
 ---------------------------------------------------------------------
 Center     Atomic      Atomic             Coordinates (Angstroms)
 Number     Number       Type             X           Y           Z
 ---------------------------------------------------------------------
      1          6           0        1.086569    0.476347   -0.560928
      2          6           0        3.558926   -0.680937    0.604884
      3          8           0       -1.691058   -0.561597   -1.171914
      4          6           0        1.525522   -0.991461   -0.566249
      5          6           0        2.119130    1.318224    0.192173
      6          8           0       -0.169998    0.674921    0.071443
      7          6           0       -2.429751    1.408926    0.020686
      8          6           0       -3.000984    0.529393    1.133067
      9          6           0       -1.306890    0.718249   -0.739324
     10          6           0       -3.378236   -0.836080    0.559872
     11          6           0       -2.190144   -1.438962   -0.170021
     12          6           0        3.514739    0.728457    0.004390
     13          8           0        2.282024   -1.301071    0.584324
     14          1           0        1.007438    0.811147   -1.589407
     15          1           0        4.268334   -1.309742    0.074988
     16          1           0        3.848440   -0.644102    1.646640
     17          1           0        0.675964   -1.654467   -0.572657
     18          1           0        2.118702   -1.192416   -1.453880
     19          1           0        1.863999    1.312473    1.247574
     20          1           0        2.076307    2.348218   -0.144872
     21          1           0       -2.061690    2.353201    0.406805
     22          1           0       -3.213521    1.633917   -0.697625
     23          1           0       -2.267874    0.403723    1.925568
     24          1           0       -3.866990    1.012052    1.575484
     25          1           0       -1.073928    1.258093   -1.646511
     26          1           0       -3.692775   -1.517480    1.345261
     27          1           0       -4.210019   -0.728937   -0.132557
     28          1           0       -2.461996   -2.347059   -0.690202
     29          1           0       -1.397213   -1.675509    0.530877
     30          1           0        3.760800    0.699517   -1.053243
     31          1           0        4.265021    1.346411    0.485619
 ---------------------------------------------------------------------
                    Distance matrix (angstroms):
                    1          2          3          4          5
     1  C    0.000000
     2  C    2.968328   0.000000
     3  O    3.027514   5.543788   0.000000
     4  C    1.532047   2.367004   3.301212   0.000000
     5  C    1.530392   2.497997   4.462286   2.502443   0.000000
     6  O    1.420664   4.003472   2.321322   2.461355   2.380866
     7  C    3.684085   6.369699   2.418868   4.663747   4.553016
     8  C    4.424988   6.691509   2.866898   5.068523   5.265273
     9  C    2.412258   5.238395   1.404537   3.312947   3.600732
    10  C    4.786767   6.939043   2.433309   5.033799   5.915848
    11  C    3.815503   5.850375   1.422198   3.763433   5.128655
    12  C    2.505824   1.532624   5.490742   2.690861   1.526700
    13  O    2.428977   1.419672   4.406424   1.411372   2.653493
    14  H    1.084491   3.681212   3.056241   2.136506   2.160327
    15  H    3.703800   1.086023   6.134235   2.834697   3.396913
    16  H    3.709002   1.081864   6.215874   3.226993   2.992776
    17  H    2.170047   3.262795   2.675120   1.077667   3.391841
    18  H    2.155790   2.564052   3.871913   1.086340   3.002133
    19  H    2.138734   2.694348   4.690894   2.951717   1.085816
    20  H    2.157912   3.454862   4.869792   3.410920   1.084583
    21  H    3.790860   6.390348   3.335531   5.000169   4.312366
    22  H    4.455270   7.274690   2.713508   5.419262   5.415586
    23  H    4.176149   6.072256   3.295293   4.748215   4.804870
    24  H    5.421161   7.678053   3.841777   6.138426   6.151498
    25  H    2.541134   5.503813   1.979233   3.603415   3.685104
    26  H    5.518245   7.337243   3.355109   5.582221   6.568795
    27  H    5.448858   7.804014   2.730097   5.757902   6.659913
    28  H    4.536590   6.380024   2.003563   4.213468   5.932925
    29  H    3.462903   5.055489   2.055880   3.195933   4.630532
    30  H    2.728313   2.166978   5.597075   2.844826   2.151497
    31  H    3.457576   2.150101   6.470146   3.751923   2.166046
                    6          7          8          9         10
     6  O    0.000000
     7  C    2.376515   0.000000
     8  C    3.026996   1.528816   0.000000
     9  C    1.397048   1.521666   2.532088   0.000000
    10  C    3.579732   2.496076   1.528198   2.897296   0.000000
    11  C    2.933905   2.864306   2.495981   2.399542   1.519136
    12  C    3.685736   5.983332   6.615753   4.878660   7.090095
    13  O    3.190612   5.464668   5.617997   4.325506   5.679380
    14  H    2.040425   3.842396   4.853730   2.467263   5.154308
    15  H    4.861861   7.229000   7.572644   5.988236   7.676555
    16  H    4.513193   6.802524   6.968175   5.841768   7.310456
    17  H    2.560579   4.402488   4.604203   3.096654   4.288230
    18  H    3.324411   5.443322   5.988999   3.986968   5.865023
    19  H    2.434523   4.466637   4.928934   3.788852   5.707034
    20  H    2.809377   4.605892   5.542575   3.802130   6.355191
    21  H    2.550998   1.084533   2.176237   2.134573   3.453728
    22  H    3.282403   1.086686   2.148622   2.115521   2.776565
    23  H    2.812901   2.159910   1.086877   2.850275   2.152938
    24  H    4.005440   2.154196   1.085661   3.463924   2.164703
    25  H    2.026955   2.154194   3.459856   1.081060   3.816218
    26  H    4.340414   3.451606   2.171011   3.877683   1.086313
    27  H    4.281846   2.786269   2.155682   3.300102   1.087566
    28  H    3.868555   3.822803   3.448013   3.276095   2.164541
    29  H    2.691033   3.292441   2.792187   2.711392   2.151728
    30  H    4.088606   6.322935   7.108489   5.077438   7.478371
    31  H    4.504646   6.711188   7.340404   5.739448   7.949098
                   11         12         13         14         15
    11  C    0.000000
    12  C    6.105228   0.000000
    13  O    4.537437   2.444360   0.000000
    14  H    4.159589   2.972135   3.288030   0.000000
    15  H    6.464415   2.174200   2.050592   4.231055   0.000000
    16  H    6.355829   2.166162   2.003443   4.545442   1.757691
    17  H    2.902263   3.750994   2.010702   2.687547   3.666524
    18  H    4.502803   2.786615   2.047622   2.295112   2.640477
    19  H    5.100593   2.147446   2.728600   3.005576   3.745904
    20  H    5.704907   2.171403   3.727111   2.364688   4.270128
    21  H    3.837933   5.822224   5.679178   3.972699   7.320960
    22  H    3.281501   6.825113   6.360705   4.391893   8.077141
    23  H    2.791599   6.102048   5.040519   4.821692   7.005899
    24  H    3.444716   7.552396   6.644043   5.815234   8.592189
    25  H    3.271096   4.905288   4.773715   2.129579   6.172285
    26  H    2.135449   7.667492   6.026946   6.010556   8.064490
    27  H    2.141363   7.862229   6.556514   5.631707   8.500758
    28  H    1.081264   6.757412   5.022373   4.777008   6.852655
    29  H    1.084413   5.493952   3.698627   4.057266   5.695616
    30  H    6.384897   1.086265   2.978382   2.807300   2.359580
    31  H    7.060972   1.084607   3.309257   3.899242   2.687709
                   16         17         18         19         20
    16  H    0.000000
    17  H    4.001340   0.000000
    18  H    3.592474   1.752580   0.000000
    19  H    2.815217   3.677962   3.692857   0.000000
    20  H    3.912026   4.262094   3.775101   1.748356   0.000000
    21  H    6.741710   4.951313   5.788715   4.147414   4.174613
    22  H    7.781789   5.094819   6.082161   5.446865   5.366381
    23  H    6.211685   4.375324   5.762845   4.284609   5.190346
    24  H    7.891500   5.688872   7.061532   5.748218   6.329909
    25  H    6.220361   3.563466   4.029266   4.124330   3.656128
    26  H    7.597601   4.773160   6.458647   6.236659   7.102565
    27  H    8.252969   4.992306   6.481776   6.554831   6.999066
    28  H    6.941361   3.215633   4.785311   5.988437   6.552801
    29  H    5.461282   2.348679   4.066239   4.480758   5.358391
    30  H    3.017012   3.910041   2.537007   3.044229   2.526038
    31  H    2.341720   4.796514   3.848894   2.519253   2.488294
                   21         22         23         24         25
    21  H    0.000000
    22  H    1.750386   0.000000
    23  H    2.479842   3.047748   0.000000
    24  H    2.534482   2.445560   1.746366   0.000000
    25  H    2.528051   2.370546   3.862021   4.271181   0.000000
    26  H    4.303871   3.786076   2.461325   2.545955   4.849007
    27  H    3.795498   2.625907   3.048069   2.462949   4.009415
    28  H    4.843151   4.051298   3.800886   4.288469   3.979746
    29  H    4.085025   3.969949   2.650739   3.796576   3.667636
    30  H    6.226379   7.045617   6.730952   8.074098   4.902914
    31  H    6.406802   7.577026   6.755800   8.211529   5.749622
                   26         27         28         29         30
    26  H    0.000000
    27  H    1.753079   0.000000
    28  H    2.519152   2.446400   0.000000
    29  H    2.440860   3.041056   1.753789   0.000000
    30  H    8.137793   8.149975   6.938056   5.895361   0.000000
    31  H    8.501022   8.747315   7.763829   6.418329   1.743791
                   31
    31  H    0.000000
 Stoichiometry    C10H18O3
 Framework group  C1[X(C10H18O3)]
 Deg. of freedom    87
 Full point group                 C1      NOp   1
 Largest Abelian subgroup         C1      NOp   1
 Largest concise Abelian subgroup C1      NOp   1
                         Standard orientation:                         
 ---------------------------------------------------------------------
 Center     Atomic      Atomic             Coordinates (Angstroms)
 Number     Number       Type             X           Y           Z
 ---------------------------------------------------------------------
      1          6           0       -1.086569   -0.476347   -0.560928
      2          6           0       -3.558926    0.680937    0.604884
      3          8           0        1.691058    0.561597   -1.171914
      4          6           0       -1.525522    0.991461   -0.566249
      5          6           0       -2.119130   -1.318224    0.192173
      6          8           0        0.169998   -0.674921    0.071443
      7          6           0        2.429751   -1.408926    0.020686
      8          6           0        3.000984   -0.529393    1.133067
      9          6           0        1.306890   -0.718249   -0.739324
     10          6           0        3.378236    0.836080    0.559872
     11          6           0        2.190144    1.438962   -0.170021
     12          6           0       -3.514739   -0.728457    0.004390
     13          8           0       -2.282024    1.301071    0.584324
     14          1           0       -1.007438   -0.811147   -1.589407
     15          1           0       -4.268334    1.309742    0.074988
     16          1           0       -3.848440    0.644102    1.646640
     17          1           0       -0.675964    1.654467   -0.572657
     18          1           0       -2.118702    1.192416   -1.453880
     19          1           0       -1.863999   -1.312473    1.247574
     20          1           0       -2.076307   -2.348218   -0.144872
     21          1           0        2.061690   -2.353201    0.406805
     22          1           0        3.213521   -1.633917   -0.697625
     23          1           0        2.267874   -0.403723    1.925568
     24          1           0        3.866990   -1.012052    1.575484
     25          1           0        1.073928   -1.258093   -1.646511
     26          1           0        3.692775    1.517480    1.345261
     27          1           0        4.210019    0.728937   -0.132557
     28          1           0        2.461996    2.347059   -0.690202
     29          1           0        1.397213    1.675509    0.530877
     30          1           0       -3.760800   -0.699517   -1.053243
     31          1           0       -4.265021   -1.346411    0.485619
 ---------------------------------------------------------------------
 Rotational constants (GHZ):           1.7981032           0.4341204           0.3987378
 Standard basis: 6-311++G(2d,2p) (5D, 7F)
 There are   557 symmetry adapted cartesian basis functions of A   symmetry.
 There are   531 symmetry adapted basis functions of A   symmetry.
   531 basis functions,   762 primitive gaussians,   557 cartesian basis functions
    51 alpha electrons       51 beta electrons
       nuclear repulsion energy       897.6816754724 Hartrees.
 NAtoms=   31 NActive=   31 NUniq=   31 SFac= 1.00D+00 NAtFMM=   60 NAOKFM=F Big=F
 Integral buffers will be    131072 words long.
 Raffenetti 2 integral format.
 Two-electron integral symmetry is turned on.
 ------------------------------------------------------------------------------
 Polarizable Continuum Model (PCM)
 =================================
 Model                : PCM.
 Atomic radii         : UFF (Universal Force Field).
 Polarization charges : Total charges.
 Charge compensation  : None.
 Solution method      : On-the-fly selection.
 Cavity type          : Scaled VdW (van der Waals Surface) (Alpha=1.100).
 Cavity algorithm     : GePol (No added spheres)
                        Default sphere list used, NSphG=   31.
                        Lebedev-Laikov grids with approx.  5.0 points / Ang**2.
                        Smoothing algorithm: York/Karplus (Gamma=1.0000).
                        Polarization charges: spherical gaussians, with
                                              point-specific exponents (IZeta= 3).
                        Self-potential: point-specific (ISelfS= 7).
                        Self-field    : sphere-specific E.n sum rule (ISelfD= 2).
 1st derivatives      : Analytical E(r).r(x)/FMM algorithm (CHGder, D1EAlg=3).
                        Cavity 1st derivative terms included.
 Solvent              : Water, Eps=  78.355300 Eps(inf)=   1.777849
 ------------------------------------------------------------------------------
 One-electron integrals computed using PRISM.
 NBasis=   531 RedAO= T EigKep=  4.31D-06  NBF=   531
 NBsUse=   531 1.00D-06 EigRej= -1.00D+00 NBFU=   531
 ExpMin= 3.60D-02 ExpMax= 8.59D+03 ExpMxC= 1.30D+03 IAcc=3 IRadAn=         5 AccDes= 0.00D+00
 Harris functional with IExCor= 1009 and IRadAn=       5 diagonalized for initial guess.
 HarFok:  IExCor= 1009 AccDes= 0.00D+00 IRadAn=         5 IDoV= 1 UseB2=F ITyADJ=14
 ICtDFT=  3500011 ScaDFX=  1.000000  1.000000  1.000000  1.000000
 FoFCou: FMM=F IPFlag=           0 FMFlag=      100000 FMFlg1=           0
         NFxFlg=           0 DoJE=T BraDBF=F KetDBF=T FulRan=T
         wScrn=  0.000000 ICntrl=       500 IOpCl=  0 I1Cent=   200000004 NGrid=           0
         NMat0=    1 NMatS0=      1 NMatT0=    0 NMatD0=    1 NMtDS0=    0 NMtDT0=    0
 Petite list used in FoFCou.
 Requested convergence on RMS density matrix=1.00D-08 within 128 cycles.
 Requested convergence on MAX density matrix=1.00D-06.
 Requested convergence on             energy=1.00D-06.
 No special actions if energy rises.
 Inv3:  Mode=1 IEnd=    12805068.
 Iteration    1 A*A^-1 deviation from unit magnitude is 4.88D-15 for   2055.
 Iteration    1 A*A^-1 deviation from orthogonality  is 1.83D-15 for   2032    980.
 Iteration    1 A^-1*A deviation from unit magnitude is 4.88D-15 for   2055.
 Iteration    1 A^-1*A deviation from orthogonality  is 1.40D-15 for   2063   2059.
 Error on total polarization charges =  0.01485
 SCF Done:  E(RM062X) =  -617.494670931     A.U. after   12 cycles
            NFock= 12  Conv=0.36D-08     -V/T= 2.0035

 **********************************************************************

            Population analysis using the SCF density.

 **********************************************************************

 Orbital symmetries:
       Occupied  (A) (A) (A) (A) (A) (A) (A) (A) (A) (A) (A) (A)
                 (A) (A) (A) (A) (A) (A) (A) (A) (A) (A) (A) (A)
                 (A) (A) (A) (A) (A) (A) (A) (A) (A) (A) (A) (A)
                 (A) (A) (A) (A) (A) (A) (A) (A) (A) (A) (A) (A)
                 (A) (A) (A)
       Virtual   (A) (A) (A) (A) (A) (A) (A) (A) (A) (A) (A) (A)
                 (A) (A) (A) (A) (A) (A) (A) (A) (A) (A) (A) (A)
                 (A) (A) (A) (A) (A) (A) (A) (A) (A) (A) (A) (A)
                 (A) (A) (A) (A) (A) (A) (A) (A) (A) (A) (A) (A)
                 (A) (A) (A) (A) (A) (A) (A) (A) (A) (A) (A) (A)
                 (A) (A) (A) (A) (A) (A) (A) (A) (A) (A) (A) (A)
                 (A) (A) (A) (A) (A) (A) (A) (A) (A) (A) (A) (A)
                 (A) (A) (A) (A) (A) (A) (A) (A) (A) (A) (A) (A)
                 (A) (A) (A) (A) (A) (A) (A) (A) (A) (A) (A) (A)
                 (A) (A) (A) (A) (A) (A) (A) (A) (A) (A) (A) (A)
                 (A) (A) (A) (A) (A) (A) (A) (A) (A) (A) (A) (A)
                 (A) (A) (A) (A) (A) (A) (A) (A) (A) (A) (A) (A)
                 (A) (A) (A) (A) (A) (A) (A) (A) (A) (A) (A) (A)
                 (A) (A) (A) (A) (A) (A) (A) (A) (A) (A) (A) (A)
                 (A) (A) (A) (A) (A) (A) (A) (A) (A) (A) (A) (A)
                 (A) (A) (A) (A) (A) (A) (A) (A) (A) (A) (A) (A)
                 (A) (A) (A) (A) (A) (A) (A) (A) (A) (A) (A) (A)
                 (A) (A) (A) (A) (A) (A) (A) (A) (A) (A) (A) (A)
                 (A) (A) (A) (A) (A) (A) (A) (A) (A) (A) (A) (A)
                 (A) (A) (A) (A) (A) (A) (A) (A) (A) (A) (A) (A)
                 (A) (A) (A) (A) (A) (A) (A) (A) (A) (A) (A) (A)
                 (A) (A) (A) (A) (A) (A) (A) (A) (A) (A) (A) (A)
                 (A) (A) (A) (A) (A) (A) (A) (A) (A) (A) (A) (A)
                 (A) (A) (A) (A) (A) (A) (A) (A) (A) (A) (A) (A)
                 (A) (A) (A) (A) (A) (A) (A) (A) (A) (A) (A) (A)
                 (A) (A) (A) (A) (A) (A) (A) (A) (A) (A) (A) (A)
                 (A) (A) (A) (A) (A) (A) (A) (A) (A) (A) (A) (A)
                 (A) (A) (A) (A) (A) (A) (A) (A) (A) (A) (A) (A)
                 (A) (A) (A) (A) (A) (A) (A) (A) (A) (A) (A) (A)
                 (A) (A) (A) (A) (A) (A) (A) (A) (A) (A) (A) (A)
                 (A) (A) (A) (A) (A) (A) (A) (A) (A) (A) (A) (A)
                 (A) (A) (A) (A) (A) (A) (A) (A) (A) (A) (A) (A)
                 (A) (A) (A) (A) (A) (A) (A) (A) (A) (A) (A) (A)
                 (A) (A) (A) (A) (A) (A) (A) (A) (A) (A) (A) (A)
                 (A) (A) (A) (A) (A) (A) (A) (A) (A) (A) (A) (A)
                 (A) (A) (A) (A) (A) (A) (A) (A) (A) (A) (A) (A)
                 (A) (A) (A) (A) (A) (A) (A) (A) (A) (A) (A) (A)
                 (A) (A) (A) (A) (A) (A) (A) (A) (A) (A) (A) (A)
                 (A) (A) (A) (A) (A) (A) (A) (A) (A) (A) (A) (A)
                 (A) (A) (A) (A) (A) (A) (A) (A) (A) (A) (A) (A)
 The electronic state is 1-A.
 Alpha  occ. eigenvalues --  -19.62966 -19.62754 -19.62486 -10.63369 -10.58815
 Alpha  occ. eigenvalues --  -10.57774 -10.57680 -10.57612 -10.53186 -10.53137
 Alpha  occ. eigenvalues --  -10.52970 -10.52919 -10.52777  -1.20112  -1.16389
 Alpha  occ. eigenvalues --   -1.13533  -0.90902  -0.89754  -0.87240  -0.84538
 Alpha  occ. eigenvalues --   -0.75110  -0.74415  -0.73229  -0.71500  -0.64676
 Alpha  occ. eigenvalues --   -0.63047  -0.59920  -0.59851  -0.57227  -0.56854
 Alpha  occ. eigenvalues --   -0.55008  -0.53007  -0.52441  -0.50648  -0.49637
 Alpha  occ. eigenvalues --   -0.48115  -0.46609  -0.45698  -0.45246  -0.44534
 Alpha  occ. eigenvalues --   -0.44125  -0.42499  -0.41837  -0.40397  -0.39422
 Alpha  occ. eigenvalues --   -0.38567  -0.37240  -0.35993  -0.35564  -0.33322
 Alpha  occ. eigenvalues --   -0.31480
 Alpha virt. eigenvalues --   -0.00130   0.00733   0.00868   0.01132   0.02180
 Alpha virt. eigenvalues --    0.02469   0.02548   0.03408   0.03637   0.04475
 Alpha virt. eigenvalues --    0.04532   0.04706   0.05411   0.05653   0.07135
 Alpha virt. eigenvalues --    0.07498   0.07840   0.08361   0.08765   0.08975
 Alpha virt. eigenvalues --    0.09609   0.10532   0.10842   0.11592   0.11892
 Alpha virt. eigenvalues --    0.12435   0.12611   0.13008   0.13202   0.13470
 Alpha virt. eigenvalues --    0.13762   0.13888   0.13976   0.14339   0.14974
 Alpha virt. eigenvalues --    0.15178   0.15320   0.15838   0.16049   0.16266
 Alpha virt. eigenvalues --    0.16639   0.16805   0.17045   0.17562   0.17845
 Alpha virt. eigenvalues --    0.18145   0.18553   0.18622   0.19202   0.19565
 Alpha virt. eigenvalues --    0.19751   0.20423   0.20791   0.20838   0.21253
 Alpha virt. eigenvalues --    0.22077   0.22237   0.23085   0.23403   0.23878
 Alpha virt. eigenvalues --    0.24428   0.25095   0.25660   0.25982   0.26897
 Alpha virt. eigenvalues --    0.27476   0.28251   0.28607   0.29113   0.29294
 Alpha virt. eigenvalues --    0.29824   0.30229   0.30771   0.31463   0.32173
 Alpha virt. eigenvalues --    0.32384   0.33428   0.34062   0.34300   0.34421
 Alpha virt. eigenvalues --    0.34735   0.35052   0.35121   0.36232   0.36649
 Alpha virt. eigenvalues --    0.36830   0.37288   0.37351   0.37830   0.38485
 Alpha virt. eigenvalues --    0.38615   0.39222   0.39392   0.40019   0.41592
 Alpha virt. eigenvalues --    0.42017   0.42497   0.44211   0.44447   0.45096
 Alpha virt. eigenvalues --    0.45790   0.48580   0.49712   0.50569   0.50858
 Alpha virt. eigenvalues --    0.51498   0.52231   0.53429   0.54049   0.55186
 Alpha virt. eigenvalues --    0.55706   0.56497   0.57128   0.58708   0.59132
 Alpha virt. eigenvalues --    0.59712   0.60064   0.60318   0.61004   0.61524
 Alpha virt. eigenvalues --    0.62125   0.62338   0.63086   0.63370   0.63660
 Alpha virt. eigenvalues --    0.63730   0.64517   0.65380   0.65928   0.66936
 Alpha virt. eigenvalues --    0.67256   0.68639   0.69104   0.69580   0.70044
 Alpha virt. eigenvalues --    0.70496   0.71690   0.72203   0.72740   0.73232
 Alpha virt. eigenvalues --    0.73445   0.73892   0.74332   0.74739   0.75830
 Alpha virt. eigenvalues --    0.76249   0.76954   0.77092   0.78364   0.79122
 Alpha virt. eigenvalues --    0.79834   0.81711   0.82829   0.85148   0.85856
 Alpha virt. eigenvalues --    0.86898   0.87529   0.88461   0.89027   0.89837
 Alpha virt. eigenvalues --    0.90198   0.91643   0.93014   0.95279   0.95864
 Alpha virt. eigenvalues --    0.97142   0.98953   1.00358   1.00435   1.02212
 Alpha virt. eigenvalues --    1.02371   1.03830   1.04422   1.05034   1.05492
 Alpha virt. eigenvalues --    1.07782   1.09363   1.10232   1.11660   1.12233
 Alpha virt. eigenvalues --    1.12621   1.13773   1.15195   1.16460   1.16860
 Alpha virt. eigenvalues --    1.17111   1.19284   1.19635   1.20389   1.20808
 Alpha virt. eigenvalues --    1.21730   1.22670   1.22902   1.24283   1.24530
 Alpha virt. eigenvalues --    1.25298   1.25955   1.26434   1.26848   1.27338
 Alpha virt. eigenvalues --    1.28148   1.29365   1.29844   1.30070   1.31614
 Alpha virt. eigenvalues --    1.31934   1.32863   1.33012   1.33381   1.35047
 Alpha virt. eigenvalues --    1.35372   1.35907   1.36359   1.37039   1.38282
 Alpha virt. eigenvalues --    1.38568   1.38946   1.39554   1.40588   1.41564
 Alpha virt. eigenvalues --    1.42152   1.42298   1.43621   1.45323   1.45384
 Alpha virt. eigenvalues --    1.45721   1.46270   1.47269   1.47679   1.48283
 Alpha virt. eigenvalues --    1.48742   1.49235   1.49798   1.51299   1.51983
 Alpha virt. eigenvalues --    1.53007   1.53565   1.54336   1.54486   1.55558
 Alpha virt. eigenvalues --    1.56445   1.57065   1.57880   1.58092   1.58938
 Alpha virt. eigenvalues --    1.59686   1.60090   1.60407   1.61379   1.62048
 Alpha virt. eigenvalues --    1.62992   1.63903   1.64618   1.65946   1.67227
 Alpha virt. eigenvalues --    1.67282   1.68676   1.69821   1.70563   1.71152
 Alpha virt. eigenvalues --    1.71975   1.73326   1.74291   1.76056   1.77039
 Alpha virt. eigenvalues --    1.77756   1.80108   1.80934   1.81906   1.82793
 Alpha virt. eigenvalues --    1.84534   1.85502   1.89392   1.96197   1.96685
 Alpha virt. eigenvalues --    2.02199   2.08715   2.09370   2.13438   2.21997
 Alpha virt. eigenvalues --    2.23005   2.25498   2.29217   2.33100   2.39694
 Alpha virt. eigenvalues --    2.41756   2.43375   2.44849   2.46086   2.51236
 Alpha virt. eigenvalues --    2.58381   2.76608   2.77394   2.80529   2.83103
 Alpha virt. eigenvalues --    2.84227   2.87070   2.90162   2.92389   2.93273
 Alpha virt. eigenvalues --    2.93790   2.94834   2.96886   3.02444   3.03308
 Alpha virt. eigenvalues --    3.04655   3.07071   3.09527   3.10416   3.11100
 Alpha virt. eigenvalues --    3.12963   3.13868   3.15587   3.17531   3.21253
 Alpha virt. eigenvalues --    3.23525   3.29293   3.31220   3.32709   3.33993
 Alpha virt. eigenvalues --    3.34535   3.35990   3.37238   3.39416   3.39971
 Alpha virt. eigenvalues --    3.41236   3.42266   3.42887   3.45309   3.46397
 Alpha virt. eigenvalues --    3.47117   3.49093   3.49905   3.50254   3.50872
 Alpha virt. eigenvalues --    3.51961   3.53202   3.53810   3.55378   3.56042
 Alpha virt. eigenvalues --    3.56683   3.57510   3.57992   3.59160   3.59332
 Alpha virt. eigenvalues --    3.60382   3.61931   3.63279   3.64001   3.64459
 Alpha virt. eigenvalues --    3.65759   3.66549   3.67832   3.68044   3.69410
 Alpha virt. eigenvalues --    3.70047   3.70813   3.71714   3.73094   3.73547
 Alpha virt. eigenvalues --    3.74543   3.75623   3.76563   3.77502   3.78923
 Alpha virt. eigenvalues --    3.79942   3.80376   3.82003   3.83589   3.85140
 Alpha virt. eigenvalues --    3.85900   3.87702   3.89503   3.90332   3.90908
 Alpha virt. eigenvalues --    3.92621   3.94104   3.96289   3.97313   3.98574
 Alpha virt. eigenvalues --    3.98955   4.00435   4.01913   4.02991   4.04032
 Alpha virt. eigenvalues --    4.05075   4.06172   4.07177   4.07356   4.07915
 Alpha virt. eigenvalues --    4.08171   4.08718   4.09350   4.10846   4.12001
 Alpha virt. eigenvalues --    4.12406   4.13039   4.13557   4.14514   4.15527
 Alpha virt. eigenvalues --    4.15618   4.16887   4.17998   4.18487   4.20100
 Alpha virt. eigenvalues --    4.22414   4.23802   4.25132   4.25721   4.26908
 Alpha virt. eigenvalues --    4.28211   4.30118   4.31343   4.31761   4.33056
 Alpha virt. eigenvalues --    4.33373   4.34076   4.35440   4.35935   4.37778
 Alpha virt. eigenvalues --    4.40114   4.43040   4.43284   4.46985   4.49827
 Alpha virt. eigenvalues --    4.57638   4.62008   4.74169   4.75267   4.82632
 Alpha virt. eigenvalues --    4.85091   4.93377   4.95346   5.00108   5.01407
 Alpha virt. eigenvalues --    5.04825   5.07146   5.07490   5.10963   5.13380
 Alpha virt. eigenvalues --    5.14033   5.14247   5.16220   5.33208   5.38236
 Alpha virt. eigenvalues --    5.42328   5.56795   5.62236   5.62932   5.85690
 Alpha virt. eigenvalues --    5.88079   6.07258   7.01531   7.04901   7.07490
 Alpha virt. eigenvalues --    7.09329   7.10951   7.11505   7.14162   7.19123
 Alpha virt. eigenvalues --    7.27811   7.34916   7.38997   7.44202   7.52643
 Alpha virt. eigenvalues --    7.55103   7.65830  23.96816  23.97170  24.04982
 Alpha virt. eigenvalues --   24.08234  24.11048  24.11358  24.11973  24.15074
 Alpha virt. eigenvalues --   24.17434  24.20325  50.16024  50.18637  50.24289
          Condensed to atoms (all electrons):
               1          2          3          4          5          6
     1  C    8.467546   0.102763   0.023281  -1.032849  -1.444891   0.138751
     2  C    0.102763   5.481922   0.000488  -0.136029  -0.058813   0.019488
     3  O    0.023281   0.000488   8.198948  -0.033737   0.003557  -0.052303
     4  C   -1.032849  -0.136029  -0.033737   6.586260   0.224170  -0.080058
     5  C   -1.444891  -0.058813   0.003557   0.224170   6.841081  -0.215713
     6  O    0.138751   0.019488  -0.052303  -0.080058  -0.215713   8.286809
     7  C    0.192858   0.002624  -0.073781  -0.004643  -0.129061  -0.007168
     8  C   -0.034767   0.002876  -0.008184   0.000815  -0.005527  -0.037140
     9  C   -1.124948   0.011667   0.331685   0.265185   0.367630   0.212218
    10  C   -0.016868  -0.002532  -0.086343   0.051602   0.010861  -0.005407
    11  C    0.152687   0.003869   0.132135  -0.074466  -0.019873   0.015671
    12  C    0.248618  -0.114094   0.000381  -0.107981  -0.097266   0.000664
    13  O   -0.031601   0.057485  -0.002231   0.136989  -0.052311   0.021651
    14  H    0.586749  -0.003622  -0.015396  -0.114300  -0.067484  -0.030906
    15  H    0.070130   0.525657   0.000052  -0.053216  -0.038867   0.000367
    16  H   -0.024070   0.417967   0.000015   0.025827  -0.006230   0.001259
    17  H   -0.003749   0.008842   0.001528   0.418249  -0.017387  -0.016038
    18  H   -0.076194   0.027700  -0.001984   0.450121  -0.000364   0.012763
    19  H   -0.076840  -0.029738   0.000278  -0.026948   0.508918  -0.011476
    20  H   -0.049627  -0.000052   0.000209   0.018092   0.431465   0.004399
    21  H    0.000724  -0.000253   0.010197   0.000761  -0.000576  -0.010326
    22  H    0.011347   0.000337  -0.007222  -0.004547  -0.001330   0.011336
    23  H   -0.019328   0.000519   0.001956   0.008263   0.005489  -0.002761
    24  H    0.001028   0.000103  -0.005164   0.000698  -0.001304   0.000688
    25  H   -0.051008   0.001633  -0.047637   0.008224   0.016229  -0.021604
    26  H    0.003370   0.000134   0.010984   0.000322  -0.001064   0.001009
    27  H   -0.009759  -0.000075  -0.001078   0.003482   0.001003  -0.001289
    28  H    0.008284  -0.000064  -0.072195   0.001380   0.000307   0.001316
    29  H   -0.012971   0.000353  -0.028883  -0.028352   0.003339   0.010239
    30  H   -0.080462  -0.085081   0.000137   0.005725   0.009169  -0.000565
    31  H    0.028827  -0.022070   0.000085  -0.008458  -0.049337  -0.001926
               7          8          9         10         11         12
     1  C    0.192858  -0.034767  -1.124948  -0.016868   0.152687   0.248618
     2  C    0.002624   0.002876   0.011667  -0.002532   0.003869  -0.114094
     3  O   -0.073781  -0.008184   0.331685  -0.086343   0.132135   0.000381
     4  C   -0.004643   0.000815   0.265185   0.051602  -0.074466  -0.107981
     5  C   -0.129061  -0.005527   0.367630   0.010861  -0.019873  -0.097266
     6  O   -0.007168  -0.037140   0.212218  -0.005407   0.015671   0.000664
     7  C    6.699368  -0.188910  -0.988005  -0.047987   0.146438   0.009803
     8  C   -0.188910   5.715305   0.029944  -0.074827   0.069899  -0.001697
     9  C   -0.988005   0.029944   7.096491   0.138246  -0.453130  -0.092952
    10  C   -0.047987  -0.074827   0.138246   5.946383  -0.239485   0.001862
    11  C    0.146438   0.069899  -0.453130  -0.239485   5.605006  -0.000724
    12  C    0.009803  -0.001697  -0.092952   0.001862  -0.000724   5.663537
    13  O    0.003913   0.001069  -0.010100  -0.001983  -0.002561   0.051294
    14  H   -0.004100   0.002126  -0.058100   0.000627   0.015495   0.022939
    15  H    0.000776   0.000093  -0.006125  -0.000365   0.000638  -0.092409
    16  H    0.000090   0.000021   0.004591   0.000654  -0.001455   0.002949
    17  H    0.000211   0.004805  -0.035229  -0.031697   0.037937  -0.000543
    18  H    0.005792  -0.003253   0.016482   0.005835  -0.010684  -0.026763
    19  H    0.000336   0.002645  -0.013943  -0.001005   0.002977  -0.003098
    20  H    0.000459  -0.000756   0.009760  -0.000405  -0.000768  -0.023960
    21  H    0.403010  -0.029077  -0.011824  -0.011498   0.013516  -0.002476
    22  H    0.553283  -0.019278  -0.165723  -0.011381   0.011484   0.000489
    23  H   -0.045420   0.495912   0.003775  -0.052944  -0.008950  -0.000799
    24  H   -0.037978   0.416853   0.009446  -0.024720   0.009566   0.000184
    25  H   -0.066574  -0.010736   0.528935   0.019042  -0.039124  -0.002375
    26  H   -0.002149  -0.036074  -0.005487   0.424203  -0.025956  -0.000100
    27  H   -0.025916  -0.027146   0.028255   0.498439  -0.098587  -0.000095
    28  H   -0.002644   0.006575  -0.011000  -0.007942   0.425612   0.000238
    29  H    0.007166   0.005053   0.009966  -0.073292   0.468706   0.000287
    30  H   -0.000308   0.000421   0.003151  -0.000019  -0.000125   0.522164
    31  H    0.000250  -0.000402  -0.002636  -0.000138   0.000425   0.408122
              13         14         15         16         17         18
     1  C   -0.031601   0.586749   0.070130  -0.024070  -0.003749  -0.076194
     2  C    0.057485  -0.003622   0.525657   0.417967   0.008842   0.027700
     3  O   -0.002231  -0.015396   0.000052   0.000015   0.001528  -0.001984
     4  C    0.136989  -0.114300  -0.053216   0.025827   0.418249   0.450121
     5  C   -0.052311  -0.067484  -0.038867  -0.006230  -0.017387  -0.000364
     6  O    0.021651  -0.030906   0.000367   0.001259  -0.016038   0.012763
     7  C    0.003913  -0.004100   0.000776   0.000090   0.000211   0.005792
     8  C    0.001069   0.002126   0.000093   0.000021   0.004805  -0.003253
     9  C   -0.010100  -0.058100  -0.006125   0.004591  -0.035229   0.016482
    10  C   -0.001983   0.000627  -0.000365   0.000654  -0.031697   0.005835
    11  C   -0.002561   0.015495   0.000638  -0.001455   0.037937  -0.010684
    12  C    0.051294   0.022939  -0.092409   0.002949  -0.000543  -0.026763
    13  O    8.345388   0.008615  -0.070476  -0.073495  -0.064474  -0.031454
    14  H    0.008615   0.457934   0.002188   0.000081   0.003052  -0.008371
    15  H   -0.070476   0.002188   0.525914  -0.028101  -0.001558   0.007970
    16  H   -0.073495   0.000081  -0.028101   0.511652  -0.000393  -0.003584
    17  H   -0.064474   0.003052  -0.001558  -0.000393   0.485723  -0.016960
    18  H   -0.031454  -0.008371   0.007970  -0.003584  -0.016960   0.483263
    19  H    0.000003   0.003914  -0.004399   0.006146   0.000449  -0.002371
    20  H   -0.000345  -0.009750   0.001261  -0.002291   0.000704   0.000258
    21  H    0.000229  -0.000040   0.000028  -0.000060   0.000268  -0.000301
    22  H    0.000000   0.002062   0.000013  -0.000008   0.000086   0.000070
    23  H    0.000628  -0.001482  -0.000016  -0.000065  -0.000384   0.000724
    24  H    0.000130  -0.000123   0.000004   0.000016   0.000053   0.000052
    25  H   -0.001336  -0.000228  -0.000477   0.000300  -0.005946   0.002874
    26  H   -0.000011   0.000562   0.000011  -0.000031   0.000741  -0.000156
    27  H   -0.000031  -0.001299  -0.000011   0.000013  -0.000009   0.000204
    28  H    0.000136   0.001307   0.000022  -0.000036  -0.002882   0.000016
    29  H   -0.001295  -0.001523   0.000244   0.000301  -0.005674   0.001336
    30  H    0.002040  -0.006223  -0.016632   0.007731   0.000036  -0.008224
    31  H    0.009228   0.001904   0.003346  -0.009995   0.001630  -0.001176
              19         20         21         22         23         24
     1  C   -0.076840  -0.049627   0.000724   0.011347  -0.019328   0.001028
     2  C   -0.029738  -0.000052  -0.000253   0.000337   0.000519   0.000103
     3  O    0.000278   0.000209   0.010197  -0.007222   0.001956  -0.005164
     4  C   -0.026948   0.018092   0.000761  -0.004547   0.008263   0.000698
     5  C    0.508918   0.431465  -0.000576  -0.001330   0.005489  -0.001304
     6  O   -0.011476   0.004399  -0.010326   0.011336  -0.002761   0.000688
     7  C    0.000336   0.000459   0.403010   0.553283  -0.045420  -0.037978
     8  C    0.002645  -0.000756  -0.029077  -0.019278   0.495912   0.416853
     9  C   -0.013943   0.009760  -0.011824  -0.165723   0.003775   0.009446
    10  C   -0.001005  -0.000405  -0.011498  -0.011381  -0.052944  -0.024720
    11  C    0.002977  -0.000768   0.013516   0.011484  -0.008950   0.009566
    12  C   -0.003098  -0.023960  -0.002476   0.000489  -0.000799   0.000184
    13  O    0.000003  -0.000345   0.000229   0.000000   0.000628   0.000130
    14  H    0.003914  -0.009750  -0.000040   0.002062  -0.001482  -0.000123
    15  H   -0.004399   0.001261   0.000028   0.000013  -0.000016   0.000004
    16  H    0.006146  -0.002291  -0.000060  -0.000008  -0.000065   0.000016
    17  H    0.000449   0.000704   0.000268   0.000086  -0.000384   0.000053
    18  H   -0.002371   0.000258  -0.000301   0.000070   0.000724   0.000052
    19  H    0.462110  -0.015112   0.000914   0.000044  -0.002008   0.000111
    20  H   -0.015112   0.475908  -0.000034  -0.000143   0.000446  -0.000056
    21  H    0.000914  -0.000034   0.477958  -0.003904  -0.002692  -0.009138
    22  H    0.000044  -0.000143  -0.003904   0.452472   0.001690  -0.002467
    23  H   -0.002008   0.000446  -0.002692   0.001690   0.460800  -0.004799
    24  H    0.000111  -0.000056  -0.009138  -0.002467  -0.004799   0.467631
    25  H   -0.001415  -0.002539  -0.010799  -0.012634  -0.000404   0.002163
    26  H    0.000042  -0.000055   0.001735  -0.002365  -0.004431  -0.006796
    27  H   -0.000061   0.000047  -0.002439  -0.003531   0.002032  -0.000995
    28  H    0.000212  -0.000083   0.001108   0.000577  -0.002424   0.001673
    29  H    0.001154   0.000365  -0.000553  -0.000304  -0.002348  -0.001749
    30  H    0.003751  -0.003247   0.000007  -0.000069  -0.000081   0.000013
    31  H    0.002165  -0.011193  -0.000022   0.000048   0.000063  -0.000011
              25         26         27         28         29         30
     1  C   -0.051008   0.003370  -0.009759   0.008284  -0.012971  -0.080462
     2  C    0.001633   0.000134  -0.000075  -0.000064   0.000353  -0.085081
     3  O   -0.047637   0.010984  -0.001078  -0.072195  -0.028883   0.000137
     4  C    0.008224   0.000322   0.003482   0.001380  -0.028352   0.005725
     5  C    0.016229  -0.001064   0.001003   0.000307   0.003339   0.009169
     6  O   -0.021604   0.001009  -0.001289   0.001316   0.010239  -0.000565
     7  C   -0.066574  -0.002149  -0.025916  -0.002644   0.007166  -0.000308
     8  C   -0.010736  -0.036074  -0.027146   0.006575   0.005053   0.000421
     9  C    0.528935  -0.005487   0.028255  -0.011000   0.009966   0.003151
    10  C    0.019042   0.424203   0.498439  -0.007942  -0.073292  -0.000019
    11  C   -0.039124  -0.025956  -0.098587   0.425612   0.468706  -0.000125
    12  C   -0.002375  -0.000100  -0.000095   0.000238   0.000287   0.522164
    13  O   -0.001336  -0.000011  -0.000031   0.000136  -0.001295   0.002040
    14  H   -0.000228   0.000562  -0.001299   0.001307  -0.001523  -0.006223
    15  H   -0.000477   0.000011  -0.000011   0.000022   0.000244  -0.016632
    16  H    0.000300  -0.000031   0.000013  -0.000036   0.000301   0.007731
    17  H   -0.005946   0.000741  -0.000009  -0.002882  -0.005674   0.000036
    18  H    0.002874  -0.000156   0.000204   0.000016   0.001336  -0.008224
    19  H   -0.001415   0.000042  -0.000061   0.000212   0.001154   0.003751
    20  H   -0.002539  -0.000055   0.000047  -0.000083   0.000365  -0.003247
    21  H   -0.010799   0.001735  -0.002439   0.001108  -0.000553   0.000007
    22  H   -0.012634  -0.002365  -0.003531   0.000577  -0.000304  -0.000069
    23  H   -0.000404  -0.004431   0.002032  -0.002424  -0.002348  -0.000081
    24  H    0.002163  -0.006796  -0.000995   0.001673  -0.001749   0.000013
    25  H    0.450224   0.000336   0.002303  -0.000553  -0.000111   0.000524
    26  H    0.000336   0.489298  -0.012679  -0.008606  -0.000168  -0.000006
    27  H    0.002303  -0.012679   0.485480  -0.008939   0.004072   0.000014
    28  H   -0.000553  -0.008606  -0.008939   0.479965  -0.019605  -0.000017
    29  H   -0.000111  -0.000168   0.004072  -0.019605   0.513049   0.000044
    30  H    0.000524  -0.000006   0.000014  -0.000017   0.000044   0.468103
    31  H   -0.000252  -0.000008  -0.000005   0.000011   0.000074  -0.006116
              31
     1  C    0.028827
     2  C   -0.022070
     3  O    0.000085
     4  C   -0.008458
     5  C   -0.049337
     6  O   -0.001926
     7  C    0.000250
     8  C   -0.000402
     9  C   -0.002636
    10  C   -0.000138
    11  C    0.000425
    12  C    0.408122
    13  O    0.009228
    14  H    0.001904
    15  H    0.003346
    16  H   -0.009995
    17  H    0.001630
    18  H   -0.001176
    19  H    0.002165
    20  H   -0.011193
    21  H   -0.000022
    22  H    0.000048
    23  H    0.000063
    24  H   -0.000011
    25  H   -0.000252
    26  H   -0.000008
    27  H   -0.000005
    28  H    0.000011
    29  H    0.000074
    30  H   -0.006116
    31  H    0.484736
 Mulliken charges:
               1
     1  C    0.052972
     2  C   -0.214004
     3  O   -0.279779
     4  C   -0.500581
     5  C   -0.215819
     6  O   -0.243946
     7  C   -0.401731
     8  C   -0.276637
     9  C   -0.088227
    10  C   -0.406916
    11  C   -0.136174
    12  C   -0.366197
    13  O   -0.295094
    14  H    0.213393
    15  H    0.173940
    16  H    0.170199
    17  H    0.238610
    18  H    0.176377
    19  H    0.192243
    20  H    0.177046
    21  H    0.185555
    22  H    0.189567
    23  H    0.169041
    24  H    0.184891
    25  H    0.242966
    26  H    0.173396
    27  H    0.168603
    28  H    0.208250
    29  H    0.151079
    30  H    0.184146
    31  H    0.172830
 Sum of Mulliken charges =  -0.00000
 Mulliken charges with hydrogens summed into heavy atoms:
               1
     1  C    0.266365
     2  C    0.130135
     3  O   -0.279779
     4  C   -0.085594
     5  C    0.153470
     6  O   -0.243946
     7  C   -0.026610
     8  C    0.077295
     9  C    0.154739
    10  C   -0.064917
    11  C    0.223155
    12  C   -0.009221
    13  O   -0.295094
 Electronic spatial extent (au):  <R**2>=           2974.7424
 Charge=             -0.0000 electrons
 Dipole moment (field-independent basis, Debye):
    X=             -0.4564    Y=             -1.7455    Z=             -0.8616  Tot=              1.9993
 Quadrupole moment (field-independent basis, Debye-Ang):
   XX=            -68.0907   YY=            -79.6837   ZZ=            -81.8669
   XY=              3.5134   XZ=              4.6134   YZ=              0.6096
 Traceless Quadrupole moment (field-independent basis, Debye-Ang):
   XX=              8.4564   YY=             -3.1365   ZZ=             -5.3198
   XY=              3.5134   XZ=              4.6134   YZ=              0.6096
 Octapole moment (field-independent basis, Debye-Ang**2):
  XXX=            -18.6238  YYY=              0.3076  ZZZ=              1.2688  XYY=             10.7330
  XXY=             -5.5087  XXZ=              6.3645  XZZ=             -7.6050  YZZ=             -3.5957
  YYZ=             -6.0847  XYZ=              7.4038
 Hexadecapole moment (field-independent basis, Debye-Ang**3):
 XXXX=          -2854.8220 YYYY=           -622.6122 ZZZZ=           -344.3188 XXXY=              0.7929
 XXXZ=            -16.6587 YYYX=             19.9115 YYYZ=             -6.5840 ZZZX=             -3.3406
 ZZZY=              8.0779 XXYY=           -600.1536 XXZZ=           -555.6452 YYZZ=           -160.9569
 XXYZ=             -6.9234 YYXZ=              2.4443 ZZXY=             -3.7531
 N-N= 8.976816754724D+02 E-N=-3.237470618593D+03  KE= 6.153401587638D+02
 D1PCM: PCM CHGder 1st derivatives, ID1Alg=3 FixD1E=F DoIter=F DoCFld=F I1PDM=0.
 Calling FoFJK, ICntrl=      2127 FMM=F ISym2X=0 I1Cent= 0 IOpClX= 0 NMat=1 NMatS=1 NMatT=0.
 ***** Axes restored to original set *****
 -------------------------------------------------------------------
 Center     Atomic                   Forces (Hartrees/Bohr)
 Number     Number              X              Y              Z
 -------------------------------------------------------------------
      1        6          -0.001356157   -0.001931573    0.002560561
      2        6          -0.003366866    0.003598958   -0.004229419
      3        8           0.000764799   -0.003450043   -0.010819350
      4        6           0.005123102    0.004678595    0.002292031
      5        6           0.001977382   -0.002397709   -0.002707769
      6        8           0.000090313    0.002357838    0.011034658
      7        6           0.000980072   -0.001680884    0.002018111
      8        6           0.000786261   -0.001195085   -0.003690878
      9        6          -0.002233352   -0.003247699    0.006493053
     10        6           0.002554528    0.000626133    0.001222054
     11        6          -0.002742606    0.006247805    0.001123961
     12        6          -0.001371222   -0.000656294    0.001372881
     13        8          -0.004613870   -0.004458581    0.007162178
     14        1           0.000079354    0.002266489   -0.006514163
     15        1           0.004035481   -0.002275985   -0.002991572
     16        1           0.001033104    0.000578696    0.004639373
     17        1          -0.006286018   -0.002250525   -0.000140597
     18        1           0.002847005   -0.000748961   -0.005726656
     19        1          -0.001801143   -0.001358222    0.003334487
     20        1          -0.000365596    0.002488742   -0.000967930
     21        1           0.001361633    0.002525531    0.001285929
     22        1          -0.002430082    0.000090751   -0.002410924
     23        1           0.003115986   -0.000537853    0.001707438
     24        1          -0.002111979    0.001122493    0.000961634
     25        1           0.001221644    0.003282690   -0.007028746
     26        1          -0.001014905   -0.001535881    0.002161231
     27        1          -0.001984518    0.000583101   -0.002576258
     28        1          -0.001189583   -0.003682038   -0.002146617
     29        1           0.004720736   -0.000661737    0.005094513
     30        1           0.000342579   -0.000198351   -0.003424215
     31        1           0.001833917    0.001819600    0.000911000
 -------------------------------------------------------------------
 Cartesian Forces:  Max     0.011034658 RMS     0.003336964

 GradGradGradGradGradGradGradGradGradGradGradGradGradGradGradGradGradGrad
 Berny optimization.
 FormGI is forming the generalized inverse of G from B-inverse, IUseBI=4.
 Internal  Forces:  Max     0.011833792 RMS     0.002069536
 Search for a local minimum.
 Step number   1 out of a maximum of  186
 All quantities printed in internal units (Hartrees-Bohrs-Radians)
 Mixed Optimization -- RFO/linear search
 Second derivative matrix not updated -- first step.
 ITU=  0
     Eigenvalues ---    0.00425   0.00619   0.00632   0.00728   0.01399
     Eigenvalues ---    0.01434   0.01731   0.02695   0.02810   0.03080
     Eigenvalues ---    0.03356   0.04094   0.04187   0.04599   0.04744
     Eigenvalues ---    0.04751   0.04889   0.04919   0.05106   0.05140
     Eigenvalues ---    0.05273   0.05637   0.05701   0.05982   0.06191
     Eigenvalues ---    0.06242   0.06428   0.06917   0.07565   0.07823
     Eigenvalues ---    0.07828   0.07890   0.07931   0.08104   0.08278
     Eigenvalues ---    0.08843   0.09263   0.10186   0.11212   0.11624
     Eigenvalues ---    0.11671   0.11765   0.11776   0.12412   0.12661
     Eigenvalues ---    0.14739   0.14781   0.16534   0.17890   0.19217
     Eigenvalues ---    0.19718   0.21978   0.22475   0.25000   0.27075
     Eigenvalues ---    0.27724   0.28624   0.28675   0.28895   0.28978
     Eigenvalues ---    0.29360   0.30332   0.35095   0.35176   0.35198
     Eigenvalues ---    0.35239   0.35242   0.35248   0.35276   0.35301
     Eigenvalues ---    0.35319   0.35443   0.35446   0.35452   0.35457
     Eigenvalues ---    0.35466   0.35770   0.35842   0.35867   0.36278
     Eigenvalues ---    0.40203   0.40772   0.41552   0.42361   0.43378
     Eigenvalues ---    0.461131000.000001000.000001000.000001000.00000
     Eigenvalues --- 1000.000001000.000001000.000001000.000001000.00000
     Eigenvalues --- 1000.000001000.000001000.000001000.000001000.00000
     Eigenvalues --- 1000.000001000.000001000.000001000.000001000.00000
     Eigenvalues --- 1000.000001000.000001000.000001000.000001000.00000
     Eigenvalues --- 1000.000001000.000001000.000001000.000001000.00000
     Eigenvalues --- 1000.000001000.000001000.000001000.000001000.00000
     Eigenvalues --- 1000.000001000.000001000.000001000.000001000.00000
     Eigenvalues --- 1000.000001000.000001000.000001000.000001000.00000
     Eigenvalues --- 1000.000001000.000001000.000001000.000001000.00000
     Eigenvalues --- 1000.000001000.000001000.000001000.000001000.00000
     Eigenvalues --- 1000.000001000.000001000.000001000.000001000.00000
     Eigenvalues --- 1000.000001000.000001000.000001000.000001000.00000
     Eigenvalues --- 1000.000001000.000001000.000001000.000001000.00000
     Eigenvalues --- 1000.000001000.000001000.000001000.000001000.00000
     Eigenvalues --- 1000.000001000.000001000.000001000.000001000.00000
     Eigenvalues --- 1000.000001000.000001000.000001000.000001000.00000
     Eigenvalues --- 1000.000001000.000001000.000001000.000001000.00000
     Eigenvalues --- 1000.000001000.000001000.000001000.000001000.00000
     Eigenvalues --- 1000.000001000.000001000.000001000.000001000.00000
 RFO step:  Lambda=-3.64628937D-03 EMin= 4.24594732D-03
 Linear search not attempted -- first point.
 Iteration  1 RMS(Cart)=  0.07677539 RMS(Int)=  0.00130173
 Iteration  2 RMS(Cart)=  0.00328191 RMS(Int)=  0.00005421
 Iteration  3 RMS(Cart)=  0.00000337 RMS(Int)=  0.00005417
 Iteration  4 RMS(Cart)=  0.00000000 RMS(Int)=  0.00005417
 Iteration  1 RMS(Cart)=  0.00001516 RMS(Int)=  0.00000352
 Iteration  2 RMS(Cart)=  0.00000845 RMS(Int)=  0.00000393
 Iteration  3 RMS(Cart)=  0.00000472 RMS(Int)=  0.00000446
 Iteration  4 RMS(Cart)=  0.00000263 RMS(Int)=  0.00000481
 Iteration  5 RMS(Cart)=  0.00000147 RMS(Int)=  0.00000502
 Iteration  6 RMS(Cart)=  0.00000082 RMS(Int)=  0.00000514
 Variable       Old X    -DE/DX   Delta X   Delta X   Delta X     New X
                                 (Linear)    (Quad)   (Total)
    R1        2.89515   0.00003   0.00000  -0.00042  -0.00043   2.89472
    R2        2.89202  -0.00146   0.00000  -0.00651  -0.00652   2.88550
    R3        2.68467   0.00041   0.00000   0.00097   0.00097   2.68563
    R4        2.04939   0.00687   0.00000   0.01918   0.01918   2.06857
    R5        2.89624   0.00087   0.00000   0.00402   0.00401   2.90025
    R6        2.68279   0.00366   0.00000   0.00993   0.00993   2.69272
    R7        2.05229   0.00541   0.00000   0.01519   0.01519   2.06747
    R8        2.04443   0.00477   0.00000   0.01319   0.01319   2.05762
    R9        2.65419   0.00397   0.00000   0.00831   0.00832   2.66251
   R10        2.68756   0.00268   0.00000   0.00607   0.00607   2.69363
   R11        2.66711   0.00282   0.00000   0.00667   0.00669   2.67379
   R12        2.03650   0.00634   0.00000   0.01731   0.01731   2.05380
   R13        2.05288   0.00637   0.00000   0.01790   0.01790   2.07078
   R14        2.88504  -0.00024   0.00000  -0.00199  -0.00198   2.88307
   R15        2.05189   0.00367   0.00000   0.01030   0.01030   2.06219
   R16        2.04957   0.00268   0.00000   0.00748   0.00748   2.05704
   R17        2.64004   0.00233   0.00000   0.00502   0.00502   2.64506
   R18        2.88904  -0.00137   0.00000  -0.00427  -0.00427   2.88477
   R19        2.87553  -0.00072   0.00000  -0.00246  -0.00248   2.87306
   R20        2.04947   0.00312   0.00000   0.00871   0.00871   2.05818
   R21        2.05354   0.00337   0.00000   0.00947   0.00947   2.06300
   R22        2.88788  -0.00074   0.00000  -0.00177  -0.00178   2.88610
   R23        2.05390   0.00341   0.00000   0.00959   0.00959   2.06349
   R24        2.05160   0.00258   0.00000   0.00722   0.00722   2.05882
   R25        2.04291   0.00780   0.00000   0.02153   0.02153   2.06444
   R26        2.87075   0.00019   0.00000   0.00069   0.00071   2.87146
   R27        2.05283   0.00282   0.00000   0.00792   0.00792   2.06075
   R28        2.05520   0.00322   0.00000   0.00907   0.00907   2.06427
   R29        2.04329   0.00442   0.00000   0.01222   0.01222   2.05551
   R30        2.04924   0.00689   0.00000   0.01923   0.01923   2.06847
   R31        2.05274   0.00342   0.00000   0.00959   0.00959   2.06233
   R32        2.04961   0.00271   0.00000   0.00757   0.00757   2.05718
    A1        1.91286   0.00092   0.00000  -0.00048  -0.00057   1.91229
    A2        1.97021  -0.00248   0.00000  -0.01277  -0.01273   1.95749
    A3        1.88955   0.00039   0.00000   0.00334   0.00339   1.89294
    A4        1.87636   0.00145   0.00000   0.00568   0.00570   1.88207
    A5        1.92419  -0.00105   0.00000  -0.00276  -0.00278   1.92142
    A6        1.89067   0.00074   0.00000   0.00702   0.00700   1.89767
    A7        1.94990   0.00190   0.00000   0.00679   0.00670   1.95660
    A8        1.93918  -0.00106   0.00000  -0.00672  -0.00673   1.93244
    A9        1.93231  -0.00096   0.00000  -0.00581  -0.00580   1.92651
   A10        1.90450   0.00041   0.00000   0.00663   0.00668   1.91118
   A11        1.84368  -0.00088   0.00000  -0.00224  -0.00220   1.84149
   A12        1.89098   0.00060   0.00000   0.00164   0.00160   1.89258
   A13        2.02768  -0.00569   0.00000  -0.03696  -0.03687   1.99081
   A14        1.94004   0.00049   0.00000  -0.00190  -0.00207   1.93797
   A15        1.94290  -0.00226   0.00000  -0.02179  -0.02178   1.92112
   A16        1.91401  -0.00034   0.00000   0.00260   0.00257   1.91657
   A17        1.86757   0.00024   0.00000   0.00391   0.00382   1.87139
   A18        1.91011   0.00123   0.00000   0.01439   0.01441   1.92453
   A19        1.88787   0.00071   0.00000   0.00344   0.00337   1.89124
   A20        1.92169  -0.00108   0.00000  -0.00901  -0.00915   1.91253
   A21        1.89322  -0.00021   0.00000  -0.01033  -0.01032   1.88290
   A22        1.92075  -0.00009   0.00000   0.00157   0.00166   1.92241
   A23        1.90954   0.00093   0.00000   0.00379   0.00373   1.91326
   A24        1.94414   0.00030   0.00000   0.00660   0.00662   1.95076
   A25        1.87319   0.00017   0.00000   0.00737   0.00731   1.88051
   A26        2.05533  -0.01183   0.00000  -0.04665  -0.04665   2.00867
   A27        1.95843  -0.00186   0.00000  -0.01526  -0.01539   1.94304
   A28        1.94836  -0.00028   0.00000  -0.00159  -0.00169   1.94667
   A29        1.90771   0.00130   0.00000   0.00758   0.00767   1.91539
   A30        1.89926   0.00089   0.00000  -0.00056  -0.00054   1.89871
   A31        1.87135   0.00006   0.00000   0.00382   0.00382   1.87517
   A32        1.87532  -0.00002   0.00000   0.00717   0.00715   1.88247
   A33        1.91067   0.00206   0.00000  -0.00021  -0.00018   1.91049
   A34        1.92307  -0.00100   0.00000  -0.00683  -0.00684   1.91623
   A35        1.91643  -0.00058   0.00000   0.00190   0.00189   1.91832
   A36        1.91419  -0.00096   0.00000  -0.00224  -0.00234   1.91186
   A37        1.93175  -0.00024   0.00000   0.00189   0.00194   1.93370
   A38        1.86744   0.00065   0.00000   0.00550   0.00551   1.87294
   A39        1.95311  -0.00064   0.00000  -0.01003  -0.00988   1.94323
   A40        1.94507   0.00351   0.00000   0.01252   0.01227   1.95734
   A41        1.82918  -0.00228   0.00000  -0.01130  -0.01132   1.81786
   A42        1.90151  -0.00261   0.00000  -0.01310  -0.01302   1.88850
   A43        1.90406   0.00187   0.00000   0.01479   0.01478   1.91883
   A44        1.92995   0.00024   0.00000   0.00799   0.00806   1.93801
   A45        1.91957  -0.00096   0.00000  -0.00438  -0.00459   1.91498
   A46        1.93989  -0.00051   0.00000  -0.00143  -0.00140   1.93849
   A47        1.91727   0.00092   0.00000   0.00143   0.00152   1.91878
   A48        1.90169   0.00057   0.00000   0.00368   0.00374   1.90543
   A49        1.90852  -0.00001   0.00000  -0.00265  -0.00260   1.90592
   A50        1.87618   0.00001   0.00000   0.00351   0.00348   1.87966
   A51        1.94776   0.00224   0.00000   0.00539   0.00531   1.95307
   A52        1.84152  -0.00129   0.00000  -0.00180  -0.00181   1.83971
   A53        1.91059   0.00013   0.00000   0.00110   0.00118   1.91177
   A54        1.94745  -0.00023   0.00000  -0.00150  -0.00142   1.94603
   A55        1.92612  -0.00155   0.00000  -0.00691  -0.00695   1.91917
   A56        1.88766   0.00070   0.00000   0.00404   0.00403   1.89169
   A57        1.91071  -0.00039   0.00000  -0.00662  -0.00668   1.90403
   A58        1.92885   0.00062   0.00000   0.00203   0.00201   1.93086
   A59        1.90726  -0.00014   0.00000   0.00377   0.00380   1.91106
   A60        1.91465  -0.00039   0.00000  -0.00155  -0.00154   1.91311
   A61        1.93659   0.00034   0.00000   0.00093   0.00097   1.93756
   A62        1.86552  -0.00002   0.00000   0.00173   0.00171   1.86723
   A63        1.98022  -0.00495   0.00000  -0.02878  -0.02881   1.95142
    D1        0.51826   0.00180   0.00000   0.01949   0.01950   0.53776
    D2        2.59845   0.00093   0.00000   0.00875   0.00880   2.60725
    D3       -1.59622   0.00017   0.00000   0.00094   0.00099  -1.59523
    D4       -1.57258   0.00095   0.00000   0.02096   0.02093  -1.55165
    D5        0.50761   0.00008   0.00000   0.01022   0.01024   0.51785
    D6        2.59612  -0.00069   0.00000   0.00241   0.00242   2.59855
    D7        2.61770   0.00131   0.00000   0.01788   0.01784   2.63554
[...]
 -0.00000157,-0.00001237,0.00003607,-0.00008226,-0.00006892,-0.00013283
 ,0.00017426,0.00002802,0.00021766,0.00011576,0.00009852,-0.00005991,-0
 .00001549,-0.00002138,-0.00029119,-0.00013167,0.00012197,0.00013775,-0
 .00019166,0.00083066,-0.00016312,-0.00005314,0.00010253,0.00029045,0.0
 0066053,-0.00065456,-0.04796899,-0.11557599,0.24640568,0.00025808,-0.0
 0002447,-0.00009196,0.00002630,0.00000188,-0.00000073,-0.00574195,0.00
 047101,0.00480386,0.00004228,-0.00002344,0.00003637,-0.00001855,0.0000
 3379,0.00001128,-0.00051577,-0.00017270,-0.00025514,0.00074317,-0.0007
 6824,-0.00115595,-0.00302790,-0.00443661,0.00408419,0.00088572,0.00188
 084,0.00057034,-0.07000010,-0.04581839,0.05181482,-0.00519236,-0.01941
 801,0.01700348,-0.00000708,-0.00001928,-0.00001142,-0.00006118,0.00001
 440,-0.00003343,0.00000263,0.00000762,0.00000759,-0.00000514,0.0000036
 5,0.00000152,-0.00000628,-0.00000160,-0.00000317,0.00003114,-0.0000271
 4,0.00000766,-0.00001666,0.00001864,0.00000391,-0.00000344,-0.00000274
 ,-0.00000208,-0.00000325,-0.00000731,0.00000018,0.00019772,-0.00015051
 ,0.00031818,-0.00001222,-0.00023665,0.00035596,0.00011210,0.00019590,0
 .00030546,0.00020966,0.00018844,-0.00037144,-0.00000912,-0.00018856,-0
 .00007960,0.07276369,0.00008609,-0.00000148,-0.00010241,0.00001510,-0.
 00000244,0.00000365,0.00342895,0.00119127,-0.00269393,-0.00001530,-0.0
 0002333,0.00004095,-0.00001945,0.00002157,0.00001884,-0.00025108,0.000
 22302,0.00023579,-0.00131440,-0.00483204,-0.00450478,-0.00815279,-0.01
 822365,0.02196289,0.00082544,-0.00114720,-0.00089675,-0.04711228,-0.15
 720162,0.12273145,0.00176497,0.00816274,-0.00844996,-0.00000668,-0.000
 01374,-0.00000961,-0.00001785,0.00001533,-0.00001816,-0.00001037,0.000
 00212,0.00001141,-0.00000241,0.00000257,0.00000091,-0.00000220,-0.0000
 0012,-0.00000213,0.00001753,-0.00000120,-0.00000739,-0.00001415,0.0000
 1213,0.,0.00000283,-0.00000051,0.00000010,-0.00000182,-0.00000371,-0.0
 0000014,-0.00099873,-0.00105607,0.00147887,0.00023678,0.00021765,-0.00
 018160,-0.00003360,0.00130868,-0.00012109,0.00074693,0.00097576,0.0002
 3803,-0.00008453,0.00025942,0.00014496,0.05250236,0.17167483,-0.000205
 17,-0.00000305,0.00005907,-0.00002894,-0.00000475,0.00000598,0.0050333
 0,0.00002480,-0.00169600,-0.00005641,-0.00001603,-0.00004174,0.0000106
 6,-0.00002025,-0.00000574,0.00041662,0.00025567,0.00024730,-0.00061314
 ,-0.00281053,-0.00067957,-0.00518538,-0.01014851,0.01180878,-0.0006872
 5,-0.00172913,-0.00077343,0.05391755,0.12292538,-0.18348112,0.00052884
 ,0.01094994,-0.01073489,0.00000530,0.00001374,0.00000716,0.00006907,-0
 .00000193,0.00003145,-0.00000038,-0.00000816,-0.00000709,0.00000545,-0
 .00000294,-0.00000248,0.00000758,0.00000223,0.00000304,-0.00002461,0.0
 0004950,0.00000216,0.00002515,-0.00000508,-0.00000492,0.00000362,0.000
 00195,0.00000103,0.00000316,0.00000713,0.00000087,-0.00025333,-0.00062
 248,0.00055381,0.00003444,-0.00014081,0.00011424,0.00019577,0.00081260
 ,0.00067781,0.00025483,0.00088599,0.00044315,-0.00004004,0.00020453,0.
 00002978,-0.05921249,-0.13233401,0.19708087,0.00012370,0.00005248,-0.0
 0009109,0.00005560,0.00001393,-0.00001401,0.00279005,-0.00085217,-0.00
 021543,0.00013715,0.00008782,0.00015916,0.00000293,0.00000217,0.000012
 73,-0.00007943,-0.00021579,0.00008506,-0.00004630,0.00042080,-0.000115
 96,-0.00483866,0.00025447,-0.00430504,-0.00024958,0.00012276,0.0000354
 4,-0.19358436,0.01745291,-0.12601176,-0.02324855,0.00480732,-0.0187323
 2,-0.00000320,-0.00000956,-0.00000811,-0.00009506,-0.00001331,-0.00004
 513,-0.00000290,-0.00000773,0.00002569,-0.00001005,0.00000202,0.000004
 75,-0.00001440,-0.00000481,-0.00000559,0.00006929,-0.00010705,-0.00006
 795,-0.00007493,-0.00003960,-0.00000017,0.00000022,-0.00000105,-0.0000
 0183,-0.00000668,-0.00001157,-0.00000408,0.00015414,-0.00008766,0.0001
 4657,-0.00023319,-0.00038420,0.00025167,0.00084780,-0.00108260,-0.0004
 0567,0.00058015,-0.00032394,0.00016421,-0.00009117,-0.00005611,0.00001
 455,0.00789779,-0.00023270,0.00613462,0.21212106,-0.00002405,-0.000077
 73,0.00009655,-0.00003188,-0.00000860,0.00000830,-0.00140401,0.0009212
 6,-0.00063392,-0.00007550,-0.00003214,-0.00008790,-0.00000188,0.000001
 24,-0.00000705,0.00012486,0.00021313,0.00008639,-0.00008042,0.00178659
 ,-0.00070649,-0.02364655,0.00167766,-0.02081080,-0.00013534,-0.0005776
 9,-0.00024770,0.01845500,-0.05077803,0.01777948,0.01096575,-0.00339773
 ,0.01037278,0.00000308,0.00000426,0.00000471,0.00005613,0.00001066,0.0
 0002789,-0.00001898,0.00000633,-0.00000270,0.00000589,-0.00000059,-0.0
 0000262,0.00000875,0.00000301,0.00000312,-0.00006514,0.00005938,0.0000
 4540,0.00003737,0.00002347,-0.00000158,0.00000274,0.00000164,0.0000018
 2,0.00000343,0.00000647,0.00000287,0.00043834,0.00009882,0.00003393,0.
 00026378,-0.00028394,0.00048455,-0.00168264,-0.00518705,-0.00225788,0.
 00065494,0.00132368,0.00052107,-0.00002341,0.00009922,0.00005983,0.015
 92055,-0.00215369,0.01215408,-0.02164230,0.05598686,0.00012285,-0.0000
 6527,-0.00002445,-0.00000970,-0.00000669,0.00000886,-0.00168042,-0.000
 87139,0.00148859,-0.00002648,-0.00007867,-0.00006354,-0.00001281,0.000
 01967,0.00000114,-0.00030984,0.00007444,-0.00003221,0.00075581,0.00082
 086,0.00056666,-0.01050464,0.00052243,-0.01087010,0.00025725,0.0000465
 8,0.00009941,-0.12814934,0.01845775,-0.16014825,0.01432952,-0.00179556
 ,0.01032062,-0.00000354,-0.00000847,-0.00000373,0.00001545,0.00001897,
 0.00000542,-0.00000688,0.00000575,0.00001099,0.00000136,0.00000168,-0.
 00000101,0.00000487,0.00000186,0.00000107,0.00001380,0.00005161,0.0000
 2623,0.00003108,0.00003389,0.00000195,0.00000085,0.00000007,0.00000172
 ,0.00000070,0.00000132,0.00000269,0.00022588,-0.00011405,0.00010787,-0
 .00010977,-0.00017616,0.00052844,-0.00022552,-0.00304981,0.00005468,0.
 00032775,0.00026617,0.00021893,-0.00009937,0.00001895,0.00003005,-0.01
 687284,0.00166969,-0.01437425,0.13965782,-0.01540641,0.17194795,0.0004
 9709,-0.00002434,-0.00016987,0.00003797,0.00000321,0.00000767,-0.00294
 528,-0.01424971,-0.00235277,-0.00004454,0.00001082,0.00011710,-0.00002
 654,0.00004327,0.00002717,-0.00021000,-0.00050015,0.00022837,-0.000229
 67,-0.00040981,0.00004643,-0.00504129,0.00095344,0.00240793,-0.0004886
 1,0.00046566,0.00194993,0.00694464,0.02523158,0.01370128,-0.06175538,-
 0.04432942,-0.02803052,-0.00001085,-0.00002621,-0.00001478,-0.00002235
 ,0.00003034,-0.00002082,-0.00002424,0.00001399,0.00003397,-0.00000890,
 0.00000369,0.00000244,-0.00000536,-0.00000117,-0.00000500,0.00013695,-
 0.00004599,-0.00009514,-0.00006088,0.00000800,-0.00000131,0.00000212,0
 .00000087,0.00000129,-0.00000368,-0.00000786,0.00000274,0.00015090,0.0
 0001168,-0.00013912,0.00003356,0.00002368,-0.00007267,0.00012177,-0.00
 001100,0.00020352,0.00036375,0.00161969,0.00072993,-0.00007747,-0.0006
 3705,-0.00014235,0.00084894,-0.00090368,-0.00047895,0.00130818,-0.0004
 5671,-0.00086554,0.06437935,0.00043634,-0.00000771,-0.00021966,0.00005
 082,0.00000109,-0.00000426,-0.00971564,-0.02888545,-0.00396116,0.00006
 051,0.00000339,0.00009527,-0.00004022,0.00005816,0.00002173,-0.0008693
 1,0.00018429,-0.00071890,-0.00029818,0.00022997,-0.00002616,0.00235267
 ,0.00078790,-0.00080135,0.00076171,0.00214598,0.00552725,-0.00159857,-
 0.00785514,-0.00617743,-0.04406266,-0.23998367,-0.11079494,-0.00001443
 ,-0.00003459,-0.00001870,-0.00010250,0.00002714,-0.00005623,0.00001329
 ,0.00000436,0.00000973,-0.00000903,0.00000705,0.00000354,-0.00001107,-
 0.00000286,-0.00000551,-0.00020049,-0.00017524,-0.00002009,-0.00004695
 ,0.00002338,0.00000994,-0.00000281,-0.00000300,0.00000066,-0.00000591,
 -0.00001347,0.00000045,0.00006077,-0.00006419,-0.00012294,0.00002414,-
 0.00001512,0.00003018,-0.00009320,0.00002019,-0.00006126,-0.00028479,-
 0.00057269,-0.00020871,-0.00030497,-0.00121556,-0.00030736,0.00031826,
 0.00015667,-0.00028377,-0.00022139,0.00024668,0.00048421,0.05326085,0.
 26895611,-0.00000983,-0.00005980,0.00004294,0.00000945,0.00000593,-0.0
 0000532,0.00955072,0.03268304,0.01011414,0.00002805,0.00012450,0.00004
 727,0.00000907,-0.00000796,0.00001087,0.00053402,-0.00046515,0.0010894
 8,0.00027238,0.00047149,-0.00028648,0.00394558,-0.00046244,-0.00068267
 ,0.00033480,0.00163958,-0.00485694,-0.00495722,-0.01190919,-0.00636658
 ,-0.03144302,-0.12203587,-0.11689222,0.00000114,0.00000572,-0.00000212
 ,0.00000427,-0.00000715,0.00000501,-0.00005455,0.00000219,0.00002120,-
 0.00000250,-0.00000177,0.00000143,-0.00000291,-0.00000139,-0.00000115,
 -0.00010578,-0.00012101,-0.00008764,-0.00004377,-0.00004057,0.00000013
 ,0.00000325,0.00000128,-0.00000147,-0.00000149,-0.00000007,-0.00000141
 ,-0.00017890,-0.00003568,0.00018892,-0.00000419,-0.00003005,0.00006071
 ,0.00007814,0.00040998,0.00025837,-0.00011186,-0.00130050,-0.00021320,
 0.00022128,0.00123796,0.00025001,-0.00017971,0.00031991,0.00010680,0.0
 0023331,0.00051105,0.00078510,0.02496759,0.11633688,0.12499362,0.00005
 852,-0.00023936,-0.00008914,-0.00004804,-0.00005023,-0.00002763,0.0124
 4572,-0.00187547,0.01004039,-0.00073972,-0.00026770,0.00061614,-0.0000
 1157,0.00001596,-0.00003062,-0.00093345,-0.00098208,0.00074929,0.00004
 575,0.00007077,0.00015183,0.00114344,-0.00113511,-0.00087659,0.0004186
 8,0.00000047,-0.00055250,-0.02291715,0.00372714,-0.01739173,-0.1928733
 6,0.02753125,-0.12468543,0.00001868,-0.00000235,0.00000326,0.00040626,
 0.00014705,-0.00005579,0.00001667,0.00000594,0.00006445,0.00002301,0.0
 0000663,-0.00000336,0.00000938,0.00000522,0.00000066,-0.00153113,-0.00
 013012,0.00109866,-0.00001955,-0.00004947,-0.00003287,0.00000321,-0.00
 000466,-0.00000078,0.00000787,0.00000501,0.00000462,0.00004742,0.00006
 371,-0.00005367,-0.00003338,-0.00009458,0.00003544,0.00040470,0.000664
 52,0.00049472,0.00023041,-0.00025171,0.00027874,-0.00015241,0.00009411
 ,-0.00004013,0.00061419,-0.00044530,0.00013050,-0.00350255,0.00234558,
 0.00313651,-0.00385405,0.00056591,-0.00310106,0.21072139,-0.00032661,-
 0.00013403,0.00015654,-0.00004944,-0.00001543,-0.00000258,0.01120644,-
 0.01126790,0.02512145,-0.00000187,-0.00001546,-0.00015236,0.00001869,-
 0.00003612,-0.00003533,-0.00122712,0.00007995,-0.00095103,-0.00020988,
 -0.00048632,-0.00006437,0.00031697,0.00054387,0.00130019,0.00317586,0.
 00224113,0.00290204,0.01097386,-0.00096662,0.00699486,0.02433510,-0.05
 745833,0.01524806,0.00001418,0.00002007,0.00001817,0.00001864,-0.00001
 665,-0.00000575,0.00009942,0.00000749,-0.00004090,0.00001174,-0.000001
 15,-0.00000289,0.00000790,0.00000257,0.00000499,0.00006193,0.00042341,
 0.00000185,0.00011398,0.00002154,0.00000059,-0.00000780,-0.00000485,-0
 .00000304,0.00000341,0.00000857,0.00000093,0.00006712,-0.00007378,-0.0
 0011068,-0.00006860,0.00008355,-0.00002276,-0.00006629,-0.00010724,-0.
 00028518,-0.00020783,0.00013553,-0.00013837,-0.00026489,-0.00020507,-0
 .00024233,-0.00026716,0.00043319,-0.00015267,0.00207659,0.00002633,-0.
 00092681,-0.02008512,0.00596644,-0.01726829,-0.02973021,0.06079835,-0.
 00026356,0.00039141,-0.00001791,0.00016801,0.00005450,-0.00008424,-0.0
 1000018,0.01872374,-0.02670390,0.00048212,0.00047904,0.00060128,0.0001
 0299,-0.00009534,0.00003485,0.00147673,-0.00094812,0.00207248,0.000390
 94,0.00032516,0.00021399,0.00035251,0.00075428,0.00094698,-0.00303951,
 -0.00461701,-0.00282599,0.01239588,-0.00386376,0.01098084,-0.12234851,
 0.02018725,-0.15346473,0.00001183,0.00001760,-0.00000417,-0.00020930,-
 0.00008201,-0.00015088,-0.00001897,-0.00002794,0.00005077,-0.00002701,
 0.00000046,0.00001645,-0.00005246,-0.00001866,-0.00001808,0.00101416,-
 0.00035481,-0.00059899,-0.00030712,-0.00022716,-0.00000346,0.00000628,
 0.00000069,-0.00001856,-0.00002483,-0.00003597,-0.00002403,-0.00013803
 ,0.00010482,0.00017406,0.00000686,-0.00002278,-0.00005861,-0.00030839,
 0.00039742,-0.00013322,-0.00008194,0.00017379,0.00002409,0.00026263,0.
 00034662,0.00015188,-0.00105725,0.00046382,0.00062966,0.00309819,-0.00
 202918,-0.00069263,-0.01204056,0.00126410,-0.00857700,0.13014023,-0.03
 134557,0.17748624,0.00094111,-0.00004755,0.00143070,-0.00169556,0.0014
 4860,-0.00246160,-0.00002339,-0.00002543,-0.00003042,-0.00023702,-0.00
 024151,0.00038158,-0.00729223,0.00288909,0.03174539,0.00026217,-0.0000
 3398,-0.00039576,0.00002352,0.00000382,0.00001657,0.00000318,-0.000003
 50,0.00000223,0.00000183,-0.00004675,-0.00014545,0.00000035,-0.0000001
 6,0.00000484,-0.00000753,-0.00000200,-0.00001522,-0.05740801,0.0013243
 1,0.04573531,0.00025516,-0.00041407,0.00002229,-0.00013101,0.00002332,
 -0.00042750,0.00052786,-0.00010549,-0.00049586,0.00085027,0.00106721,-
 0.00046810,0.00006857,0.00005482,-0.00014651,-0.00033178,-0.00081989,-
 0.00011182,-0.00535083,0.00270635,0.00048877,0.00114543,-0.00012047,-0
 .00059739,-0.00000156,-0.00000103,-0.00000015,0.00000610,-0.00000361,-
 0.00000286,-0.00000021,0.00000029,0.00000139,0.00000124,0.00000057,-0.
 00000195,-0.00002903,0.00000281,-0.00000823,0.00000083,0.00000083,-0.0
 0000081,0.00000241,-0.00000195,-0.00000072,0.00000097,0.00000071,0.000
 00116,0.00000282,-0.00000286,0.00001116,0.06331779,-0.00090440,0.00031
 201,0.00018892,-0.00313262,0.00164924,0.03191946,0.00006509,0.00007029
 ,0.00002906,-0.00015416,-0.00034211,0.00049454,0.00291675,-0.00151573,
 -0.01561140,0.00023119,-0.00001325,0.00008659,0.00000892,0.00000761,0.
 00001202,0.00000206,-0.00000591,0.00000238,-0.00017901,-0.00001159,-0.
 00008717,-0.00000110,0.00000129,-0.00000186,-0.00001719,-0.00001864,0.
 00001605,0.00246454,-0.05043981,-0.02267432,-0.00051005,-0.00088528,-0
 .00024589,0.00014573,0.00008562,0.00004909,-0.00031539,0.00181251,-0.0
 0047873,-0.00033732,-0.00460442,0.00255084,0.00002181,0.00006953,-0.00
 006333,-0.00071166,-0.00056845,-0.00022549,0.00310051,-0.00054626,0.00
 016666,-0.00072316,0.00012489,0.00005266,-0.00000011,0.00000113,-0.000
 00072,0.00001216,-0.00000180,-0.00000317,-0.00000032,-0.00000057,0.000
 00205,0.00000433,0.00000143,-0.00000296,0.00001225,-0.00000070,0.00001
 396,0.00000251,0.00000143,-0.00000203,0.00000204,-0.00000097,0.0000004
 0,0.00000385,0.00000458,-0.00000055,0.00000391,-0.00000183,0.00000131,
 -0.00615249,0.05663019,-0.00029479,-0.00068053,0.00077084,0.00022004,-
 0.00204089,-0.01301310,0.00006925,0.00007260,0.00003423,-0.00044816,-0
 .00074740,-0.00156436,0.00188960,-0.00074564,-0.00327629,0.00029340,0.
 00001929,0.00013999,0.00001853,0.00001405,0.00001870,0.00000408,-0.000
 00939,0.00000107,-0.00012522,-0.00001136,-0.00015329,-0.00000323,0.000
 00132,-0.00000656,-0.00001835,-0.00002154,0.00002625,0.04560593,-0.019
 78740,-0.30051304,0.00101130,0.00119520,0.00066601,0.00065004,0.000289
 29,-0.00010367,-0.00001530,0.00003630,0.00140431,0.00026043,0.00268642
 ,0.00020618,-0.00002994,0.00011340,0.00035330,-0.00066694,-0.00006852,
 0.00058364,0.00043324,-0.00051466,0.00128401,0.00039681,-0.00028830,0.
 00026580,-0.00000161,0.00000089,-0.00000167,0.00001569,-0.00000454,-0.
 00000419,-0.00000074,0.00000050,0.00000360,0.00000533,0.00000276,-0.00
 000456,0.00000542,0.00000249,0.00000129,0.00000284,0.00000148,-0.00000
 231,0.00000144,-0.00000036,0.00000196,0.00000355,0.00000545,-0.0000012
 9,0.00000011,-0.00000201,-0.00000400,-0.05121910,0.02179262,0.32572268
 ,-0.00161703,0.00404405,0.00275666,0.00026402,0.00095711,0.00045307,-0
 .00030896,-0.00034213,-0.00016860,0.00004963,0.00095641,0.00035305,-0.
 02084342,-0.01740669,-0.01319558,-0.00307202,-0.00055685,-0.00106326,-
 0.00012413,-0.00004324,-0.00017081,-0.00000652,0.00003732,-0.00001929,
 0.00050934,-0.00000280,0.00104258,0.00001128,-0.00000524,0.00001484,0.
 00009432,0.00010991,-0.00010044,-0.18630858,-0.11069842,-0.07839296,0.
 00068498,-0.00042351,0.00006236,-0.00010765,-0.00003386,-0.00029220,-0
 .00075942,-0.00038604,0.00029944,0.00098389,0.00012422,0.00022390,0.00
 000707,-0.00010419,0.00004994,0.00013044,-0.00007093,-0.00003549,0.001
 17281,-0.00040438,0.00035873,0.00133419,0.00013517,-0.00029111,0.00000
 542,0.00000077,0.00000573,-0.00008638,0.00003215,0.00003314,0.00000591
 ,-0.00000371,-0.00001323,-0.00002248,-0.00000846,0.00002072,-0.0000019
 4,0.00000836,-0.00007069,-0.00001323,-0.00000849,0.00001044,-0.0000094
 8,0.00000458,-0.00000409,-0.00001710,-0.00002387,0.00000258,-0.0000017
 6,0.00001383,-0.00000291,0.00509655,0.00414136,0.00193637,0.20295023,0
 .00244348,-0.00164400,-0.00134107,-0.02061703,-0.01312990,-0.01223615,
 0.00005059,0.00012615,0.00005944,0.00139330,-0.00040357,0.00113908,0.0
 1252947,0.01008324,0.00840870,0.00144514,0.00037480,0.00043422,0.00005
 887,0.00000642,0.00006927,-0.00000321,-0.00001185,0.00000691,-0.000016
 83,-0.00001351,-0.00037632,-0.00000713,0.00000047,-0.00001347,-0.00000
 947,-0.00002618,0.00004336,-0.11208515,-0.13477474,-0.06283573,-0.0023
 1771,-0.00578859,0.00173722,-0.00008358,0.00008763,0.00017091,0.001188
 82,-0.00084124,0.00027666,-0.00046794,0.00173048,0.00013496,-0.0001001
 9,0.00007117,-0.00009373,-0.00016192,0.00009274,-0.00003962,-0.0008646
 0,0.00031262,-0.00011838,-0.00087070,0.00064318,0.00032318,-0.00000376
 ,-0.00000022,-0.00000122,0.00003056,-0.00001480,-0.00001133,-0.0000017
 3,0.00000133,0.00000293,0.00000527,0.00000388,-0.00000520,-0.00000210,
 -0.00000527,0.00002292,0.00000298,0.00000243,-0.00000144,-0.00000176,0
 .00000149,0.00000297,0.00000358,0.00000533,-0.00000207,0.00000517,-0.0
 0000123,-0.00001770,-0.00150001,-0.00181442,-0.00131153,0.11995757,0.1
 4492615,0.00076306,-0.00045343,0.00066108,0.01176986,0.00797015,0.0043
 4286,-0.00001341,-0.00001246,-0.00000109,-0.00051982,-0.00017947,-0.00
 130554,0.00456418,0.00381999,0.00181715,0.00006346,-0.00001209,0.00006
 462,-0.00000150,-0.00000227,-0.00000637,-0.00000047,0.00000100,-0.0000
 0056,0.00012003,0.00000946,0.00005918,-0.00000056,-0.00000013,-0.00000
 172,0.00000683,0.00000455,0.00000375,-0.08113128,-0.06408613,-0.092271
 33,0.00202393,0.00451994,-0.00093824,0.00027009,0.00010808,0.00008244,
 -0.00047158,0.00019935,0.00029674,0.00073214,-0.00010269,0.00098369,-0
 .00001741,-0.00000510,0.00027166,-0.00024204,0.00011748,0.00043224,-0.
 00038601,0.00045369,0.00038920,-0.00040596,0.00005626,0.00004708,0.000
 00004,-0.00000032,-0.00000057,-0.00000329,-0.00000027,0.00000160,0.000
 00045,0.00000064,-0.00000174,-0.00000121,0.00000022,0.00000053,0.00000
 255,0.00000007,-0.00001236,-0.00000043,-0.00000076,0.00000057,-0.00000
 111,0.00000075,-0.00000016,-0.00000148,-0.00000097,-0.00000051,-0.0000
 0426,0.00000323,-0.00000317,-0.02331194,-0.01798098,-0.01283551,0.0861
 9712,0.06557222,0.09792449\\0.00026186,-0.00047117,0.00065183,0.000015
 20,0.00001189,-0.00000429,0.00000332,0.00000077,-0.00000053,-0.0000139
 7,0.00000517,0.00000435,-0.00014548,0.00065666,-0.00053631,-0.00023269
 ,-0.00116600,0.00001191,0.00001297,-0.00000818,-0.00000116,-0.00000628
 ,0.00000287,0.00000366,0.00012467,0.00099072,-0.00013660,0.00000422,-0
 .00000453,0.00000242,-0.00000776,-0.00001163,0.00000306,-0.00000288,-0
 .00000223,0.00000975,-0.00000895,-0.00001923,-0.00001132,0.00000122,-0
 .00000005,-0.00000083,0.00000291,-0.00000115,0.00000622,-0.00000233,0.
 00000742,0.00000631,0.00000495,-0.00000226,-0.00000379,-0.00000013,-0.
 00000179,0.00000009,0.00000174,-0.00000168,0.00000165,-0.00000061,0.00
 000269,0.00000149,-0.00000130,0.00000319,-0.00000049,-0.00000297,0.000
 00089,-0.00000261,-0.00000079,-0.00000012,-0.00000156,-0.00000085,0.00
 000313,0.00000012,0.00000030,0.00000746,-0.00000026,-0.00000343,-0.000
 00084,-0.00000173,-0.00000047,0.00000223,-0.00000215,-0.00000175,-0.00
 000658,0.00000087,-0.00000708,0.00000270,0.00000218,-0.00000119,0.0000
 0123,-0.00000084,0.00000757,-0.00000157,-0.00000145\\\@


 THE MOST SERIOUS THREAT TO THE SURVIVAL OF MANKIND IS NOT NOW
 IGNORANCE IN THE TRADITIONAL SENSE,
 BUT A MORALLY NEUTRAL, AN INSENSITIVE OR INHIBITED HUMAN INTELLIGENCE.

                     -- MARGO JEFFERSON IN NEWSWEEK, SEPTEMBER 2, 1974
 Job cpu time:       0 days 14 hours 22 minutes 36.9 seconds.
 Elapsed time:       0 days  0 hours 53 minutes 56.1 seconds.
 File lengths (MBytes):  RWF=    693 Int=      0 D2E=      0 Chk=     33 Scr=      1
 Normal termination of Gaussian 16 at Sun Nov  4 22:48:28 2018.
