 Entering Gaussian System, Link 0=g16
 Initial command:
 /apps/gaussian/g16a03/g16/l1.exe "/jobfs/local/2012019.r-man2/Gau-15051.inp" -scrdir="/jobfs/local/2012019.r-man2/"
 Entering Link 1 = /apps/gaussian/g16a03/g16/l1.exe PID=     15052.
  
 Copyright (c) 1988,1990,1992,1993,1995,1998,2003,2009,2016,
            Gaussian, Inc.  All Rights Reserved.
  
 This is part of the Gaussian(R) 16 program.  It is based on
 the Gaussian(R) 09 system (copyright 2009, Gaussian, Inc.),
 the Gaussian(R) 03 system (copyright 2003, Gaussian, Inc.),
 the Gaussian(R) 98 system (copyright 1998, Gaussian, Inc.),
 the Gaussian(R) 94 system (copyright 1995, Gaussian, Inc.),
 the Gaussian 92(TM) system (copyright 1992, Gaussian, Inc.),
 the Gaussian 90(TM) system (copyright 1990, Gaussian, Inc.),
 the Gaussian 88(TM) system (copyright 1988, Gaussian, Inc.),
 the Gaussian 86(TM) system (copyright 1986, Carnegie Mellon
 University), and the Gaussian 82(TM) system (copyright 1983,
 Carnegie Mellon University). Gaussian is a federally registered
 trademark of Gaussian, Inc.
  
 This software contains proprietary and confidential information,
 including trade secrets, belonging to Gaussian, Inc.
  
 This software is provided under written license and may be
 used, copied, transmitted, or stored only in accord with that
 written license.
  
 The following legend is applicable only to US Government
 contracts under FAR:
  
                    RESTRICTED RIGHTS LEGEND
  
 Use, reproduction and disclosure by the US Government is
 subject to restrictions as set forth in subparagraphs (a)
 and (c) of the Commercial Computer Software - Restricted
 Rights clause in FAR 52.227-19.
  
 Gaussian, Inc.
 340 Quinnipiac St., Bldg. 40, Wallingford CT 06492
  
  
 ---------------------------------------------------------------
 Warning -- This program may not be used in any manner that
 competes with the business of Gaussian, Inc. or will provide
 assistance to any competitor of Gaussian, Inc.  The licensee
 of this program is prohibited from giving any competitor of
 Gaussian, Inc. access to this program.  By using this program,
 the user acknowledges that Gaussian, Inc. is engaged in the
 business of creating and licensing software in the field of
 computational chemistry and represents and warrants to the
 licensee that it is not a competitor of Gaussian, Inc. and that
 it will not use this program in any manner prohibited above.
 ---------------------------------------------------------------
  

 Cite this work as:
 Gaussian 16, Revision A.03,
 M. J. Frisch, G. W. Trucks, H. B. Schlegel, G. E. Scuseria, 
 M. A. Robb, J. R. Cheeseman, G. Scalmani, V. Barone, 
 G. A. Petersson, H. Nakatsuji, X. Li, M. Caricato, A. V. Marenich, 
 J. Bloino, B. G. Janesko, R. Gomperts, B. Mennucci, H. P. Hratchian, 
 J. V. Ortiz, A. F. Izmaylov, J. L. Sonnenberg, D. Williams-Young, 
 F. Ding, F. Lipparini, F. Egidi, J. Goings, B. Peng, A. Petrone, 
 T. Henderson, D. Ranasinghe, V. G. Zakrzewski, J. Gao, N. Rega, 
 G. Zheng, W. Liang, M. Hada, M. Ehara, K. Toyota, R. Fukuda, 
 J. Hasegawa, M. Ishida, T. Nakajima, Y. Honda, O. Kitao, H. Nakai, 
 T. Vreven, K. Throssell, J. A. Montgomery, Jr., J. E. Peralta, 
 F. Ogliaro, M. J. Bearpark, J. J. Heyd, E. N. Brothers, K. N. Kudin, 
 V. N. Staroverov, T. A. Keith, R. Kobayashi, J. Normand, 
 K. Raghavachari, A. P. Rendell, J. C. Burant, S. S. Iyengar, 
 J. Tomasi, M. Cossi, J. M. Millam, M. Klene, C. Adamo, R. Cammi, 
 J. W. Ochterski, R. L. Martin, K. Morokuma, O. Farkas, 
 J. B. Foresman, and D. J. Fox, Gaussian, Inc., Wallingford CT, 2016.
 
 ******************************************
 Gaussian 16:  ES64L-G16RevA.03 25-Dec-2016
                 4-Nov-2018 
 ******************************************
 %mem=6000mb
 %nproc=24
 Will use up to   24 processors via shared memory.
 %chk=D_a1-4_2SO_PSI.inp_extract_18.chk
 ----------------------------------------------------------------------
 #M062X/6-311++G(2d,2p) opt=ModRedundant freq=noraman SCRF=(Solvent=Wat
 er)
 ----------------------------------------------------------------------
 1/18=120,19=15,26=3,38=1/1,3;
 2/9=110,12=2,17=6,18=5,40=1/2;
 3/5=4,6=6,7=1212,11=2,25=1,30=1,70=2201,71=1,72=1,74=-55/1,2,3;
 4//1;
 5/5=2,38=5,53=1/2;
 6/7=2,8=2,9=2,10=2,28=1/1;
 7//1,2,3,16;
 1/18=20,19=15,26=3/3(2);
 2/9=110/2;
 99//99;
 2/9=110/2;
 3/5=4,6=6,7=1212,11=2,25=1,30=1,70=2205,71=1,72=1,74=-55/1,2,3;
 4/5=5,16=3,69=1/1;
 5/5=2,38=5,53=1/2;
 7//1,2,3,16;
 1/18=20,19=15,26=3/3(-5);
 2/9=110/2;
 6/7=2,8=2,9=2,10=2,19=2,28=1/1;
 99/9=1/99;
 -----------------------------
 D_a1-4_2SO_PSI.inp_extract_18
 -----------------------------
 Symbolic Z-matrix:
 Charge =  0 Multiplicity = 1
 C                     1.01604  -0.03302   0.78771 
 C                     3.68391   0.06365  -0.50105 
 O                    -1.4996   -1.09058  -0.6286 
 C                     2.05298   1.09446   0.85663 
 C                     1.52607  -1.14643  -0.13763 
 O                    -0.26171   0.52751   0.47438 
 C                    -2.10603   1.2387   -0.81564 
 C                    -3.19073   1.05043   0.246 
 C                    -0.98637   0.2161   -0.67613 
 C                    -3.65829  -0.40507   0.25219 
 C                    -2.46678  -1.33925   0.38239 
 C                     3.04611  -1.2348    0.00252 
 O                     2.8126    1.17182  -0.32948 
 H                     0.90289  -0.43755   1.78632 
 H                     4.62029   0.26433   0.01106 
 H                     3.88091   0.00719  -1.56332 
 H                     1.56226   2.04806   0.98499 
 H                     2.71849   0.93843   1.70044 
 H                     1.29157  -0.93385  -1.17238 
 H                     1.05867  -2.08987   0.11474 
 H                    -1.67974   2.23529  -0.77744 
 H                    -2.54044   1.10754  -1.80308 
 H                    -2.80465   1.3148    1.2267 
 H                    -4.02302   1.71755   0.04323 
 H                    -0.35138   0.2391   -1.54688 
 H                    -4.34657  -0.59128   1.07182 
 H                    -4.18539  -0.62631  -0.6731 
 H                    -2.75887  -2.37276   0.25688 
 H                    -2.00295  -1.23614   1.35785 
 H                     3.31164  -1.41356   1.0404 
 H                     3.43455  -2.06962  -0.57048 
 
 The following ModRedundant input section has been read:
 D       5       1       6       9 F                                           
 

 GradGradGradGradGradGradGradGradGradGradGradGradGradGradGradGradGradGrad
 Berny optimization.
 Initialization pass.
                           ----------------------------
                           !    Initial Parameters    !
                           ! (Angstroms and Degrees)  !
 --------------------------                            --------------------------
 ! Name  Definition              Value          Derivative Info.                !
 --------------------------------------------------------------------------------
 ! R1    R(1,4)                  1.5334         estimate D2E/DX2                !
 ! R2    R(1,5)                  1.5349         estimate D2E/DX2                !
 ! R3    R(1,6)                  1.43           estimate D2E/DX2                !
 ! R4    R(1,14)                 1.0834         estimate D2E/DX2                !
 ! R5    R(2,12)                 1.5318         estimate D2E/DX2                !
 ! R6    R(2,13)                 1.4201         estimate D2E/DX2                !
 ! R7    R(2,15)                 1.086          estimate D2E/DX2                !
 ! R8    R(2,16)                 1.0819         estimate D2E/DX2                !
 ! R9    R(3,9)                  1.4047         estimate D2E/DX2                !
 ! R10   R(3,11)                 1.421          estimate D2E/DX2                !
 ! R11   R(4,13)                 1.4106         estimate D2E/DX2                !
 ! R12   R(4,17)                 1.0801         estimate D2E/DX2                !
 ! R13   R(4,18)                 1.0859         estimate D2E/DX2                !
 ! R14   R(5,12)                 1.529          estimate D2E/DX2                !
 ! R15   R(5,19)                 1.0821         estimate D2E/DX2                !
 ! R16   R(5,20)                 1.0827         estimate D2E/DX2                !
 ! R17   R(6,9)                  1.3949         estimate D2E/DX2                !
 ! R18   R(7,8)                  1.5294         estimate D2E/DX2                !
 ! R19   R(7,9)                  1.5228         estimate D2E/DX2                !
 ! R20   R(7,21)                 1.0846         estimate D2E/DX2                !
 ! R21   R(7,22)                 1.0867         estimate D2E/DX2                !
 ! R22   R(8,10)                 1.5288         estimate D2E/DX2                !
 ! R23   R(8,23)                 1.0866         estimate D2E/DX2                !
 ! R24   R(8,24)                 1.0858         estimate D2E/DX2                !
 ! R25   R(9,25)                 1.0779         estimate D2E/DX2                !
 ! R26   R(10,11)                1.5196         estimate D2E/DX2                !
 ! R27   R(10,26)                1.0864         estimate D2E/DX2                !
 ! R28   R(10,27)                1.0876         estimate D2E/DX2                !
 ! R29   R(11,28)                1.0813         estimate D2E/DX2                !
 ! R30   R(11,29)                1.085          estimate D2E/DX2                !
 ! R31   R(12,30)                1.0861         estimate D2E/DX2                !
 ! R32   R(12,31)                1.0845         estimate D2E/DX2                !
 ! A1    A(4,1,5)              109.6184         estimate D2E/DX2                !
 ! A2    A(4,1,6)              109.0184         estimate D2E/DX2                !
 ! A3    A(4,1,14)             107.684          estimate D2E/DX2                !
 ! A4    A(5,1,6)              116.6883         estimate D2E/DX2                !
 ! A5    A(5,1,14)             108.6343         estimate D2E/DX2                !
 ! A6    A(6,1,14)             104.7737         estimate D2E/DX2                !
 ! A7    A(12,2,13)            111.4874         estimate D2E/DX2                !
 ! A8    A(12,2,15)            111.1394         estimate D2E/DX2                !
 ! A9    A(12,2,16)            110.7553         estimate D2E/DX2                !
 ! A10   A(13,2,15)            109.1389         estimate D2E/DX2                !
 ! A11   A(13,2,16)            105.7286         estimate D2E/DX2                !
 ! A12   A(15,2,16)            108.401          estimate D2E/DX2                !
 ! A13   A(9,3,11)             115.8193         estimate D2E/DX2                !
 ! A14   A(1,4,13)             111.5119         estimate D2E/DX2                !
 ! A15   A(1,4,17)             110.3206         estimate D2E/DX2                !
 ! A16   A(1,4,18)             110.1031         estimate D2E/DX2                !
 ! A17   A(13,4,17)            107.2278         estimate D2E/DX2                !
 ! A18   A(13,4,18)            109.3434         estimate D2E/DX2                !
 ! A19   A(17,4,18)            108.236          estimate D2E/DX2                !
 ! A20   A(1,5,12)             108.4815         estimate D2E/DX2                !
 ! A21   A(1,5,19)             111.2205         estimate D2E/DX2                !
 ! A22   A(1,5,20)             110.372          estimate D2E/DX2                !
 ! A23   A(12,5,19)            108.3271         estimate D2E/DX2                !
 ! A24   A(12,5,20)            110.9426         estimate D2E/DX2                !
 ! A25   A(19,5,20)            107.4893         estimate D2E/DX2                !
 ! A26   A(1,6,9)              123.8751         estimate D2E/DX2                !
 ! A27   A(8,7,9)              112.0381         estimate D2E/DX2                !
 ! A28   A(8,7,21)             111.5563         estimate D2E/DX2                !
 ! A29   A(8,7,22)             109.4125         estimate D2E/DX2                !
 ! A30   A(9,7,21)             108.9547         estimate D2E/DX2                !
 ! A31   A(9,7,22)             107.2249         estimate D2E/DX2                !
 ! A32   A(21,7,22)            107.4585         estimate D2E/DX2                !
 ! A33   A(7,8,10)             109.6891         estimate D2E/DX2                !
 ! A34   A(7,8,23)             110.1543         estimate D2E/DX2                !
 ! A35   A(7,8,24)             109.7792         estimate D2E/DX2                !
 ! A36   A(10,8,23)            109.6727         estimate D2E/DX2                !
 ! A37   A(10,8,24)            110.5669         estimate D2E/DX2                !
 ! A38   A(23,8,24)            106.9428         estimate D2E/DX2                !
 ! A39   A(3,9,6)              111.6896         estimate D2E/DX2                !
 ! A40   A(3,9,7)              111.0477         estimate D2E/DX2                !
 ! A41   A(3,9,25)             105.2136         estimate D2E/DX2                !
 ! A42   A(6,9,7)              107.916          estimate D2E/DX2                !
 ! A43   A(6,9,25)             110.8222         estimate D2E/DX2                !
 ! A44   A(7,9,25)             110.1698         estimate D2E/DX2                !
 ! A45   A(8,10,11)            110.2321         estimate D2E/DX2                !
 ! A46   A(8,10,26)            111.1008         estimate D2E/DX2                !
 ! A47   A(8,10,27)            109.7819         estimate D2E/DX2                !
 ! A48   A(11,10,26)           109.0714         estimate D2E/DX2                !
 ! A49   A(11,10,27)           109.1375         estimate D2E/DX2                !
 ! A50   A(26,10,27)           107.4537         estimate D2E/DX2                !
 ! A51   A(3,11,10)            111.415          estimate D2E/DX2                !
 ! A52   A(3,11,28)            105.5768         estimate D2E/DX2                !
 ! A53   A(3,11,29)            109.3911         estimate D2E/DX2                !
 ! A54   A(10,11,28)           111.4582         estimate D2E/DX2                !
 ! A55   A(10,11,29)           110.7194         estimate D2E/DX2                !
 ! A56   A(28,11,29)           108.0981         estimate D2E/DX2                !
 ! A57   A(2,12,5)             109.5605         estimate D2E/DX2                !
 ! A58   A(2,12,30)            110.6013         estimate D2E/DX2                !
 ! A59   A(2,12,31)            109.25           estimate D2E/DX2                !
 ! A60   A(5,12,30)            109.885          estimate D2E/DX2                !
 ! A61   A(5,12,31)            110.618          estimate D2E/DX2                !
 ! A62   A(30,12,31)           106.8953         estimate D2E/DX2                !
 ! A63   A(2,13,4)             112.9043         estimate D2E/DX2                !
 ! D1    D(5,1,4,13)            28.6328         estimate D2E/DX2                !
 ! D2    D(5,1,4,17)           147.6739         estimate D2E/DX2                !
 ! D3    D(5,1,4,18)           -92.9271         estimate D2E/DX2                !
 ! D4    D(6,1,4,13)          -100.2117         estimate D2E/DX2                !
 ! D5    D(6,1,4,17)            18.8293         estimate D2E/DX2                !
 ! D6    D(6,1,4,18)           138.2284         estimate D2E/DX2                !
 ! D7    D(14,1,4,13)          146.647          estimate D2E/DX2                !
 ! D8    D(14,1,4,17)          -94.312          estimate D2E/DX2                !
 ! D9    D(14,1,4,18)           25.0871         estimate D2E/DX2                !
 ! D10   D(4,1,5,12)            34.0356         estimate D2E/DX2                !
 ! D11   D(4,1,5,19)           -85.0054         estimate D2E/DX2                !
 ! D12   D(4,1,5,20)           155.7799         estimate D2E/DX2                !
 ! D13   D(6,1,5,12)           158.5344         estimate D2E/DX2                !
 ! D14   D(6,1,5,19)            39.4934         estimate D2E/DX2                !
 ! D15   D(6,1,5,20)           -79.7213         estimate D2E/DX2                !
 ! D16   D(14,1,5,12)          -83.3853         estimate D2E/DX2                !
 ! D17   D(14,1,5,19)          157.5737         estimate D2E/DX2                !
 ! D18   D(14,1,5,20)           38.359          estimate D2E/DX2                !
 ! D19   D(4,1,6,9)            118.1985         estimate D2E/DX2                !
 ! D20   D(5,1,6,9)             -6.6046         Frozen                          !
 ! D21   D(14,1,6,9)          -126.7652         estimate D2E/DX2                !
 ! D22   D(13,2,12,5)           29.0343         estimate D2E/DX2                !
 ! D23   D(13,2,12,30)         -92.2434         estimate D2E/DX2                !
 ! D24   D(13,2,12,31)         150.3607         estimate D2E/DX2                !
 ! D25   D(15,2,12,5)          151.0385         estimate D2E/DX2                !
 ! D26   D(15,2,12,30)          29.7608         estimate D2E/DX2                !
 ! D27   D(15,2,12,31)         -87.6351         estimate D2E/DX2                !
 ! D28   D(16,2,12,5)          -88.4001         estimate D2E/DX2                !
 ! D29   D(16,2,12,30)         150.3222         estimate D2E/DX2                !
 ! D30   D(16,2,12,31)          32.9263         estimate D2E/DX2                !
 ! D31   D(12,2,13,4)           36.4237         estimate D2E/DX2                !
 ! D32   D(15,2,13,4)          -86.7287         estimate D2E/DX2                !
 ! D33   D(16,2,13,4)          156.8564         estimate D2E/DX2                !
 ! D34   D(11,3,9,6)            64.8781         estimate D2E/DX2                !
 ! D35   D(11,3,9,7)           -55.6384         estimate D2E/DX2                !
 ! D36   D(11,3,9,25)         -174.8162         estimate D2E/DX2                !
 ! D37   D(9,3,11,10)           57.7407         estimate D2E/DX2                !
 ! D38   D(9,3,11,28)          178.8898         estimate D2E/DX2                !
 ! D39   D(9,3,11,29)          -65.0061         estimate D2E/DX2                !
 ! D40   D(1,4,13,2)           -69.0072         estimate D2E/DX2                !
 ! D41   D(17,4,13,2)          170.1271         estimate D2E/DX2                !
 ! D42   D(18,4,13,2)           52.9923         estimate D2E/DX2                !
 ! D43   D(1,5,12,2)           -64.519          estimate D2E/DX2                !
 ! D44   D(1,5,12,30)           57.1899         estimate D2E/DX2                !
 ! D45   D(1,5,12,31)          174.9832         estimate D2E/DX2                !
 ! D46   D(19,5,12,2)           56.328          estimate D2E/DX2                !
 ! D47   D(19,5,12,30)         178.0368         estimate D2E/DX2                !
 ! D48   D(19,5,12,31)         -64.1698         estimate D2E/DX2                !
 ! D49   D(20,5,12,2)          174.0868         estimate D2E/DX2                !
 ! D50   D(20,5,12,30)         -64.2043         estimate D2E/DX2                !
 ! D51   D(20,5,12,31)          53.589          estimate D2E/DX2                !
 ! D52   D(1,6,9,3)             70.9681         estimate D2E/DX2                !
 ! D53   D(1,6,9,7)           -166.7018         estimate D2E/DX2                !
 ! D54   D(1,6,9,25)           -45.9946         estimate D2E/DX2                !
 ! D55   D(9,7,8,10)           -51.6694         estimate D2E/DX2                !
 ! D56   D(9,7,8,23)            69.1415         estimate D2E/DX2                !
 ! D57   D(9,7,8,24)          -173.3504         estimate D2E/DX2                !
 ! D58   D(21,7,8,10)         -174.1282         estimate D2E/DX2                !
 ! D59   D(21,7,8,23)          -53.3172         estimate D2E/DX2                !
 ! D60   D(21,7,8,24)           64.1908         estimate D2E/DX2                !
 ! D61   D(22,7,8,10)           67.1057         estimate D2E/DX2                !
 ! D62   D(22,7,8,23)         -172.0833         estimate D2E/DX2                !
 ! D63   D(22,7,8,24)          -54.5753         estimate D2E/DX2                !
 ! D64   D(8,7,9,3)             52.0596         estimate D2E/DX2                !
 ! D65   D(8,7,9,6)            -70.6643         estimate D2E/DX2                !
 ! D66   D(8,7,9,25)           168.2212         estimate D2E/DX2                !
 ! D67   D(21,7,9,3)           175.9861         estimate D2E/DX2                !
 ! D68   D(21,7,9,6)            53.2621         estimate D2E/DX2                !
 ! D69   D(21,7,9,25)          -67.8524         estimate D2E/DX2                !
 ! D70   D(22,7,9,3)           -68.0001         estimate D2E/DX2                !
 ! D71   D(22,7,9,6)           169.276          estimate D2E/DX2                !
 ! D72   D(22,7,9,25)           48.1615         estimate D2E/DX2                !
 ! D73   D(7,8,10,11)           52.529          estimate D2E/DX2                !
 ! D74   D(7,8,10,26)          173.5587         estimate D2E/DX2                !
 ! D75   D(7,8,10,27)          -67.727          estimate D2E/DX2                !
 ! D76   D(23,8,10,11)         -68.5728         estimate D2E/DX2                !
 ! D77   D(23,8,10,26)          52.4569         estimate D2E/DX2                !
 ! D78   D(23,8,10,27)         171.1712         estimate D2E/DX2                !
 ! D79   D(24,8,10,11)         173.7367         estimate D2E/DX2                !
 ! D80   D(24,8,10,26)         -65.2335         estimate D2E/DX2                !
 ! D81   D(24,8,10,27)          53.4807         estimate D2E/DX2                !
 ! D82   D(8,10,11,3)          -54.7695         estimate D2E/DX2                !
 ! D83   D(8,10,11,28)        -172.4206         estimate D2E/DX2                !
 ! D84   D(8,10,11,29)          67.2122         estimate D2E/DX2                !
 ! D85   D(26,10,11,3)        -177.0041         estimate D2E/DX2                !
 ! D86   D(26,10,11,28)         65.3448         estimate D2E/DX2                !
 ! D87   D(26,10,11,29)        -55.0224         estimate D2E/DX2                !
 ! D88   D(27,10,11,3)          65.8738         estimate D2E/DX2                !
 ! D89   D(27,10,11,28)        -51.7773         estimate D2E/DX2                !
 ! D90   D(27,10,11,29)       -172.1445         estimate D2E/DX2                !
 --------------------------------------------------------------------------------
 Trust Radius=3.00D-01 FncErr=1.00D-07 GrdErr=1.00D-06 EigMax=2.50D+02 EigMin=1.00D-04
 Number of steps in this run=    186 maximum allowed number of steps=    186.
 GradGradGradGradGradGradGradGradGradGradGradGradGradGradGradGradGradGrad

                          Input orientation:                          
 ---------------------------------------------------------------------
 Center     Atomic      Atomic             Coordinates (Angstroms)
 Number     Number       Type             X           Y           Z
 ---------------------------------------------------------------------
      1          6           0        1.016037   -0.033016    0.787707
      2          6           0        3.683907    0.063648   -0.501054
      3          8           0       -1.499598   -1.090581   -0.628598
      4          6           0        2.052980    1.094462    0.856625
      5          6           0        1.526074   -1.146430   -0.137625
      6          8           0       -0.261711    0.527513    0.474383
      7          6           0       -2.106031    1.238697   -0.815641
      8          6           0       -3.190734    1.050431    0.245996
      9          6           0       -0.986371    0.216099   -0.676131
     10          6           0       -3.658286   -0.405070    0.252186
     11          6           0       -2.466782   -1.339246    0.382389
     12          6           0        3.046109   -1.234804    0.002516
     13          8           0        2.812600    1.171822   -0.329481
     14          1           0        0.902885   -0.437551    1.786318
     15          1           0        4.620292    0.264331    0.011061
     16          1           0        3.880907    0.007188   -1.563323
     17          1           0        1.562257    2.048056    0.984994
     18          1           0        2.718488    0.938432    1.700443
     19          1           0        1.291566   -0.933846   -1.172383
     20          1           0        1.058671   -2.089873    0.114743
     21          1           0       -1.679736    2.235286   -0.777441
     22          1           0       -2.540440    1.107540   -1.803081
     23          1           0       -2.804653    1.314801    1.226704
     24          1           0       -4.023025    1.717554    0.043233
     25          1           0       -0.351383    0.239099   -1.546877
     26          1           0       -4.346571   -0.591278    1.071816
     27          1           0       -4.185394   -0.626308   -0.673098
     28          1           0       -2.758871   -2.372763    0.256883
     29          1           0       -2.002946   -1.236144    1.357852
     30          1           0        3.311644   -1.413560    1.040403
     31          1           0        3.434551   -2.069623   -0.570475
 ---------------------------------------------------------------------
                    Distance matrix (angstroms):
                    1          2          3          4          5
     1  C    0.000000
     2  C    2.964419   0.000000
     3  O    3.074538   5.311990   0.000000
     4  C    1.533365   2.359193   4.427314   0.000000
     5  C    1.534949   2.500522   3.065757   2.507541   0.000000
     6  O    1.430037   4.090788   2.316713   2.413573   2.524443
     7  C    3.733000   5.916341   2.414184   4.484936   4.397809
     8  C    4.377697   6.985164   2.865098   5.279332   5.217436
     9  C    2.492893   4.676044   1.404662   3.515468   2.908411
    10  C    4.719587   7.395598   2.430152   5.935697   5.251586
    11  C    3.741731   6.370209   1.421047   5.155200   4.031190
    12  C    2.486365   1.531779   4.591575   2.672319   1.529038
    13  O    2.434622   1.420093   4.878831   1.410622   2.658242
    14  H    1.083363   3.635568   3.468457   2.129345   2.142996
    15  H    3.698952   1.085980   6.300635   2.827576   3.403901
    16  H    3.706270   1.081856   5.570336   3.221743   2.984742
    17  H    2.160588   3.263068   4.672224   1.080106   3.386196
    18  H    2.162207   2.558099   5.228152   1.085944   3.024400
    19  H    2.174710   2.677494   2.847958   2.968275   1.082086
    20  H    2.164569   3.450902   2.845326   3.417459   1.082700
    21  H    3.855136   5.793191   3.334066   4.231409   4.703465
    22  H    4.545501   6.444182   2.700833   5.307892   4.938690
    23  H    4.075169   6.830223   3.306233   4.876690   5.164712
    24  H    5.386175   7.901168   3.834666   6.161793   6.247208
    25  H    2.719222   4.172301   1.982343   3.505628   2.725899
    26  H    5.399068   8.209228   3.353501   6.621350   6.021536
    27  H    5.435148   7.901363   2.725992   6.649693   5.760046
    28  H    4.472820   6.929643   2.003456   5.961145   4.474403
    29  H    3.299521   6.122523   2.054393   4.704624   3.833860
    30  H    2.690645   2.167213   5.102737   2.812149   2.155776
    31  H    3.441168   2.148917   5.030679   3.735878   2.163777
                    6          7          8          9         10
     6  O    0.000000
     7  C    2.360394   0.000000
     8  C    2.984088   1.529411   0.000000
     9  C    1.394917   1.522763   2.530937   0.000000
    10  C    3.529278   2.500344   1.528766   2.895989   0.000000
    11  C    2.890604   2.865520   2.500653   2.393988   1.519644
    12  C    3.777578   5.773399   6.646788   4.338960   6.760156
    13  O    3.242332   4.943051   6.032075   3.932652   6.685603
    14  H    2.002200   4.316662   4.620000   3.171782   4.812369
    15  H    4.910996   6.846623   7.853997   5.648825   8.309097
    16  H    4.645887   6.157846   7.373608   4.951883   7.765659
    17  H    2.428916   4.165775   4.912463   3.551184   5.814542
    18  H    3.248640   5.449479   6.086614   4.460476   6.675754
    19  H    2.694453   4.048564   5.102957   2.599545   5.177841
    20  H    2.953550   4.686185   5.285469   3.182010   5.010702
    21  H    2.548401   1.084609   2.175872   2.137320   3.456338
    22  H    3.273512   1.086716   2.150549   2.116557   2.785981
    23  H    2.766291   2.159870   1.086618   2.852030   2.153214
    24  H    3.968573   2.154492   1.085760   3.463108   2.163846
    25  H    2.043701   2.147718   3.454644   1.077932   3.819318
    26  H    4.277230   3.454175   2.170978   3.872741   1.086371
    27  H    4.247741   2.796840   2.155351   3.308082   1.087630
    28  H    3.833369   3.823500   3.450345   3.273298   2.163512
    29  H    2.631141   3.295381   2.806330   2.698059   2.157158
    30  H    4.105729   6.311146   6.998804   4.906650   7.086484
    31  H    4.636723   6.457797   7.368566   4.977975   7.331838
                   11         12         13         14         15
    11  C    0.000000
    12  C    5.526950   0.000000
    13  O    5.889320   2.440614   0.000000
    14  H    3.760150   2.900167   3.273179   0.000000
    15  H    7.275710   2.173829   2.051160   4.178910   0.000000
    16  H    6.774351   2.165937   2.004998   4.504054   1.758266
    17  H    5.298123   3.734200   2.014693   2.693536   3.671757
    18  H    5.814818   2.777273   2.045463   2.279719   2.631593
    19  H    4.087401   2.132929   2.730909   3.025110   3.730494
    20  H    3.614401   2.166483   3.729914   2.355547   4.270617
    21  H    3.839522   5.914682   4.638179   4.515180   6.648064
    22  H    3.281534   6.321098   5.552537   5.208414   7.434931
    23  H    2.805528   6.498503   5.830582   4.138809   7.596781
    24  H    3.446875   7.660988   6.867497   5.652204   8.764692
    25  H    3.269274   4.014469   3.516079   3.625084   5.210121
    26  H    2.137375   7.497283   7.505057   5.300088   9.069835
    27  H    2.139150   7.288440   7.233482   5.654639   8.877016
    28  H    1.081307   5.920933   6.629419   4.415051   7.840073
    29  H    1.085035   5.227800   5.642240   3.043877   6.923334
    30  H    5.816246   1.086127   2.968135   2.703905   2.363773
    31  H    6.022220   1.084495   3.309360   3.824587   2.681699
                   16         17         18         19         20
    16  H    0.000000
    17  H    4.004398   0.000000
    18  H    3.587562   1.754994   0.000000
    19  H    2.782636   3.690432   3.714116   0.000000
    20  H    3.895971   4.258332   3.800009   1.745661   0.000000
    21  H    6.041753   3.694828   5.212112   4.362111   5.196332
    22  H    6.519352   5.048768   6.321361   4.387403   5.182191
    23  H    7.361441   4.434635   5.556183   5.252718   5.268162
    24  H    8.244908   5.673757   6.985798   6.062386   6.350216
    25  H    4.238671   3.653042   4.523081   2.053126   3.189568
    26  H    8.659880   6.472084   7.256049   6.078024   5.690204
    27  H    8.139965   6.552632   7.466304   5.508263   5.501176
    28  H    7.284502   6.224623   6.561200   4.529826   3.830647
    29  H    6.685721   4.861653   5.209423   4.165007   3.412869
    30  H    3.020261   3.878944   2.513832   3.034347   2.527871
    31  H    2.344808   4.783330   3.836432   2.498933   2.472800
                   21         22         23         24         25
    21  H    0.000000
    22  H    1.750588   0.000000
    23  H    2.475748   3.048338   0.000000
    24  H    2.536248   2.445210   1.745636   0.000000
    25  H    2.518197   2.368924   3.855959   4.265587   0.000000
    26  H    4.303629   3.796462   2.456550   2.548209   4.848567
    27  H    3.804987   2.643665   3.046900   2.456254   4.026420
    28  H    4.844427   4.050145   3.813237   4.286540   3.983889
    29  H    4.088370   3.971555   2.677173   3.812253   3.652595
    30  H    6.444572   6.977695   6.699832   8.037138   4.779442
    31  H    6.688124   6.878532   7.322011   8.386584   4.540579
                   26         27         28         29         30
    26  H    0.000000
    27  H    1.752692   0.000000
    28  H    2.521626   2.439249   0.000000
    29  H    2.447498   3.042982   1.753698   0.000000
    30  H    7.702298   7.730552   6.195573   5.327018   0.000000
    31  H    8.088788   7.756111   6.255789   5.829194   1.743689
                   31
    31  H    0.000000
 Stoichiometry    C10H18O3
 Framework group  C1[X(C10H18O3)]
 Deg. of freedom    87
 Full point group                 C1      NOp   1
 Largest Abelian subgroup         C1      NOp   1
 Largest concise Abelian subgroup C1      NOp   1
                         Standard orientation:                         
 ---------------------------------------------------------------------
 Center     Atomic      Atomic             Coordinates (Angstroms)
 Number     Number       Type             X           Y           Z
 ---------------------------------------------------------------------
      1          6           0       -1.016037    0.033016    0.787707
      2          6           0       -3.683907   -0.063648   -0.501054
      3          8           0        1.499598    1.090581   -0.628598
      4          6           0       -2.052980   -1.094462    0.856625
      5          6           0       -1.526074    1.146430   -0.137625
      6          8           0        0.261711   -0.527513    0.474383
      7          6           0        2.106031   -1.238697   -0.815641
      8          6           0        3.190734   -1.050431    0.245996
      9          6           0        0.986371   -0.216099   -0.676131
     10          6           0        3.658286    0.405070    0.252186
     11          6           0        2.466782    1.339246    0.382389
     12          6           0       -3.046109    1.234804    0.002516
     13          8           0       -2.812600   -1.171822   -0.329481
     14          1           0       -0.902885    0.437551    1.786318
     15          1           0       -4.620292   -0.264331    0.011061
     16          1           0       -3.880907   -0.007188   -1.563323
     17          1           0       -1.562257   -2.048056    0.984994
     18          1           0       -2.718488   -0.938432    1.700443
     19          1           0       -1.291566    0.933846   -1.172383
     20          1           0       -1.058671    2.089873    0.114743
     21          1           0        1.679736   -2.235286   -0.777441
     22          1           0        2.540440   -1.107540   -1.803081
     23          1           0        2.804653   -1.314801    1.226704
     24          1           0        4.023025   -1.717554    0.043233
     25          1           0        0.351383   -0.239099   -1.546877
     26          1           0        4.346571    0.591278    1.071816
     27          1           0        4.185394    0.626308   -0.673098
     28          1           0        2.758871    2.372763    0.256883
     29          1           0        2.002946    1.236144    1.357852
     30          1           0       -3.311644    1.413560    1.040403
     31          1           0       -3.434551    2.069623   -0.570475
 ---------------------------------------------------------------------
 Rotational constants (GHZ):           1.9658946           0.4296035           0.3916710
 Standard basis: 6-311++G(2d,2p) (5D, 7F)
 There are   557 symmetry adapted cartesian basis functions of A   symmetry.
 There are   531 symmetry adapted basis functions of A   symmetry.
   531 basis functions,   762 primitive gaussians,   557 cartesian basis functions
    51 alpha electrons       51 beta electrons
       nuclear repulsion energy       899.3588672486 Hartrees.
 NAtoms=   31 NActive=   31 NUniq=   31 SFac= 1.00D+00 NAtFMM=   60 NAOKFM=F Big=F
 Integral buffers will be    131072 words long.
 Raffenetti 2 integral format.
 Two-electron integral symmetry is turned on.
 ------------------------------------------------------------------------------
 Polarizable Continuum Model (PCM)
 =================================
 Model                : PCM.
 Atomic radii         : UFF (Universal Force Field).
 Polarization charges : Total charges.
 Charge compensation  : None.
 Solution method      : On-the-fly selection.
 Cavity type          : Scaled VdW (van der Waals Surface) (Alpha=1.100).
 Cavity algorithm     : GePol (No added spheres)
                        Default sphere list used, NSphG=   31.
                        Lebedev-Laikov grids with approx.  5.0 points / Ang**2.
                        Smoothing algorithm: York/Karplus (Gamma=1.0000).
                        Polarization charges: spherical gaussians, with
                                              point-specific exponents (IZeta= 3).
                        Self-potential: point-specific (ISelfS= 7).
                        Self-field    : sphere-specific E.n sum rule (ISelfD= 2).
 1st derivatives      : Analytical E(r).r(x)/FMM algorithm (CHGder, D1EAlg=3).
                        Cavity 1st derivative terms included.
 Solvent              : Water, Eps=  78.355300 Eps(inf)=   1.777849
 ------------------------------------------------------------------------------
 One-electron integrals computed using PRISM.
 NBasis=   531 RedAO= T EigKep=  4.13D-06  NBF=   531
 NBsUse=   531 1.00D-06 EigRej= -1.00D+00 NBFU=   531
 ExpMin= 3.60D-02 ExpMax= 8.59D+03 ExpMxC= 1.30D+03 IAcc=3 IRadAn=         5 AccDes= 0.00D+00
 Harris functional with IExCor= 1009 and IRadAn=       5 diagonalized for initial guess.
 HarFok:  IExCor= 1009 AccDes= 0.00D+00 IRadAn=         5 IDoV= 1 UseB2=F ITyADJ=14
 ICtDFT=  3500011 ScaDFX=  1.000000  1.000000  1.000000  1.000000
 FoFCou: FMM=F IPFlag=           0 FMFlag=      100000 FMFlg1=           0
         NFxFlg=           0 DoJE=T BraDBF=F KetDBF=T FulRan=T
         wScrn=  0.000000 ICntrl=       500 IOpCl=  0 I1Cent=   200000004 NGrid=           0
         NMat0=    1 NMatS0=      1 NMatT0=    0 NMatD0=    1 NMtDS0=    0 NMtDT0=    0
 Petite list used in FoFCou.
 Requested convergence on RMS density matrix=1.00D-08 within 128 cycles.
 Requested convergence on MAX density matrix=1.00D-06.
 Requested convergence on             energy=1.00D-06.
 No special actions if energy rises.
 Inv3:  Mode=1 IEnd=    12681408.
 Iteration    1 A*A^-1 deviation from unit magnitude is 4.66D-15 for   2051.
 Iteration    1 A*A^-1 deviation from orthogonality  is 2.74D-15 for   2051   1948.
 Iteration    1 A^-1*A deviation from unit magnitude is 4.66D-15 for   2051.
 Iteration    1 A^-1*A deviation from orthogonality  is 3.72D-15 for   1718   1700.
 Error on total polarization charges =  0.01471
 SCF Done:  E(RM062X) =  -617.487549871     A.U. after   12 cycles
            NFock= 12  Conv=0.52D-08     -V/T= 2.0035

 **********************************************************************

            Population analysis using the SCF density.

 **********************************************************************

 Orbital symmetries:
       Occupied  (A) (A) (A) (A) (A) (A) (A) (A) (A) (A) (A) (A)
                 (A) (A) (A) (A) (A) (A) (A) (A) (A) (A) (A) (A)
                 (A) (A) (A) (A) (A) (A) (A) (A) (A) (A) (A) (A)
                 (A) (A) (A) (A) (A) (A) (A) (A) (A) (A) (A) (A)
                 (A) (A) (A)
       Virtual   (A) (A) (A) (A) (A) (A) (A) (A) (A) (A) (A) (A)
                 (A) (A) (A) (A) (A) (A) (A) (A) (A) (A) (A) (A)
                 (A) (A) (A) (A) (A) (A) (A) (A) (A) (A) (A) (A)
                 (A) (A) (A) (A) (A) (A) (A) (A) (A) (A) (A) (A)
                 (A) (A) (A) (A) (A) (A) (A) (A) (A) (A) (A) (A)
                 (A) (A) (A) (A) (A) (A) (A) (A) (A) (A) (A) (A)
                 (A) (A) (A) (A) (A) (A) (A) (A) (A) (A) (A) (A)
                 (A) (A) (A) (A) (A) (A) (A) (A) (A) (A) (A) (A)
                 (A) (A) (A) (A) (A) (A) (A) (A) (A) (A) (A) (A)
                 (A) (A) (A) (A) (A) (A) (A) (A) (A) (A) (A) (A)
                 (A) (A) (A) (A) (A) (A) (A) (A) (A) (A) (A) (A)
                 (A) (A) (A) (A) (A) (A) (A) (A) (A) (A) (A) (A)
                 (A) (A) (A) (A) (A) (A) (A) (A) (A) (A) (A) (A)
                 (A) (A) (A) (A) (A) (A) (A) (A) (A) (A) (A) (A)
                 (A) (A) (A) (A) (A) (A) (A) (A) (A) (A) (A) (A)
                 (A) (A) (A) (A) (A) (A) (A) (A) (A) (A) (A) (A)
                 (A) (A) (A) (A) (A) (A) (A) (A) (A) (A) (A) (A)
                 (A) (A) (A) (A) (A) (A) (A) (A) (A) (A) (A) (A)
                 (A) (A) (A) (A) (A) (A) (A) (A) (A) (A) (A) (A)
                 (A) (A) (A) (A) (A) (A) (A) (A) (A) (A) (A) (A)
                 (A) (A) (A) (A) (A) (A) (A) (A) (A) (A) (A) (A)
                 (A) (A) (A) (A) (A) (A) (A) (A) (A) (A) (A) (A)
                 (A) (A) (A) (A) (A) (A) (A) (A) (A) (A) (A) (A)
                 (A) (A) (A) (A) (A) (A) (A) (A) (A) (A) (A) (A)
                 (A) (A) (A) (A) (A) (A) (A) (A) (A) (A) (A) (A)
                 (A) (A) (A) (A) (A) (A) (A) (A) (A) (A) (A) (A)
                 (A) (A) (A) (A) (A) (A) (A) (A) (A) (A) (A) (A)
                 (A) (A) (A) (A) (A) (A) (A) (A) (A) (A) (A) (A)
                 (A) (A) (A) (A) (A) (A) (A) (A) (A) (A) (A) (A)
                 (A) (A) (A) (A) (A) (A) (A) (A) (A) (A) (A) (A)
                 (A) (A) (A) (A) (A) (A) (A) (A) (A) (A) (A) (A)
                 (A) (A) (A) (A) (A) (A) (A) (A) (A) (A) (A) (A)
                 (A) (A) (A) (A) (A) (A) (A) (A) (A) (A) (A) (A)
                 (A) (A) (A) (A) (A) (A) (A) (A) (A) (A) (A) (A)
                 (A) (A) (A) (A) (A) (A) (A) (A) (A) (A) (A) (A)
                 (A) (A) (A) (A) (A) (A) (A) (A) (A) (A) (A) (A)
                 (A) (A) (A) (A) (A) (A) (A) (A) (A) (A) (A) (A)
                 (A) (A) (A) (A) (A) (A) (A) (A) (A) (A) (A) (A)
                 (A) (A) (A) (A) (A) (A) (A) (A) (A) (A) (A) (A)
                 (A) (A) (A) (A) (A) (A) (A) (A) (A) (A) (A) (A)
 The electronic state is 1-A.
 Alpha  occ. eigenvalues --  -19.62576 -19.62509 -19.62445 -10.63234 -10.58931
 Alpha  occ. eigenvalues --  -10.57813 -10.57621 -10.57506 -10.53363 -10.53281
 Alpha  occ. eigenvalues --  -10.52860 -10.52814 -10.52668  -1.19683  -1.16478
 Alpha  occ. eigenvalues --   -1.13007  -0.90831  -0.89552  -0.87475  -0.84488
 Alpha  occ. eigenvalues --   -0.75379  -0.74670  -0.73057  -0.70932  -0.65116
 Alpha  occ. eigenvalues --   -0.61862  -0.60731  -0.58895  -0.57966  -0.55713
 Alpha  occ. eigenvalues --   -0.54221  -0.53976  -0.52426  -0.50592  -0.49513
 Alpha  occ. eigenvalues --   -0.48563  -0.46018  -0.45658  -0.45053  -0.44875
 Alpha  occ. eigenvalues --   -0.43954  -0.42549  -0.41944  -0.40484  -0.39223
 Alpha  occ. eigenvalues --   -0.38381  -0.37514  -0.35451  -0.34832  -0.33272
 Alpha  occ. eigenvalues --   -0.31254
 Alpha virt. eigenvalues --   -0.00181   0.00778   0.00792   0.01160   0.02170
 Alpha virt. eigenvalues --    0.02458   0.02602   0.03311   0.03710   0.04347
 Alpha virt. eigenvalues --    0.04432   0.04829   0.05508   0.05732   0.07054
 Alpha virt. eigenvalues --    0.07526   0.07625   0.07951   0.09071   0.09234
 Alpha virt. eigenvalues --    0.10034   0.10360   0.11160   0.11368   0.11987
 Alpha virt. eigenvalues --    0.12219   0.12703   0.12894   0.13355   0.13563
 Alpha virt. eigenvalues --    0.13727   0.14059   0.14411   0.14502   0.14635
 Alpha virt. eigenvalues --    0.15122   0.15215   0.15534   0.15693   0.16205
 Alpha virt. eigenvalues --    0.16435   0.17256   0.17392   0.17736   0.18149
 Alpha virt. eigenvalues --    0.18209   0.18534   0.18732   0.19383   0.19673
 Alpha virt. eigenvalues --    0.19828   0.19904   0.20411   0.21139   0.21248
 Alpha virt. eigenvalues --    0.21760   0.22431   0.23105   0.23444   0.23955
 Alpha virt. eigenvalues --    0.24393   0.24804   0.26141   0.26256   0.26831
 Alpha virt. eigenvalues --    0.28105   0.28470   0.28896   0.29236   0.29966
 Alpha virt. eigenvalues --    0.30154   0.30417   0.31243   0.31459   0.32006
 Alpha virt. eigenvalues --    0.32568   0.33011   0.33400   0.33665   0.34051
 Alpha virt. eigenvalues --    0.34809   0.35364   0.35469   0.35614   0.36222
 Alpha virt. eigenvalues --    0.36710   0.37297   0.37738   0.38135   0.38826
 Alpha virt. eigenvalues --    0.38886   0.39278   0.39794   0.40225   0.41345
 Alpha virt. eigenvalues --    0.42368   0.43124   0.43481   0.43946   0.45531
 Alpha virt. eigenvalues --    0.46618   0.48800   0.49296   0.49937   0.50465
 Alpha virt. eigenvalues --    0.51161   0.52814   0.53720   0.54668   0.56136
 Alpha virt. eigenvalues --    0.56255   0.56952   0.57324   0.59209   0.59571
 Alpha virt. eigenvalues --    0.60168   0.60536   0.60890   0.61590   0.61708
 Alpha virt. eigenvalues --    0.62097   0.62375   0.62825   0.63978   0.64211
 Alpha virt. eigenvalues --    0.64435   0.65134   0.65974   0.66601   0.66625
 Alpha virt. eigenvalues --    0.68391   0.68492   0.68579   0.69723   0.70276
 Alpha virt. eigenvalues --    0.70764   0.71180   0.72105   0.73062   0.73162
 Alpha virt. eigenvalues --    0.74339   0.74405   0.74557   0.74797   0.76040
 Alpha virt. eigenvalues --    0.76281   0.76953   0.77229   0.78071   0.78292
 Alpha virt. eigenvalues --    0.79137   0.81767   0.83586   0.85681   0.86134
 Alpha virt. eigenvalues --    0.86775   0.87035   0.88063   0.89412   0.90197
 Alpha virt. eigenvalues --    0.90890   0.91701   0.93937   0.94591   0.95452
 Alpha virt. eigenvalues --    0.97385   0.98021   0.99698   1.01429   1.01714
 Alpha virt. eigenvalues --    1.02312   1.04541   1.05287   1.05308   1.06411
 Alpha virt. eigenvalues --    1.07667   1.08430   1.10021   1.11066   1.12604
 Alpha virt. eigenvalues --    1.13168   1.13895   1.14931   1.16609   1.17137
 Alpha virt. eigenvalues --    1.18544   1.18890   1.19570   1.19998   1.20604
 Alpha virt. eigenvalues --    1.22284   1.22604   1.22842   1.23412   1.25076
 Alpha virt. eigenvalues --    1.25107   1.25796   1.26289   1.26762   1.27439
 Alpha virt. eigenvalues --    1.28243   1.29057   1.29827   1.30574   1.31296
 Alpha virt. eigenvalues --    1.31779   1.32914   1.33570   1.34099   1.35221
 Alpha virt. eigenvalues --    1.35791   1.37059   1.37666   1.37887   1.38397
 Alpha virt. eigenvalues --    1.38893   1.40657   1.41104   1.41461   1.42246
 Alpha virt. eigenvalues --    1.43083   1.43227   1.44301   1.44863   1.45702
 Alpha virt. eigenvalues --    1.46329   1.46990   1.47656   1.47944   1.48558
 Alpha virt. eigenvalues --    1.49682   1.50075   1.51168   1.51748   1.52844
 Alpha virt. eigenvalues --    1.52944   1.54405   1.54581   1.55192   1.55302
 Alpha virt. eigenvalues --    1.56436   1.57028   1.57604   1.58071   1.58413
 Alpha virt. eigenvalues --    1.59193   1.59785   1.60191   1.60881   1.61453
 Alpha virt. eigenvalues --    1.63632   1.64442   1.65021   1.65387   1.66538
 Alpha virt. eigenvalues --    1.68725   1.69105   1.70312   1.70955   1.71273
 Alpha virt. eigenvalues --    1.72547   1.72877   1.74412   1.75224   1.77021
 Alpha virt. eigenvalues --    1.78402   1.79292   1.81215   1.81947   1.83259
 Alpha virt. eigenvalues --    1.84005   1.86696   1.93328   1.96981   1.97580
 Alpha virt. eigenvalues --    2.03225   2.06001   2.09677   2.17843   2.21080
 Alpha virt. eigenvalues --    2.21966   2.24271   2.31743   2.32979   2.36894
 Alpha virt. eigenvalues --    2.42101   2.44195   2.45106   2.47984   2.53532
 Alpha virt. eigenvalues --    2.63232   2.76610   2.77751   2.79277   2.83506
 Alpha virt. eigenvalues --    2.84460   2.86384   2.91872   2.93175   2.93251
 Alpha virt. eigenvalues --    2.96114   2.96927   2.99018   3.02610   3.03541
 Alpha virt. eigenvalues --    3.06746   3.07899   3.08729   3.09878   3.11431
 Alpha virt. eigenvalues --    3.13872   3.15814   3.18022   3.20931   3.21570
 Alpha virt. eigenvalues --    3.24833   3.28820   3.30900   3.32212   3.34900
 Alpha virt. eigenvalues --    3.35502   3.36315   3.36533   3.37765   3.39599
 Alpha virt. eigenvalues --    3.41179   3.43440   3.44803   3.44982   3.45603
 Alpha virt. eigenvalues --    3.46663   3.47286   3.49898   3.51334   3.51741
 Alpha virt. eigenvalues --    3.52383   3.53072   3.53497   3.55240   3.55861
 Alpha virt. eigenvalues --    3.56224   3.58073   3.58875   3.59479   3.59664
 Alpha virt. eigenvalues --    3.60975   3.62841   3.63354   3.64148   3.66203
 Alpha virt. eigenvalues --    3.66783   3.67111   3.68487   3.69133   3.70160
 Alpha virt. eigenvalues --    3.71060   3.72291   3.72402   3.73571   3.74013
 Alpha virt. eigenvalues --    3.74916   3.75436   3.76699   3.77407   3.79925
 Alpha virt. eigenvalues --    3.80353   3.81831   3.82818   3.83584   3.85842
 Alpha virt. eigenvalues --    3.86180   3.88328   3.88990   3.90356   3.91866
 Alpha virt. eigenvalues --    3.93439   3.94318   3.95410   3.97312   3.99921
 Alpha virt. eigenvalues --    4.00414   4.01347   4.02186   4.03042   4.03999
 Alpha virt. eigenvalues --    4.04940   4.06120   4.07271   4.07506   4.08131
 Alpha virt. eigenvalues --    4.08736   4.09229   4.10054   4.11289   4.12032
 Alpha virt. eigenvalues --    4.12168   4.12671   4.14217   4.14884   4.16358
 Alpha virt. eigenvalues --    4.16777   4.17825   4.18629   4.19256   4.20646
 Alpha virt. eigenvalues --    4.21800   4.22236   4.24870   4.25820   4.26325
 Alpha virt. eigenvalues --    4.27206   4.28111   4.29886   4.32154   4.32556
 Alpha virt. eigenvalues --    4.33520   4.33778   4.34692   4.36824   4.39735
 Alpha virt. eigenvalues --    4.40923   4.42705   4.46938   4.47777   4.52239
 Alpha virt. eigenvalues --    4.58749   4.62656   4.71599   4.75447   4.82499
 Alpha virt. eigenvalues --    4.85345   4.92844   4.95423   5.00280   5.02517
 Alpha virt. eigenvalues --    5.05206   5.06879   5.07664   5.11720   5.12727
 Alpha virt. eigenvalues --    5.13935   5.15047   5.17074   5.32618   5.39499
 Alpha virt. eigenvalues --    5.42188   5.58769   5.61615   5.66232   5.85205
 Alpha virt. eigenvalues --    5.88358   6.04283   7.03224   7.05561   7.07311
 Alpha virt. eigenvalues --    7.08477   7.10267   7.11736   7.15118   7.19845
 Alpha virt. eigenvalues --    7.29730   7.34615   7.40591   7.45425   7.52626
 Alpha virt. eigenvalues --    7.54252   7.64983  23.96639  23.97254  24.05174
 Alpha virt. eigenvalues --   24.08302  24.10751  24.11543  24.12545  24.15192
 Alpha virt. eigenvalues --   24.19875  24.20204  50.16446  50.18722  50.29517
          Condensed to atoms (all electrons):
               1          2          3          4          5          6
     1  C   11.297408   0.003899   0.060011  -1.670401  -2.640599  -0.103943
     2  C    0.003899   5.546659   0.004140  -0.156571   0.016325  -0.001513
     3  O    0.060011   0.004140   8.254295  -0.019787  -0.064412  -0.054824
     4  C   -1.670401  -0.156571  -0.019787   6.552567   0.727670  -0.087586
     5  C   -2.640599   0.016325  -0.064412   0.727670   7.519254   0.057630
     6  O   -0.103943  -0.001513  -0.054824  -0.087586   0.057630   8.341554
     7  C    0.317449   0.010882  -0.043523  -0.118038  -0.211102  -0.067302
     8  C    0.254645   0.004807   0.008647  -0.011621  -0.078351  -0.030176
     9  C   -2.325769   0.067363   0.241534   0.469760   0.756590   0.290561
    10  C   -0.066079  -0.000849  -0.069564   0.014059   0.021229  -0.012245
    11  C    0.133922  -0.002750   0.108776  -0.024975  -0.006341  -0.002775
    12  C    0.429727  -0.162726   0.021457  -0.164030  -0.673276  -0.014366
    13  O   -0.029551   0.100343  -0.001325   0.109025  -0.019628   0.023961
    14  H    0.782629  -0.017768   0.000232  -0.125883  -0.142463  -0.072657
    15  H    0.094502   0.507482   0.000102  -0.050204  -0.061825  -0.000531
    16  H   -0.039811   0.421957   0.000272   0.023115  -0.009446   0.001670
    17  H    0.017851   0.015451   0.000277   0.402041  -0.018543  -0.002072
    18  H   -0.017029   0.016509  -0.001121   0.421892  -0.003000   0.005624
    19  H    0.051661  -0.042155  -0.005391  -0.049440   0.414522  -0.019720
    20  H   -0.095316  -0.009400  -0.016144   0.029569   0.486146   0.006918
    21  H   -0.015465   0.000819   0.008795   0.000222   0.003190  -0.002680
    22  H    0.008598  -0.000409  -0.005428  -0.001790   0.003471   0.008154
    23  H   -0.025520   0.000075   0.002731   0.007742   0.005297  -0.005037
    24  H    0.020017   0.000117  -0.005210  -0.003128  -0.006454   0.001146
    25  H   -0.045598  -0.004565  -0.073966  -0.007275   0.004154  -0.014903
    26  H    0.003238  -0.000102   0.008761   0.000750   0.000620   0.001010
    27  H   -0.004302   0.000084  -0.000029   0.000130  -0.000382  -0.000456
    28  H    0.007227  -0.000492  -0.070263   0.000476   0.004763   0.000988
    29  H   -0.067772   0.002520  -0.030611   0.006211   0.016551   0.005451
    30  H   -0.082132  -0.075614   0.000943  -0.000049  -0.008313   0.001650
    31  H   -0.009267  -0.013589  -0.000923   0.001220  -0.029752   0.000016
               7          8          9         10         11         12
     1  C    0.317449   0.254645  -2.325769  -0.066079   0.133922   0.429727
     2  C    0.010882   0.004807   0.067363  -0.000849  -0.002750  -0.162726
     3  O   -0.043523   0.008647   0.241534  -0.069564   0.108776   0.021457
     4  C   -0.118038  -0.011621   0.469760   0.014059  -0.024975  -0.164030
     5  C   -0.211102  -0.078351   0.756590   0.021229  -0.006341  -0.673276
     6  O   -0.067302  -0.030176   0.290561  -0.012245  -0.002775  -0.014366
     7  C    6.925945   0.030081  -0.965945  -0.268389   0.161691   0.023710
     8  C    0.030081   5.791898  -0.492059  -0.025198  -0.020688  -0.006425
     9  C   -0.965945  -0.492059   8.061858   0.484904  -0.552049  -0.203741
    10  C   -0.268389  -0.025198   0.484904   5.699160  -0.075302  -0.003280
    11  C    0.161691  -0.020688  -0.552049  -0.075302   5.550585   0.016915
    12  C    0.023710  -0.006425  -0.203741  -0.003280   0.016915   6.267350
    13  O    0.007849  -0.000455  -0.011299  -0.000448  -0.000423   0.031896
    14  H   -0.003312   0.018940  -0.156897  -0.006700   0.019813   0.014619
    15  H    0.000896   0.000322  -0.007427   0.000023  -0.000373  -0.073113
    16  H    0.000227  -0.000212   0.001293  -0.000433   0.001093   0.014952
    17  H   -0.010034  -0.000265  -0.005988   0.003311  -0.002551   0.001731
    18  H    0.004704   0.002344  -0.007131  -0.001946   0.000868  -0.022280
    19  H   -0.028577  -0.002003  -0.037085   0.008658   0.001679   0.050824
    20  H   -0.000523  -0.002925   0.031130  -0.005088   0.001465  -0.045983
    21  H    0.446068  -0.052637  -0.025510  -0.008538   0.011057  -0.002019
    22  H    0.483673   0.002038  -0.126412  -0.013695   0.016857   0.002835
    23  H   -0.043760   0.512594  -0.011830  -0.059643   0.001429  -0.000075
    24  H   -0.048342   0.441824  -0.004023  -0.026921   0.006066   0.000088
    25  H   -0.039591  -0.018231   0.517284   0.014766  -0.037813  -0.003150
    26  H   -0.005040  -0.045984   0.001844   0.444253  -0.038857  -0.000484
    27  H   -0.006083  -0.018978   0.001096   0.490865  -0.091921   0.000325
    28  H   -0.016592   0.016528  -0.013463  -0.025049   0.436408   0.002244
    29  H    0.040878  -0.021970   0.024118  -0.069094   0.464968  -0.001328
    30  H    0.000386  -0.000904   0.003991   0.000363   0.000834   0.529714
    31  H    0.000203  -0.000154   0.006490   0.000216  -0.001418   0.409996
              13         14         15         16         17         18
     1  C   -0.029551   0.782629   0.094502  -0.039811   0.017851  -0.017029
     2  C    0.100343  -0.017768   0.507482   0.421957   0.015451   0.016509
     3  O   -0.001325   0.000232   0.000102   0.000272   0.000277  -0.001121
     4  C    0.109025  -0.125883  -0.050204   0.023115   0.402041   0.421892
     5  C   -0.019628  -0.142463  -0.061825  -0.009446  -0.018543  -0.003000
     6  O    0.023961  -0.072657  -0.000531   0.001670  -0.002072   0.005624
     7  C    0.007849  -0.003312   0.000896   0.000227  -0.010034   0.004704
     8  C   -0.000455   0.018940   0.000322  -0.000212  -0.000265   0.002344
     9  C   -0.011299  -0.156897  -0.007427   0.001293  -0.005988  -0.007131
    10  C   -0.000448  -0.006700   0.000023  -0.000433   0.003311  -0.001946
    11  C   -0.000423   0.019813  -0.000373   0.001093  -0.002551   0.000868
    12  C    0.031896   0.014619  -0.073113   0.014952   0.001731  -0.022280
    13  O    8.324200  -0.004096  -0.074671  -0.075110  -0.058377  -0.052664
    14  H   -0.004096   0.485956   0.001353   0.001030  -0.001945  -0.002373
    15  H   -0.074671   0.001353   0.528496  -0.027050  -0.001433   0.009678
    16  H   -0.075110   0.001030  -0.027050   0.506316   0.000128  -0.003827
    17  H   -0.058377  -0.001945  -0.001433   0.000128   0.474287  -0.000249
    18  H   -0.052664  -0.002373   0.009678  -0.003827  -0.000249   0.473034
    19  H   -0.016480   0.012798  -0.008856   0.012992   0.002981  -0.004766
    20  H    0.002491  -0.012320   0.002017  -0.003971  -0.000679   0.003096
    21  H   -0.000296  -0.000779  -0.000050   0.000091  -0.001262   0.000279
    22  H   -0.000853   0.000469  -0.000058   0.000146   0.000457  -0.000328
    23  H   -0.000018  -0.001456  -0.000060   0.000077  -0.001321  -0.000191
    24  H    0.000041   0.001090   0.000028  -0.000022   0.000318   0.000125
    25  H    0.008546  -0.008456   0.001628  -0.003381   0.000613   0.002808
    26  H   -0.000028   0.000895  -0.000005  -0.000006   0.000127  -0.000020
    27  H    0.000043  -0.000481   0.000009  -0.000009  -0.000141   0.000009
    28  H   -0.000083   0.001758  -0.000027   0.000042   0.000237  -0.000120
    29  H    0.000419  -0.013184  -0.000074   0.000055  -0.001209   0.000482
    30  H    0.005381  -0.003422  -0.018631   0.009195  -0.001902  -0.009786
    31  H    0.010513  -0.003677   0.003598  -0.012315   0.001170   0.001044
              19         20         21         22         23         24
     1  C    0.051661  -0.095316  -0.015465   0.008598  -0.025520   0.020017
     2  C   -0.042155  -0.009400   0.000819  -0.000409   0.000075   0.000117
     3  O   -0.005391  -0.016144   0.008795  -0.005428   0.002731  -0.005210
     4  C   -0.049440   0.029569   0.000222  -0.001790   0.007742  -0.003128
     5  C    0.414522   0.486146   0.003190   0.003471   0.005297  -0.006454
     6  O   -0.019720   0.006918  -0.002680   0.008154  -0.005037   0.001146
     7  C   -0.028577  -0.000523   0.446068   0.483673  -0.043760  -0.048342
     8  C   -0.002003  -0.002925  -0.052637   0.002038   0.512594   0.441824
     9  C   -0.037085   0.031130  -0.025510  -0.126412  -0.011830  -0.004023
    10  C    0.008658  -0.005088  -0.008538  -0.013695  -0.059643  -0.026921
    11  C    0.001679   0.001465   0.011057   0.016857   0.001429   0.006066
    12  C    0.050824  -0.045983  -0.002019   0.002835  -0.000075   0.000088
    13  O   -0.016480   0.002491  -0.000296  -0.000853  -0.000018   0.000041
    14  H    0.012798  -0.012320  -0.000779   0.000469  -0.001456   0.001090
    15  H   -0.008856   0.002017  -0.000050  -0.000058  -0.000060   0.000028
    16  H    0.012992  -0.003971   0.000091   0.000146   0.000077  -0.000022
    17  H    0.002981  -0.000679  -0.001262   0.000457  -0.001321   0.000318
    18  H   -0.004766   0.003096   0.000279  -0.000328  -0.000191   0.000125
    19  H    0.486692  -0.026019  -0.000759   0.002962  -0.000307  -0.000230
    20  H   -0.026019   0.472515   0.000317  -0.001240  -0.000072   0.000030
    21  H   -0.000759   0.000317   0.479407  -0.003586  -0.001058  -0.010204
    22  H    0.002962  -0.001240  -0.003586   0.452450   0.002542  -0.004757
    23  H   -0.000307  -0.000072  -0.001058   0.002542   0.459897  -0.008862
    24  H   -0.000230   0.000030  -0.010204  -0.004757  -0.008862   0.471987
    25  H   -0.018592   0.008945  -0.009653  -0.018972  -0.003771   0.002520
    26  H    0.000376   0.000171   0.001053  -0.001968  -0.005493  -0.006427
    27  H   -0.000790  -0.000036  -0.001913  -0.002384   0.002122  -0.002116
    28  H    0.001724  -0.000942   0.000973   0.001156  -0.002114   0.001203
    29  H   -0.003317  -0.000601   0.000185  -0.001365   0.000143  -0.002592
    30  H    0.004194  -0.005564   0.000001   0.000166   0.000135  -0.000047
    31  H   -0.006145  -0.007316  -0.000010  -0.000076  -0.000021   0.000000
              25         26         27         28         29         30
     1  C   -0.045598   0.003238  -0.004302   0.007227  -0.067772  -0.082132
     2  C   -0.004565  -0.000102   0.000084  -0.000492   0.002520  -0.075614
     3  O   -0.073966   0.008761  -0.000029  -0.070263  -0.030611   0.000943
     4  C   -0.007275   0.000750   0.000130   0.000476   0.006211  -0.000049
     5  C    0.004154   0.000620  -0.000382   0.004763   0.016551  -0.008313
     6  O   -0.014903   0.001010  -0.000456   0.000988   0.005451   0.001650
     7  C   -0.039591  -0.005040  -0.006083  -0.016592   0.040878   0.000386
     8  C   -0.018231  -0.045984  -0.018978   0.016528  -0.021970  -0.000904
     9  C    0.517284   0.001844   0.001096  -0.013463   0.024118   0.003991
    10  C    0.014766   0.444253   0.490865  -0.025049  -0.069094   0.000363
    11  C   -0.037813  -0.038857  -0.091921   0.436408   0.464968   0.000834
    12  C   -0.003150  -0.000484   0.000325   0.002244  -0.001328   0.529714
    13  O    0.008546  -0.000028   0.000043  -0.000083   0.000419   0.005381
    14  H   -0.008456   0.000895  -0.000481   0.001758  -0.013184  -0.003422
    15  H    0.001628  -0.000005   0.000009  -0.000027  -0.000074  -0.018631
    16  H   -0.003381  -0.000006  -0.000009   0.000042   0.000055   0.009195
    17  H    0.000613   0.000127  -0.000141   0.000237  -0.001209  -0.001902
    18  H    0.002808  -0.000020   0.000009  -0.000120   0.000482  -0.009786
    19  H   -0.018592   0.000376  -0.000790   0.001724  -0.003317   0.004194
    20  H    0.008945   0.000171  -0.000036  -0.000942  -0.000601  -0.005564
    21  H   -0.009653   0.001053  -0.001913   0.000973   0.000185   0.000001
    22  H   -0.018972  -0.001968  -0.002384   0.001156  -0.001365   0.000166
    23  H   -0.003771  -0.005493   0.002122  -0.002114   0.000143   0.000135
    24  H    0.002520  -0.006427  -0.002116   0.001203  -0.002592  -0.000047
    25  H    0.478436   0.001012   0.001215  -0.002332   0.002751  -0.001109
    26  H    0.001012   0.489593  -0.013467  -0.007514  -0.002638  -0.000010
    27  H    0.001215  -0.013467   0.486297  -0.007661   0.006554  -0.000015
    28  H   -0.002332  -0.007514  -0.007661   0.482321  -0.017355   0.000128
    29  H    0.002751  -0.002638   0.006554  -0.017355   0.517941   0.000352
    30  H   -0.001109  -0.000010  -0.000015   0.000128   0.000352   0.467945
    31  H    0.003200  -0.000008   0.000023  -0.000045   0.000184  -0.012534
              31
     1  C   -0.009267
     2  C   -0.013589
     3  O   -0.000923
     4  C    0.001220
     5  C   -0.029752
     6  O    0.000016
     7  C    0.000203
     8  C   -0.000154
     9  C    0.006490
    10  C    0.000216
    11  C   -0.001418
    12  C    0.409996
    13  O    0.010513
    14  H   -0.003677
    15  H    0.003598
    16  H   -0.012315
    17  H    0.001170
    18  H    0.001044
    19  H   -0.006145
    20  H   -0.007316
    21  H   -0.000010
    22  H   -0.000076
    23  H   -0.000021
    24  H    0.000000
    25  H    0.003200
    26  H   -0.000008
    27  H    0.000023
    28  H   -0.000045
    29  H    0.000184
    30  H   -0.012534
    31  H    0.500063
 Mulliken charges:
               1
     1  C   -0.244227
     2  C   -0.230929
     3  O   -0.258450
     4  C   -0.275668
     5  C   -0.063524
     6  O   -0.253547
     7  C   -0.578486
     8  C   -0.255430
     9  C   -0.013187
    10  C   -0.443347
    11  C   -0.076190
    12  C   -0.442106
    13  O   -0.278902
    14  H    0.236285
    15  H    0.174255
    16  H    0.180943
    17  H    0.186992
    18  H    0.184335
    19  H    0.218570
    20  H    0.189330
    21  H    0.183964
    22  H    0.197345
    23  H    0.175825
    24  H    0.182737
    25  H    0.263479
    26  H    0.174350
    27  H    0.162392
    28  H    0.205877
    29  H    0.143347
    30  H    0.194653
    31  H    0.159315
 Sum of Mulliken charges =  -0.00000
 Mulliken charges with hydrogens summed into heavy atoms:
               1
     1  C   -0.007942
     2  C    0.124270
     3  O   -0.258450
     4  C    0.095659
     5  C    0.344376
     6  O   -0.253547
     7  C   -0.197177
     8  C    0.103132
     9  C    0.250291
    10  C   -0.106605
    11  C    0.273035
    12  C   -0.088139
    13  O   -0.278902
 Electronic spatial extent (au):  <R**2>=           2982.6607
 Charge=             -0.0000 electrons
 Dipole moment (field-independent basis, Debye):
    X=             -0.0325    Y=              1.4388    Z=              1.3005  Tot=              1.9397
 Quadrupole moment (field-independent basis, Debye-Ang):
   XX=            -71.3822   YY=            -82.4860   ZZ=            -78.5060
   XY=             -6.4177   XZ=             -1.1305   YZ=              1.1780
 Traceless Quadrupole moment (field-independent basis, Debye-Ang):
   XX=              6.0759   YY=             -5.0279   ZZ=             -1.0479
   XY=             -6.4177   XZ=             -1.1305   YZ=              1.1780
 Octapole moment (field-independent basis, Debye-Ang**2):
  XXX=             -1.5351  YYY=              2.8355  ZZZ=             -0.6705  XYY=              7.1660
  XXY=             18.6423  XXZ=              5.9326  XZZ=             -6.5717  YZZ=             -1.1970
  YYZ=              4.8020  XYZ=             11.1350
 Hexadecapole moment (field-independent basis, Debye-Ang**3):
 XXXX=          -2957.7125 YYYY=           -592.2402 ZZZZ=           -294.9887 XXXY=            -30.3922
 XXXZ=              5.4486 YYYX=              5.1062 YYYZ=             -3.6458 ZZZX=              2.4380
 ZZZY=              1.1474 XXYY=           -627.6369 XXZZ=           -548.5756 YYZZ=           -155.7333
 XXYZ=             -7.4336 YYXZ=             -2.5006 ZZXY=              0.9465
 N-N= 8.993588672486D+02 E-N=-3.240782634671D+03  KE= 6.153255982777D+02
 D1PCM: PCM CHGder 1st derivatives, ID1Alg=3 FixD1E=F DoIter=F DoCFld=F I1PDM=0.
 Calling FoFJK, ICntrl=      2127 FMM=F ISym2X=0 I1Cent= 0 IOpClX= 0 NMat=1 NMatS=1 NMatT=0.
 ***** Axes restored to original set *****
 -------------------------------------------------------------------
 Center     Atomic                   Forces (Hartrees/Bohr)
 Number     Number              X              Y              Z
 -------------------------------------------------------------------
      1        6          -0.000358264   -0.000620512   -0.006293365
      2        6          -0.004446909   -0.002067617    0.004141014
      3        8           0.003598536   -0.008160119   -0.007778662
      4        6           0.002426453   -0.005574752   -0.003023971
      5        6           0.002314570    0.001845396    0.004017127
      6        8          -0.003818256    0.008343156    0.006739458
      7        6          -0.000166212   -0.000160021    0.002749410
      8        6           0.001782922   -0.002965116   -0.002035226
      9        6          -0.003451544   -0.000841254    0.006036701
     10        6           0.002105020    0.001061081    0.001526206
     11        6          -0.001333940    0.006106982   -0.002251196
     12        6          -0.000895851    0.001348810   -0.001855360
     13        8          -0.002691988    0.006551435   -0.006547180
     14        1          -0.000064737   -0.003060832    0.005432632
     15        1           0.004762571    0.000002435    0.002831878
     16        1           0.000469778   -0.000536081   -0.004737337
     17        1          -0.003447670    0.003633724    0.000344992
     18        1           0.003199470   -0.001371857    0.005467923
     19        1          -0.001537399    0.002029261   -0.004391853
     20        1          -0.002294022   -0.002347410    0.000486250
     21        1           0.001364854    0.002811188    0.000440882
     22        1          -0.001359193   -0.001081499   -0.002909755
     23        1           0.002302707    0.000250167    0.002829557
     24        1          -0.002002778    0.001528015   -0.000607972
     25        1           0.004194928   -0.000709598   -0.007028716
     26        1          -0.001977411   -0.000181492    0.002056204
     27        1          -0.000944123   -0.000678886   -0.003131192
     28        1          -0.001304563   -0.004181087   -0.000618933
     29        1           0.002327376    0.001685473    0.005732958
     30        1           0.000292850   -0.000269374    0.003570331
     31        1           0.000952825   -0.002389614   -0.001192804
 -------------------------------------------------------------------
 Cartesian Forces:  Max     0.008343156 RMS     0.003364006

 GradGradGradGradGradGradGradGradGradGradGradGradGradGradGradGradGradGrad
 Berny optimization.
 FormGI is forming the generalized inverse of G from B-inverse, IUseBI=4.
 Internal  Forces:  Max     0.016798674 RMS     0.002231311
 Search for a local minimum.
 Step number   1 out of a maximum of  186
 All quantities printed in internal units (Hartrees-Bohrs-Radians)
 Mixed Optimization -- RFO/linear search
 Second derivative matrix not updated -- first step.
 ITU=  0
     Eigenvalues ---    0.00395   0.00619   0.00619   0.00719   0.01414
     Eigenvalues ---    0.01433   0.01759   0.02700   0.02719   0.03077
     Eigenvalues ---    0.03326   0.03936   0.04078   0.04555   0.04747
     Eigenvalues ---    0.04786   0.04891   0.04891   0.05070   0.05144
     Eigenvalues ---    0.05300   0.05580   0.05686   0.05989   0.06172
     Eigenvalues ---    0.06190   0.06614   0.07090   0.07623   0.07633
     Eigenvalues ---    0.07830   0.07860   0.07969   0.08086   0.08246
     Eigenvalues ---    0.08827   0.09154   0.10254   0.11171   0.11595
     Eigenvalues ---    0.11687   0.11756   0.11765   0.12398   0.12718
     Eigenvalues ---    0.14667   0.14964   0.16472   0.18053   0.19078
     Eigenvalues ---    0.20021   0.21955   0.22538   0.25000   0.27028
     Eigenvalues ---    0.27437   0.28536   0.28610   0.28841   0.28926
     Eigenvalues ---    0.29214   0.30260   0.35088   0.35195   0.35206
     Eigenvalues ---    0.35235   0.35264   0.35281   0.35286   0.35307
     Eigenvalues ---    0.35393   0.35443   0.35457   0.35591   0.35670
     Eigenvalues ---    0.35743   0.35771   0.35837   0.35982   0.36245
     Eigenvalues ---    0.40184   0.40917   0.40984   0.41604   0.43326
     Eigenvalues ---    0.464731000.000001000.000001000.000001000.00000
     Eigenvalues --- 1000.000001000.000001000.000001000.000001000.00000
     Eigenvalues --- 1000.000001000.000001000.000001000.000001000.00000
     Eigenvalues --- 1000.000001000.000001000.000001000.000001000.00000
     Eigenvalues --- 1000.000001000.000001000.000001000.000001000.00000
     Eigenvalues --- 1000.000001000.000001000.000001000.000001000.00000
     Eigenvalues --- 1000.000001000.000001000.000001000.000001000.00000
     Eigenvalues --- 1000.000001000.000001000.000001000.000001000.00000
     Eigenvalues --- 1000.000001000.000001000.000001000.000001000.00000
     Eigenvalues --- 1000.000001000.000001000.000001000.000001000.00000
     Eigenvalues --- 1000.000001000.000001000.000001000.000001000.00000
     Eigenvalues --- 1000.000001000.000001000.000001000.000001000.00000
     Eigenvalues --- 1000.000001000.000001000.000001000.000001000.00000
     Eigenvalues --- 1000.000001000.000001000.000001000.000001000.00000
     Eigenvalues --- 1000.000001000.000001000.000001000.000001000.00000
     Eigenvalues --- 1000.000001000.000001000.000001000.000001000.00000
     Eigenvalues --- 1000.000001000.000001000.000001000.000001000.00000
     Eigenvalues --- 1000.000001000.000001000.000001000.000001000.00000
     Eigenvalues --- 1000.000001000.000001000.000001000.000001000.00000
     Eigenvalues --- 1000.000001000.000001000.000001000.000001000.00000
 RFO step:  Lambda=-4.21221112D-03 EMin= 3.94965781D-03
 Linear search not attempted -- first point.
 Iteration  1 RMS(Cart)=  0.07903380 RMS(Int)=  0.00108804
 Iteration  2 RMS(Cart)=  0.00360469 RMS(Int)=  0.00006108
 Iteration  3 RMS(Cart)=  0.00000408 RMS(Int)=  0.00006103
 Iteration  4 RMS(Cart)=  0.00000000 RMS(Int)=  0.00006103
 Iteration  1 RMS(Cart)=  0.00001740 RMS(Int)=  0.00000391
 Iteration  2 RMS(Cart)=  0.00000965 RMS(Int)=  0.00000436
 Iteration  3 RMS(Cart)=  0.00000535 RMS(Int)=  0.00000494
 Iteration  4 RMS(Cart)=  0.00000297 RMS(Int)=  0.00000533
 Iteration  5 RMS(Cart)=  0.00000165 RMS(Int)=  0.00000556
 Iteration  6 RMS(Cart)=  0.00000091 RMS(Int)=  0.00000569
 Variable       Old X    -DE/DX   Delta X   Delta X   Delta X     New X
                                 (Linear)    (Quad)   (Total)
    R1        2.89764   0.00031   0.00000   0.00115   0.00119   2.89883
    R2        2.90063  -0.00185   0.00000  -0.00739  -0.00735   2.89328
    R3        2.70238  -0.00045   0.00000  -0.00109  -0.00109   2.70128
    R4        2.04726   0.00616   0.00000   0.01710   0.01710   2.06436
    R5        2.89464   0.00049   0.00000   0.00270   0.00266   2.89730
    R6        2.68359   0.00333   0.00000   0.00937   0.00932   2.69291
    R7        2.05220   0.00544   0.00000   0.01525   0.01525   2.06745
    R8        2.04441   0.00476   0.00000   0.01316   0.01316   2.05758
    R9        2.65443   0.00373   0.00000   0.00789   0.00790   2.66233
   R10        2.68539   0.00287   0.00000   0.00662   0.00663   2.69202
   R11        2.66569   0.00317   0.00000   0.00707   0.00707   2.67276
   R12        2.04110   0.00482   0.00000   0.01323   0.01323   2.05433
   R13        2.05214   0.00641   0.00000   0.01794   0.01794   2.07008
   R14        2.88946  -0.00016   0.00000  -0.00260  -0.00260   2.88686
   R15        2.04485   0.00493   0.00000   0.01364   0.01364   2.05848
   R16        2.04601   0.00315   0.00000   0.00872   0.00872   2.05473
   R17        2.63601   0.00268   0.00000   0.00572   0.00572   2.64173
   R18        2.89017  -0.00157   0.00000  -0.00514  -0.00515   2.88502
   R19        2.87761  -0.00062   0.00000  -0.00241  -0.00243   2.87518
   R20        2.04961   0.00314   0.00000   0.00874   0.00874   2.05836
   R21        2.05360   0.00332   0.00000   0.00931   0.00931   2.06291
   R22        2.88895  -0.00074   0.00000  -0.00194  -0.00195   2.88700
   R23        2.05341   0.00343   0.00000   0.00963   0.00963   2.06304
   R24        2.05179   0.00259   0.00000   0.00724   0.00724   2.05903
   R25        2.03700   0.00813   0.00000   0.02218   0.02218   2.05918
   R26        2.87171   0.00019   0.00000   0.00096   0.00098   2.87270
   R27        2.05294   0.00283   0.00000   0.00795   0.00795   2.06089
   R28        2.05532   0.00326   0.00000   0.00918   0.00918   2.06450
   R29        2.04337   0.00442   0.00000   0.01219   0.01219   2.05557
   R30        2.05042   0.00631   0.00000   0.01761   0.01761   2.06803
   R31        2.05248   0.00353   0.00000   0.00989   0.00989   2.06237
   R32        2.04940   0.00281   0.00000   0.00783   0.00783   2.05723
    A1        1.91320   0.00095   0.00000  -0.00653  -0.00673   1.90647
    A2        1.90273   0.00052   0.00000   0.00212   0.00179   1.90452
    A3        1.87944   0.00046   0.00000   0.01191   0.01190   1.89134
    A4        2.03660  -0.00218   0.00000  -0.02338  -0.02337   2.01322
    A5        1.89603  -0.00080   0.00000   0.00251   0.00262   1.89864
    A6        1.82865   0.00121   0.00000   0.01709   0.01705   1.84570
    A7        1.94582   0.00155   0.00000   0.00476   0.00462   1.95044
    A8        1.93975  -0.00097   0.00000  -0.00567  -0.00569   1.93406
    A9        1.93305  -0.00091   0.00000  -0.00606  -0.00601   1.92704
   A10        1.90483   0.00049   0.00000   0.00728   0.00738   1.91221
   A11        1.84531  -0.00072   0.00000  -0.00205  -0.00203   1.84328
   A12        1.89195   0.00058   0.00000   0.00207   0.00202   1.89398
   A13        2.02143  -0.00582   0.00000  -0.03667  -0.03656   1.98487
   A14        1.94625   0.00018   0.00000  -0.00079  -0.00093   1.94532
   A15        1.92546  -0.00138   0.00000  -0.01630  -0.01631   1.90915
   A16        1.92166  -0.00063   0.00000   0.00055   0.00053   1.92219
   A17        1.87148  -0.00044   0.00000  -0.00152  -0.00160   1.86987
   A18        1.90840   0.00166   0.00000   0.01423   0.01427   1.92267
   A19        1.88908   0.00066   0.00000   0.00415   0.00411   1.89318
   A20        1.89336  -0.00082   0.00000  -0.00502  -0.00512   1.88824
   A21        1.94116  -0.00019   0.00000  -0.00851  -0.00848   1.93268
   A22        1.92635  -0.00038   0.00000  -0.00232  -0.00226   1.92409
   A23        1.89066   0.00107   0.00000   0.00379   0.00379   1.89446
   A24        1.93631   0.00045   0.00000   0.01103   0.01103   1.94734
   A25        1.87604  -0.00009   0.00000   0.00129   0.00121   1.87725
   A26        2.16203  -0.01680   0.00000  -0.06608  -0.06608   2.09595
   A27        1.95543  -0.00188   0.00000  -0.01625  -0.01637   1.93906
   A28        1.94702  -0.00022   0.00000  -0.00103  -0.00113   1.94589
   A29        1.90961   0.00127   0.00000   0.00757   0.00765   1.91726
   A30        1.90162   0.00086   0.00000   0.00008   0.00011   1.90173
   A31        1.87143   0.00008   0.00000   0.00347   0.00346   1.87489
   A32        1.87550  -0.00002   0.00000   0.00730   0.00727   1.88277
   A33        1.91444   0.00198   0.00000  -0.00107  -0.00108   1.91336
   A34        1.92255  -0.00102   0.00000  -0.00679  -0.00679   1.91577
   A35        1.91601  -0.00057   0.00000   0.00147   0.00146   1.91747
   A36        1.91415  -0.00084   0.00000  -0.00148  -0.00157   1.91258
   A37        1.92976  -0.00029   0.00000   0.00170   0.00177   1.93152
   A38        1.86650   0.00068   0.00000   0.00626   0.00626   1.87277
   A39        1.94935   0.00030   0.00000  -0.00210  -0.00194   1.94741
   A40        1.93815   0.00355   0.00000   0.01370   0.01351   1.95166
   A41        1.83632  -0.00257   0.00000  -0.01454  -0.01454   1.82178
   A42        1.88349  -0.00323   0.00000  -0.01487  -0.01478   1.86871
   A43        1.93421   0.00190   0.00000   0.01353   0.01352   1.94773
   A44        1.92283   0.00022   0.00000   0.00516   0.00524   1.92806
   A45        1.92391  -0.00096   0.00000  -0.00462  -0.00482   1.91909
   A46        1.93908  -0.00052   0.00000  -0.00190  -0.00187   1.93721
   A47        1.91605   0.00090   0.00000   0.00158   0.00166   1.91771
   A48        1.90366   0.00057   0.00000   0.00339   0.00343   1.90709
   A49        1.90481   0.00004   0.00000  -0.00167  -0.00160   1.90320
   A50        1.87542   0.00001   0.00000   0.00343   0.00340   1.87882
   A51        1.94456   0.00229   0.00000   0.00587   0.00585   1.95041
   A52        1.84266  -0.00130   0.00000  -0.00189  -0.00191   1.84075
   A53        1.90923   0.00017   0.00000   0.00155   0.00160   1.91084
   A54        1.94531  -0.00022   0.00000  -0.00175  -0.00169   1.94362
   A55        1.93242  -0.00168   0.00000  -0.00770  -0.00775   1.92467
   A56        1.88667   0.00075   0.00000   0.00429   0.00427   1.89094
   A57        1.91219  -0.00016   0.00000  -0.00899  -0.00905   1.90315
   A58        1.93036   0.00053   0.00000   0.00325   0.00322   1.93357
   A59        1.90677  -0.00015   0.00000   0.00401   0.00403   1.91080
   A60        1.91786  -0.00063   0.00000  -0.00350  -0.00352   1.91433
   A61        1.93065   0.00038   0.00000   0.00306   0.00313   1.93377
   A62        1.86568   0.00005   0.00000   0.00259   0.00257   1.86825
   A63        1.97055  -0.00419   0.00000  -0.02722  -0.02721   1.94334
    D1        0.49974   0.00124   0.00000   0.01376   0.01376   0.51350
    D2        2.57739  -0.00010   0.00000   0.00064   0.00065   2.57805
    D3       -1.62188  -0.00055   0.00000  -0.00413  -0.00411  -1.62600
    D4       -1.74902   0.00297   0.00000   0.04707   0.04713  -1.70189
    D5        0.32863   0.00163   0.00000   0.03396   0.03402   0.36266
    D6        2.41254   0.00118   0.00000   0.02919   0.02926   2.44180
    D7        2.55947   0.00107   0.00000   0.01999   0.01998   2.57945
[...]
 00061555,0.00002842,0.00002119,0.00038957,-0.00067423,0.00060643,-0.00
 005148,0.00002010,0.00000755,-0.00000869,-0.00001877,0.00001493,0.0000
 0125,0.00007788,0.00010245,0.00001602,-0.00021500,-0.00006367,0.000017
 28,-0.00052244,0.00055622,0.00127288,0.00006768,-0.00014912,0.00027552
 ,0.00040012,-0.00014218,-0.00003024,0.00033928,-0.00035482,0.00067252,
 -0.00014783,0.00004956,0.00016552,-0.00022879,0.00001989,0.00009529,-0
 .13177998,-0.01530321,0.23609494,0.00032608,-0.00009131,0.00015042,0.0
 0002000,0.00000621,-0.00001577,-0.00711860,0.00291471,0.00132549,0.000
 01234,0.00004908,-0.00003427,-0.00008651,0.00002773,0.00000059,-0.0005
 2001,-0.00028175,-0.00046670,0.00096951,-0.00157055,-0.00080889,-0.004
 85672,-0.00179720,0.00472452,0.00135727,0.00210973,0.00011487,-0.14416
 877,-0.03261502,0.12125048,-0.01315298,-0.00897027,0.02135285,0.000008
 47,-0.00001078,-0.00000763,-0.00005497,-0.00001474,0.00002305,-0.00004
 274,0.00002170,-0.00003866,-0.00001300,-0.00001006,0.00000064,-0.00000
 359,0.00000050,0.00000603,0.00000204,0.00000101,0.00000473,-0.00003478
 ,-0.00001101,-0.00000572,0.00005022,-0.00000198,-0.00004600,0.00000758
 ,-0.00004404,0.00002115,-0.00010864,0.00005089,0.00042328,-0.00009459,
 0.00000091,0.00026846,0.00007037,0.00022153,-0.00003642,0.00036945,-0.
 00015045,-0.00028414,-0.00005438,-0.00019753,0.00003800,0.15508377,0.0
 0000091,-0.00003837,-0.00003094,0.00001014,-0.00001095,0.00000434,0.00
 637238,-0.00080984,-0.00118867,-0.00000321,0.00001061,-0.00001119,0.00
 002225,-0.00002850,-0.00000554,-0.00005881,0.00042800,0.00012295,-0.00
 097632,-0.00686232,-0.00157136,-0.02052571,-0.00608492,0.02610754,0.00
 030930,-0.00220089,-0.00005209,-0.03265847,-0.05850060,0.04362464,0.00
 806470,0.00515247,-0.01567750,0.00000266,0.00002768,0.00000922,-0.0000
 0320,0.00000584,0.00000626,-0.00001755,0.00001051,-0.00000964,0.000001
 90,0.00000475,-0.00000183,0.00000005,0.00000096,-0.00000091,0.00000505
 ,0.00000088,0.00000182,-0.00000441,-0.00000404,0.00000039,-0.00001576,
 -0.00000669,0.00001016,0.00000196,0.00003443,-0.00001822,-0.00165844,-
 0.00031001,0.00139764,0.00024931,0.00005294,-0.00003546,0.00028405,0.0
 0151763,-0.00046914,0.00083276,0.00128687,0.00006590,-0.00003724,0.000
 36775,-0.00006954,0.03679014,0.06452449,-0.00013807,0.00003168,-0.0000
 5293,-0.00000825,-0.00000064,0.00000524,0.00010936,0.00040095,0.001620
 30,-0.00000637,-0.00001822,0.00001695,0.00003439,-0.00001126,0.0000103
 7,0.00024446,0.00003835,0.00012041,-0.00014151,0.00006191,0.00122951,-
 0.00236306,-0.00091923,0.00131730,-0.00057849,-0.00025575,-0.00018812,
 0.12363036,0.04386290,-0.20725376,-0.00268545,-0.00077108,0.00068358,-
 0.00000449,0.00000236,-0.00000522,0.00002268,0.00000394,-0.00001178,0.
 00001493,-0.00001380,0.00001483,0.00000497,0.00000362,0.00000033,0.000
 00153,-0.00000053,-0.00000228,-0.00000081,-0.00000078,-0.00000196,0.00
 001425,0.00000442,0.00000192,-0.00001085,-0.00000004,0.00001272,-0.000
 00287,0.00001636,-0.00000497,0.00028079,-0.00013718,0.00007524,-0.0002
 3254,-0.00010496,0.00032442,-0.00000192,0.00047579,0.00065214,-0.00001
 088,0.00038243,-0.00008895,0.00002391,-0.00004093,-0.00005768,-0.13521
 965,-0.04771892,0.22109929,0.00017209,-0.00002393,0.00004203,0.0000112
 7,-0.00000386,-0.00000525,0.00279163,-0.00076896,0.00052028,0.00002058
 ,0.00001819,-0.00000577,0.00001363,-0.00000738,-0.00001969,-0.00008265
 ,-0.00011402,0.00017355,-0.00004151,0.00023360,-0.00060768,-0.00398364
 ,-0.00174874,-0.00622776,-0.00021563,-0.00000096,-0.00017427,-0.109581
 84,-0.02766417,-0.10420241,-0.01620857,-0.00424240,-0.02578222,0.00000
 656,0.00000419,0.00001442,-0.00002866,-0.00000581,0.00001716,0.0000292
 3,0.00002231,0.00000768,-0.00000348,-0.00000168,-0.00000031,-0.0000020
 0,0.00000054,0.00000242,-0.00000066,-0.00000151,0.00000049,-0.00001153
 ,-0.00000297,-0.00000181,-0.00000431,-0.00000444,0.00000321,0.00002979
 ,-0.00001400,-0.00001280,0.00009579,0.00000934,0.00015816,-0.00021725,
 -0.00018966,0.00022904,0.00057520,-0.00137801,0.00000388,0.00049741,-0
 .00000229,0.00043827,-0.00005959,-0.00002361,0.00000167,0.01051761,0.0
 0460304,0.01625521,0.11834298,-0.00007100,-0.00000044,0.00007196,0.000
 00107,0.00000077,0.00000218,-0.00197730,0.00046507,-0.00080508,-0.0000
 1383,0.00000148,-0.00000867,-0.00004165,0.00000170,0.00000443,0.000031
 66,0.00026057,-0.00004297,0.00076387,0.00148058,-0.00092789,-0.0164717
 4,-0.00939512,-0.02928893,-0.00002557,-0.00050057,0.00006331,-0.027619
 67,-0.05851439,-0.04672694,0.01122464,0.00276128,0.01979294,-0.0000027
 2,0.00001109,-0.00000500,0.00000924,0.00000396,-0.00000417,-0.00003384
 ,-0.00001403,-0.00001415,0.00000096,0.00000100,-0.00000039,0.00000008,
 0.00000009,-0.00000062,0.00000413,0.00000227,0.00000088,0.00000005,-0.
 00000145,-0.00000069,0.00000547,-0.00000075,-0.00000669,-0.00001856,0.
 00001763,0.00000667,0.00042162,0.00004429,0.00024890,-0.00008888,0.000
 09102,0.00071958,-0.00201770,-0.00620127,0.00050322,0.00071991,0.00143
 245,0.00013628,-0.00007418,0.00011299,-0.00000650,0.00392061,0.0006283
 4,0.00536471,0.02825030,0.06800022,0.00020945,-0.00008890,0.00006852,0
 .00001269,-0.00000262,-0.00000501,-0.00047288,-0.00058307,0.00195565,0
 .00000446,0.00002539,-0.00001898,-0.00001077,-0.00000166,0.00000083,-0
 .00036382,-0.00009658,-0.00012003,0.00030365,0.00026447,0.00080131,0.0
 0047445,-0.00083408,-0.00081658,0.00017123,0.00039116,0.00007275,-0.10
 634736,-0.04588832,-0.23553634,-0.00012857,0.00024716,-0.00351364,0.00
 000380,0.00000688,-0.00000007,-0.00002741,-0.00000404,0.00001642,-0.00
 000223,0.00002119,-0.00002321,-0.00000490,-0.00000227,-0.00000074,-0.0
 0000168,0.00000079,0.00000249,0.00000394,0.00000131,0.00000199,-0.0000
 1561,-0.00000564,-0.00000246,0.00000830,-0.00000283,-0.00001204,0.0000
 0641,-0.00000555,-0.00000002,-0.00004789,-0.00008771,0.00017917,-0.000
 42694,-0.00004242,0.00021351,0.00040215,-0.00013471,0.00136395,0.00010
 178,-0.00043187,0.00032332,-0.00009199,-0.00003408,-0.00001915,-0.0119
 8138,-0.00480795,-0.01990584,0.11850636,0.05099887,0.25331259,0.000573
 78,-0.00013684,0.00015096,0.00003783,-0.00001248,-0.00001396,-0.010876
 06,-0.02793733,0.00400991,0.00002758,0.00005874,-0.00002734,-0.0000642
 4,-0.00003068,-0.00001144,-0.00042368,-0.00032257,-0.00021429,-0.00046
 886,-0.00039526,0.00017145,-0.00547240,0.00219073,-0.00050799,-0.00169
 050,0.00219851,0.00338491,0.00793808,0.02877371,0.00295706,-0.05992057
 ,-0.05048692,-0.00909269,0.00001256,0.00002499,0.00000485,-0.00008662,
 -0.00001197,0.00004268,-0.00004260,0.00003391,-0.00002199,-0.00001401,
 -0.00000456,-0.00000186,-0.00000466,0.00000242,0.00000635,0.00000530,0
 .00000352,0.00000576,-0.00004383,-0.00001134,-0.00000725,0.00004717,-0
 .00000983,-0.00003463,0.00002026,0.00001340,-0.00001342,0.00026536,-0.
 00010536,-0.00009697,0.00007151,-0.00001408,-0.00006840,0.00000145,-0.
 00004062,0.00016042,0.00040489,0.00187762,-0.00010474,-0.00034361,-0.0
 0119930,0.00020185,0.00079688,-0.00110582,0.00030783,0.00124373,-0.000
 89534,-0.00012657,0.07042532,0.00040552,-0.00012586,0.00014649,0.00002
 596,-0.00000317,-0.00001383,-0.00616669,-0.00786560,0.00376311,0.00001
 157,0.00005547,-0.00004097,-0.00008974,0.00000731,-0.00001160,-0.00037
 638,-0.00003156,-0.00029669,0.00000213,0.00030842,-0.00035789,0.004265
 32,-0.00015145,0.00036270,0.00053473,0.00344196,0.00137326,-0.00365114
 ,-0.01616636,-0.00314343,-0.05594990,-0.30456036,-0.03187136,0.0000080
 1,0.00000107,0.00000702,-0.00006416,-0.00001212,0.00003073,-0.00004132
 ,0.00002821,-0.00003145,-0.00001168,-0.00000771,-0.00000073,-0.0000042
 3,0.00000158,0.00000600,0.00000299,0.00000311,0.00000478,-0.00003766,-
 0.00001316,-0.00000572,0.00003957,-0.00000308,-0.00003339,-0.00003342,
 -0.00005889,0.00001557,-0.00003649,-0.00007584,0.00000534,-0.00000992,
 -0.00000238,0.00006838,-0.00002623,0.00019066,-0.00007281,-0.00041312,
 -0.00118785,0.00013076,-0.00020229,-0.00048242,0.00000817,0.00029625,0
 .00015700,-0.00023746,-0.00028308,0.00085381,0.00044717,0.06234088,0.3
 2846234,0.00002639,-0.00003753,0.00002098,0.00000004,-0.00000786,0.000
 00415,0.01439803,0.03422951,-0.00264269,0.00000200,0.00000237,-0.00000
 818,-0.00000702,-0.00004653,-0.00005290,-0.00023246,-0.00024577,0.0018
 1531,0.00034673,0.00002759,-0.00011770,0.00015830,0.00004637,0.0008783
 2,0.00164420,-0.00202785,-0.00538891,-0.00124297,0.00321081,0.00052447
 ,-0.01267143,-0.04174932,-0.05464072,-0.00000148,0.00001351,0.00002197
 ,0.00000914,-0.00000021,0.00001061,0.00010016,0.00000278,0.00004402,0.
 00000403,0.00000371,-0.00000086,0.00000085,-0.00000030,-0.00000098,-0.
 00000196,-0.00000329,-0.00000418,0.00000103,0.00000027,0.00000285,-0.0
 0003362,0.00002169,0.00003682,0.00001002,0.00001456,-0.00001438,-0.000
 16481,0.00008700,0.00008934,-0.00000423,-0.00000490,0.00001205,0.00007
 861,0.00042412,0.00012841,0.00001945,-0.00014543,0.00027885,0.00043758
 ,0.00132754,-0.00016778,-0.00003563,-0.00005275,0.00007899,0.00067967,
 0.00023718,0.00035264,0.00166781,0.03126701,0.06011550,0.00012351,-0.0
 0054037,0.00054088,-0.00000385,0.00000789,0.00001280,0.00765476,0.0006
 5330,0.02928013,-0.00008425,-0.00002077,-0.00004846,-0.00000284,-0.000
 07463,0.00006039,-0.00207614,-0.00106193,-0.00028809,-0.00018138,-0.00
 010390,0.00006617,0.00084753,-0.00131253,0.00024184,0.00188292,0.00207
 851,0.00083379,-0.01464941,-0.00410937,-0.02487773,-0.10952088,-0.0178
 4133,-0.11006626,-0.00001353,0.00005150,-0.00003474,0.00006314,0.00003
 165,-0.00005052,0.00009021,0.00015140,-0.00038347,0.00000770,0.0000065
 4,-0.00000162,0.00000253,0.00000014,-0.00000368,0.00002853,0.00002082,
 0.00000051,-0.00000104,-0.00000705,-0.00000225,0.00003076,-0.00001397,
 -0.00003126,0.00012695,0.00012272,-0.00005590,0.00014163,-0.00005264,-
 0.00008280,-0.00006796,-0.00002866,0.00002891,0.00028666,0.00063649,0.
 00031161,0.00005603,-0.00006942,0.00033770,-0.00014485,-0.00006148,-0.
 00022601,0.00075823,-0.00049028,0.00044701,-0.00389808,0.00400021,-0.0
 0014493,-0.00237964,-0.00049956,-0.00520071,0.12092170,-0.00034148,0.0
 0005735,0.00008672,-0.00004153,0.00002759,0.00000032,0.00138913,0.0030
 0992,0.00968407,0.00001690,-0.00007677,0.00001738,0.00004438,0.0001099
 7,0.00000482,-0.00087017,-0.00062548,0.00014743,-0.00004885,-0.0002531
 6,0.00016123,-0.00003986,0.00149918,0.00094314,0.00090393,0.00035766,0
 .00183154,0.01084253,0.00278287,0.01690915,-0.01808624,-0.06039425,-0.
 03524484,-0.00000851,-0.00005362,-0.00000444,0.00007842,0.00001415,-0.
 00005862,0.00008019,0.00006024,-0.00009732,0.00000485,-0.00000362,0.00
 000413,0.00000362,-0.00000335,-0.00000347,-0.00000317,-0.00000816,-0.0
 0000546,0.00003786,0.00001068,0.00000609,0.00000596,-0.00001218,-0.000
 00131,-0.00003063,-0.00005584,0.00001627,-0.00001373,-0.00001834,-0.00
 000494,-0.00003974,0.00003014,-0.00008559,-0.00010733,-0.00003059,-0.0
 0047117,-0.00014226,0.00010289,-0.00029221,-0.00006661,-0.00006339,-0.
 00022453,-0.00064990,0.00064822,-0.00041671,0.00333895,-0.00154209,0.0
 0064833,-0.01480139,-0.00276738,-0.02659106,0.01852831,0.05719628,0.00
 052227,-0.00006467,0.00021349,0.00001642,-0.00002431,-0.00000196,0.004
 62504,0.00407844,-0.03583592,0.00006157,0.00000837,0.00001073,0.000122
 15,-0.00008998,-0.00020005,-0.00059976,-0.00019907,0.00337463,0.000394
 13,0.00054137,0.00017441,0.00046101,0.00004612,0.00015513,-0.00310378,
 -0.00581717,-0.00263925,-0.00231004,-0.00119412,-0.00004024,-0.1065499
 0,-0.03014070,-0.23384423,0.00000504,0.00003802,0.00008007,-0.00004175
 ,-0.00000584,0.00003502,0.00029952,0.00010043,-0.00007781,0.00000011,0
 .00000603,-0.00000167,-0.00000206,0.00000261,0.00000111,0.00000077,-0.
 00000902,-0.00000804,-0.00001102,-0.00000019,-0.00000136,-0.00007949,-
 0.00003951,0.00007270,0.00013731,0.00001304,-0.00012467,-0.00014025,0.
 00021144,0.00003515,0.00002043,-0.00008049,0.00002671,-0.00001343,0.00
 052902,-0.00015968,0.00002116,0.00009087,0.00013441,0.00026629,0.00041
 905,0.00011775,-0.00071764,0.00036879,0.00030795,-0.00001222,-0.000313
 16,0.00131094,-0.00272265,-0.00151385,-0.00137873,0.10933632,0.0330411
 2,0.26826006,0.00097011,-0.00041062,-0.00168139,0.00026811,-0.00243133
 ,0.01774200,-0.00034948,0.00012640,0.00016381,0.00002796,0.00006159,-0
 .00013023,-0.00880358,0.00546945,-0.03430992,0.00047869,-0.00023193,0.
 00035791,-0.00002042,-0.00007088,0.00019711,-0.00005225,0.00004246,-0.
 00003805,0.00002427,-0.00018790,-0.00052423,-0.00001700,-0.00000211,0.
 00004789,0.00008474,0.00008594,-0.00017401,-0.05949055,0.00911165,-0.0
 5458934,0.00034172,-0.00024987,-0.00016465,-0.00016076,0.00006028,0.00
 054258,0.00102615,0.00056352,0.00025051,-0.00074199,-0.00337441,0.0013
 1037,0.00001282,-0.00006383,0.00011261,0.00029348,0.00035183,-0.000013
 26,-0.00658824,0.00089774,-0.00010780,0.00116460,-0.00057827,0.0004666
 3,-0.00000490,0.00001967,-0.00000151,0.00001007,-0.00000698,-0.0000036
 3,0.00000081,-0.00000017,0.00000695,-0.00002364,-0.00000050,0.00002051
 ,-0.00010596,-0.00005309,0.00026220,-0.00002187,0.00000735,0.00000551,
 0.00000006,-0.00000077,-0.00000526,-0.00001390,-0.00001509,0.00001297,
 -0.00000500,-0.00000098,0.00002853,0.06936496,0.00054903,-0.00007133,0
 .00084267,0.00483435,-0.00283266,0.02746884,-0.00002117,-0.00006536,-0
 .00002020,0.00014032,-0.00056821,0.00073787,0.00131014,-0.00085151,0.0
 0247293,-0.00033071,0.00013828,-0.00024154,-0.00001079,-0.00001168,-0.
 00003535,0.00000468,0.00000087,-0.00000198,0.00010950,0.00010407,0.000
 18020,0.00000181,0.00000124,-0.00000040,0.00001694,0.00000054,-0.00000
 013,0.00765279,-0.05451284,0.03098605,-0.00020267,-0.00101935,-0.00044
 353,0.00003203,0.00004951,-0.00017638,0.00070548,0.00136280,-0.0006737
 8,-0.00188285,-0.00337068,0.00157494,-0.00003351,0.00011885,-0.0001368
 3,0.00023215,-0.00096772,-0.00043217,0.00051630,0.00073861,0.00036339,
 0.00012320,0.00003818,-0.00026408,0.00000084,-0.00000244,0.00000033,-0
 .00001380,0.00000605,-0.00000285,0.00000135,-0.00000149,-0.00000213,-0
 .00000311,0.00000056,0.00000029,-0.00000407,-0.00000413,-0.00003718,-0
 .00000138,-0.00000091,0.00000086,-0.00000129,-0.00000002,-0.00000103,-
 0.00000415,-0.00000268,-0.00000179,0.00000270,0.00000443,-0.00000308,-
 0.00708376,0.05775407,0.00024841,-0.00098704,0.00073226,-0.00097013,-0
 .00048599,-0.01045740,-0.00022772,-0.00000824,0.00003191,-0.00001425,-
 0.00084570,-0.00163047,-0.00196817,0.00059900,-0.00252678,-0.00039752,
 0.00018355,0.00007596,0.00000709,-0.00000652,0.00001464,-0.00000051,0.
 00000954,-0.00000991,0.00028620,-0.00003597,-0.00004133,-0.00000522,-0
 .00000308,0.00001774,0.00007579,0.00003807,-0.00007629,-0.05317709,0.0
 3359230,-0.29403181,-0.00027953,0.00135531,0.00086534,-0.00047473,0.00
 064764,0.00000981,0.00012702,0.00003182,0.00129349,0.00090957,0.002074
 54,0.00061987,0.00009123,0.00004787,0.00037856,0.00058479,-0.00060876,
 0.00051460,-0.00047047,-0.00034043,0.00131181,-0.00046921,-0.00003266,
 0.00019680,-0.00000429,0.00000734,0.00000119,-0.00001076,0.00000255,-0
 .00000372,0.00000084,-0.00000244,-0.00000137,-0.00000998,0.00000156,0.
 00000295,-0.00008570,-0.00001231,0.00002290,-0.00001068,0.00000282,0.0
 0000392,-0.00000204,0.00000062,-0.00000354,-0.00000996,-0.00000962,0.0
 0000377,0.00000242,0.00000235,0.00000578,0.05961199,-0.03699637,0.3184
 4105,-0.00520977,-0.00145665,-0.00351685,0.00519527,-0.01063685,-0.007
 87372,-0.00020919,-0.00033102,-0.00008768,-0.00112001,-0.00054437,0.00
 012731,-0.01122638,0.02720197,0.01865382,-0.00215862,0.00232474,0.0008
 3764,-0.00003582,-0.00009708,-0.00009661,0.00000341,0.00002960,-0.0000
 2550,0.00084090,0.00035291,0.00104480,0.00000411,0.00000579,0.00001438
 ,0.00014743,0.00003976,-0.00007515,-0.07457563,0.07030393,0.04392132,0
 .00028962,-0.00308257,0.00049375,0.00008938,-0.00004831,0.00034263,-0.
 00110256,0.00056462,-0.00003118,0.00126254,0.00015618,-0.00011081,0.00
 012046,0.00008328,-0.00007302,0.00024080,-0.00003876,0.00001634,0.0014
 8321,-0.00024354,-0.00035022,0.00153382,-0.00064350,0.00034158,0.00000
 383,-0.00000746,0.00000633,-0.00007741,0.00002638,-0.00002423,0.000011
 35,-0.00001174,-0.00002263,-0.00003367,0.00000069,0.00000440,0.0000077
 0,-0.00006198,-0.00009874,-0.00001769,-0.00000276,0.00000801,-0.000008
 17,-0.00000105,-0.00000845,-0.00002653,-0.00002080,-0.00000071,0.00000
 605,0.00001735,-0.00001410,0.00233098,-0.00664035,-0.00335737,0.082230
 61,-0.00064620,0.00102011,0.00033775,0.01026305,-0.01814072,-0.0132401
 9,0.00013927,0.00004691,0.00001710,-0.00102482,0.00054884,0.00150006,-
 0.00025725,-0.00046661,0.00041727,0.00006424,0.00004814,0.00005591,0.0
 0000355,0.00002015,0.00000809,0.00000203,-0.00000760,0.00000845,-0.000
 15755,-0.00004456,-0.00018734,0.00000219,0.00000133,-0.00000930,-0.000
 05473,-0.00002294,0.00004309,0.07156894,-0.22138576,-0.10973829,-0.001
 06041,-0.00611198,0.00086853,0.00015283,-0.00002008,-0.00004542,-0.001
 06131,-0.00049525,0.00032061,0.00076870,0.00131084,0.00026439,0.000080
 36,-0.00004231,-0.00009578,0.00004219,0.00002996,-0.00010406,0.0001234
 8,-0.00006570,0.00004922,0.00029530,0.00054498,0.00017938,0.00000074,-
 0.00000257,-0.00000174,0.00001455,-0.00000558,0.00000408,-0.00000218,0
 .00000237,0.00000293,0.00000910,-0.00000092,-0.00000263,-0.00000466,0.
 00001462,0.00000109,0.00000696,-0.00000133,-0.00000280,0.00000232,-0.0
 0000049,0.00000259,0.00000740,0.00000694,-0.00000144,-0.00000427,-0.00
 000338,0.00000047,-0.00203538,0.00396497,0.00177825,-0.07723841,0.2392
 5762,-0.00083061,-0.00001263,0.00056575,-0.00504903,0.01038950,0.00459
 888,0.00009704,0.00001418,0.00000326,0.00026759,-0.00023068,-0.0012529
 9,-0.00195766,0.00479988,0.00212746,-0.00008683,0.00011731,0.00024637,
 0.00001472,0.00002472,0.00001334,0.00000056,-0.00000486,0.00000762,-0.
 00002137,-0.00005459,-0.00005695,0.00000321,0.00000005,-0.00000871,-0.
 00002929,-0.00001748,0.00003458,0.04581430,-0.11217107,-0.11754600,0.0
 0031475,0.00445759,-0.00021293,-0.00018245,0.00020621,0.00016636,0.000
 41024,-0.00017136,0.00031329,-0.00061062,0.00028837,0.00105459,0.00001
 125,-0.00005016,0.00027849,0.00030031,-0.00007042,0.00040511,0.0005293
 3,0.00014909,0.00039822,0.00041193,-0.00007940,0.00005899,-0.00000081,
 -0.00000121,-0.00000060,0.00001215,-0.00000545,0.00000170,-0.00000143,
 0.00000087,-0.00000060,0.00000478,-0.00000115,-0.00000366,0.00001250,0
 .00000930,-0.00001269,0.00000463,-0.00000081,-0.00000193,0.00000072,0.
 00000011,0.00000158,0.00000432,0.00000431,-0.00000105,-0.00000209,-0.0
 0000239,-0.00000241,0.01060320,-0.02515757,-0.01576173,-0.05004533,0.1
 1756972,0.12458665\\-0.00024799,-0.00035329,0.00029382,0.00000215,-0.0
 0000768,0.00000117,0.00000429,0.00000943,-0.00000760,-0.00000747,-0.00
 000362,-0.00000145,0.00012320,0.00017236,-0.00015051,0.00027274,0.0003
 9507,-0.00028632,0.00000952,0.00000442,-0.00000057,0.00000064,-0.00000
 141,0.00000008,-0.00014537,-0.00021341,0.00014400,-0.00000138,-0.00000
 122,0.00000258,-0.00000271,-0.00000292,0.00001137,-0.00000090,-0.00000
 037,-0.00000545,-0.00000093,0.00000614,0.00000221,0.00000057,0.0000013
 3,0.00000102,0.00000097,-0.00000121,-0.00000013,-0.00000157,-0.0000026
 7,-0.00000261,-0.00000110,0.00000306,-0.00000160,0.00000078,-0.0000007
 7,0.00000133,0.00000289,-0.00000128,0.00000042,-0.00000148,-0.00000244
 ,0.00000247,-0.00000431,0.00000012,0.00000075,-0.00000234,-0.00000182,
 -0.00000385,0.00000105,0.00000069,0.00000100,-0.00000083,0.00000143,-0
 .00000162,-0.00000306,-0.00000255,0.00000043,-0.00000194,0.00000434,0.
 ,0.00000012,-0.00000066,-0.00000169,0.00000141,-0.00000053,-0.00000118
 ,0.00000053,0.00000175,-0.00000139,0.00000092,-0.00000067,0.00000261,0
 .00000158,-0.00000164,0.00000069\\\@


 I DON'T EXACTLY UNDERSTAND WHAT YOU ARE SAYING,
 BUT YOU ARE ABSOLUTELY RIGHT.
     M.S.GORDON, IN A NDSU FACULTY MEETING
 Job cpu time:       0 days 16 hours  6 minutes 40.1 seconds.
 Elapsed time:       0 days  1 hours  0 minutes 26.4 seconds.
 File lengths (MBytes):  RWF=    688 Int=      0 D2E=      0 Chk=     33 Scr=      1
 Normal termination of Gaussian 16 at Sun Nov  4 23:04:08 2018.
