 Entering Gaussian System, Link 0=g16
 Initial command:
 /apps/gaussian/g16a03/g16/l1.exe "/jobfs/local/2012018.r-man2/Gau-1391.inp" -scrdir="/jobfs/local/2012018.r-man2/"
 Entering Link 1 = /apps/gaussian/g16a03/g16/l1.exe PID=      1392.
  
 Copyright (c) 1988,1990,1992,1993,1995,1998,2003,2009,2016,
            Gaussian, Inc.  All Rights Reserved.
  
 This is part of the Gaussian(R) 16 program.  It is based on
 the Gaussian(R) 09 system (copyright 2009, Gaussian, Inc.),
 the Gaussian(R) 03 system (copyright 2003, Gaussian, Inc.),
 the Gaussian(R) 98 system (copyright 1998, Gaussian, Inc.),
 the Gaussian(R) 94 system (copyright 1995, Gaussian, Inc.),
 the Gaussian 92(TM) system (copyright 1992, Gaussian, Inc.),
 the Gaussian 90(TM) system (copyright 1990, Gaussian, Inc.),
 the Gaussian 88(TM) system (copyright 1988, Gaussian, Inc.),
 the Gaussian 86(TM) system (copyright 1986, Carnegie Mellon
 University), and the Gaussian 82(TM) system (copyright 1983,
 Carnegie Mellon University). Gaussian is a federally registered
 trademark of Gaussian, Inc.
  
 This software contains proprietary and confidential information,
 including trade secrets, belonging to Gaussian, Inc.
  
 This software is provided under written license and may be
 used, copied, transmitted, or stored only in accord with that
 written license.
  
 The following legend is applicable only to US Government
 contracts under FAR:
  
                    RESTRICTED RIGHTS LEGEND
  
 Use, reproduction and disclosure by the US Government is
 subject to restrictions as set forth in subparagraphs (a)
 and (c) of the Commercial Computer Software - Restricted
 Rights clause in FAR 52.227-19.
  
 Gaussian, Inc.
 340 Quinnipiac St., Bldg. 40, Wallingford CT 06492
  
  
 ---------------------------------------------------------------
 Warning -- This program may not be used in any manner that
 competes with the business of Gaussian, Inc. or will provide
 assistance to any competitor of Gaussian, Inc.  The licensee
 of this program is prohibited from giving any competitor of
 Gaussian, Inc. access to this program.  By using this program,
 the user acknowledges that Gaussian, Inc. is engaged in the
 business of creating and licensing software in the field of
 computational chemistry and represents and warrants to the
 licensee that it is not a competitor of Gaussian, Inc. and that
 it will not use this program in any manner prohibited above.
 ---------------------------------------------------------------
  

 Cite this work as:
 Gaussian 16, Revision A.03,
 M. J. Frisch, G. W. Trucks, H. B. Schlegel, G. E. Scuseria, 
 M. A. Robb, J. R. Cheeseman, G. Scalmani, V. Barone, 
 G. A. Petersson, H. Nakatsuji, X. Li, M. Caricato, A. V. Marenich, 
 J. Bloino, B. G. Janesko, R. Gomperts, B. Mennucci, H. P. Hratchian, 
 J. V. Ortiz, A. F. Izmaylov, J. L. Sonnenberg, D. Williams-Young, 
 F. Ding, F. Lipparini, F. Egidi, J. Goings, B. Peng, A. Petrone, 
 T. Henderson, D. Ranasinghe, V. G. Zakrzewski, J. Gao, N. Rega, 
 G. Zheng, W. Liang, M. Hada, M. Ehara, K. Toyota, R. Fukuda, 
 J. Hasegawa, M. Ishida, T. Nakajima, Y. Honda, O. Kitao, H. Nakai, 
 T. Vreven, K. Throssell, J. A. Montgomery, Jr., J. E. Peralta, 
 F. Ogliaro, M. J. Bearpark, J. J. Heyd, E. N. Brothers, K. N. Kudin, 
 V. N. Staroverov, T. A. Keith, R. Kobayashi, J. Normand, 
 K. Raghavachari, A. P. Rendell, J. C. Burant, S. S. Iyengar, 
 J. Tomasi, M. Cossi, J. M. Millam, M. Klene, C. Adamo, R. Cammi, 
 J. W. Ochterski, R. L. Martin, K. Morokuma, O. Farkas, 
 J. B. Foresman, and D. J. Fox, Gaussian, Inc., Wallingford CT, 2016.
 
 ******************************************
 Gaussian 16:  ES64L-G16RevA.03 25-Dec-2016
                 4-Nov-2018 
 ******************************************
 %mem=6000mb
 %nproc=24
 Will use up to   24 processors via shared memory.
 %chk=D_a1-4_2SO_PSI.inp_extract_17.chk
 ----------------------------------------------------------------------
 #M062X/6-311++G(2d,2p) opt=ModRedundant freq=noraman SCRF=(Solvent=Wat
 er)
 ----------------------------------------------------------------------
 1/18=120,19=15,26=3,38=1/1,3;
 2/9=110,12=2,17=6,18=5,40=1/2;
 3/5=4,6=6,7=1212,11=2,25=1,30=1,70=2201,71=1,72=1,74=-55/1,2,3;
 4//1;
 5/5=2,38=5,53=1/2;
 6/7=2,8=2,9=2,10=2,28=1/1;
 7//1,2,3,16;
 1/18=20,19=15,26=3/3(2);
 2/9=110/2;
 99//99;
 2/9=110/2;
 3/5=4,6=6,7=1212,11=2,25=1,30=1,70=2205,71=1,72=1,74=-55/1,2,3;
 4/5=5,16=3,69=1/1;
 5/5=2,38=5,53=1/2;
 7//1,2,3,16;
 1/18=20,19=15,26=3/3(-5);
 2/9=110/2;
 6/7=2,8=2,9=2,10=2,19=2,28=1/1;
 99/9=1/99;
 -----------------------------
 D_a1-4_2SO_PSI.inp_extract_17
 -----------------------------
 Symbolic Z-matrix:
 Charge =  0 Multiplicity = 1
 C                     1.0404    0.0063    0.85837 
 C                     3.6392    0.02271  -0.56919 
 O                    -1.44941  -1.0378   -0.6882 
 C                     2.0482    1.16068   0.75268 
 C                     1.51684  -1.17006  -0.0031 
 O                    -0.28      0.48786   0.60359 
 C                    -2.07631   1.29198  -0.70772 
 C                    -3.20503   1.00611   0.28382 
 C                    -0.95043   0.27216  -0.60138 
 C                    -3.65536  -0.44809   0.14453 
 C                    -2.4598   -1.38025   0.25039 
 C                     3.04259  -1.2343    0.0723 
 O                     2.7536    1.12774  -0.46876 
 H                     1.00894  -0.30974   1.89316 
 H                     4.58842   0.28382  -0.11061 
 H                     3.80143  -0.12694  -1.62824 
 H                     1.53594   2.11051   0.79875 
 H                     2.75521   1.11517   1.57609 
 H                     1.2294   -1.04116  -1.03799 
 H                     1.0709   -2.09409   0.34491 
 H                    -1.66525   2.28594  -0.56821 
 H                    -2.46456   1.23881  -1.72132 
 H                    -2.86605   1.18855   1.30003 
 H                    -4.03488   1.68193   0.10088 
 H                    -0.27548   0.3758   -1.43623 
 H                    -4.37799  -0.70926   0.91252 
 H                    -4.13697  -0.59336  -0.81977 
 H                    -2.73302  -2.40142   0.02285 
 H                    -2.04388  -1.35801   1.25221 
 H                     3.35737  -1.32056   1.10835 
 H                     3.41514  -2.11185  -0.44461 
 
 The following ModRedundant input section has been read:
 D       5       1       6       9 F                                           
 

 GradGradGradGradGradGradGradGradGradGradGradGradGradGradGradGradGradGrad
 Berny optimization.
 Initialization pass.
                           ----------------------------
                           !    Initial Parameters    !
                           ! (Angstroms and Degrees)  !
 --------------------------                            --------------------------
 ! Name  Definition              Value          Derivative Info.                !
 --------------------------------------------------------------------------------
 ! R1    R(1,4)                  1.536          estimate D2E/DX2                !
 ! R2    R(1,5)                  1.5339         estimate D2E/DX2                !
 ! R3    R(1,6)                  1.4284         estimate D2E/DX2                !
 ! R4    R(1,14)                 1.0824         estimate D2E/DX2                !
 ! R5    R(2,12)                 1.5322         estimate D2E/DX2                !
 ! R6    R(2,13)                 1.4197         estimate D2E/DX2                !
 ! R7    R(2,15)                 1.086          estimate D2E/DX2                !
 ! R8    R(2,16)                 1.0818         estimate D2E/DX2                !
 ! R9    R(3,9)                  1.4045         estimate D2E/DX2                !
 ! R10   R(3,11)                 1.421          estimate D2E/DX2                !
 ! R11   R(4,13)                 1.4109         estimate D2E/DX2                !
 ! R12   R(4,17)                 1.0801         estimate D2E/DX2                !
 ! R13   R(4,18)                 1.0862         estimate D2E/DX2                !
 ! R14   R(5,12)                 1.529          estimate D2E/DX2                !
 ! R15   R(5,19)                 1.0818         estimate D2E/DX2                !
 ! R16   R(5,20)                 1.0834         estimate D2E/DX2                !
 ! R17   R(6,9)                  1.3957         estimate D2E/DX2                !
 ! R18   R(7,8)                  1.5293         estimate D2E/DX2                !
 ! R19   R(7,9)                  1.5228         estimate D2E/DX2                !
 ! R20   R(7,21)                 1.0846         estimate D2E/DX2                !
 ! R21   R(7,22)                 1.0867         estimate D2E/DX2                !
 ! R22   R(8,10)                 1.5287         estimate D2E/DX2                !
 ! R23   R(8,23)                 1.0867         estimate D2E/DX2                !
 ! R24   R(8,24)                 1.0858         estimate D2E/DX2                !
 ! R25   R(9,25)                 1.0785         estimate D2E/DX2                !
 ! R26   R(10,11)                1.5197         estimate D2E/DX2                !
 ! R27   R(10,26)                1.0864         estimate D2E/DX2                !
 ! R28   R(10,27)                1.0876         estimate D2E/DX2                !
 ! R29   R(11,28)                1.0813         estimate D2E/DX2                !
 ! R30   R(11,29)                1.085          estimate D2E/DX2                !
 ! R31   R(12,30)                1.0862         estimate D2E/DX2                !
 ! R32   R(12,31)                1.0845         estimate D2E/DX2                !
 ! A1    A(4,1,5)              109.5064         estimate D2E/DX2                !
 ! A2    A(4,1,6)              109.9294         estimate D2E/DX2                !
 ! A3    A(4,1,14)             107.7141         estimate D2E/DX2                !
 ! A4    A(5,1,6)              116.4554         estimate D2E/DX2                !
 ! A5    A(5,1,14)             108.7844         estimate D2E/DX2                !
 ! A6    A(6,1,14)             104.0096         estimate D2E/DX2                !
 ! A7    A(12,2,13)            111.4731         estimate D2E/DX2                !
 ! A8    A(12,2,15)            111.1491         estimate D2E/DX2                !
 ! A9    A(12,2,16)            110.7794         estimate D2E/DX2                !
 ! A10   A(13,2,15)            109.1603         estimate D2E/DX2                !
 ! A11   A(13,2,16)            105.6926         estimate D2E/DX2                !
 ! A12   A(15,2,16)            108.3943         estimate D2E/DX2                !
 ! A13   A(9,3,11)             115.8855         estimate D2E/DX2                !
 ! A14   A(1,4,13)             111.7185         estimate D2E/DX2                !
 ! A15   A(1,4,17)             110.2894         estimate D2E/DX2                !
 ! A16   A(1,4,18)             110.084          estimate D2E/DX2                !
 ! A17   A(13,4,17)            107.1318         estimate D2E/DX2                !
 ! A18   A(13,4,18)            109.2599         estimate D2E/DX2                !
 ! A19   A(17,4,18)            108.2518         estimate D2E/DX2                !
 ! A20   A(1,5,12)             108.3297         estimate D2E/DX2                !
 ! A21   A(1,5,19)             111.3067         estimate D2E/DX2                !
 ! A22   A(1,5,20)             110.2323         estimate D2E/DX2                !
 ! A23   A(12,5,19)            108.5016         estimate D2E/DX2                !
 ! A24   A(12,5,20)            111.0427         estimate D2E/DX2                !
 ! A25   A(19,5,20)            107.4301         estimate D2E/DX2                !
 ! A26   A(1,6,9)              123.0883         estimate D2E/DX2                !
 ! A27   A(8,7,9)              112.0369         estimate D2E/DX2                !
 ! A28   A(8,7,21)             111.5684         estimate D2E/DX2                !
 ! A29   A(8,7,22)             109.3841         estimate D2E/DX2                !
 ! A30   A(9,7,21)             108.9378         estimate D2E/DX2                !
 ! A31   A(9,7,22)             107.248          estimate D2E/DX2                !
 ! A32   A(21,7,22)            107.4709         estimate D2E/DX2                !
 ! A33   A(7,8,10)             109.6431         estimate D2E/DX2                !
 ! A34   A(7,8,23)             110.1634         estimate D2E/DX2                !
 ! A35   A(7,8,24)             109.7854         estimate D2E/DX2                !
 ! A36   A(10,8,23)            109.6824         estimate D2E/DX2                !
 ! A37   A(10,8,24)            110.5855         estimate D2E/DX2                !
 ! A38   A(23,8,24)            106.9469         estimate D2E/DX2                !
 ! A39   A(3,9,6)              111.6036         estimate D2E/DX2                !
 ! A40   A(3,9,7)              110.9558         estimate D2E/DX2                !
 ! A41   A(3,9,25)             105.3139         estimate D2E/DX2                !
 ! A42   A(6,9,7)              108.176          estimate D2E/DX2                !
 ! A43   A(6,9,25)             110.6601         estimate D2E/DX2                !
 ! A44   A(7,9,25)             110.1368         estimate D2E/DX2                !
 ! A45   A(8,10,11)            110.2057         estimate D2E/DX2                !
 ! A46   A(8,10,26)            111.1141         estimate D2E/DX2                !
 ! A47   A(8,10,27)            109.7727         estimate D2E/DX2                !
 ! A48   A(11,10,26)           109.0623         estimate D2E/DX2                !
 ! A49   A(11,10,27)           109.1592         estimate D2E/DX2                !
 ! A50   A(26,10,27)           107.4647         estimate D2E/DX2                !
 ! A51   A(3,11,10)            111.4424         estimate D2E/DX2                !
 ! A52   A(3,11,28)            105.5611         estimate D2E/DX2                !
 ! A53   A(3,11,29)            109.4141         estimate D2E/DX2                !
 ! A54   A(10,11,28)           111.4587         estimate D2E/DX2                !
 ! A55   A(10,11,29)           110.6915         estimate D2E/DX2                !
 ! A56   A(28,11,29)           108.0913         estimate D2E/DX2                !
 ! A57   A(2,12,5)             109.4786         estimate D2E/DX2                !
 ! A58   A(2,12,30)            110.5875         estimate D2E/DX2                !
 ! A59   A(2,12,31)            109.3021         estimate D2E/DX2                !
 ! A60   A(5,12,30)            109.8491         estimate D2E/DX2                !
 ! A61   A(5,12,31)            110.6898         estimate D2E/DX2                !
 ! A62   A(30,12,31)           106.9066         estimate D2E/DX2                !
 ! A63   A(2,13,4)             113.0355         estimate D2E/DX2                !
 ! D1    D(5,1,4,13)            26.6061         estimate D2E/DX2                !
 ! D2    D(5,1,4,17)           145.6392         estimate D2E/DX2                !
 ! D3    D(5,1,4,18)           -94.9738         estimate D2E/DX2                !
 ! D4    D(6,1,4,13)          -102.5308         estimate D2E/DX2                !
 ! D5    D(6,1,4,17)            16.5023         estimate D2E/DX2                !
 ! D6    D(6,1,4,18)           135.8894         estimate D2E/DX2                !
 ! D7    D(14,1,4,13)          144.7551         estimate D2E/DX2                !
 ! D8    D(14,1,4,17)          -96.2118         estimate D2E/DX2                !
 ! D9    D(14,1,4,18)           23.1753         estimate D2E/DX2                !
 ! D10   D(4,1,5,12)            35.905          estimate D2E/DX2                !
 ! D11   D(4,1,5,19)           -83.3061         estimate D2E/DX2                !
 ! D12   D(4,1,5,20)           157.589          estimate D2E/DX2                !
 ! D13   D(6,1,5,12)           161.3689         estimate D2E/DX2                !
 ! D14   D(6,1,5,19)            42.1578         estimate D2E/DX2                !
 ! D15   D(6,1,5,20)           -76.9471         estimate D2E/DX2                !
 ! D16   D(14,1,5,12)          -81.5751         estimate D2E/DX2                !
 ! D17   D(14,1,5,19)          159.2138         estimate D2E/DX2                !
 ! D18   D(14,1,5,20)           40.1089         estimate D2E/DX2                !
 ! D19   D(4,1,6,9)            103.6456         estimate D2E/DX2                !
 ! D20   D(5,1,6,9)            -21.6046         Frozen                          !
 ! D21   D(14,1,6,9)          -141.2647         estimate D2E/DX2                !
 ! D22   D(13,2,12,5)           28.1182         estimate D2E/DX2                !
 ! D23   D(13,2,12,30)         -93.0522         estimate D2E/DX2                !
 ! D24   D(13,2,12,31)         149.5146         estimate D2E/DX2                !
 ! D25   D(15,2,12,5)          150.1467         estimate D2E/DX2                !
 ! D26   D(15,2,12,30)          28.9762         estimate D2E/DX2                !
 ! D27   D(15,2,12,31)         -88.4569         estimate D2E/DX2                !
 ! D28   D(16,2,12,5)          -89.2777         estimate D2E/DX2                !
 ! D29   D(16,2,12,30)         149.5518         estimate D2E/DX2                !
 ! D30   D(16,2,12,31)          32.1187         estimate D2E/DX2                !
 ! D31   D(12,2,13,4)           37.3005         estimate D2E/DX2                !
 ! D32   D(15,2,13,4)          -85.8694         estimate D2E/DX2                !
 ! D33   D(16,2,13,4)          157.7321         estimate D2E/DX2                !
 ! D34   D(11,3,9,6)            65.0985         estimate D2E/DX2                !
 ! D35   D(11,3,9,7)           -55.6272         estimate D2E/DX2                !
 ! D36   D(11,3,9,25)         -174.7766         estimate D2E/DX2                !
 ! D37   D(9,3,11,10)           57.665          estimate D2E/DX2                !
 ! D38   D(9,3,11,28)          178.8202         estimate D2E/DX2                !
 ! D39   D(9,3,11,29)          -65.0808         estimate D2E/DX2                !
 ! D40   D(1,4,13,2)           -68.3355         estimate D2E/DX2                !
 ! D41   D(17,4,13,2)          170.7758         estimate D2E/DX2                !
 ! D42   D(18,4,13,2)           53.7192         estimate D2E/DX2                !
 ! D43   D(1,5,12,2)           -65.0181         estimate D2E/DX2                !
 ! D44   D(1,5,12,30)           56.598          estimate D2E/DX2                !
 ! D45   D(1,5,12,31)          174.4268         estimate D2E/DX2                !
 ! D46   D(19,5,12,2)           55.9462         estimate D2E/DX2                !
 ! D47   D(19,5,12,30)         177.5624         estimate D2E/DX2                !
 ! D48   D(19,5,12,31)         -64.6089         estimate D2E/DX2                !
 ! D49   D(20,5,12,2)          173.7972         estimate D2E/DX2                !
 ! D50   D(20,5,12,30)         -64.5866         estimate D2E/DX2                !
 ! D51   D(20,5,12,31)          53.2421         estimate D2E/DX2                !
 ! D52   D(1,6,9,3)             76.9416         estimate D2E/DX2                !
 ! D53   D(1,6,9,7)           -160.7223         estimate D2E/DX2                !
 ! D54   D(1,6,9,25)           -39.9888         estimate D2E/DX2                !
 ! D55   D(9,7,8,10)           -51.8702         estimate D2E/DX2                !
 ! D56   D(9,7,8,23)            68.9291         estimate D2E/DX2                !
 ! D57   D(9,7,8,24)          -173.5487         estimate D2E/DX2                !
 ! D58   D(21,7,8,10)         -174.3149         estimate D2E/DX2                !
 ! D59   D(21,7,8,23)          -53.5156         estimate D2E/DX2                !
 ! D60   D(21,7,8,24)           64.0066         estimate D2E/DX2                !
 ! D61   D(22,7,8,10)           66.9144         estimate D2E/DX2                !
 ! D62   D(22,7,8,23)         -172.2863         estimate D2E/DX2                !
 ! D63   D(22,7,8,24)          -54.7641         estimate D2E/DX2                !
 ! D64   D(8,7,9,3)             52.1902         estimate D2E/DX2                !
 ! D65   D(8,7,9,6)            -70.5415         estimate D2E/DX2                !
 ! D66   D(8,7,9,25)           168.3998         estimate D2E/DX2                !
 ! D67   D(21,7,9,3)           176.1191         estimate D2E/DX2                !
 ! D68   D(21,7,9,6)            53.3874         estimate D2E/DX2                !
 ! D69   D(21,7,9,25)          -67.6713         estimate D2E/DX2                !
 ! D70   D(22,7,9,3)           -67.8488         estimate D2E/DX2                !
 ! D71   D(22,7,9,6)           169.4195         estimate D2E/DX2                !
 ! D72   D(22,7,9,25)           48.3608         estimate D2E/DX2                !
 ! D73   D(7,8,10,11)           52.5932         estimate D2E/DX2                !
 ! D74   D(7,8,10,26)          173.6025         estimate D2E/DX2                !
 ! D75   D(7,8,10,27)          -67.6672         estimate D2E/DX2                !
 ! D76   D(23,8,10,11)         -68.4969         estimate D2E/DX2                !
 ! D77   D(23,8,10,26)          52.5124         estimate D2E/DX2                !
 ! D78   D(23,8,10,27)         171.2427         estimate D2E/DX2                !
 ! D79   D(24,8,10,11)         173.7905         estimate D2E/DX2                !
 ! D80   D(24,8,10,26)         -65.2002         estimate D2E/DX2                !
 ! D81   D(24,8,10,27)          53.5301         estimate D2E/DX2                !
 ! D82   D(8,10,11,3)          -54.6967         estimate D2E/DX2                !
 ! D83   D(8,10,11,28)        -172.3463         estimate D2E/DX2                !
 ! D84   D(8,10,11,29)          67.3137         estimate D2E/DX2                !
 ! D85   D(26,10,11,3)        -176.9249         estimate D2E/DX2                !
 ! D86   D(26,10,11,28)         65.4256         estimate D2E/DX2                !
 ! D87   D(26,10,11,29)        -54.9145         estimate D2E/DX2                !
 ! D88   D(27,10,11,3)          65.9326         estimate D2E/DX2                !
 ! D89   D(27,10,11,28)        -51.717          estimate D2E/DX2                !
 ! D90   D(27,10,11,29)       -172.057          estimate D2E/DX2                !
 --------------------------------------------------------------------------------
 Trust Radius=3.00D-01 FncErr=1.00D-07 GrdErr=1.00D-06 EigMax=2.50D+02 EigMin=1.00D-04
 Number of steps in this run=    186 maximum allowed number of steps=    186.
 GradGradGradGradGradGradGradGradGradGradGradGradGradGradGradGradGradGrad

                          Input orientation:                          
 ---------------------------------------------------------------------
 Center     Atomic      Atomic             Coordinates (Angstroms)
 Number     Number       Type             X           Y           Z
 ---------------------------------------------------------------------
      1          6           0        1.040397    0.006297    0.858368
      2          6           0        3.639200    0.022714   -0.569186
      3          8           0       -1.449407   -1.037801   -0.688204
      4          6           0        2.048202    1.160684    0.752683
      5          6           0        1.516843   -1.170056   -0.003096
      6          8           0       -0.280003    0.487858    0.603593
      7          6           0       -2.076306    1.291983   -0.707724
      8          6           0       -3.205026    1.006109    0.283821
      9          6           0       -0.950430    0.272157   -0.601379
     10          6           0       -3.655361   -0.448091    0.144530
     11          6           0       -2.459801   -1.380249    0.250389
     12          6           0        3.042589   -1.234302    0.072295
     13          8           0        2.753596    1.127741   -0.468757
     14          1           0        1.008938   -0.309741    1.893160
     15          1           0        4.588418    0.283822   -0.110609
     16          1           0        3.801430   -0.126938   -1.628238
     17          1           0        1.535936    2.110508    0.798753
     18          1           0        2.755214    1.115173    1.576091
     19          1           0        1.229402   -1.041160   -1.037994
     20          1           0        1.070900   -2.094091    0.344909
     21          1           0       -1.665251    2.285945   -0.568206
     22          1           0       -2.464555    1.238807   -1.721324
     23          1           0       -2.866053    1.188546    1.300028
     24          1           0       -4.034876    1.681931    0.100877
     25          1           0       -0.275484    0.375800   -1.436229
     26          1           0       -4.377986   -0.709256    0.912517
     27          1           0       -4.136969   -0.593360   -0.819769
     28          1           0       -2.733022   -2.401418    0.022845
     29          1           0       -2.043881   -1.358012    1.252207
     30          1           0        3.357368   -1.320559    1.108347
     31          1           0        3.415139   -2.111851   -0.444614
 ---------------------------------------------------------------------
                    Distance matrix (angstroms):
                    1          2          3          4          5
     1  C    0.000000
     2  C    2.965123   0.000000
     3  O    3.111455   5.199306   0.000000
     4  C    1.536050   2.360845   4.375244   0.000000
     5  C    1.533925   2.499511   3.047212   2.507168   0.000000
     6  O    1.428379   4.117271   2.316005   2.428057   2.519009
     7  C    3.717455   5.856385   2.412732   4.377396   4.412353
     8  C    4.399244   6.966930   2.864367   5.276375   5.207117
     9  C    2.482929   4.596516   1.404460   3.408043   2.919821
    10  C    4.771391   7.344499   2.430522   5.957234   5.224435
    11  C    3.813599   6.311721   1.420959   5.199109   3.990255
    12  C    2.483097   1.532166   4.560153   2.680987   1.528958
    13  O    2.440071   1.419671   4.733177   1.410880   2.650711
    14  H    1.082434   3.618280   3.638265   2.131410   2.143338
    15  H    3.688413   1.086041   6.207708   2.822562   3.399984
    16  H    3.718100   1.081807   5.411527   3.224990   2.991408
    17  H    2.162595   3.264025   4.586411   1.080141   3.377192
    18  H    2.164562   2.564588   5.238432   1.086249   3.041326
    19  H    2.174644   2.675581   2.701552   2.953824   1.081781
    20  H    2.162452   3.451463   2.921475   3.422712   1.083427
    21  H    3.814766   5.767098   3.332908   4.098865   4.731703
    22  H    4.523116   6.329465   2.698297   5.147018   4.960490
    23  H    4.105256   6.868147   3.304024   4.944721   5.144989
    24  H    5.398142   7.879938   3.834611   6.140064   6.242293
    25  H    2.670815   4.025069   1.983911   3.287384   2.766944
    26  H    5.465695   8.185750   3.353629   6.694633   5.983284
    27  H    5.475477   7.804559   2.727238   6.618581   5.741526
    28  H    4.553447   6.843400   2.003175   6.006774   4.424735
    29  H    3.395470   6.125462   2.054539   4.830993   3.780194
    30  H    2.681677   2.167471   5.139322   2.827893   2.155340
    31  H    3.438563   2.149904   4.987657   3.743197   2.164589
                    6          7          8          9         10
     6  O    0.000000
     7  C    2.364926   0.000000
     8  C    2.987741   1.529344   0.000000
     9  C    1.395692   1.522810   2.530903   0.000000
    10  C    3.532673   2.499522   1.528693   2.896858   0.000000
    11  C    2.892420   2.864589   2.500236   2.394610   1.519700
    12  C    3.779911   5.761391   6.640548   4.320585   6.744322
    13  O    3.280565   4.838598   6.007191   3.803869   6.628280
    14  H    1.990105   4.341526   4.698822   3.224973   4.983225
    15  H    4.924758   6.766940   7.836775   5.560560   8.280138
    16  H    4.692242   6.116246   7.350523   4.877898   7.671348
    17  H    2.443095   3.998468   4.895056   3.394395   5.824431
    18  H    3.248356   5.347023   6.099698   4.379937   6.751936
    19  H    2.703887   4.059598   5.059907   2.582073   5.060732
    20  H    2.925460   4.741143   5.281904   3.252747   5.008694
    21  H    2.554436   1.084616   2.175968   2.137150   3.455934
    22  H    3.277412   1.086715   2.150128   2.116900   2.782994
    23  H    2.768328   2.159969   1.086675   2.850391   2.153315
    24  H    3.972103   2.154505   1.085751   3.463298   2.164008
    25  H    2.042903   2.147806   3.455152   1.078549   3.821147
    26  H    4.280418   3.453675   2.171076   3.873396   1.086369
    27  H    4.251021   2.795247   2.155164   3.309206   1.087622
    28  H    3.834382   3.821808   3.449947   3.273422   2.163563
    29  H    2.634236   3.296188   2.806260   2.699790   2.156797
    30  H    4.093362   6.296690   7.011294   4.900717   7.132216
    31  H    4.638028   6.466164   7.353834   4.976571   7.287466
                   11         12         13         14         15
    11  C    0.000000
    12  C    5.507206   0.000000
    13  O    5.829811   2.440390   0.000000
    14  H    3.984575   2.882030   3.269379   0.000000
    15  H    7.250989   2.174337   2.051107   4.144887   0.000000
    16  H    6.656053   2.166543   2.004139   4.497963   1.758201
    17  H    5.334042   3.739719   2.013730   2.707962   3.671698
    18  H    5.931357   2.804286   2.044887   2.276048   2.626164
    19  H    3.922388   2.134875   2.711334   3.029066   3.728084
    20  H    3.603381   2.168205   3.724744   2.363224   4.270234
    21  H    3.839581   5.913217   4.569194   4.466228   6.582269
    22  H    3.278281   6.297775   5.367528   5.246680   7.297316
    23  H    2.804548   6.503043   5.891753   4.196692   7.640521
    24  H    3.446761   7.654786   6.834834   5.711313   8.738457
    25  H    3.271029   3.984681   3.267529   3.633805   5.042149
    26  H    2.137306   7.486426   7.492792   5.490011   9.079063
    27  H    2.139468   7.263101   7.110927   5.824155   8.797996
    28  H    1.081301   5.892562   6.542141   4.677120   7.799475
    29  H    1.084953   5.222995   5.670668   3.290805   6.967085
    30  H    5.880400   1.086246   2.974218   2.674473   2.361223
    31  H    5.960972   1.084473   3.306536   3.808227   2.688381
                   16         17         18         19         20
    16  H    0.000000
    17  H    4.003612   0.000000
    18  H    3.592371   1.755444   0.000000
    19  H    2.792762   3.660685   3.716358   0.000000
    20  H    3.901127   4.254514   3.827806   1.745339   0.000000
    21  H    6.068795   3.485248   5.050666   4.435013   5.244523
    22  H    6.413774   4.807762   6.175291   4.394372   5.279865
    23  H    7.400038   4.525351   5.628520   5.216386   5.214169
    24  H    8.226150   5.630689   6.971570   6.035302   6.355064
    25  H    4.112279   3.359405   4.336574   2.105006   3.329499
    26  H    8.584718   6.552746   7.392659   5.946213   5.650691
    27  H    7.993081   6.489404   7.494092   5.389442   5.543516
    28  H    7.113255   6.259673   6.700725   4.321630   3.829882
    29  H    6.631754   5.005131   5.408591   4.007468   3.326689
    30  H    3.018413   3.896881   2.552286   3.035306   2.531625
    31  H    2.343089   4.785988   3.864251   2.505180   2.473685
                   21         22         23         24         25
    21  H    0.000000
    22  H    1.750733   0.000000
    23  H    2.477198   3.048327   0.000000
    24  H    2.535277   2.445952   1.745720   0.000000
    25  H    2.516659   2.370251   3.854699   4.266345   0.000000
    26  H    4.303801   3.793848   2.457185   2.548384   4.850204
    27  H    3.803034   2.639433   3.046958   2.456616   4.028692
    28  H    4.843640   4.045422   3.812707   4.286566   3.985139
    29  H    4.090927   3.970179   2.676418   3.811939   3.655273
    30  H    6.406591   6.960760   6.712922   8.042090   4.748696
    31  H    6.720584   6.886777   7.306830   8.378130   4.559869
                   26         27         28         29         30
    26  H    0.000000
    27  H    1.752808   0.000000
    28  H    2.522070   2.439291   0.000000
    29  H    2.446287   3.042827   1.753551   0.000000
    30  H    7.761942   7.772486   6.280081   5.403294   0.000000
    31  H    8.033796   7.712386   6.172702   5.766140   1.743895
                   31
    31  H    0.000000
 Stoichiometry    C10H18O3
 Framework group  C1[X(C10H18O3)]
 Deg. of freedom    87
 Full point group                 C1      NOp   1
 Largest Abelian subgroup         C1      NOp   1
 Largest concise Abelian subgroup C1      NOp   1
                         Standard orientation:                         
 ---------------------------------------------------------------------
 Center     Atomic      Atomic             Coordinates (Angstroms)
 Number     Number       Type             X           Y           Z
 ---------------------------------------------------------------------
      1          6           0       -1.040397   -0.006297    0.858368
      2          6           0       -3.639200   -0.022714   -0.569186
      3          8           0        1.449407    1.037801   -0.688204
      4          6           0       -2.048202   -1.160684    0.752683
      5          6           0       -1.516843    1.170056   -0.003096
      6          8           0        0.280003   -0.487858    0.603593
      7          6           0        2.076306   -1.291983   -0.707724
      8          6           0        3.205026   -1.006109    0.283821
      9          6           0        0.950430   -0.272157   -0.601379
     10          6           0        3.655361    0.448091    0.144530
     11          6           0        2.459801    1.380249    0.250389
     12          6           0       -3.042589    1.234302    0.072295
     13          8           0       -2.753596   -1.127741   -0.468757
     14          1           0       -1.008938    0.309741    1.893160
     15          1           0       -4.588418   -0.283822   -0.110609
     16          1           0       -3.801430    0.126938   -1.628238
     17          1           0       -1.535936   -2.110508    0.798753
     18          1           0       -2.755214   -1.115173    1.576091
     19          1           0       -1.229402    1.041160   -1.037994
     20          1           0       -1.070900    2.094091    0.344909
     21          1           0        1.665251   -2.285945   -0.568206
     22          1           0        2.464555   -1.238807   -1.721324
     23          1           0        2.866053   -1.188546    1.300028
     24          1           0        4.034876   -1.681931    0.100877
     25          1           0        0.275484   -0.375800   -1.436229
     26          1           0        4.377986    0.709256    0.912517
     27          1           0        4.136969    0.593360   -0.819769
     28          1           0        2.733022    2.401418    0.022845
     29          1           0        2.043881    1.358012    1.252207
     30          1           0       -3.357368    1.320559    1.108347
     31          1           0       -3.415139    2.111851   -0.444614
 ---------------------------------------------------------------------
 Rotational constants (GHZ):           1.9510899           0.4350423           0.3952825
 Standard basis: 6-311++G(2d,2p) (5D, 7F)
 There are   557 symmetry adapted cartesian basis functions of A   symmetry.
 There are   531 symmetry adapted basis functions of A   symmetry.
   531 basis functions,   762 primitive gaussians,   557 cartesian basis functions
    51 alpha electrons       51 beta electrons
       nuclear repulsion energy       900.6190419523 Hartrees.
 NAtoms=   31 NActive=   31 NUniq=   31 SFac= 1.00D+00 NAtFMM=   60 NAOKFM=F Big=F
 Integral buffers will be    131072 words long.
 Raffenetti 2 integral format.
 Two-electron integral symmetry is turned on.
 ------------------------------------------------------------------------------
 Polarizable Continuum Model (PCM)
 =================================
 Model                : PCM.
 Atomic radii         : UFF (Universal Force Field).
 Polarization charges : Total charges.
 Charge compensation  : None.
 Solution method      : On-the-fly selection.
 Cavity type          : Scaled VdW (van der Waals Surface) (Alpha=1.100).
 Cavity algorithm     : GePol (No added spheres)
                        Default sphere list used, NSphG=   31.
                        Lebedev-Laikov grids with approx.  5.0 points / Ang**2.
                        Smoothing algorithm: York/Karplus (Gamma=1.0000).
                        Polarization charges: spherical gaussians, with
                                              point-specific exponents (IZeta= 3).
                        Self-potential: point-specific (ISelfS= 7).
                        Self-field    : sphere-specific E.n sum rule (ISelfD= 2).
 1st derivatives      : Analytical E(r).r(x)/FMM algorithm (CHGder, D1EAlg=3).
                        Cavity 1st derivative terms included.
 Solvent              : Water, Eps=  78.355300 Eps(inf)=   1.777849
 ------------------------------------------------------------------------------
 One-electron integrals computed using PRISM.
 NBasis=   531 RedAO= T EigKep=  4.10D-06  NBF=   531
 NBsUse=   531 1.00D-06 EigRej= -1.00D+00 NBFU=   531
 ExpMin= 3.60D-02 ExpMax= 8.59D+03 ExpMxC= 1.30D+03 IAcc=3 IRadAn=         5 AccDes= 0.00D+00
 Harris functional with IExCor= 1009 and IRadAn=       5 diagonalized for initial guess.
 HarFok:  IExCor= 1009 AccDes= 0.00D+00 IRadAn=         5 IDoV= 1 UseB2=F ITyADJ=14
 ICtDFT=  3500011 ScaDFX=  1.000000  1.000000  1.000000  1.000000
 FoFCou: FMM=F IPFlag=           0 FMFlag=      100000 FMFlg1=           0
         NFxFlg=           0 DoJE=T BraDBF=F KetDBF=T FulRan=T
         wScrn=  0.000000 ICntrl=       500 IOpCl=  0 I1Cent=   200000004 NGrid=           0
         NMat0=    1 NMatS0=      1 NMatT0=    0 NMatD0=    1 NMtDS0=    0 NMtDT0=    0
 Petite list used in FoFCou.
 Requested convergence on RMS density matrix=1.00D-08 within 128 cycles.
 Requested convergence on MAX density matrix=1.00D-06.
 Requested convergence on             energy=1.00D-06.
 No special actions if energy rises.
 Inv3:  Mode=1 IEnd=    12546075.
 Iteration    1 A*A^-1 deviation from unit magnitude is 4.88D-15 for   2027.
 Iteration    1 A*A^-1 deviation from orthogonality  is 2.05D-15 for   1921   1184.
 Iteration    1 A^-1*A deviation from unit magnitude is 4.66D-15 for   2027.
 Iteration    1 A^-1*A deviation from orthogonality  is 4.76D-15 for   1843   1826.
 Error on total polarization charges =  0.01469
 SCF Done:  E(RM062X) =  -617.488249152     A.U. after   12 cycles
            NFock= 12  Conv=0.54D-08     -V/T= 2.0035

 **********************************************************************

            Population analysis using the SCF density.

 **********************************************************************

 Orbital symmetries:
       Occupied  (A) (A) (A) (A) (A) (A) (A) (A) (A) (A) (A) (A)
                 (A) (A) (A) (A) (A) (A) (A) (A) (A) (A) (A) (A)
                 (A) (A) (A) (A) (A) (A) (A) (A) (A) (A) (A) (A)
                 (A) (A) (A) (A) (A) (A) (A) (A) (A) (A) (A) (A)
                 (A) (A) (A)
       Virtual   (A) (A) (A) (A) (A) (A) (A) (A) (A) (A) (A) (A)
                 (A) (A) (A) (A) (A) (A) (A) (A) (A) (A) (A) (A)
                 (A) (A) (A) (A) (A) (A) (A) (A) (A) (A) (A) (A)
                 (A) (A) (A) (A) (A) (A) (A) (A) (A) (A) (A) (A)
                 (A) (A) (A) (A) (A) (A) (A) (A) (A) (A) (A) (A)
                 (A) (A) (A) (A) (A) (A) (A) (A) (A) (A) (A) (A)
                 (A) (A) (A) (A) (A) (A) (A) (A) (A) (A) (A) (A)
                 (A) (A) (A) (A) (A) (A) (A) (A) (A) (A) (A) (A)
                 (A) (A) (A) (A) (A) (A) (A) (A) (A) (A) (A) (A)
                 (A) (A) (A) (A) (A) (A) (A) (A) (A) (A) (A) (A)
                 (A) (A) (A) (A) (A) (A) (A) (A) (A) (A) (A) (A)
                 (A) (A) (A) (A) (A) (A) (A) (A) (A) (A) (A) (A)
                 (A) (A) (A) (A) (A) (A) (A) (A) (A) (A) (A) (A)
                 (A) (A) (A) (A) (A) (A) (A) (A) (A) (A) (A) (A)
                 (A) (A) (A) (A) (A) (A) (A) (A) (A) (A) (A) (A)
                 (A) (A) (A) (A) (A) (A) (A) (A) (A) (A) (A) (A)
                 (A) (A) (A) (A) (A) (A) (A) (A) (A) (A) (A) (A)
                 (A) (A) (A) (A) (A) (A) (A) (A) (A) (A) (A) (A)
                 (A) (A) (A) (A) (A) (A) (A) (A) (A) (A) (A) (A)
                 (A) (A) (A) (A) (A) (A) (A) (A) (A) (A) (A) (A)
                 (A) (A) (A) (A) (A) (A) (A) (A) (A) (A) (A) (A)
                 (A) (A) (A) (A) (A) (A) (A) (A) (A) (A) (A) (A)
                 (A) (A) (A) (A) (A) (A) (A) (A) (A) (A) (A) (A)
                 (A) (A) (A) (A) (A) (A) (A) (A) (A) (A) (A) (A)
                 (A) (A) (A) (A) (A) (A) (A) (A) (A) (A) (A) (A)
                 (A) (A) (A) (A) (A) (A) (A) (A) (A) (A) (A) (A)
                 (A) (A) (A) (A) (A) (A) (A) (A) (A) (A) (A) (A)
                 (A) (A) (A) (A) (A) (A) (A) (A) (A) (A) (A) (A)
                 (A) (A) (A) (A) (A) (A) (A) (A) (A) (A) (A) (A)
                 (A) (A) (A) (A) (A) (A) (A) (A) (A) (A) (A) (A)
                 (A) (A) (A) (A) (A) (A) (A) (A) (A) (A) (A) (A)
                 (A) (A) (A) (A) (A) (A) (A) (A) (A) (A) (A) (A)
                 (A) (A) (A) (A) (A) (A) (A) (A) (A) (A) (A) (A)
                 (A) (A) (A) (A) (A) (A) (A) (A) (A) (A) (A) (A)
                 (A) (A) (A) (A) (A) (A) (A) (A) (A) (A) (A) (A)
                 (A) (A) (A) (A) (A) (A) (A) (A) (A) (A) (A) (A)
                 (A) (A) (A) (A) (A) (A) (A) (A) (A) (A) (A) (A)
                 (A) (A) (A) (A) (A) (A) (A) (A) (A) (A) (A) (A)
                 (A) (A) (A) (A) (A) (A) (A) (A) (A) (A) (A) (A)
                 (A) (A) (A) (A) (A) (A) (A) (A) (A) (A) (A) (A)
 The electronic state is 1-A.
 Alpha  occ. eigenvalues --  -19.62559 -19.62516 -19.62420 -10.63218 -10.58915
 Alpha  occ. eigenvalues --  -10.57807 -10.57602 -10.57484 -10.53306 -10.53250
 Alpha  occ. eigenvalues --  -10.52857 -10.52802 -10.52658  -1.19679  -1.16460
 Alpha  occ. eigenvalues --   -1.13052  -0.90793  -0.89541  -0.87389  -0.84507
 Alpha  occ. eigenvalues --   -0.75287  -0.74703  -0.73071  -0.70940  -0.65169
 Alpha  occ. eigenvalues --   -0.61728  -0.60863  -0.58857  -0.57787  -0.55825
 Alpha  occ. eigenvalues --   -0.54251  -0.53828  -0.52398  -0.50732  -0.49458
 Alpha  occ. eigenvalues --   -0.48459  -0.46103  -0.45516  -0.45055  -0.44854
 Alpha  occ. eigenvalues --   -0.44031  -0.42453  -0.41965  -0.40379  -0.39339
 Alpha  occ. eigenvalues --   -0.38264  -0.37576  -0.35455  -0.35052  -0.33151
 Alpha  occ. eigenvalues --   -0.31169
 Alpha virt. eigenvalues --   -0.00181   0.00756   0.00804   0.01167   0.02186
 Alpha virt. eigenvalues --    0.02464   0.02592   0.03277   0.03693   0.04327
 Alpha virt. eigenvalues --    0.04414   0.04852   0.05476   0.05743   0.07044
 Alpha virt. eigenvalues --    0.07504   0.07745   0.07865   0.08914   0.09372
 Alpha virt. eigenvalues --    0.09934   0.10490   0.11141   0.11232   0.12020
 Alpha virt. eigenvalues --    0.12123   0.12669   0.13063   0.13274   0.13565
 Alpha virt. eigenvalues --    0.13746   0.14046   0.14450   0.14679   0.14710
 Alpha virt. eigenvalues --    0.15006   0.15242   0.15532   0.15650   0.15867
 Alpha virt. eigenvalues --    0.16444   0.17007   0.17405   0.17718   0.18155
 Alpha virt. eigenvalues --    0.18240   0.18560   0.18664   0.19242   0.19621
 Alpha virt. eigenvalues --    0.19834   0.19963   0.20328   0.20927   0.21230
 Alpha virt. eigenvalues --    0.21789   0.22547   0.23068   0.23269   0.24186
 Alpha virt. eigenvalues --    0.24378   0.24938   0.26204   0.26441   0.26947
 Alpha virt. eigenvalues --    0.28233   0.28724   0.28997   0.29362   0.29762
 Alpha virt. eigenvalues --    0.29832   0.30679   0.31333   0.31460   0.32053
 Alpha virt. eigenvalues --    0.32968   0.33087   0.33375   0.33446   0.34276
 Alpha virt. eigenvalues --    0.34929   0.35323   0.35432   0.35736   0.36180
 Alpha virt. eigenvalues --    0.36703   0.37420   0.37649   0.38119   0.38780
 Alpha virt. eigenvalues --    0.38900   0.39566   0.39624   0.40101   0.41325
 Alpha virt. eigenvalues --    0.42541   0.42922   0.43809   0.44132   0.45985
 Alpha virt. eigenvalues --    0.46555   0.48083   0.49191   0.50183   0.50379
 Alpha virt. eigenvalues --    0.51277   0.52712   0.53787   0.54239   0.56089
 Alpha virt. eigenvalues --    0.56464   0.57215   0.57361   0.59235   0.59536
 Alpha virt. eigenvalues --    0.60320   0.60391   0.61015   0.61702   0.61795
 Alpha virt. eigenvalues --    0.61918   0.62592   0.62905   0.63823   0.63867
 Alpha virt. eigenvalues --    0.64655   0.65134   0.65952   0.66693   0.66958
 Alpha virt. eigenvalues --    0.68097   0.68227   0.68720   0.69928   0.70613
 Alpha virt. eigenvalues --    0.71175   0.71711   0.71986   0.72874   0.73320
 Alpha virt. eigenvalues --    0.74254   0.74510   0.74989   0.75236   0.75747
 Alpha virt. eigenvalues --    0.76337   0.77121   0.77164   0.77917   0.78373
 Alpha virt. eigenvalues --    0.79345   0.81501   0.83491   0.85486   0.86004
 Alpha virt. eigenvalues --    0.86690   0.86823   0.87950   0.89332   0.89887
 Alpha virt. eigenvalues --    0.90761   0.92046   0.93677   0.94971   0.95462
 Alpha virt. eigenvalues --    0.97479   0.97884   0.99837   1.01234   1.02226
 Alpha virt. eigenvalues --    1.02450   1.04759   1.05087   1.05611   1.06795
 Alpha virt. eigenvalues --    1.08059   1.08502   1.10510   1.10738   1.12488
 Alpha virt. eigenvalues --    1.13271   1.13944   1.15166   1.16645   1.16980
 Alpha virt. eigenvalues --    1.18221   1.18789   1.19590   1.20110   1.20814
 Alpha virt. eigenvalues --    1.21984   1.22714   1.22887   1.24163   1.24451
 Alpha virt. eigenvalues --    1.25171   1.25647   1.26240   1.26515   1.27400
 Alpha virt. eigenvalues --    1.28521   1.29141   1.30250   1.30706   1.31315
 Alpha virt. eigenvalues --    1.32029   1.33061   1.33458   1.34347   1.35278
 Alpha virt. eigenvalues --    1.36205   1.37363   1.37410   1.38177   1.38856
 Alpha virt. eigenvalues --    1.39255   1.40172   1.40947   1.42020   1.42142
 Alpha virt. eigenvalues --    1.43110   1.43583   1.43999   1.44656   1.45303
 Alpha virt. eigenvalues --    1.46341   1.47219   1.47880   1.48078   1.48674
 Alpha virt. eigenvalues --    1.49607   1.50571   1.50794   1.51721   1.52892
 Alpha virt. eigenvalues --    1.53505   1.54459   1.54787   1.55290   1.55801
 Alpha virt. eigenvalues --    1.56140   1.57025   1.57674   1.58159   1.58553
 Alpha virt. eigenvalues --    1.59403   1.60153   1.60482   1.60964   1.61466
 Alpha virt. eigenvalues --    1.63880   1.64910   1.65364   1.65916   1.66930
 Alpha virt. eigenvalues --    1.68256   1.69356   1.69609   1.70637   1.72204
 Alpha virt. eigenvalues --    1.72522   1.73140   1.74949   1.75274   1.76619
 Alpha virt. eigenvalues --    1.78671   1.79804   1.81653   1.82109   1.82846
 Alpha virt. eigenvalues --    1.84146   1.87020   1.93769   1.97228   1.98917
 Alpha virt. eigenvalues --    2.01220   2.06169   2.10506   2.16691   2.20831
 Alpha virt. eigenvalues --    2.22357   2.24438   2.30549   2.34103   2.36888
 Alpha virt. eigenvalues --    2.42230   2.44926   2.45858   2.47317   2.53665
 Alpha virt. eigenvalues --    2.62532   2.76578   2.77321   2.79911   2.82762
 Alpha virt. eigenvalues --    2.83585   2.87856   2.92331   2.93538   2.93647
 Alpha virt. eigenvalues --    2.95440   2.97439   2.97726   3.03003   3.03885
 Alpha virt. eigenvalues --    3.07209   3.08094   3.08518   3.09805   3.11154
 Alpha virt. eigenvalues --    3.13502   3.15516   3.18277   3.20842   3.22435
 Alpha virt. eigenvalues --    3.25545   3.27975   3.31175   3.31686   3.34663
 Alpha virt. eigenvalues --    3.35599   3.36159   3.36852   3.37843   3.39141
 Alpha virt. eigenvalues --    3.41057   3.44036   3.44474   3.45301   3.45926
 Alpha virt. eigenvalues --    3.46494   3.48175   3.49960   3.51392   3.51706
 Alpha virt. eigenvalues --    3.52575   3.53053   3.54274   3.55371   3.55731
 Alpha virt. eigenvalues --    3.56320   3.58249   3.58497   3.59406   3.60164
 Alpha virt. eigenvalues --    3.61198   3.62517   3.63615   3.64629   3.65612
 Alpha virt. eigenvalues --    3.66346   3.67574   3.68516   3.68801   3.70070
 Alpha virt. eigenvalues --    3.70584   3.71980   3.72687   3.73197   3.73986
 Alpha virt. eigenvalues --    3.74651   3.75713   3.76662   3.77461   3.79935
 Alpha virt. eigenvalues --    3.81297   3.82446   3.83744   3.84039   3.86093
 Alpha virt. eigenvalues --    3.86211   3.88875   3.89925   3.90051   3.91725
 Alpha virt. eigenvalues --    3.93475   3.94290   3.95313   3.97614   3.99665
 Alpha virt. eigenvalues --    4.00354   4.01219   4.01996   4.03118   4.04157
 Alpha virt. eigenvalues --    4.04922   4.06214   4.07431   4.07627   4.07954
 Alpha virt. eigenvalues --    4.09294   4.09724   4.10208   4.11497   4.12073
 Alpha virt. eigenvalues --    4.12310   4.13137   4.14117   4.15048   4.16365
 Alpha virt. eigenvalues --    4.16700   4.18072   4.18601   4.19191   4.19655
 Alpha virt. eigenvalues --    4.21720   4.23306   4.24493   4.25630   4.25979
 Alpha virt. eigenvalues --    4.27452   4.28388   4.29962   4.31681   4.32585
 Alpha virt. eigenvalues --    4.33753   4.34173   4.35151   4.37044   4.39948
 Alpha virt. eigenvalues --    4.41386   4.43028   4.46316   4.48004   4.48877
 Alpha virt. eigenvalues --    4.58623   4.61656   4.71674   4.75297   4.82792
 Alpha virt. eigenvalues --    4.85227   4.92926   4.95343   5.00948   5.01794
 Alpha virt. eigenvalues --    5.05133   5.07005   5.07700   5.11764   5.12900
 Alpha virt. eigenvalues --    5.13924   5.14995   5.17206   5.33283   5.40174
 Alpha virt. eigenvalues --    5.42446   5.58802   5.61806   5.67517   5.85283
 Alpha virt. eigenvalues --    5.88571   6.03472   7.02687   7.05300   7.07215
 Alpha virt. eigenvalues --    7.08836   7.10003   7.12051   7.14770   7.20350
 Alpha virt. eigenvalues --    7.29344   7.35284   7.41068   7.47281   7.52532
 Alpha virt. eigenvalues --    7.53817   7.63746  23.96772  23.96898  24.05397
 Alpha virt. eigenvalues --   24.08488  24.11317  24.11615  24.12469  24.15322
 Alpha virt. eigenvalues --   24.19789  24.20234  50.16489  50.19473  50.29499
          Condensed to atoms (all electrons):
               1          2          3          4          5          6
     1  C   11.095972  -0.017122   0.053774  -1.750101  -2.333047  -0.148501
     2  C   -0.017122   5.519191   0.004184  -0.123507   0.017837  -0.001068
     3  O    0.053774   0.004184   8.269034  -0.026821  -0.042060  -0.056774
     4  C   -1.750101  -0.123507  -0.026821   6.700504   0.709447  -0.058835
     5  C   -2.333047   0.017837  -0.042060   0.709447   7.203843   0.055747
     6  O   -0.148501  -0.001068  -0.056774  -0.058835   0.055747   8.319798
     7  C    0.226805   0.012616  -0.038157  -0.111624  -0.191726  -0.069074
     8  C    0.260649   0.004455   0.008396  -0.018216  -0.074507  -0.039791
     9  C   -2.140766   0.061611   0.217942   0.426374   0.661369   0.361008
    10  C   -0.063402  -0.000049  -0.075192   0.011619   0.018843  -0.006326
    11  C    0.140972  -0.003849   0.101546  -0.022548  -0.011576  -0.007074
    12  C    0.293838  -0.118554   0.022286  -0.219674  -0.548409  -0.004446
    13  O    0.028893   0.097626  -0.001747   0.086195  -0.047307   0.021009
    14  H    0.796407  -0.013793   0.004046  -0.137320  -0.133547  -0.080422
    15  H    0.097813   0.504960   0.000131  -0.057934  -0.059313  -0.000564
    16  H   -0.053344   0.428540   0.000341   0.027656   0.001546   0.001555
    17  H   -0.022264   0.014899   0.000371   0.410881  -0.002336   0.001260
    18  H    0.005771   0.011153  -0.001237   0.418056  -0.012879   0.000498
    19  H    0.081104  -0.043555  -0.004033  -0.060508   0.421588  -0.022037
    20  H   -0.081082  -0.012143  -0.020323   0.031070   0.465746   0.006647
    21  H   -0.005752   0.000037   0.009237  -0.003135   0.001196   0.001508
    22  H    0.009394  -0.000042  -0.005362  -0.001577   0.002973   0.007281
    23  H   -0.030307   0.000227   0.002234   0.010633   0.005288  -0.003006
    24  H    0.019596   0.000085  -0.004684  -0.003445  -0.005780   0.000517
    25  H   -0.022261  -0.004921  -0.075781  -0.018630  -0.004245  -0.023227
    26  H    0.004549  -0.000079   0.008512   0.000824  -0.000539   0.000388
    27  H   -0.005412   0.000075   0.000125  -0.000078   0.000485   0.000074
    28  H    0.004941  -0.000404  -0.070117   0.000723   0.003931   0.001018
    29  H   -0.063167   0.001908  -0.026439   0.003736   0.017634   0.003290
    30  H   -0.082088  -0.074889   0.000763   0.004724  -0.002397   0.002157
    31  H    0.002221  -0.017390  -0.000520  -0.006209  -0.039883  -0.000028
               7          8          9         10         11         12
     1  C    0.226805   0.260649  -2.140766  -0.063402   0.140972   0.293838
     2  C    0.012616   0.004455   0.061611  -0.000049  -0.003849  -0.118554
     3  O   -0.038157   0.008396   0.217942  -0.075192   0.101546   0.022286
     4  C   -0.111624  -0.018216   0.426374   0.011619  -0.022548  -0.219674
     5  C   -0.191726  -0.074507   0.661369   0.018843  -0.011576  -0.548409
     6  O   -0.069074  -0.039791   0.361008  -0.006326  -0.007074  -0.004446
     7  C    6.915976   0.002029  -0.904579  -0.283129   0.182167   0.040465
     8  C    0.002029   5.772969  -0.447088  -0.012395  -0.022452  -0.004376
     9  C   -0.904579  -0.447088   7.795649   0.502539  -0.565495  -0.123239
    10  C   -0.283129  -0.012395   0.502539   5.696818  -0.082793  -0.008331
    11  C    0.182167  -0.022452  -0.565495  -0.082793   5.558014   0.019608
    12  C    0.040465  -0.004376  -0.123239  -0.008331   0.019608   6.190987
    13  O    0.009452   0.000061  -0.019176  -0.000443   0.000200   0.045564
    14  H   -0.010517   0.020230  -0.147203  -0.005791   0.017465  -0.008230
    15  H    0.000914   0.000321  -0.008078   0.000005  -0.000293  -0.069634
    16  H    0.000731  -0.000129   0.004589  -0.000454   0.001082   0.002733
    17  H   -0.012733  -0.001423   0.010649   0.004167  -0.003795  -0.001065
    18  H    0.004524   0.002268  -0.011013  -0.001800   0.001495  -0.019798
    19  H   -0.034271  -0.001808  -0.052379   0.006707   0.004198   0.031570
    20  H   -0.004295  -0.003262   0.029404  -0.003471   0.000746  -0.032723
    21  H    0.448960  -0.051427  -0.037567  -0.008415   0.010260  -0.000437
    22  H    0.489367   0.001804  -0.127021  -0.019387   0.017962   0.002070
    23  H   -0.038720   0.512291  -0.012412  -0.060033  -0.001505  -0.000540
    24  H   -0.054639   0.438411   0.001250  -0.024162   0.008523   0.000198
    25  H   -0.042991  -0.020040   0.519803   0.018789  -0.033576  -0.002916
    26  H   -0.006258  -0.047906   0.004745   0.446747  -0.039923  -0.000497
    27  H   -0.002155  -0.018949  -0.002673   0.488321  -0.090898   0.000316
    28  H   -0.016033   0.014352  -0.007667  -0.027048   0.437555   0.001964
    29  H    0.048113  -0.022953   0.008333  -0.068301   0.467311   0.001760
    30  H    0.000243  -0.000696   0.003281   0.000247   0.000628   0.519245
    31  H    0.000251  -0.000146   0.005554   0.000222  -0.001132   0.419121
              13         14         15         16         17         18
     1  C    0.028893   0.796407   0.097813  -0.053344  -0.022264   0.005771
     2  C    0.097626  -0.013793   0.504960   0.428540   0.014899   0.011153
     3  O   -0.001747   0.004046   0.000131   0.000341   0.000371  -0.001237
     4  C    0.086195  -0.137320  -0.057934   0.027656   0.410881   0.418056
     5  C   -0.047307  -0.133547  -0.059313   0.001546  -0.002336  -0.012879
     6  O    0.021009  -0.080422  -0.000564   0.001555   0.001260   0.000498
     7  C    0.009452  -0.010517   0.000914   0.000731  -0.012733   0.004524
     8  C    0.000061   0.020230   0.000321  -0.000129  -0.001423   0.002268
     9  C   -0.019176  -0.147203  -0.008078   0.004589   0.010649  -0.011013
    10  C   -0.000443  -0.005791   0.000005  -0.000454   0.004167  -0.001800
    11  C    0.000200   0.017465  -0.000293   0.001082  -0.003795   0.001495
    12  C    0.045564  -0.008230  -0.069634   0.002733  -0.001065  -0.019798
    13  O    8.310094  -0.003282  -0.072662  -0.074729  -0.056966  -0.054312
    14  H   -0.003282   0.489270   0.002500   0.000022  -0.003744   0.000661
    15  H   -0.072662   0.002500   0.525290  -0.026848  -0.002574   0.010492
    16  H   -0.074729   0.000022  -0.026848   0.504977   0.000720  -0.004020
    17  H   -0.056966  -0.003744  -0.002574   0.000720   0.478583  -0.001206
    18  H   -0.054312   0.000661   0.010492  -0.004020  -0.001206   0.476180
    19  H   -0.014742   0.017059  -0.007345   0.012362   0.002572  -0.005063
    20  H    0.002142  -0.012978   0.001637  -0.003526  -0.000488   0.003354
    21  H   -0.000299  -0.000423  -0.000053   0.000167  -0.001846   0.000334
    22  H   -0.000936   0.000605  -0.000039   0.000079   0.000618  -0.000377
    23  H   -0.000004  -0.002475  -0.000052   0.000059  -0.000957  -0.000101
    24  H    0.000032   0.001145   0.000025  -0.000014   0.000170   0.000119
    25  H    0.006874  -0.009793   0.001630  -0.003980   0.001818   0.002502
    26  H   -0.000024   0.000656  -0.000005  -0.000005   0.000119  -0.000004
    27  H    0.000059  -0.000485   0.000009  -0.000011  -0.000146   0.000006
    28  H   -0.000059   0.000934  -0.000028   0.000056   0.000208  -0.000084
    29  H    0.000187  -0.011182  -0.000063   0.000071  -0.000825   0.000003
    30  H    0.004731  -0.003164  -0.019279   0.009578  -0.001188  -0.010140
    31  H    0.010566  -0.002709   0.004320  -0.011937   0.001130   0.000865
              19         20         21         22         23         24
     1  C    0.081104  -0.081082  -0.005752   0.009394  -0.030307   0.019596
     2  C   -0.043555  -0.012143   0.000037  -0.000042   0.000227   0.000085
     3  O   -0.004033  -0.020323   0.009237  -0.005362   0.002234  -0.004684
     4  C   -0.060508   0.031070  -0.003135  -0.001577   0.010633  -0.003445
     5  C    0.421588   0.465746   0.001196   0.002973   0.005288  -0.005780
     6  O   -0.022037   0.006647   0.001508   0.007281  -0.003006   0.000517
     7  C   -0.034271  -0.004295   0.448960   0.489367  -0.038720  -0.054639
     8  C   -0.001808  -0.003262  -0.051427   0.001804   0.512291   0.438411
     9  C   -0.052379   0.029404  -0.037567  -0.127021  -0.012412   0.001250
    10  C    0.006707  -0.003471  -0.008415  -0.019387  -0.060033  -0.024162
    11  C    0.004198   0.000746   0.010260   0.017962  -0.001505   0.008523
    12  C    0.031570  -0.032723  -0.000437   0.002070  -0.000540   0.000198
    13  O   -0.014742   0.002142  -0.000299  -0.000936  -0.000004   0.000032
    14  H    0.017059  -0.012978  -0.000423   0.000605  -0.002475   0.001145
    15  H   -0.007345   0.001637  -0.000053  -0.000039  -0.000052   0.000025
    16  H    0.012362  -0.003526   0.000167   0.000079   0.000059  -0.000014
    17  H    0.002572  -0.000488  -0.001846   0.000618  -0.000957   0.000170
    18  H   -0.005063   0.003354   0.000334  -0.000377  -0.000101   0.000119
    19  H    0.489850  -0.026850  -0.000050   0.002219  -0.000589  -0.000197
    20  H   -0.026850   0.476654   0.000116  -0.001018   0.000069   0.000011
    21  H   -0.000050   0.000116   0.483398  -0.004221  -0.001619  -0.009787
    22  H    0.002219  -0.001018  -0.004221   0.453475   0.002131  -0.003751
    23  H   -0.000589   0.000069  -0.001619   0.002131   0.461166  -0.008026
    24  H   -0.000197   0.000011  -0.009787  -0.003751  -0.008026   0.468863
    25  H   -0.021037   0.009126  -0.009131  -0.018914  -0.003267   0.001568
    26  H    0.000411   0.000278   0.001166  -0.002180  -0.005366  -0.007034
    27  H   -0.000705  -0.000080  -0.001954  -0.002048   0.002201  -0.001623
    28  H    0.001381  -0.000188   0.001120   0.000843  -0.002257   0.001042
    29  H   -0.002574  -0.002687  -0.000130  -0.000842   0.000833  -0.002491
    30  H    0.005582  -0.005022   0.000036   0.000123   0.000106  -0.000039
    31  H   -0.004920  -0.008993  -0.000023  -0.000045  -0.000019  -0.000002
              25         26         27         28         29         30
     1  C   -0.022261   0.004549  -0.005412   0.004941  -0.063167  -0.082088
     2  C   -0.004921  -0.000079   0.000075  -0.000404   0.001908  -0.074889
     3  O   -0.075781   0.008512   0.000125  -0.070117  -0.026439   0.000763
     4  C   -0.018630   0.000824  -0.000078   0.000723   0.003736   0.004724
     5  C   -0.004245  -0.000539   0.000485   0.003931   0.017634  -0.002397
     6  O   -0.023227   0.000388   0.000074   0.001018   0.003290   0.002157
     7  C   -0.042991  -0.006258  -0.002155  -0.016033   0.048113   0.000243
     8  C   -0.020040  -0.047906  -0.018949   0.014352  -0.022953  -0.000696
     9  C    0.519803   0.004745  -0.002673  -0.007667   0.008333   0.003281
    10  C    0.018789   0.446747   0.488321  -0.027048  -0.068301   0.000247
    11  C   -0.033576  -0.039923  -0.090898   0.437555   0.467311   0.000628
    12  C   -0.002916  -0.000497   0.000316   0.001964   0.001760   0.519245
    13  O    0.006874  -0.000024   0.000059  -0.000059   0.000187   0.004731
    14  H   -0.009793   0.000656  -0.000485   0.000934  -0.011182  -0.003164
    15  H    0.001630  -0.000005   0.000009  -0.000028  -0.000063  -0.019279
    16  H   -0.003980  -0.000005  -0.000011   0.000056   0.000071   0.009578
    17  H    0.001818   0.000119  -0.000146   0.000208  -0.000825  -0.001188
    18  H    0.002502  -0.000004   0.000006  -0.000084   0.000003  -0.010140
    19  H   -0.021037   0.000411  -0.000705   0.001381  -0.002574   0.005582
    20  H    0.009126   0.000278  -0.000080  -0.000188  -0.002687  -0.005022
    21  H   -0.009131   0.001166  -0.001954   0.001120  -0.000130   0.000036
    22  H   -0.018914  -0.002180  -0.002048   0.000843  -0.000842   0.000123
    23  H   -0.003267  -0.005366   0.002201  -0.002257   0.000833   0.000106
    24  H    0.001568  -0.007034  -0.001623   0.001042  -0.002491  -0.000039
    25  H    0.478546   0.001177   0.001082  -0.001850   0.002009  -0.001252
    26  H    0.001177   0.488521  -0.012891  -0.007657  -0.002422  -0.000001
    27  H    0.001082  -0.012891   0.486032  -0.007530   0.006538  -0.000016
    28  H   -0.001850  -0.007657  -0.007530   0.482574  -0.014473   0.000132
    29  H    0.002009  -0.002422   0.006538  -0.014473   0.508433   0.000350
    30  H   -0.001252  -0.000001  -0.000016   0.000132   0.000350   0.470004
    31  H    0.002804  -0.000018   0.000032  -0.000092   0.000159  -0.012950
              31
     1  C    0.002221
     2  C   -0.017390
     3  O   -0.000520
     4  C   -0.006209
     5  C   -0.039883
     6  O   -0.000028
     7  C    0.000251
     8  C   -0.000146
     9  C    0.005554
    10  C    0.000222
    11  C   -0.001132
    12  C    0.419121
    13  O    0.010566
    14  H   -0.002709
    15  H    0.004320
    16  H   -0.011937
    17  H    0.001130
    18  H    0.000865
    19  H   -0.004920
    20  H   -0.008993
    21  H   -0.000023
    22  H   -0.000045
    23  H   -0.000019
    24  H   -0.000002
    25  H    0.002804
    26  H   -0.000018
    27  H    0.000032
    28  H   -0.000092
    29  H    0.000159
    30  H   -0.012950
    31  H    0.501091
 Mulliken charges:
               1
     1  C   -0.304082
     2  C   -0.248037
     3  O   -0.253678
     4  C   -0.222283
     5  C   -0.077923
     6  O   -0.262583
     7  C   -0.561710
     8  C   -0.250669
     9  C   -0.007747
    10  C   -0.444104
    11  C   -0.082822
    12  C   -0.428855
    13  O   -0.276998
    14  H    0.236059
    15  H    0.174719
    16  H    0.182130
    17  H    0.185392
    18  H    0.183754
    19  H    0.226063
    20  H    0.192130
    21  H    0.178731
    22  H    0.196816
    23  H    0.174017
    24  H    0.184118
    25  H    0.270085
    26  H    0.174716
    27  H    0.162299
    28  H    0.202711
    29  H    0.147882
    30  H    0.191190
    31  H    0.158679
 Sum of Mulliken charges =  -0.00000
 Mulliken charges with hydrogens summed into heavy atoms:
               1
     1  C   -0.068023
     2  C    0.108812
     3  O   -0.253678
     4  C    0.146862
     5  C    0.340270
     6  O   -0.262583
     7  C   -0.186163
     8  C    0.107466
     9  C    0.262338
    10  C   -0.107089
    11  C    0.267771
    12  C   -0.078986
    13  O   -0.276998
 Electronic spatial extent (au):  <R**2>=           2959.3276
 Charge=             -0.0000 electrons
 Dipole moment (field-independent basis, Debye):
    X=             -0.1431    Y=              1.2249    Z=              1.3999  Tot=              1.8656
 Quadrupole moment (field-independent basis, Debye-Ang):
   XX=            -71.0000   YY=            -81.4210   ZZ=            -79.6434
   XY=             -5.6474   XZ=             -1.8836   YZ=              0.9074
 Traceless Quadrupole moment (field-independent basis, Debye-Ang):
   XX=              6.3548   YY=             -4.0662   ZZ=             -2.2886
   XY=             -5.6474   XZ=             -1.8836   YZ=              0.9074
 Octapole moment (field-independent basis, Debye-Ang**2):
  XXX=             -2.2105  YYY=              2.4648  ZZZ=             -0.1261  XYY=              6.6612
  XXY=             17.8626  XXZ=              6.5161  XZZ=             -6.4559  YZZ=             -0.4621
  YYZ=              4.4420  XYZ=             11.4502
 Hexadecapole moment (field-independent basis, Debye-Ang**3):
 XXXX=          -2923.7267 YYYY=           -599.3704 ZZZZ=           -289.2346 XXXY=            -24.1680
 XXXZ=              1.7355 YYYX=              7.2425 YYYZ=             -5.0151 ZZZX=              2.5195
 ZZZY=              1.7300 XXYY=           -617.7699 XXZZ=           -546.2381 YYZZ=           -157.5164
 XXYZ=            -11.6906 YYXZ=             -4.5213 ZZXY=             -0.9021
 N-N= 9.006190419523D+02 E-N=-3.243309322883D+03  KE= 6.153262542980D+02
 D1PCM: PCM CHGder 1st derivatives, ID1Alg=3 FixD1E=F DoIter=F DoCFld=F I1PDM=0.
 Calling FoFJK, ICntrl=      2127 FMM=F ISym2X=0 I1Cent= 0 IOpClX= 0 NMat=1 NMatS=1 NMatT=0.
 ***** Axes restored to original set *****
 -------------------------------------------------------------------
 Center     Atomic                   Forces (Hartrees/Bohr)
 Number     Number              X              Y              Z
 -------------------------------------------------------------------
      1        6           0.000421150    0.001637609   -0.008401633
      2        6          -0.004256403   -0.001692875    0.004561198
      3        8           0.004091859   -0.007458942   -0.008170381
      4        6           0.002750579   -0.006050507   -0.002528942
      5        6           0.002139055    0.001328349    0.004525413
      6        8          -0.006003241    0.004027032    0.009125323
      7        6          -0.000181331   -0.000423890    0.002679541
      8        6           0.001850251   -0.002730770   -0.002167339
      9        6          -0.003111455    0.000328052    0.004850725
     10        6           0.002016762    0.000904983    0.001705303
     11        6          -0.001254758    0.006309188   -0.001736868
     12        6          -0.001017174    0.001159155   -0.001745242
     13        8          -0.003086233    0.005875782   -0.007287233
     14        1           0.000336652   -0.002447997    0.005540993
     15        1           0.004855754    0.000355803    0.002650100
     16        1           0.000307894   -0.000945876   -0.004674478
     17        1          -0.003521395    0.003615385    0.000135415
     18        1           0.003463766   -0.000593710    0.005368221
     19        1          -0.002097959    0.001716976   -0.004494810
     20        1          -0.002098357   -0.002310984    0.000712975
     21        1           0.001337118    0.002793462    0.000790301
     22        1          -0.001266620   -0.000813105   -0.003071182
     23        1           0.002163575    0.000029325    0.002932905
     24        1          -0.001995817    0.001562305   -0.000549433
     25        1           0.004791264   -0.000056455   -0.006817129
     26        1          -0.002088572   -0.000374302    0.001931561
     27        1          -0.000813184   -0.000404070   -0.003213097
     28        1          -0.001214782   -0.004133834   -0.001065862
     29        1           0.002076048    0.001209257    0.005894233
     30        1           0.000486448    0.000053608    0.003556604
     31        1           0.000919105   -0.002468958   -0.001037182
 -------------------------------------------------------------------
 Cartesian Forces:  Max     0.009125323 RMS     0.003415712

 GradGradGradGradGradGradGradGradGradGradGradGradGradGradGradGradGradGrad
 Berny optimization.
 FormGI is forming the generalized inverse of G from B-inverse, IUseBI=4.
 Internal  Forces:  Max     0.017267333 RMS     0.002271844
 Search for a local minimum.
 Step number   1 out of a maximum of  186
 All quantities printed in internal units (Hartrees-Bohrs-Radians)
 Mixed Optimization -- RFO/linear search
 Second derivative matrix not updated -- first step.
 ITU=  0
     Eigenvalues ---    0.00385   0.00619   0.00621   0.00719   0.01414
     Eigenvalues ---    0.01422   0.01749   0.02701   0.02717   0.03079
     Eigenvalues ---    0.03312   0.03931   0.04081   0.04552   0.04746
     Eigenvalues ---    0.04772   0.04892   0.04894   0.05063   0.05143
     Eigenvalues ---    0.05299   0.05597   0.05689   0.05971   0.06172
     Eigenvalues ---    0.06187   0.06567   0.07078   0.07614   0.07618
     Eigenvalues ---    0.07816   0.07853   0.07964   0.08068   0.08245
     Eigenvalues ---    0.08828   0.09163   0.10249   0.11193   0.11597
     Eigenvalues ---    0.11706   0.11761   0.11766   0.12398   0.12719
     Eigenvalues ---    0.14666   0.15018   0.16472   0.18102   0.19083
     Eigenvalues ---    0.19993   0.21957   0.22577   0.25000   0.26934
     Eigenvalues ---    0.27500   0.28524   0.28610   0.28840   0.28931
     Eigenvalues ---    0.29089   0.30255   0.35089   0.35195   0.35200
     Eigenvalues ---    0.35236   0.35250   0.35250   0.35274   0.35308
     Eigenvalues ---    0.35402   0.35442   0.35459   0.35583   0.35702
     Eigenvalues ---    0.35777   0.35780   0.35838   0.35977   0.36170
     Eigenvalues ---    0.40226   0.40930   0.41223   0.41594   0.43358
     Eigenvalues ---    0.463421000.000001000.000001000.000001000.00000
     Eigenvalues --- 1000.000001000.000001000.000001000.000001000.00000
     Eigenvalues --- 1000.000001000.000001000.000001000.000001000.00000
     Eigenvalues --- 1000.000001000.000001000.000001000.000001000.00000
     Eigenvalues --- 1000.000001000.000001000.000001000.000001000.00000
     Eigenvalues --- 1000.000001000.000001000.000001000.000001000.00000
     Eigenvalues --- 1000.000001000.000001000.000001000.000001000.00000
     Eigenvalues --- 1000.000001000.000001000.000001000.000001000.00000
     Eigenvalues --- 1000.000001000.000001000.000001000.000001000.00000
     Eigenvalues --- 1000.000001000.000001000.000001000.000001000.00000
     Eigenvalues --- 1000.000001000.000001000.000001000.000001000.00000
     Eigenvalues --- 1000.000001000.000001000.000001000.000001000.00000
     Eigenvalues --- 1000.000001000.000001000.000001000.000001000.00000
     Eigenvalues --- 1000.000001000.000001000.000001000.000001000.00000
     Eigenvalues --- 1000.000001000.000001000.000001000.000001000.00000
     Eigenvalues --- 1000.000001000.000001000.000001000.000001000.00000
     Eigenvalues --- 1000.000001000.000001000.000001000.000001000.00000
     Eigenvalues --- 1000.000001000.000001000.000001000.000001000.00000
     Eigenvalues --- 1000.000001000.000001000.000001000.000001000.00000
     Eigenvalues --- 1000.000001000.000001000.000001000.000001000.00000
 RFO step:  Lambda=-4.35085491D-03 EMin= 3.85183640D-03
 Linear search not attempted -- first point.
 Iteration  1 RMS(Cart)=  0.08366372 RMS(Int)=  0.00120436
 Iteration  2 RMS(Cart)=  0.00380765 RMS(Int)=  0.00006699
 Iteration  3 RMS(Cart)=  0.00000453 RMS(Int)=  0.00006693
 Iteration  4 RMS(Cart)=  0.00000000 RMS(Int)=  0.00006693
 Iteration  1 RMS(Cart)=  0.00002252 RMS(Int)=  0.00000510
 Iteration  2 RMS(Cart)=  0.00001251 RMS(Int)=  0.00000570
 Iteration  3 RMS(Cart)=  0.00000695 RMS(Int)=  0.00000645
 Iteration  4 RMS(Cart)=  0.00000386 RMS(Int)=  0.00000696
 Iteration  5 RMS(Cart)=  0.00000215 RMS(Int)=  0.00000726
 Iteration  6 RMS(Cart)=  0.00000119 RMS(Int)=  0.00000743
 Iteration  7 RMS(Cart)=  0.00000066 RMS(Int)=  0.00000753
 Variable       Old X    -DE/DX   Delta X   Delta X   Delta X     New X
                                 (Linear)    (Quad)   (Total)
    R1        2.90271   0.00047   0.00000   0.00210   0.00215   2.90487
    R2        2.89870  -0.00196   0.00000  -0.00726  -0.00721   2.89149
    R3        2.69925  -0.00066   0.00000  -0.00159  -0.00159   2.69765
    R4        2.04550   0.00600   0.00000   0.01661   0.01661   2.06212
    R5        2.89537   0.00061   0.00000   0.00265   0.00259   2.89797
    R6        2.68279   0.00331   0.00000   0.00904   0.00898   2.69177
    R7        2.05232   0.00545   0.00000   0.01526   0.01526   2.06758
    R8        2.04432   0.00475   0.00000   0.01312   0.01312   2.05744
    R9        2.65404   0.00367   0.00000   0.00774   0.00775   2.66180
   R10        2.68522   0.00279   0.00000   0.00640   0.00640   2.69162
   R11        2.66618   0.00327   0.00000   0.00730   0.00730   2.67347
   R12        2.04117   0.00485   0.00000   0.01333   0.01333   2.05450
   R13        2.05271   0.00635   0.00000   0.01779   0.01779   2.07051
   R14        2.88931  -0.00011   0.00000  -0.00246  -0.00246   2.88685
   R15        2.04427   0.00506   0.00000   0.01398   0.01398   2.05825
   R16        2.04738   0.00306   0.00000   0.00851   0.00851   2.05589
   R17        2.63748   0.00262   0.00000   0.00561   0.00561   2.64308
   R18        2.89004  -0.00150   0.00000  -0.00486  -0.00487   2.88517
   R19        2.87769  -0.00063   0.00000  -0.00244  -0.00246   2.87523
   R20        2.04963   0.00317   0.00000   0.00883   0.00883   2.05846
   R21        2.05359   0.00336   0.00000   0.00942   0.00942   2.06301
   R22        2.88881  -0.00071   0.00000  -0.00179  -0.00181   2.88700
   R23        2.05352   0.00342   0.00000   0.00960   0.00960   2.06312
   R24        2.05177   0.00259   0.00000   0.00725   0.00725   2.05902
   R25        2.03816   0.00827   0.00000   0.02259   0.02259   2.06075
   R26        2.87182   0.00024   0.00000   0.00114   0.00116   2.87297
   R27        2.05294   0.00284   0.00000   0.00797   0.00797   2.06091
   R28        2.05531   0.00326   0.00000   0.00919   0.00919   2.06450
   R29        2.04336   0.00444   0.00000   0.01223   0.01223   2.05559
   R30        2.05026   0.00626   0.00000   0.01747   0.01747   2.06774
   R31        2.05271   0.00353   0.00000   0.00989   0.00989   2.06260
   R32        2.04936   0.00281   0.00000   0.00782   0.00782   2.05718
    A1        1.91125   0.00120   0.00000  -0.00790  -0.00813   1.90312
    A2        1.91863   0.00080   0.00000   0.00194   0.00151   1.92014
    A3        1.87997   0.00054   0.00000   0.01304   0.01303   1.89299
    A4        2.03253  -0.00246   0.00000  -0.02528  -0.02530   2.00723
    A5        1.89865  -0.00111   0.00000   0.00414   0.00427   1.90292
    A6        1.81531   0.00116   0.00000   0.01834   0.01833   1.83364
    A7        1.94557   0.00165   0.00000   0.00444   0.00429   1.94986
    A8        1.93992  -0.00095   0.00000  -0.00547  -0.00549   1.93442
    A9        1.93347  -0.00094   0.00000  -0.00593  -0.00587   1.92760
   A10        1.90521   0.00043   0.00000   0.00718   0.00728   1.91249
   A11        1.84468  -0.00075   0.00000  -0.00206  -0.00204   1.84264
   A12        1.89184   0.00058   0.00000   0.00216   0.00212   1.89396
   A13        2.02258  -0.00583   0.00000  -0.03676  -0.03664   1.98594
   A14        1.94986   0.00008   0.00000  -0.00033  -0.00048   1.94938
   A15        1.92491  -0.00135   0.00000  -0.01678  -0.01679   1.90812
   A16        1.92133  -0.00053   0.00000   0.00157   0.00154   1.92287
   A17        1.86980  -0.00042   0.00000  -0.00236  -0.00245   1.86735
   A18        1.90694   0.00167   0.00000   0.01461   0.01464   1.92159
   A19        1.88935   0.00060   0.00000   0.00355   0.00352   1.89287
   A20        1.89071  -0.00107   0.00000  -0.00474  -0.00483   1.88588
   A21        1.94267  -0.00030   0.00000  -0.00982  -0.00980   1.93287
   A22        1.92392  -0.00018   0.00000  -0.00181  -0.00176   1.92216
   A23        1.89371   0.00133   0.00000   0.00590   0.00591   1.89962
   A24        1.93806   0.00042   0.00000   0.01001   0.01000   1.94806
   A25        1.87501  -0.00016   0.00000   0.00070   0.00061   1.87562
   A26        2.14830  -0.01727   0.00000  -0.06789  -0.06789   2.08041
   A27        1.95541  -0.00191   0.00000  -0.01630  -0.01641   1.93900
   A28        1.94724  -0.00022   0.00000  -0.00133  -0.00144   1.94580
   A29        1.90911   0.00125   0.00000   0.00752   0.00760   1.91671
   A30        1.90132   0.00085   0.00000  -0.00021  -0.00020   1.90113
   A31        1.87183   0.00013   0.00000   0.00407   0.00406   1.87589
   A32        1.87572  -0.00001   0.00000   0.00744   0.00741   1.88313
   A33        1.91363   0.00197   0.00000  -0.00096  -0.00096   1.91267
   A34        1.92271  -0.00102   0.00000  -0.00687  -0.00687   1.91584
   A35        1.91612  -0.00056   0.00000   0.00160   0.00159   1.91771
   A36        1.91432  -0.00085   0.00000  -0.00164  -0.00173   1.91259
   A37        1.93008  -0.00027   0.00000   0.00183   0.00189   1.93197
   A38        1.86658   0.00067   0.00000   0.00611   0.00612   1.87270
   A39        1.94785   0.00031   0.00000  -0.00197  -0.00181   1.94604
   A40        1.93654   0.00360   0.00000   0.01436   0.01418   1.95072
   A41        1.83807  -0.00258   0.00000  -0.01420  -0.01422   1.82386
   A42        1.88803  -0.00327   0.00000  -0.01517  -0.01508   1.87294
   A43        1.93138   0.00177   0.00000   0.01168   0.01167   1.94306
   A44        1.92225   0.00033   0.00000   0.00615   0.00622   1.92847
   A45        1.92345  -0.00100   0.00000  -0.00458  -0.00478   1.91867
   A46        1.93931  -0.00052   0.00000  -0.00195  -0.00192   1.93739
   A47        1.91589   0.00091   0.00000   0.00154   0.00162   1.91751
   A48        1.90350   0.00058   0.00000   0.00343   0.00348   1.90697
   A49        1.90519   0.00006   0.00000  -0.00148  -0.00141   1.90377
   A50        1.87561  -0.00001   0.00000   0.00325   0.00322   1.87883
   A51        1.94504   0.00234   0.00000   0.00602   0.00599   1.95102
   A52        1.84239  -0.00134   0.00000  -0.00216  -0.00217   1.84022
   A53        1.90964   0.00012   0.00000   0.00108   0.00113   1.91077
   A54        1.94532  -0.00022   0.00000  -0.00171  -0.00165   1.94367
   A55        1.93193  -0.00165   0.00000  -0.00735  -0.00739   1.92454
   A56        1.88655   0.00075   0.00000   0.00444   0.00443   1.89098
   A57        1.91076  -0.00009   0.00000  -0.00888  -0.00892   1.90184
   A58        1.93012   0.00048   0.00000   0.00323   0.00320   1.93332
   A59        1.90768  -0.00016   0.00000   0.00377   0.00378   1.91146
   A60        1.91723  -0.00062   0.00000  -0.00314  -0.00317   1.91406
   A61        1.93190   0.00034   0.00000   0.00281   0.00287   1.93478
   A62        1.86587   0.00006   0.00000   0.00261   0.00260   1.86847
   A63        1.97284  -0.00440   0.00000  -0.02824  -0.02824   1.94460
    D1        0.46436   0.00134   0.00000   0.01672   0.01673   0.48110
    D2        2.54188  -0.00003   0.00000   0.00246   0.00247   2.54435
    D3       -1.65760  -0.00047   0.00000  -0.00269  -0.00268  -1.66029
    D4       -1.78950   0.00303   0.00000   0.05416   0.05424  -1.73526
    D5        0.28802   0.00166   0.00000   0.03990   0.03997   0.32799
    D6        2.37172   0.00122   0.00000   0.03475   0.03482   2.40654
[...]
 34,-0.00066707,-0.00086379,0.00228608,0.00000210,0.00012109,0.00046619
 ,0.00030137,-0.00004686,0.00061040,-0.00060965,0.00038990,0.00005010,0
 .00005709,-0.00003107,-0.00000687,-0.00001151,0.00000132,-0.00000745,0
 .00002437,0.00006214,-0.00001983,-0.00019542,-0.00007933,0.00005213,-0
 .00031396,0.00069175,0.00098327,0.00011018,-0.00015991,0.00029286,0.00
 036031,-0.00008515,-0.00002350,0.00027864,-0.00037908,0.00066808,-0.00
 016545,0.00003530,0.00015780,-0.00021684,0.00002247,0.00007580,-0.1323
 0936,-0.02837743,0.21916716,0.00034783,-0.00008143,0.00013869,0.000027
 30,0.00000105,-0.00001640,-0.00719392,0.00277384,0.00114778,0.00000836
 ,0.00004792,-0.00002722,-0.00009897,-0.00000509,0.00003953,-0.00051579
 ,-0.00024206,-0.00052654,0.00102807,-0.00145835,-0.00093636,-0.0048349
 5,-0.00207854,0.00410730,0.00136029,0.00212110,0.00037661,-0.15586555,
 -0.04595518,0.12007158,-0.01404413,-0.01080946,0.01986667,0.00000938,-
 0.00000098,-0.00002512,-0.00006566,-0.00001450,0.00002300,-0.00004772,
 0.00001465,-0.00003853,-0.00001345,-0.00000892,0.00000138,-0.00000351,
 0.00000128,0.00000642,0.00000349,0.00000317,0.00000553,-0.00003370,-0.
 00001270,-0.00000346,0.00005315,-0.00000464,-0.00006924,0.00001103,-0.
 00002830,0.00001945,-0.00013301,0.00002591,0.00041475,-0.00009116,-0.0
 0001285,0.00025079,0.00006996,0.00018625,-0.00004285,0.00038374,-0.000
 14989,-0.00027858,-0.00005825,-0.00019720,0.00001374,0.16797457,0.0000
 2451,-0.00002185,-0.00003278,0.00000818,-0.00000989,0.00000364,0.00636
 255,-0.00069976,-0.00107663,0.,0.00000653,-0.00001356,0.00002756,-0.00
 000823,-0.00002927,-0.00009260,0.00038697,0.00015360,-0.00085332,-0.00
 666656,-0.00229031,-0.02143762,-0.00819852,0.02426278,0.00037429,-0.00
 215551,-0.00020143,-0.04619724,-0.06734055,0.05383679,0.00899246,0.006
 55354,-0.01471888,0.00000084,0.00002216,0.00002276,-0.00000337,0.00000
 711,0.00000729,-0.00002183,0.00001171,-0.00000902,0.00000097,0.0000038
 0,-0.00000209,-0.00000029,0.00000102,-0.00000061,0.00000524,0.00000217
 ,0.00000190,-0.00000530,-0.00000303,0.00000117,-0.00001434,-0.00000900
 ,0.00002531,-0.00000253,0.00002188,-0.00001989,-0.00174628,-0.00041628
 ,0.00128473,0.00027988,0.00007130,-0.00005431,0.00030981,0.00148038,-0
 .00038271,0.00082803,0.00124906,0.00021520,-0.00003692,0.00036903,-0.0
 0003235,0.05153210,0.07409196,-0.00012811,0.00001828,-0.00004269,-0.00
 000758,-0.00000043,0.00000516,0.00024058,0.00032932,0.00161799,-0.0000
 0379,-0.00001270,0.00001286,0.00003460,-0.00000833,-0.00000089,0.00021
 122,0.00005625,0.00012297,-0.00021941,-0.00068341,0.00096698,-0.004545
 00,-0.00183392,0.00345099,-0.00047727,-0.00032829,-0.00024190,0.122430
 64,0.05407418,-0.18682556,-0.00262224,-0.00079364,0.00014254,-0.000004
 43,0.00000196,-0.00000124,0.00002058,0.00000284,-0.00000964,0.00001620
 ,-0.00000815,0.00001390,0.00000452,0.00000340,-0.00000029,0.00000124,-
 0.00000061,-0.00000209,-0.00000061,-0.00000156,-0.00000186,0.00001156,
 0.00000376,0.00000105,-0.00000833,-0.00000033,0.00001721,-0.00000230,0
 .00001479,-0.00000657,0.00012317,-0.00017797,0.00021362,-0.00023077,-0
 .00013155,0.00031906,-0.00000200,0.00056048,0.00064780,0.00008077,0.00
 049661,-0.00004777,0.00002046,-0.00001258,-0.00005980,-0.13368652,-0.0
 5834687,0.19869523,0.00015644,-0.00000392,0.00005323,0.00000586,-0.000
 00065,-0.00000556,0.00287602,-0.00074211,0.00048831,0.00000557,0.00001
 105,-0.00001346,0.00001028,0.00000953,-0.00001809,-0.00003901,-0.00014
 522,0.00019628,-0.00002253,0.00024640,-0.00066856,-0.00361862,-0.00113
 924,-0.00635993,-0.00027574,-0.00003733,-0.00020067,-0.09936947,-0.017
 17695,-0.09909872,-0.01489913,-0.00202253,-0.02676187,0.00000595,-0.00
 000048,0.00001903,-0.00001756,-0.00000253,0.00001167,0.00001555,0.0000
 1830,-0.00000883,-0.00000303,-0.00000251,0.00000037,-0.00000166,0.0000
 0038,0.00000201,-0.00000027,0.00000063,0.00000076,-0.00001014,-0.00000
 338,-0.00000130,-0.00000192,-0.00000624,0.00000535,0.00002259,-0.00002
 458,-0.00000585,0.00009307,0.00000576,0.00016092,-0.00018201,-0.000223
 10,0.00020604,0.00057259,-0.00132953,-0.00015262,0.00046158,-0.0000229
 8,0.00044417,-0.00005083,-0.00002054,-0.00000213,0.01020834,0.00333092
 ,0.01806810,0.10674460,-0.00009414,-0.00000792,0.00005225,0.00000266,-
 0.00000176,0.00000298,-0.00189065,0.00059409,-0.00101124,-0.00000821,0
 .00000392,0.00000158,-0.00003561,-0.00001152,0.00000543,0.00005457,0.0
 0029835,-0.00002822,0.00077726,0.00150187,-0.00088368,-0.01500975,-0.0
 0676933,-0.03057767,-0.00003811,-0.00053506,0.00000829,-0.01688947,-0.
 05189944,-0.03145675,0.01017006,0.00100494,0.02071356,-0.00000292,0.00
 001372,-0.00000698,0.00000495,0.00000151,-0.00000149,-0.00001348,-0.00
 001528,0.00000389,0.00000140,0.00000200,-0.00000080,0.00000007,0.00000
 014,-0.00000081,0.00000276,-0.00000004,0.00000058,0.00000214,-0.000000
 87,-0.00000030,0.00000058,-0.00000022,-0.00000496,-0.00001483,0.000025
 36,-0.00000041,0.00041598,0.00003657,0.00026137,-0.00007063,0.00003314
 ,0.00072668,-0.00203275,-0.00615667,-0.00024871,0.00069875,0.00144369,
 0.00027117,-0.00006789,0.00011541,0.00000016,0.00460602,0.00042317,0.0
 0740188,0.01632804,0.06067457,0.00021575,-0.00007042,0.00007011,0.0000
 1430,-0.00000381,-0.00000543,-0.00067222,-0.00076090,0.00179364,0.0000
 0074,0.00002256,-0.00002030,-0.00001404,-0.00000461,0.00000694,-0.0003
 4915,-0.00008305,-0.00012670,0.00035800,0.00036627,0.00074927,-0.00099
 838,-0.00141132,-0.00390450,0.00014280,0.00033348,0.00010205,-0.101225
 29,-0.03067626,-0.25277207,0.00019191,0.00055514,-0.00302065,0.0000033
 6,0.00000935,-0.00000093,-0.00002943,-0.00000256,0.00001615,-0.0000159
 4,0.00001653,-0.00002418,-0.00000504,-0.00000206,-0.00000043,-0.000001
 70,0.00000106,0.00000262,0.00000409,0.00000225,0.00000202,-0.00001581,
 -0.00000633,-0.00000125,0.00000772,-0.00000473,-0.00001448,0.00000571,
 -0.00000531,-0.00000074,-0.00001184,-0.00009896,0.00020314,-0.00045442
 ,-0.00004311,0.00026261,0.00018968,-0.00086697,0.00133379,0.00017161,-
 0.00032674,0.00033701,-0.00009758,-0.00002303,-0.00002864,-0.01010337,
 -0.00288047,-0.01934810,0.11291511,0.03492367,0.27261275,0.00057939,-0
 .00011024,0.00017161,0.00004068,-0.00001666,-0.00001392,-0.01163788,-0
 .02977546,0.00104665,0.00001638,0.00005211,-0.00002426,-0.00006909,-0.
 00004647,0.00001219,-0.00039427,-0.00030027,-0.00031692,-0.00049317,-0
 .00041441,0.00012062,-0.00547220,0.00222971,-0.00062335,-0.00197678,0.
 00190238,0.00368569,0.00769652,0.02831047,0.00582008,-0.05822167,-0.04
 593358,-0.01311323,0.00001027,0.00002862,-0.00000203,-0.00009229,-0.00
 000449,0.00003462,-0.00005372,0.00003002,-0.00003760,-0.00001446,-0.00
 000366,-0.00000114,-0.00000431,0.00000300,0.00000655,0.00000754,0.0000
 0854,0.00000639,-0.00004218,-0.00001257,-0.00000482,0.00004202,-0.0000
 1977,-0.00003952,0.00003556,0.00002473,-0.00001631,0.00027995,-0.00009
 791,-0.00009557,0.00007474,-0.00000807,-0.00006567,-0.00001132,-0.0000
 7858,0.00014365,0.00040232,0.00189633,0.00006273,-0.00036223,-0.001256
 44,0.00006945,0.00078498,-0.00112652,0.00024585,0.00121271,-0.00089318
 ,-0.00016948,0.06960400,0.00042476,-0.00010756,0.00012758,0.00003015,-
 0.00000638,-0.00001531,-0.00754611,-0.01120613,0.00266013,0.00000556,0
 .00005022,-0.00003276,-0.00009449,0.00001035,0.00001547,-0.00034614,0.
 00000897,-0.00045782,-0.00001777,0.00032978,-0.00031892,0.00420100,-0.
 00017225,0.00047084,0.00026835,0.00343834,0.00214686,-0.00323784,-0.01
 599366,-0.00474406,-0.05152647,-0.29614527,-0.05562974,0.00000661,0.00
 000378,-0.00000157,-0.00007067,-0.00000922,0.00002679,-0.00005602,0.00
 002265,-0.00004059,-0.00001261,-0.00000706,0.00000026,-0.00000451,0.00
 000222,0.00000619,0.00000455,0.00000612,0.00000648,-0.00003597,-0.0000
 1428,-0.00000364,0.00004349,-0.00001171,-0.00004661,-0.00003984,-0.000
 05725,0.00001361,-0.00001900,-0.00008154,-0.00000997,-0.00001043,-0.00
 000643,0.00006698,-0.00003149,0.00016229,-0.00006945,-0.00041034,-0.00
 117011,-0.00001483,-0.00023417,-0.00059234,-0.00004718,0.00031160,0.00
 017754,-0.00021061,-0.00035833,0.00078463,0.00047152,0.05876917,0.3209
 3993,0.00006314,-0.00005354,0.00006992,-0.00000284,-0.00000036,0.00000
 503,0.01322541,0.03205494,0.00126455,-0.00003307,0.00000717,-0.0000485
 3,-0.00002558,-0.00003630,-0.00004346,-0.00031691,-0.00042304,0.001769
 89,0.00033687,0.00004862,-0.00012661,0.00020278,0.00006630,0.00090217,
 0.00184280,-0.00115171,-0.00510333,-0.00118714,0.00320572,0.00060003,-
 0.01716439,-0.06528546,-0.06440857,-0.00000026,0.00001214,0.00002147,0
 .00002377,-0.00000037,0.00001475,0.00006310,0.00001498,0.00001218,0.00
 000428,0.00000043,-0.00000098,0.00000056,-0.00000042,-0.00000085,-0.00
 000323,0.00000145,-0.00000437,-0.00000784,-0.00000339,0.00000298,-0.00
 002657,0.00002498,0.00002856,0.00001508,0.00000326,-0.00001332,-0.0001
 5958,0.00006700,0.00008360,-0.00000100,-0.00000671,0.00001468,0.000065
 17,0.00041726,0.00016702,-0.00000738,-0.00017274,0.00027322,0.00039650
 ,0.00121996,-0.00002753,0.00002918,-0.00009989,0.00006685,0.00068929,0
 .00022877,0.00043879,0.00699565,0.05708107,0.06827960,0.00014040,-0.00
 031771,0.00023227,0.00001047,-0.00000070,0.00001142,0.00580321,-0.0021
 5638,0.03116373,-0.00006008,-0.00001249,-0.00003912,0.00000398,-0.0001
 0061,0.00015818,-0.00192159,-0.00117485,-0.00033172,-0.00019599,-0.000
 13543,0.00004559,0.00082274,-0.00134180,0.00015225,0.00182729,0.002140
 27,0.00108511,-0.01329223,-0.00186656,-0.02582664,-0.09886145,-0.00726
 642,-0.10468548,-0.00000928,0.00006199,-0.00004227,0.00003788,0.000018
 98,-0.00003475,0.00012546,0.00015645,-0.00025384,0.00000564,0.00000798
 ,-0.00000470,0.00000221,0.00000148,-0.00000334,0.00002341,0.00001474,-
 0.00000139,-0.00000339,-0.00000670,-0.00000041,0.00002953,-0.00001169,
 -0.00001382,0.00007208,0.00011258,-0.00003296,0.00014883,-0.00005501,-
 0.00007851,-0.00006813,-0.00002522,0.00003378,0.00027944,0.00057251,0.
 00039597,0.00004237,-0.00010490,0.00033302,-0.00014128,-0.00006456,-0.
 00024098,0.00077435,-0.00054607,0.00041570,-0.00389302,0.00399654,-0.0
 0004249,-0.00189980,0.00002558,-0.00502598,0.11019707,-0.00045975,0.00
 010921,-0.00001869,-0.00004219,0.00002792,-0.00000044,0.00022665,0.001
 56421,0.01304157,0.00003154,-0.00006873,0.00003414,0.00003803,0.000109
 17,0.00000556,-0.00072880,-0.00064884,-0.00019283,-0.00008151,-0.00031
 800,0.00011618,-0.00018255,0.00145691,0.00105916,0.00112715,0.00065846
 ,0.00219297,0.01014522,0.00141506,0.01756762,-0.00753535,-0.05597301,-
 0.02045305,-0.00000604,-0.00005968,-0.00001508,0.00007668,0.00000662,-
 0.00006212,0.00003967,0.00001561,-0.00004420,0.00000538,-0.00000265,0.
 00000379,0.00000418,-0.00000396,-0.00000354,-0.00000330,-0.00001256,-0
 .00000451,0.00004057,0.00001369,0.00000336,0.00002520,-0.00000125,-0.0
 0000478,-0.00001527,-0.00007106,0.00002691,-0.00000442,-0.00003668,-0.
 00001133,-0.00003617,0.00004907,-0.00008691,-0.00013057,-0.00004186,-0
 .00040620,-0.00013431,0.00011772,-0.00030387,-0.00007602,-0.00008419,-
 0.00024731,-0.00057026,0.00065162,-0.00041109,0.00331015,-0.00155815,0
 .00056720,-0.01316029,-0.00036021,-0.02721722,0.00808014,0.05304477,0.
 00047973,0.00004738,0.00024421,-0.00000783,-0.00000198,-0.00000372,0.0
 0677959,0.00733174,-0.03271857,-0.00001154,-0.00001380,-0.00007125,0.0
 0010258,-0.00000457,-0.00016802,-0.00070612,-0.00076384,0.00338423,0.0
 0036660,0.00051467,0.00024553,0.00052754,0.00007091,0.00029441,-0.0028
 8190,-0.00549418,-0.00315144,-0.00206305,-0.00117161,0.00004198,-0.101
 08626,-0.01519171,-0.24916097,0.00000546,0.00001009,0.00010569,0.00001
 476,0.00000714,0.00001858,0.00027099,0.00015366,-0.00014804,0.00000117
 ,-0.00000138,-0.00000054,-0.00000088,0.00000087,0.00000082,0.,0.000001
 75,-0.00000694,-0.00001888,-0.00000401,0.00000069,-0.00010463,-0.00003
 905,0.00008470,0.00016247,-0.00006273,-0.00008975,-0.00013719,0.000204
 53,0.00004299,0.00001676,-0.00008028,0.00001623,-0.00000061,0.00059021
 ,-0.00017001,0.00000483,0.00008307,0.00013206,0.00024382,0.00040251,0.
 00013930,-0.00075293,0.00037353,0.00029249,0.00003821,-0.00038144,0.00
 133904,-0.00389364,-0.00144619,-0.00423995,0.10263212,0.01486604,0.283
 54480,0.00080158,-0.00053486,-0.00174627,0.00095052,-0.00110149,0.0169
 1084,-0.00054971,0.00016476,0.00015144,0.00004997,0.00001510,-0.000194
 18,-0.01047427,0.00284574,-0.03428916,0.00052255,-0.00019564,0.0003580
 3,-0.00001351,-0.00006429,0.00017018,-0.00004479,0.00003346,-0.0000352
 7,0.00005042,-0.00031406,-0.00047458,-0.00002811,-0.00001328,0.0000577
 6,0.00010989,0.00013761,-0.00019572,-0.06532011,0.00520845,-0.06632048
 ,0.00031576,-0.00018985,-0.00007900,-0.00018665,0.00013941,0.00056506,
 0.00103993,0.00058352,0.00020313,-0.00060342,-0.00310187,0.00160672,0.
 00001502,-0.00004344,0.00012257,0.00031296,0.00029373,-0.00002489,-0.0
 0651837,0.00081292,0.00032624,0.00110788,-0.00054632,0.00046069,-0.000
 00686,0.00002189,-0.00000002,0.00001114,-0.00000744,-0.00000274,0.0000
 0056,-0.00000089,0.00000725,-0.00002192,0.00000016,0.00001686,-0.00009
 691,-0.00006447,0.00021423,-0.00002717,0.00001077,0.00000628,0.0000005
 5,0.00000055,-0.00000565,-0.00001556,-0.00001787,0.00001047,-0.0000033
 1,-0.00000438,0.00003051,0.07584057,0.00077223,-0.00012834,0.00093668,
 0.00600450,-0.00065092,0.02654922,-0.00003604,-0.00006852,-0.00002472,
 0.00016787,-0.00048502,0.00069162,0.00119306,-0.00056230,0.00201573,-0
 .00038390,0.00015031,-0.00023839,-0.00000844,-0.00000868,-0.00003365,0
 .00000403,0.00000224,-0.00000295,0.00012605,0.00009058,0.00020180,0.00
 000190,0.00000126,0.00000126,0.00002208,0.00000282,-0.00000766,0.00379
 111,-0.05109915,0.01061496,-0.00025080,-0.00110259,-0.00024242,0.00000
 370,0.00010494,-0.00019528,0.00071379,0.00138203,-0.00073049,-0.001680
 49,-0.00311025,0.00198148,-0.00003260,0.00010803,-0.00012780,0.0001419
 7,-0.00088974,-0.00034602,0.00045102,0.00072609,0.00038251,0.00010380,
 0.00000478,-0.00023651,0.00000004,-0.00000214,-0.00000023,-0.00001480,
 0.00000654,-0.00000337,0.00000165,-0.00000128,-0.00000250,-0.00000407,
 0.00000034,0.00000051,0.00000118,-0.00000284,-0.00003395,-0.00000222,-
 0.00000080,0.00000095,-0.00000103,0.00000001,-0.00000118,-0.00000434,-
 0.00000281,-0.00000157,0.00000183,0.00000434,-0.00000085,-0.00291731,0
 .05360246,0.00034372,-0.00089414,0.00082025,-0.00197643,-0.00132758,-0
 .01310592,-0.00022982,-0.00002305,0.00000759,-0.00006115,-0.00082510,-
 0.00151711,-0.00163532,0.00029894,-0.00111998,-0.00039880,0.00018529,0
 .00012358,0.00001080,0.00000094,0.00001223,0.00000131,0.00000708,-0.00
 000796,0.00028787,-0.00008197,0.00002103,-0.00000618,-0.00000574,0.000
 01550,0.00007684,0.00004592,-0.00006877,-0.06493013,0.01316772,-0.2914
 1317,-0.00028963,0.00161363,0.00073088,-0.00049988,0.00062673,-0.00000
 024,0.00006001,-0.00004001,0.00138857,0.00105822,0.00253310,0.00015476
 ,0.00008648,0.00008239,0.00033848,0.00053327,-0.00041541,0.00043922,-0
 .00013926,-0.00034434,0.00130882,-0.00053375,0.00000401,0.00020000,-0.
 00000516,0.00000633,0.00000094,-0.00000922,0.00000174,-0.00000411,0.00
 000124,-0.00000212,-0.00000176,-0.00000879,0.00000164,0.00000159,-0.00
 005233,-0.00000962,0.00000544,-0.00001044,0.00000277,0.00000355,-0.000
 00184,0.00000112,-0.00000334,-0.00000896,-0.00000933,0.00000232,0.0000
 0039,0.00000152,0.00000363,0.07199391,-0.01500676,0.31581244,-0.005375
 59,-0.00180027,-0.00320612,0.00452356,-0.01046754,-0.00681426,-0.00018
 631,-0.00034662,-0.00010866,-0.00102091,-0.00054811,0.00021669,-0.0106
 1934,0.02867656,0.01717124,-0.00218767,0.00247892,0.00078208,-0.000035
 92,-0.00009030,-0.00010889,0.00000573,0.00003179,-0.00002425,0.0007841
 6,0.00028352,0.00113102,0.00000313,0.00000545,0.00001579,0.00014656,0.
 00004544,-0.00006895,-0.07201624,0.07010727,0.03772172,0.00037578,-0.0
 0265475,0.00064780,0.00008679,-0.00005389,0.00028533,-0.00111054,0.000
 47393,0.00000741,0.00125774,0.00015417,-0.00013498,0.00010823,0.000068
 09,-0.00007492,0.00025885,-0.00001079,0.00001634,0.00143276,-0.0002451
 0,-0.00041535,0.00160671,-0.00061542,0.00031158,0.00000192,-0.00001023
 ,0.00000474,-0.00007947,0.00002757,-0.00002611,0.00001353,-0.00001039,
 -0.00002223,-0.00003376,0.00000008,0.00000368,0.00000896,-0.00005016,-
 0.00009220,-0.00001790,-0.00000387,0.00000688,-0.00000675,-0.00000071,
 -0.00000894,-0.00002613,-0.00002076,-0.00000233,0.00000321,0.00002063,
 -0.00001166,0.00278139,-0.00816576,-0.00365697,0.07931754,-0.00075122,
 0.00101988,0.00034074,0.00936223,-0.01817049,-0.01192527,0.00014933,0.
 00005272,0.00002441,-0.00095275,0.00066705,0.00138822,-0.00049555,0.00
 021418,0.00075003,0.00001537,0.00005574,0.00009003,0.00000542,0.000020
 84,0.00000670,0.00000215,-0.00000936,0.00000919,-0.00015510,-0.0000351
 7,-0.00018300,0.00000278,0.00000192,-0.00001023,-0.00005859,-0.0000270
 9,0.00004383,0.07161617,-0.23694864,-0.10340318,-0.00084129,-0.0057173
 6,0.00141406,0.00012634,0.00000715,-0.00004441,-0.00103300,-0.00055532
 ,0.00046294,0.00072798,0.00140784,0.00018703,0.00008061,-0.00004858,-0
 .00007162,0.00006216,0.00001033,-0.00008708,0.00019148,-0.00006134,0.0
 0004984,0.00034548,0.00057263,0.00012554,0.00000077,-0.00000198,-0.000
 00147,0.00001474,-0.00000560,0.00000430,-0.00000243,0.00000245,0.00000
 264,0.00000977,-0.00000075,-0.00000297,-0.00000705,0.00001404,-0.00000
 898,0.00000768,-0.00000099,-0.00000266,0.00000205,-0.00000083,0.000002
 78,0.00000780,0.00000739,-0.00000134,-0.00000396,-0.00000356,-0.000000
 49,-0.00115060,0.00192860,0.00040432,-0.07727875,0.25560428,-0.0004030
 7,0.00004875,0.00065218,-0.00588817,0.01266638,0.00531708,0.00010076,0
 .00002117,0.00001331,0.00033743,-0.00030822,-0.00130581,-0.00129923,0.
 00357426,0.00100226,0.00003028,-0.00000006,0.00023163,0.00001566,0.000
 02577,0.00002799,-0.00000107,-0.00000534,0.00000688,-0.00004361,-0.000
 07320,-0.00011559,0.00000338,0.00000053,-0.00000835,-0.00003457,-0.000
 02214,0.00003180,0.03952503,-0.10570349,-0.10451736,0.00023208,0.00502
 024,-0.00077604,-0.00018976,0.00019906,0.00018116,0.00058648,-0.000081
 11,0.00028539,-0.00068287,0.00026675,0.00106976,0.00000531,-0.00001558
 ,0.00026961,0.00028441,-0.00001099,0.00037395,0.00045836,0.00018349,0.
 00034351,0.00031314,-0.00008563,0.00002856,-0.00000087,-0.00000088,-0.
 00000101,0.00001563,-0.00000733,0.00000275,-0.00000216,0.00000134,0.00
 000045,0.00000546,-0.00000091,-0.00000312,0.00001236,0.00000988,0.0000
 0240,0.00000516,-0.00000042,-0.00000187,0.00000058,0.00000008,0.000001
 81,0.00000467,0.00000482,-0.00000010,-0.00000113,-0.00000289,-0.000002
 18,0.01015579,-0.02614043,-0.01414844,-0.04354544,0.11043612,0.1110374
 0\\-0.00141208,-0.00247743,0.00213605,0.00002372,-0.00002288,-0.000001
 66,-0.00001412,0.00001305,-0.00001972,-0.00001495,-0.00001174,0.000014
 31,0.00068896,0.00110870,-0.00119611,0.00156273,0.00303590,-0.00166586
 ,0.00002302,0.00000572,0.00000816,-0.00000346,0.00000122,0.00000837,-0
 .00082268,-0.00167112,0.00071839,-0.00000302,-0.00000047,0.00000416,-0
 .00000751,-0.00001969,0.00002496,-0.00000845,-0.00000006,-0.00000543,0
 .00000536,0.00002179,-0.00000150,-0.00000514,-0.00000158,-0.00000339,-
 0.00000718,-0.00000055,-0.00000299,-0.00000662,-0.00000019,-0.00000230
 ,0.00000455,0.00000039,-0.00000192,0.00000131,-0.00000105,-0.00000148,
 0.00000090,0.00000359,-0.00000381,-0.00000320,0.00000217,-0.00000238,-
 0.00000766,0.00000369,0.00000034,0.00000325,-0.00000300,-0.00000255,0.
 00000103,-0.00000076,0.00000147,0.00000180,0.00000231,0.00000173,-0.00
 000106,0.00000338,0.00000847,-0.00000395,0.00000646,-0.00000424,0.0000
 0167,0.00000253,-0.00000357,-0.00000085,0.00000090,-0.00000071,-0.0000
 0099,0.00000210,-0.00000922,0.00000136,-0.00000273,0.00000141,0.000003
 25,-0.00000066,0.00000104\\\@


 THE ATTENTION SPAN OF A COMPUTER IS AS LONG
 AS ITS EXTENSION CORD.
 Job cpu time:       0 days 13 hours 44 minutes 44.7 seconds.
 Elapsed time:       0 days  0 hours 51 minutes 34.1 seconds.
 File lengths (MBytes):  RWF=    687 Int=      0 D2E=      0 Chk=     33 Scr=      1
 Normal termination of Gaussian 16 at Sun Nov  4 22:52:01 2018.
