 Entering Gaussian System, Link 0=g16
 Initial command:
 /apps/gaussian/g16a03/g16/l1.exe "/jobfs/local/2012029.r-man2/Gau-26174.inp" -scrdir="/jobfs/local/2012029.r-man2/"
 Entering Link 1 = /apps/gaussian/g16a03/g16/l1.exe PID=     26175.
  
 Copyright (c) 1988,1990,1992,1993,1995,1998,2003,2009,2016,
            Gaussian, Inc.  All Rights Reserved.
  
 This is part of the Gaussian(R) 16 program.  It is based on
 the Gaussian(R) 09 system (copyright 2009, Gaussian, Inc.),
 the Gaussian(R) 03 system (copyright 2003, Gaussian, Inc.),
 the Gaussian(R) 98 system (copyright 1998, Gaussian, Inc.),
 the Gaussian(R) 94 system (copyright 1995, Gaussian, Inc.),
 the Gaussian 92(TM) system (copyright 1992, Gaussian, Inc.),
 the Gaussian 90(TM) system (copyright 1990, Gaussian, Inc.),
 the Gaussian 88(TM) system (copyright 1988, Gaussian, Inc.),
 the Gaussian 86(TM) system (copyright 1986, Carnegie Mellon
 University), and the Gaussian 82(TM) system (copyright 1983,
 Carnegie Mellon University). Gaussian is a federally registered
 trademark of Gaussian, Inc.
  
 This software contains proprietary and confidential information,
 including trade secrets, belonging to Gaussian, Inc.
  
 This software is provided under written license and may be
 used, copied, transmitted, or stored only in accord with that
 written license.
  
 The following legend is applicable only to US Government
 contracts under FAR:
  
                    RESTRICTED RIGHTS LEGEND
  
 Use, reproduction and disclosure by the US Government is
 subject to restrictions as set forth in subparagraphs (a)
 and (c) of the Commercial Computer Software - Restricted
 Rights clause in FAR 52.227-19.
  
 Gaussian, Inc.
 340 Quinnipiac St., Bldg. 40, Wallingford CT 06492
  
  
 ---------------------------------------------------------------
 Warning -- This program may not be used in any manner that
 competes with the business of Gaussian, Inc. or will provide
 assistance to any competitor of Gaussian, Inc.  The licensee
 of this program is prohibited from giving any competitor of
 Gaussian, Inc. access to this program.  By using this program,
 the user acknowledges that Gaussian, Inc. is engaged in the
 business of creating and licensing software in the field of
 computational chemistry and represents and warrants to the
 licensee that it is not a competitor of Gaussian, Inc. and that
 it will not use this program in any manner prohibited above.
 ---------------------------------------------------------------
  

 Cite this work as:
 Gaussian 16, Revision A.03,
 M. J. Frisch, G. W. Trucks, H. B. Schlegel, G. E. Scuseria, 
 M. A. Robb, J. R. Cheeseman, G. Scalmani, V. Barone, 
 G. A. Petersson, H. Nakatsuji, X. Li, M. Caricato, A. V. Marenich, 
 J. Bloino, B. G. Janesko, R. Gomperts, B. Mennucci, H. P. Hratchian, 
 J. V. Ortiz, A. F. Izmaylov, J. L. Sonnenberg, D. Williams-Young, 
 F. Ding, F. Lipparini, F. Egidi, J. Goings, B. Peng, A. Petrone, 
 T. Henderson, D. Ranasinghe, V. G. Zakrzewski, J. Gao, N. Rega, 
 G. Zheng, W. Liang, M. Hada, M. Ehara, K. Toyota, R. Fukuda, 
 J. Hasegawa, M. Ishida, T. Nakajima, Y. Honda, O. Kitao, H. Nakai, 
 T. Vreven, K. Throssell, J. A. Montgomery, Jr., J. E. Peralta, 
 F. Ogliaro, M. J. Bearpark, J. J. Heyd, E. N. Brothers, K. N. Kudin, 
 V. N. Staroverov, T. A. Keith, R. Kobayashi, J. Normand, 
 K. Raghavachari, A. P. Rendell, J. C. Burant, S. S. Iyengar, 
 J. Tomasi, M. Cossi, J. M. Millam, M. Klene, C. Adamo, R. Cammi, 
 J. W. Ochterski, R. L. Martin, K. Morokuma, O. Farkas, 
 J. B. Foresman, and D. J. Fox, Gaussian, Inc., Wallingford CT, 2016.
 
 ******************************************
 Gaussian 16:  ES64L-G16RevA.03 25-Dec-2016
                 4-Nov-2018 
 ******************************************
 %mem=6000mb
 %nproc=24
 Will use up to   24 processors via shared memory.
 %chk=D_a1-4_2SO_PSI.inp_extract_3.chk
 ----------------------------------------------------------------------
 #M062X/6-311++G(2d,2p) opt=ModRedundant freq=noraman SCRF=(Solvent=Wat
 er)
 ----------------------------------------------------------------------
 1/18=120,19=15,26=3,38=1/1,3;
 2/9=110,12=2,17=6,18=5,40=1/2;
 3/5=4,6=6,7=1212,11=2,25=1,30=1,70=2201,71=1,72=1,74=-55/1,2,3;
 4//1;
 5/5=2,38=5,53=1/2;
 6/7=2,8=2,9=2,10=2,28=1/1;
 7//1,2,3,16;
 1/18=20,19=15,26=3/3(2);
 2/9=110/2;
 99//99;
 2/9=110/2;
 3/5=4,6=6,7=1212,11=2,25=1,30=1,70=2205,71=1,72=1,74=-55/1,2,3;
 4/5=5,16=3,69=1/1;
 5/5=2,38=5,53=1/2;
 7//1,2,3,16;
 1/18=20,19=15,26=3/3(-5);
 2/9=110/2;
 6/7=2,8=2,9=2,10=2,19=2,28=1/1;
 99/9=1/99;
 ----------------------------
 D_a1-4_2SO_PSI.inp_extract_3
 ----------------------------
 Symbolic Z-matrix:
 Charge =  0 Multiplicity = 1
 C                     1.06696   0.34165  -0.537 
 C                     3.64613  -0.58814   0.59249 
 O                    -1.74172  -0.41419  -1.23957 
 C                     1.54869  -1.10235  -0.37622 
 C                     2.11511   1.30375   0.02665 
 O                    -0.16211   0.56776   0.14137 
 C                    -2.38024   1.42544   0.20106 
 C                    -3.00984   0.44104   1.18664 
 C                    -1.29536   0.77896  -0.64737 
 C                    -3.4611   -0.8114    0.4366 
 C                    -2.30188  -1.38297  -0.3613 
 C                     3.51435   0.72872  -0.18126 
 O                     2.39222  -1.23668   0.74726 
 H                     0.91628   0.53122  -1.59325 
 H                     4.3371   -1.26443   0.09798 
 H                     4.00609  -0.40772   1.59659 
 H                     0.71675  -1.7732   -0.22922 
 H                     2.08337  -1.4143   -1.26881 
 H                     1.93065   1.43071   1.08918 
 H                     2.01439   2.27887  -0.43767 
 H                    -1.95933   2.28617   0.70921 
 H                    -3.14493   1.79081  -0.47903 
 H                    -2.29134   0.16796   1.95511 
 H                    -3.84947   0.91097   1.68946 
 H                    -1.03404   1.41817  -1.47892 
 H                    -3.8244   -1.57041   1.12362 
 H                    -4.277    -0.56394  -0.23858 
 H                    -2.61975  -2.19843  -0.99618 
 H                    -1.53247  -1.75418   0.30596 
 H                     3.68947   0.56628  -1.24097 
 H                     4.27468   1.42221   0.16129 
 
 The following ModRedundant input section has been read:
 D       5       1       6       9 F                                           
 

 GradGradGradGradGradGradGradGradGradGradGradGradGradGradGradGradGradGrad
 Berny optimization.
 Initialization pass.
                           ----------------------------
                           !    Initial Parameters    !
                           ! (Angstroms and Degrees)  !
 --------------------------                            --------------------------
 ! Name  Definition              Value          Derivative Info.                !
 --------------------------------------------------------------------------------
 ! R1    R(1,4)                  1.5307         estimate D2E/DX2                !
 ! R2    R(1,5)                  1.5303         estimate D2E/DX2                !
 ! R3    R(1,6)                  1.4219         estimate D2E/DX2                !
 ! R4    R(1,14)                 1.0837         estimate D2E/DX2                !
 ! R5    R(2,12)                 1.533          estimate D2E/DX2                !
 ! R6    R(2,13)                 1.4202         estimate D2E/DX2                !
 ! R7    R(2,15)                 1.086          estimate D2E/DX2                !
 ! R8    R(2,16)                 1.0818         estimate D2E/DX2                !
 ! R9    R(3,9)                  1.4048         estimate D2E/DX2                !
 ! R10   R(3,11)                 1.4226         estimate D2E/DX2                !
 ! R11   R(4,13)                 1.4113         estimate D2E/DX2                !
 ! R12   R(4,17)                 1.0788         estimate D2E/DX2                !
 ! R13   R(4,18)                 1.0862         estimate D2E/DX2                !
 ! R14   R(5,12)                 1.527          estimate D2E/DX2                !
 ! R15   R(5,19)                 1.0859         estimate D2E/DX2                !
 ! R16   R(5,20)                 1.0847         estimate D2E/DX2                !
 ! R17   R(6,9)                  1.3968         estimate D2E/DX2                !
 ! R18   R(7,8)                  1.5287         estimate D2E/DX2                !
 ! R19   R(7,9)                  1.5214         estimate D2E/DX2                !
 ! R20   R(7,21)                 1.0845         estimate D2E/DX2                !
 ! R21   R(7,22)                 1.0866         estimate D2E/DX2                !
 ! R22   R(8,10)                 1.528          estimate D2E/DX2                !
 ! R23   R(8,23)                 1.0869         estimate D2E/DX2                !
 ! R24   R(8,24)                 1.0856         estimate D2E/DX2                !
 ! R25   R(9,25)                 1.0809         estimate D2E/DX2                !
 ! R26   R(10,11)                1.5189         estimate D2E/DX2                !
 ! R27   R(10,26)                1.0863         estimate D2E/DX2                !
 ! R28   R(10,27)                1.0876         estimate D2E/DX2                !
 ! R29   R(11,28)                1.0812         estimate D2E/DX2                !
 ! R30   R(11,29)                1.084          estimate D2E/DX2                !
 ! R31   R(12,30)                1.0863         estimate D2E/DX2                !
 ! R32   R(12,31)                1.0846         estimate D2E/DX2                !
 ! A1    A(4,1,5)              109.8061         estimate D2E/DX2                !
 ! A2    A(4,1,6)              111.8343         estimate D2E/DX2                !
 ! A3    A(4,1,14)             108.1292         estimate D2E/DX2                !
 ! A4    A(5,1,6)              108.4413         estimate D2E/DX2                !
 ! A5    A(5,1,14)             110.1364         estimate D2E/DX2                !
 ! A6    A(6,1,14)             108.4817         estimate D2E/DX2                !
 ! A7    A(12,2,13)            111.8007         estimate D2E/DX2                !
 ! A8    A(12,2,15)            111.0882         estimate D2E/DX2                !
 ! A9    A(12,2,16)            110.7202         estimate D2E/DX2                !
 ! A10   A(13,2,15)            109.0881         estimate D2E/DX2                !
 ! A11   A(13,2,16)            105.5921         estimate D2E/DX2                !
 ! A12   A(15,2,16)            108.3483         estimate D2E/DX2                !
 ! A13   A(9,3,11)             116.3118         estimate D2E/DX2                !
 ! A14   A(1,4,13)             111.1922         estimate D2E/DX2                !
 ! A15   A(1,4,17)             110.9923         estimate D2E/DX2                !
 ! A16   A(1,4,18)             109.8477         estimate D2E/DX2                !
 ! A17   A(13,4,17)            107.0536         estimate D2E/DX2                !
 ! A18   A(13,4,18)            109.4274         estimate D2E/DX2                !
 ! A19   A(17,4,18)            108.2393         estimate D2E/DX2                !
 ! A20   A(1,5,12)             109.9199         estimate D2E/DX2                !
 ! A21   A(1,5,19)             108.5148         estimate D2E/DX2                !
 ! A22   A(1,5,20)             110.1151         estimate D2E/DX2                !
 ! A23   A(12,5,19)            109.4459         estimate D2E/DX2                !
 ! A24   A(12,5,20)            111.4283         estimate D2E/DX2                !
 ! A25   A(19,5,20)            107.3364         estimate D2E/DX2                !
 ! A26   A(1,6,9)              117.1253         estimate D2E/DX2                !
 ! A27   A(8,7,9)              112.3082         estimate D2E/DX2                !
 ! A28   A(8,7,21)             111.6438         estimate D2E/DX2                !
 ! A29   A(8,7,22)             109.2812         estimate D2E/DX2                !
 ! A30   A(9,7,21)             108.77           estimate D2E/DX2                !
 ! A31   A(9,7,22)             107.1971         estimate D2E/DX2                !
 ! A32   A(21,7,22)            107.4282         estimate D2E/DX2                !
 ! A33   A(7,8,10)             109.45           estimate D2E/DX2                !
 ! A34   A(7,8,23)             110.2042         estimate D2E/DX2                !
 ! A35   A(7,8,24)             109.7786         estimate D2E/DX2                !
 ! A36   A(10,8,23)            109.6545         estimate D2E/DX2                !
 ! A37   A(10,8,24)            110.7164         estimate D2E/DX2                !
 ! A38   A(23,8,24)            107.0106         estimate D2E/DX2                !
 ! A39   A(3,9,6)              111.5558         estimate D2E/DX2                !
 ! A40   A(3,9,7)              111.6792         estimate D2E/DX2                !
 ! A41   A(3,9,25)             104.7603         estimate D2E/DX2                !
 ! A42   A(6,9,7)              109.1407         estimate D2E/DX2                !
 ! A43   A(6,9,25)             109.1285         estimate D2E/DX2                !
 ! A44   A(7,9,25)             110.4941         estimate D2E/DX2                !
 ! A45   A(8,10,11)            109.9323         estimate D2E/DX2                !
 ! A46   A(8,10,26)            111.163          estimate D2E/DX2                !
 ! A47   A(8,10,27)            109.8645         estimate D2E/DX2                !
 ! A48   A(11,10,26)           108.9372         estimate D2E/DX2                !
 ! A49   A(11,10,27)           109.3934         estimate D2E/DX2                !
 ! A50   A(26,10,27)           107.4994         estimate D2E/DX2                !
 ! A51   A(3,11,10)            111.6273         estimate D2E/DX2                !
 ! A52   A(3,11,28)            105.4777         estimate D2E/DX2                !
 ! A53   A(3,11,29)            109.4967         estimate D2E/DX2                !
 ! A54   A(10,11,28)           111.5853         estimate D2E/DX2                !
 ! A55   A(10,11,29)           110.3165         estimate D2E/DX2                !
 ! A56   A(28,11,29)           108.1707         estimate D2E/DX2                !
 ! A57   A(2,12,5)             109.4829         estimate D2E/DX2                !
 ! A58   A(2,12,30)            110.4912         estimate D2E/DX2                !
 ! A59   A(2,12,31)            109.2423         estimate D2E/DX2                !
 ! A60   A(5,12,30)            109.6854         estimate D2E/DX2                !
 ! A61   A(5,12,31)            111.013          estimate D2E/DX2                !
 ! A62   A(30,12,31)           106.8998         estimate D2E/DX2                !
 ! A63   A(2,13,4)             113.4219         estimate D2E/DX2                !
 ! D1    D(5,1,4,13)            29.2707         estimate D2E/DX2                !
 ! D2    D(5,1,4,17)           148.3269         estimate D2E/DX2                !
 ! D3    D(5,1,4,18)           -92.0091         estimate D2E/DX2                !
 ! D4    D(6,1,4,13)           -91.1604         estimate D2E/DX2                !
 ! D5    D(6,1,4,17)            27.8959         estimate D2E/DX2                !
 ! D6    D(6,1,4,18)           147.5599         estimate D2E/DX2                !
 ! D7    D(14,1,4,13)          149.4648         estimate D2E/DX2                !
 ! D8    D(14,1,4,17)          -91.479          estimate D2E/DX2                !
 ! D9    D(14,1,4,18)           28.185          estimate D2E/DX2                !
 ! D10   D(4,1,5,12)            32.651          estimate D2E/DX2                !
 ! D11   D(4,1,5,19)           -87.0048         estimate D2E/DX2                !
 ! D12   D(4,1,5,20)           155.7817         estimate D2E/DX2                !
 ! D13   D(6,1,5,12)           155.1169         estimate D2E/DX2                !
 ! D14   D(6,1,5,19)            35.4611         estimate D2E/DX2                !
 ! D15   D(6,1,5,20)           -81.7525         estimate D2E/DX2                !
 ! D16   D(14,1,5,12)          -86.3163         estimate D2E/DX2                !
 ! D17   D(14,1,5,19)          154.0279         estimate D2E/DX2                !
 ! D18   D(14,1,5,20)           36.8144         estimate D2E/DX2                !
 ! D19   D(4,1,6,9)           -110.3806         estimate D2E/DX2                !
 ! D20   D(5,1,6,9)            128.3953         Frozen                          !
 ! D21   D(14,1,6,9)             8.7862         estimate D2E/DX2                !
 ! D22   D(13,2,12,5)           27.5883         estimate D2E/DX2                !
 ! D23   D(13,2,12,30)         -93.3198         estimate D2E/DX2                !
 ! D24   D(13,2,12,31)         149.3481         estimate D2E/DX2                !
 ! D25   D(15,2,12,5)          149.7115         estimate D2E/DX2                !
 ! D26   D(15,2,12,30)          28.8033         estimate D2E/DX2                !
 ! D27   D(15,2,12,31)         -88.5288         estimate D2E/DX2                !
 ! D28   D(16,2,12,5)          -89.8513         estimate D2E/DX2                !
 ! D29   D(16,2,12,30)         149.2406         estimate D2E/DX2                !
 ! D30   D(16,2,12,31)          31.9085         estimate D2E/DX2                !
 ! D31   D(12,2,13,4)           36.7618         estimate D2E/DX2                !
 ! D32   D(15,2,13,4)          -86.5011         estimate D2E/DX2                !
 ! D33   D(16,2,13,4)          157.2416         estimate D2E/DX2                !
 ! D34   D(11,3,9,6)            69.2792         estimate D2E/DX2                !
 ! D35   D(11,3,9,7)           -53.1609         estimate D2E/DX2                !
 ! D36   D(11,3,9,25)         -172.7882         estimate D2E/DX2                !
 ! D37   D(9,3,11,10)           56.3347         estimate D2E/DX2                !
 ! D38   D(9,3,11,28)          177.6954         estimate D2E/DX2                !
 ! D39   D(9,3,11,29)          -66.1174         estimate D2E/DX2                !
 ! D40   D(1,4,13,2)           -68.8948         estimate D2E/DX2                !
 ! D41   D(17,4,13,2)          169.7172         estimate D2E/DX2                !
 ! D42   D(18,4,13,2)           52.6306         estimate D2E/DX2                !
 ! D43   D(1,5,12,2)           -62.5268         estimate D2E/DX2                !
 ! D44   D(1,5,12,30)           58.8688         estimate D2E/DX2                !
 ! D45   D(1,5,12,31)          176.784          estimate D2E/DX2                !
 ! D46   D(19,5,12,2)           56.5599         estimate D2E/DX2                !
 ! D47   D(19,5,12,30)         177.9556         estimate D2E/DX2                !
 ! D48   D(19,5,12,31)         -64.1292         estimate D2E/DX2                !
 ! D49   D(20,5,12,2)          175.1171         estimate D2E/DX2                !
 ! D50   D(20,5,12,30)         -63.4872         estimate D2E/DX2                !
 ! D51   D(20,5,12,31)          54.4279         estimate D2E/DX2                !
 ! D52   D(1,6,9,3)             73.937          estimate D2E/DX2                !
 ! D53   D(1,6,9,7)           -162.1773         estimate D2E/DX2                !
 ! D54   D(1,6,9,25)           -41.3376         estimate D2E/DX2                !
 ! D55   D(9,7,8,10)           -51.9368         estimate D2E/DX2                !
 ! D56   D(9,7,8,23)            68.7304         estimate D2E/DX2                !
 ! D57   D(9,7,8,24)          -173.6494         estimate D2E/DX2                !
 ! D58   D(21,7,8,10)         -174.416          estimate D2E/DX2                !
 ! D59   D(21,7,8,23)          -53.7488         estimate D2E/DX2                !
 ! D60   D(21,7,8,24)           63.8714         estimate D2E/DX2                !
 ! D61   D(22,7,8,10)           66.886          estimate D2E/DX2                !
 ! D62   D(22,7,8,23)         -172.4469         estimate D2E/DX2                !
 ! D63   D(22,7,8,24)          -54.8267         estimate D2E/DX2                !
 ! D64   D(8,7,9,3)             50.553          estimate D2E/DX2                !
 ! D65   D(8,7,9,6)            -73.2598         estimate D2E/DX2                !
 ! D66   D(8,7,9,25)           166.7384         estimate D2E/DX2                !
 ! D67   D(21,7,9,3)           174.6437         estimate D2E/DX2                !
 ! D68   D(21,7,9,6)            50.8309         estimate D2E/DX2                !
 ! D69   D(21,7,9,25)          -69.1709         estimate D2E/DX2                !
 ! D70   D(22,7,9,3)           -69.4871         estimate D2E/DX2                !
 ! D71   D(22,7,9,6)           166.7001         estimate D2E/DX2                !
 ! D72   D(22,7,9,25)           46.6983         estimate D2E/DX2                !
 ! D73   D(7,8,10,11)           53.747          estimate D2E/DX2                !
 ! D74   D(7,8,10,26)          174.4484         estimate D2E/DX2                !
 ! D75   D(7,8,10,27)          -66.689          estimate D2E/DX2                !
 ! D76   D(23,8,10,11)         -67.254          estimate D2E/DX2                !
 ! D77   D(23,8,10,26)          53.4474         estimate D2E/DX2                !
 ! D78   D(23,8,10,27)         172.31           estimate D2E/DX2                !
 ! D79   D(24,8,10,11)         174.8935         estimate D2E/DX2                !
 ! D80   D(24,8,10,26)         -64.405          estimate D2E/DX2                !
 ! D81   D(24,8,10,27)          54.4576         estimate D2E/DX2                !
 ! D82   D(8,10,11,3)          -55.3334         estimate D2E/DX2                !
 ! D83   D(8,10,11,28)        -173.0814         estimate D2E/DX2                !
 ! D84   D(8,10,11,29)          66.6475         estimate D2E/DX2                !
 ! D85   D(26,10,11,3)        -177.3675         estimate D2E/DX2                !
 ! D86   D(26,10,11,28)         64.8846         estimate D2E/DX2                !
 ! D87   D(26,10,11,29)        -55.3866         estimate D2E/DX2                !
 ! D88   D(27,10,11,3)          65.3868         estimate D2E/DX2                !
 ! D89   D(27,10,11,28)        -52.3611         estimate D2E/DX2                !
 ! D90   D(27,10,11,29)       -172.6323         estimate D2E/DX2                !
 --------------------------------------------------------------------------------
 Trust Radius=3.00D-01 FncErr=1.00D-07 GrdErr=1.00D-06 EigMax=2.50D+02 EigMin=1.00D-04
 Number of steps in this run=    186 maximum allowed number of steps=    186.
 GradGradGradGradGradGradGradGradGradGradGradGradGradGradGradGradGradGrad

                          Input orientation:                          
 ---------------------------------------------------------------------
 Center     Atomic      Atomic             Coordinates (Angstroms)
 Number     Number       Type             X           Y           Z
 ---------------------------------------------------------------------
      1          6           0        1.066958    0.341651   -0.536997
      2          6           0        3.646130   -0.588140    0.592487
      3          8           0       -1.741721   -0.414192   -1.239567
      4          6           0        1.548693   -1.102355   -0.376224
      5          6           0        2.115110    1.303754    0.026649
      6          8           0       -0.162112    0.567755    0.141368
      7          6           0       -2.380240    1.425443    0.201062
      8          6           0       -3.009843    0.441037    1.186641
      9          6           0       -1.295363    0.778955   -0.647367
     10          6           0       -3.461095   -0.811395    0.436599
     11          6           0       -2.301880   -1.382971   -0.361304
     12          6           0        3.514348    0.728716   -0.181262
     13          8           0        2.392216   -1.236678    0.747264
     14          1           0        0.916277    0.531220   -1.593253
     15          1           0        4.337099   -1.264431    0.097982
     16          1           0        4.006088   -0.407720    1.596588
     17          1           0        0.716750   -1.773204   -0.229222
     18          1           0        2.083366   -1.414302   -1.268807
     19          1           0        1.930649    1.430709    1.089176
     20          1           0        2.014387    2.278867   -0.437668
     21          1           0       -1.959328    2.286165    0.709207
     22          1           0       -3.144930    1.790811   -0.479028
     23          1           0       -2.291338    0.167961    1.955110
     24          1           0       -3.849468    0.910974    1.689455
     25          1           0       -1.034044    1.418171   -1.478919
     26          1           0       -3.824398   -1.570408    1.123620
     27          1           0       -4.277005   -0.563943   -0.238576
     28          1           0       -2.619751   -2.198433   -0.996184
     29          1           0       -1.532468   -1.754175    0.305962
     30          1           0        3.689471    0.566281   -1.240968
     31          1           0        4.274683    1.422207    0.161293
 ---------------------------------------------------------------------
                    Distance matrix (angstroms):
                    1          2          3          4          5
     1  C    0.000000
     2  C    2.965194   0.000000
     3  O    2.992253   5.693472   0.000000
     4  C    1.530709   2.366867   3.470699   0.000000
     5  C    1.530347   2.498691   4.407923   2.504495   0.000000
     6  O    1.421941   4.005285   2.316542   2.446226   2.395954
     7  C    3.688158   6.365914   2.422267   4.707392   4.500378
     8  C    4.427314   6.761228   2.868107   5.060124   5.324942
     9  C    2.404990   5.274897   1.404826   3.420746   3.515827
    10  C    4.772910   7.112439   2.433834   5.083632   5.977958
    11  C    3.788701   6.076207   1.422553   3.860813   5.184477
    12  C    2.503215   1.533024   5.482017   2.693442   1.527011
    13  O    2.428324   1.420161   4.659766   1.411311   2.655159
    14  H    1.083659   3.671856   2.843211   2.132997   2.158261
    15  H    3.698178   1.085976   6.282038   2.833081   3.396748
    16  H    3.708400   1.081823   6.409456   3.226964   2.994937
    17  H    2.165637   3.265096   2.985262   1.078785   3.389477
    18  H    2.156850   2.566942   3.953779   1.086228   3.011153
    19  H    2.139263   2.695427   4.723664   2.951220   1.085867
    20  H    2.158771   3.455942   4.690837   3.413694   1.084703
    21  H    3.806910   6.300509   3.337215   4.996643   4.246418
    22  H    4.454596   7.275029   2.722031   5.514624   5.306690
    23  H    4.185561   6.138563   3.293470   4.668475   4.942244
    24  H    5.427012   7.722349   3.844195   6.120512   6.204465
    25  H    2.541716   5.497275   1.978800   3.773529   3.492420
    26  H    5.508083   7.553525   3.355448   5.598099   6.688939
    27  H    5.428360   7.966638   2.729849   5.852144   6.664666
    28  H    4.500522   6.661695   2.003419   4.354499   5.977492
    29  H    3.443847   5.315977   2.056210   3.222390   4.767994
    30  H    2.724630   2.167054   5.518983   2.848694   2.151588
    31  H    3.456112   2.150001   6.444524   3.754112   2.167006
                    6          7          8          9         10
     6  O    0.000000
     7  C    2.378925   0.000000
     8  C    3.036153   1.528666   0.000000
     9  C    1.396770   1.521426   2.533222   0.000000
    10  C    3.587827   2.495430   1.527998   2.897342   0.000000
    11  C    2.938812   2.865237   2.494865   2.401839   1.518923
    12  C    3.694098   5.947921   6.672255   4.832504   7.170112
    13  O    3.185542   5.491954   5.673625   4.427868   5.876957
    14  H    2.042833   3.858267   4.811482   2.418145   5.008423
    15  H    4.858157   7.236622   7.620456   6.037847   7.818678
    16  H    4.521406   6.789195   7.078964   5.877832   7.567519
    17  H    2.527810   4.473012   4.560156   3.276730   4.338523
    18  H    3.310486   5.490760   5.950822   4.075828   5.832063
    19  H    2.454115   4.401425   5.039584   3.721225   5.875695
    20  H    2.828486   4.522063   5.590965   3.639801   6.347832
    21  H    2.550561   1.084537   2.176240   2.133735   3.453187
    22  H    3.282980   1.086631   2.148160   2.114968   2.776654
    23  H    2.825438   2.160058   1.086906   2.852747   2.152521
    24  H    4.013847   2.153746   1.085649   3.464335   2.164957
    25  H    2.027018   2.152820   3.458870   1.080909   3.811922
    26  H    4.353033   3.451352   2.171033   3.879680   1.086318
    27  H    4.284559   2.783641   2.155673   3.295554   1.087567
    28  H    3.871151   3.824035   3.447274   3.277273   2.164394
    29  H    2.701171   3.292369   2.788761   2.716947   2.150698
    30  H    4.092132   6.297539   7.126695   5.024556   7.472805
    31  H    4.518366   6.655043   7.421479   5.665079   8.056490
                   11         12         13         14         15
    11  C    0.000000
    12  C    6.190327   0.000000
    13  O    4.825439   2.446245   0.000000
    14  H    3.941873   2.963561   3.283577   0.000000
    15  H    6.655902   2.174289   2.050587   4.217424   0.000000
    16  H    6.676445   2.166575   2.003274   4.539122   1.757652
    17  H    3.046614   3.753460   2.012106   2.685286   3.670537
    18  H    4.478273   2.796961   2.047311   2.291815   2.640054
    19  H    5.285356   2.148234   2.728535   3.005571   3.746631
    20  H    5.660835   2.172233   3.729058   2.365479   4.270465
    21  H    3.837433   5.760183   5.598911   4.080473   7.254331
    22  H    3.285953   6.750014   6.428800   4.395619   8.102358
    23  H    2.787701   6.211644   5.036624   4.797044   7.031134
    24  H    3.444245   7.599907   6.667740   5.799372   8.618878
    25  H    3.271524   4.779867   4.872717   2.145578   6.207427
    26  H    2.134993   7.800377   6.236931   5.854250   8.231378
    27  H    2.141725   7.898065   6.775172   5.477655   8.649089
    28  H    1.081246   6.845398   5.392995   4.506772   7.104036
    29  H    1.083989   5.645572   3.983177   3.850506   5.893634
    30  H    6.361578   1.086292   2.981040   2.795700   2.358753
    31  H    7.168913   1.084612   3.310093   3.892452   2.688109
                   16         17         18         19         20
    16  H    0.000000
    17  H    4.002234   0.000000
    18  H    3.594517   1.754191   0.000000
    19  H    2.818641   3.671074   3.698310   0.000000
    20  H    3.914437   4.259882   3.786165   1.748610   0.000000
    21  H    6.605350   4.951820   5.826609   4.001013   4.135914
    22  H    7.763941   5.260910   6.183169   5.324513   5.182515
    23  H    6.333839   4.193807   5.659968   4.491052   5.359158
    24  H    7.966011   5.633514   7.025435   5.834399   6.385967
    25  H    6.180255   3.848623   4.217262   3.922330   3.334356
    26  H    7.930451   4.742714   6.375716   6.490644   7.165609
    27  H    8.485391   5.138092   6.499139   6.654061   6.906723
    28  H    7.336952   3.449825   4.775824   6.182680   6.467874
    29  H    5.844165   2.312091   3.958493   4.769705   5.422047
    30  H    3.016728   3.915851   2.550109   3.044710   2.526687
    31  H    2.341121   4.798129   3.859124   2.521019   2.490293
                   21         22         23         24         25
    21  H    0.000000
    22  H    1.750123   0.000000
    23  H    2.479777   3.047505   0.000000
    24  H    2.534692   2.443932   1.746542   0.000000
    25  H    2.529320   2.365266   3.864760   4.268777   0.000000
    26  H    4.303880   3.785228   2.462433   2.545202   4.846740
    27  H    3.793815   2.623791   3.048084   2.464847   3.998002
    28  H    4.843154   4.056764   3.797079   4.288738   3.978357
    29  H    4.082789   3.972804   2.643895   3.792830   3.673963
    30  H    6.218530   6.984917   6.792912   8.095789   4.805615
    31  H    6.317399   7.456309   6.921239   8.282419   5.556338
                   26         27         28         29         30
    26  H    0.000000
    27  H    1.753112   0.000000
    28  H    2.517769   2.447860   0.000000
    29  H    2.440344   3.040667   1.753606   0.000000
    30  H    8.161798   8.108448   6.892739   5.919979   0.000000
    31  H    8.687746   8.788405   7.872865   6.620675   1.743966
                   31
    31  H    0.000000
 Stoichiometry    C10H18O3
 Framework group  C1[X(C10H18O3)]
 Deg. of freedom    87
 Full point group                 C1      NOp   1
 Largest Abelian subgroup         C1      NOp   1
 Largest concise Abelian subgroup C1      NOp   1
                         Standard orientation:                         
 ---------------------------------------------------------------------
 Center     Atomic      Atomic             Coordinates (Angstroms)
 Number     Number       Type             X           Y           Z
 ---------------------------------------------------------------------
      1          6           0        1.066958    0.341651   -0.536997
      2          6           0        3.646130   -0.588140    0.592487
      3          8           0       -1.741721   -0.414192   -1.239567
      4          6           0        1.548693   -1.102355   -0.376224
      5          6           0        2.115110    1.303754    0.026649
      6          8           0       -0.162112    0.567755    0.141368
      7          6           0       -2.380240    1.425443    0.201062
      8          6           0       -3.009843    0.441037    1.186641
      9          6           0       -1.295363    0.778955   -0.647367
     10          6           0       -3.461095   -0.811395    0.436599
     11          6           0       -2.301880   -1.382971   -0.361304
     12          6           0        3.514348    0.728716   -0.181262
     13          8           0        2.392216   -1.236678    0.747264
     14          1           0        0.916277    0.531220   -1.593253
     15          1           0        4.337099   -1.264431    0.097982
     16          1           0        4.006088   -0.407720    1.596588
     17          1           0        0.716750   -1.773204   -0.229222
     18          1           0        2.083366   -1.414302   -1.268807
     19          1           0        1.930649    1.430709    1.089176
     20          1           0        2.014387    2.278867   -0.437668
     21          1           0       -1.959328    2.286165    0.709207
     22          1           0       -3.144930    1.790811   -0.479028
     23          1           0       -2.291338    0.167961    1.955110
     24          1           0       -3.849468    0.910974    1.689455
     25          1           0       -1.034044    1.418171   -1.478919
     26          1           0       -3.824398   -1.570408    1.123620
     27          1           0       -4.277005   -0.563943   -0.238576
     28          1           0       -2.619751   -2.198433   -0.996184
     29          1           0       -1.532468   -1.754175    0.305962
     30          1           0        3.689471    0.566281   -1.240968
     31          1           0        4.274683    1.422207    0.161293
 ---------------------------------------------------------------------
 Rotational constants (GHZ):           1.8393131           0.4215984           0.3916898
 Standard basis: 6-311++G(2d,2p) (5D, 7F)
 There are   557 symmetry adapted cartesian basis functions of A   symmetry.
 There are   531 symmetry adapted basis functions of A   symmetry.
   531 basis functions,   762 primitive gaussians,   557 cartesian basis functions
    51 alpha electrons       51 beta electrons
       nuclear repulsion energy       895.0626567389 Hartrees.
 NAtoms=   31 NActive=   31 NUniq=   31 SFac= 1.00D+00 NAtFMM=   60 NAOKFM=F Big=F
 Integral buffers will be    131072 words long.
 Raffenetti 2 integral format.
 Two-electron integral symmetry is turned on.
 ------------------------------------------------------------------------------
 Polarizable Continuum Model (PCM)
 =================================
 Model                : PCM.
 Atomic radii         : UFF (Universal Force Field).
 Polarization charges : Total charges.
 Charge compensation  : None.
 Solution method      : On-the-fly selection.
 Cavity type          : Scaled VdW (van der Waals Surface) (Alpha=1.100).
 Cavity algorithm     : GePol (No added spheres)
                        Default sphere list used, NSphG=   31.
                        Lebedev-Laikov grids with approx.  5.0 points / Ang**2.
                        Smoothing algorithm: York/Karplus (Gamma=1.0000).
                        Polarization charges: spherical gaussians, with
                                              point-specific exponents (IZeta= 3).
                        Self-potential: point-specific (ISelfS= 7).
                        Self-field    : sphere-specific E.n sum rule (ISelfD= 2).
 1st derivatives      : Analytical E(r).r(x)/FMM algorithm (CHGder, D1EAlg=3).
                        Cavity 1st derivative terms included.
 Solvent              : Water, Eps=  78.355300 Eps(inf)=   1.777849
 ------------------------------------------------------------------------------
 One-electron integrals computed using PRISM.
 NBasis=   531 RedAO= T EigKep=  4.63D-06  NBF=   531
 NBsUse=   531 1.00D-06 EigRej= -1.00D+00 NBFU=   531
 ExpMin= 3.60D-02 ExpMax= 8.59D+03 ExpMxC= 1.30D+03 IAcc=3 IRadAn=         5 AccDes= 0.00D+00
 Harris functional with IExCor= 1009 and IRadAn=       5 diagonalized for initial guess.
 HarFok:  IExCor= 1009 AccDes= 0.00D+00 IRadAn=         5 IDoV= 1 UseB2=F ITyADJ=14
 ICtDFT=  3500011 ScaDFX=  1.000000  1.000000  1.000000  1.000000
 FoFCou: FMM=F IPFlag=           0 FMFlag=      100000 FMFlg1=           0
         NFxFlg=           0 DoJE=T BraDBF=F KetDBF=T FulRan=T
         wScrn=  0.000000 ICntrl=       500 IOpCl=  0 I1Cent=   200000004 NGrid=           0
         NMat0=    1 NMatS0=      1 NMatT0=    0 NMatD0=    1 NMtDS0=    0 NMtDT0=    0
 Petite list used in FoFCou.
 Requested convergence on RMS density matrix=1.00D-08 within 128 cycles.
 Requested convergence on MAX density matrix=1.00D-06.
 Requested convergence on             energy=1.00D-06.
 No special actions if energy rises.
 Inv3:  Mode=1 IEnd=    12842283.
 Iteration    1 A*A^-1 deviation from unit magnitude is 4.88D-15 for   2053.
 Iteration    1 A*A^-1 deviation from orthogonality  is 3.03D-15 for   2035    984.
 Iteration    1 A^-1*A deviation from unit magnitude is 4.88D-15 for   2053.
 Iteration    1 A^-1*A deviation from orthogonality  is 1.90D-15 for   1708   1654.
 Error on total polarization charges =  0.01485
 SCF Done:  E(RM062X) =  -617.494042000     A.U. after   12 cycles
            NFock= 12  Conv=0.33D-08     -V/T= 2.0035

 **********************************************************************

            Population analysis using the SCF density.

 **********************************************************************

 Orbital symmetries:
       Occupied  (A) (A) (A) (A) (A) (A) (A) (A) (A) (A) (A) (A)
                 (A) (A) (A) (A) (A) (A) (A) (A) (A) (A) (A) (A)
                 (A) (A) (A) (A) (A) (A) (A) (A) (A) (A) (A) (A)
                 (A) (A) (A) (A) (A) (A) (A) (A) (A) (A) (A) (A)
                 (A) (A) (A)
       Virtual   (A) (A) (A) (A) (A) (A) (A) (A) (A) (A) (A) (A)
                 (A) (A) (A) (A) (A) (A) (A) (A) (A) (A) (A) (A)
                 (A) (A) (A) (A) (A) (A) (A) (A) (A) (A) (A) (A)
                 (A) (A) (A) (A) (A) (A) (A) (A) (A) (A) (A) (A)
                 (A) (A) (A) (A) (A) (A) (A) (A) (A) (A) (A) (A)
                 (A) (A) (A) (A) (A) (A) (A) (A) (A) (A) (A) (A)
                 (A) (A) (A) (A) (A) (A) (A) (A) (A) (A) (A) (A)
                 (A) (A) (A) (A) (A) (A) (A) (A) (A) (A) (A) (A)
                 (A) (A) (A) (A) (A) (A) (A) (A) (A) (A) (A) (A)
                 (A) (A) (A) (A) (A) (A) (A) (A) (A) (A) (A) (A)
                 (A) (A) (A) (A) (A) (A) (A) (A) (A) (A) (A) (A)
                 (A) (A) (A) (A) (A) (A) (A) (A) (A) (A) (A) (A)
                 (A) (A) (A) (A) (A) (A) (A) (A) (A) (A) (A) (A)
                 (A) (A) (A) (A) (A) (A) (A) (A) (A) (A) (A) (A)
                 (A) (A) (A) (A) (A) (A) (A) (A) (A) (A) (A) (A)
                 (A) (A) (A) (A) (A) (A) (A) (A) (A) (A) (A) (A)
                 (A) (A) (A) (A) (A) (A) (A) (A) (A) (A) (A) (A)
                 (A) (A) (A) (A) (A) (A) (A) (A) (A) (A) (A) (A)
                 (A) (A) (A) (A) (A) (A) (A) (A) (A) (A) (A) (A)
                 (A) (A) (A) (A) (A) (A) (A) (A) (A) (A) (A) (A)
                 (A) (A) (A) (A) (A) (A) (A) (A) (A) (A) (A) (A)
                 (A) (A) (A) (A) (A) (A) (A) (A) (A) (A) (A) (A)
                 (A) (A) (A) (A) (A) (A) (A) (A) (A) (A) (A) (A)
                 (A) (A) (A) (A) (A) (A) (A) (A) (A) (A) (A) (A)
                 (A) (A) (A) (A) (A) (A) (A) (A) (A) (A) (A) (A)
                 (A) (A) (A) (A) (A) (A) (A) (A) (A) (A) (A) (A)
                 (A) (A) (A) (A) (A) (A) (A) (A) (A) (A) (A) (A)
                 (A) (A) (A) (A) (A) (A) (A) (A) (A) (A) (A) (A)
                 (A) (A) (A) (A) (A) (A) (A) (A) (A) (A) (A) (A)
                 (A) (A) (A) (A) (A) (A) (A) (A) (A) (A) (A) (A)
                 (A) (A) (A) (A) (A) (A) (A) (A) (A) (A) (A) (A)
                 (A) (A) (A) (A) (A) (A) (A) (A) (A) (A) (A) (A)
                 (A) (A) (A) (A) (A) (A) (A) (A) (A) (A) (A) (A)
                 (A) (A) (A) (A) (A) (A) (A) (A) (A) (A) (A) (A)
                 (A) (A) (A) (A) (A) (A) (A) (A) (A) (A) (A) (A)
                 (A) (A) (A) (A) (A) (A) (A) (A) (A) (A) (A) (A)
                 (A) (A) (A) (A) (A) (A) (A) (A) (A) (A) (A) (A)
                 (A) (A) (A) (A) (A) (A) (A) (A) (A) (A) (A) (A)
                 (A) (A) (A) (A) (A) (A) (A) (A) (A) (A) (A) (A)
                 (A) (A) (A) (A) (A) (A) (A) (A) (A) (A) (A) (A)
 The electronic state is 1-A.
 Alpha  occ. eigenvalues --  -19.62870 -19.62758 -19.62524 -10.63384 -10.58765
 Alpha  occ. eigenvalues --  -10.57798 -10.57727 -10.57678 -10.53194 -10.53109
 Alpha  occ. eigenvalues --  -10.52986 -10.52946 -10.52776  -1.20098  -1.16421
 Alpha  occ. eigenvalues --   -1.13453  -0.90884  -0.89759  -0.87294  -0.84546
 Alpha  occ. eigenvalues --   -0.74950  -0.74516  -0.73285  -0.71499  -0.64746
 Alpha  occ. eigenvalues --   -0.63053  -0.59872  -0.59814  -0.57373  -0.56656
 Alpha  occ. eigenvalues --   -0.55021  -0.53036  -0.52561  -0.50655  -0.49774
 Alpha  occ. eigenvalues --   -0.47680  -0.46686  -0.45778  -0.45229  -0.44618
 Alpha  occ. eigenvalues --   -0.44102  -0.42507  -0.42037  -0.40580  -0.39511
 Alpha  occ. eigenvalues --   -0.38549  -0.37061  -0.35947  -0.35382  -0.33388
 Alpha  occ. eigenvalues --   -0.31553
 Alpha virt. eigenvalues --   -0.00128   0.00739   0.00895   0.01088   0.02182
 Alpha virt. eigenvalues --    0.02457   0.02562   0.03446   0.03599   0.04445
 Alpha virt. eigenvalues --    0.04491   0.04705   0.05534   0.05615   0.07117
 Alpha virt. eigenvalues --    0.07387   0.07806   0.08434   0.08542   0.09013
 Alpha virt. eigenvalues --    0.09553   0.10836   0.11156   0.11560   0.12017
 Alpha virt. eigenvalues --    0.12279   0.12556   0.12912   0.13010   0.13339
 Alpha virt. eigenvalues --    0.13579   0.13822   0.13947   0.14371   0.15011
 Alpha virt. eigenvalues --    0.15119   0.15371   0.15818   0.16081   0.16420
 Alpha virt. eigenvalues --    0.16563   0.16956   0.17051   0.17290   0.17962
 Alpha virt. eigenvalues --    0.18366   0.18657   0.19031   0.19305   0.19561
 Alpha virt. eigenvalues --    0.19744   0.20036   0.20356   0.20811   0.21028
 Alpha virt. eigenvalues --    0.21866   0.22149   0.22869   0.23419   0.23801
 Alpha virt. eigenvalues --    0.24638   0.24741   0.25416   0.25853   0.26994
 Alpha virt. eigenvalues --    0.27241   0.28254   0.28683   0.28941   0.29540
 Alpha virt. eigenvalues --    0.30058   0.30288   0.30853   0.31303   0.31986
 Alpha virt. eigenvalues --    0.32465   0.33245   0.33752   0.34432   0.34594
 Alpha virt. eigenvalues --    0.34742   0.35245   0.35606   0.35989   0.36199
 Alpha virt. eigenvalues --    0.36656   0.36960   0.37436   0.38104   0.38575
 Alpha virt. eigenvalues --    0.38991   0.39286   0.39733   0.39936   0.41621
 Alpha virt. eigenvalues --    0.42336   0.42730   0.43810   0.44331   0.44679
 Alpha virt. eigenvalues --    0.45735   0.48541   0.49460   0.50441   0.50810
 Alpha virt. eigenvalues --    0.51594   0.52195   0.53213   0.53628   0.54651
 Alpha virt. eigenvalues --    0.55985   0.56139   0.57017   0.58796   0.58983
 Alpha virt. eigenvalues --    0.59368   0.60232   0.60739   0.60862   0.61507
 Alpha virt. eigenvalues --    0.61957   0.62219   0.63268   0.63444   0.63835
 Alpha virt. eigenvalues --    0.64146   0.64820   0.65680   0.65971   0.66745
 Alpha virt. eigenvalues --    0.67286   0.68137   0.68916   0.69398   0.69876
 Alpha virt. eigenvalues --    0.70526   0.71116   0.72416   0.72825   0.72936
 Alpha virt. eigenvalues --    0.73597   0.74065   0.74786   0.75199   0.75231
 Alpha virt. eigenvalues --    0.75795   0.76902   0.77722   0.78194   0.78931
 Alpha virt. eigenvalues --    0.79597   0.81413   0.83095   0.85205   0.85472
 Alpha virt. eigenvalues --    0.86535   0.87684   0.87826   0.88654   0.89780
 Alpha virt. eigenvalues --    0.90647   0.92415   0.93320   0.94207   0.94974
 Alpha virt. eigenvalues --    0.97542   0.98158   0.99896   1.00950   1.01996
 Alpha virt. eigenvalues --    1.02126   1.03315   1.04742   1.05011   1.06151
 Alpha virt. eigenvalues --    1.08082   1.09155   1.10025   1.10278   1.11979
 Alpha virt. eigenvalues --    1.13043   1.13925   1.14624   1.16159   1.16881
 Alpha virt. eigenvalues --    1.17357   1.19452   1.19804   1.20738   1.21037
 Alpha virt. eigenvalues --    1.21843   1.22296   1.22757   1.24257   1.24321
 Alpha virt. eigenvalues --    1.25561   1.25996   1.26184   1.26511   1.27290
 Alpha virt. eigenvalues --    1.27627   1.28399   1.29264   1.30559   1.30746
 Alpha virt. eigenvalues --    1.31453   1.32565   1.33357   1.33703   1.35100
 Alpha virt. eigenvalues --    1.35666   1.36013   1.36280   1.37313   1.37710
 Alpha virt. eigenvalues --    1.38690   1.39208   1.40073   1.40600   1.40825
 Alpha virt. eigenvalues --    1.41977   1.43293   1.44010   1.44788   1.45152
 Alpha virt. eigenvalues --    1.45893   1.46111   1.47135   1.47385   1.47960
 Alpha virt. eigenvalues --    1.48830   1.48979   1.50244   1.50936   1.52023
 Alpha virt. eigenvalues --    1.52259   1.53787   1.54102   1.54651   1.55394
 Alpha virt. eigenvalues --    1.56111   1.56939   1.57410   1.57928   1.58767
 Alpha virt. eigenvalues --    1.59170   1.59715   1.60104   1.60762   1.61502
 Alpha virt. eigenvalues --    1.62048   1.63421   1.64110   1.65527   1.66920
 Alpha virt. eigenvalues --    1.67416   1.68701   1.68974   1.69148   1.71731
 Alpha virt. eigenvalues --    1.72667   1.73813   1.74333   1.75414   1.75797
 Alpha virt. eigenvalues --    1.77670   1.79508   1.80731   1.81258   1.81899
 Alpha virt. eigenvalues --    1.84587   1.87533   1.88131   1.96164   1.97128
 Alpha virt. eigenvalues --    2.02216   2.08665   2.09297   2.14633   2.20384
 Alpha virt. eigenvalues --    2.22225   2.26376   2.29384   2.33043   2.39188
 Alpha virt. eigenvalues --    2.41653   2.42883   2.44319   2.46910   2.52071
 Alpha virt. eigenvalues --    2.58992   2.76604   2.77692   2.80239   2.83391
 Alpha virt. eigenvalues --    2.83988   2.86647   2.89588   2.91569   2.92914
 Alpha virt. eigenvalues --    2.93798   2.95678   2.96426   3.02118   3.02962
 Alpha virt. eigenvalues --    3.04241   3.07015   3.08732   3.10605   3.11105
 Alpha virt. eigenvalues --    3.12550   3.14498   3.15447   3.17602   3.19905
 Alpha virt. eigenvalues --    3.23852   3.29815   3.31380   3.32671   3.33331
 Alpha virt. eigenvalues --    3.34892   3.36017   3.36738   3.38057   3.40120
 Alpha virt. eigenvalues --    3.40684   3.42764   3.43343   3.44860   3.45478
 Alpha virt. eigenvalues --    3.46687   3.49389   3.49748   3.50422   3.50690
 Alpha virt. eigenvalues --    3.51478   3.53115   3.53656   3.54850   3.56002
 Alpha virt. eigenvalues --    3.56563   3.57767   3.58003   3.58606   3.59338
 Alpha virt. eigenvalues --    3.59838   3.61559   3.63253   3.63741   3.64941
 Alpha virt. eigenvalues --    3.65288   3.66696   3.68130   3.68491   3.69063
 Alpha virt. eigenvalues --    3.69862   3.70885   3.71263   3.72790   3.73920
 Alpha virt. eigenvalues --    3.74925   3.75418   3.77467   3.77606   3.80005
 Alpha virt. eigenvalues --    3.80212   3.81039   3.81862   3.82728   3.84394
 Alpha virt. eigenvalues --    3.85952   3.87563   3.88972   3.89946   3.90963
 Alpha virt. eigenvalues --    3.93578   3.94613   3.96975   3.97371   3.98472
 Alpha virt. eigenvalues --    3.99449   4.00358   4.01823   4.03309   4.03684
 Alpha virt. eigenvalues --    4.04558   4.05476   4.07027   4.07456   4.07947
 Alpha virt. eigenvalues --    4.08294   4.09116   4.09541   4.10070   4.11827
 Alpha virt. eigenvalues --    4.12094   4.13298   4.13594   4.14497   4.15394
 Alpha virt. eigenvalues --    4.15998   4.16873   4.17892   4.18923   4.19384
 Alpha virt. eigenvalues --    4.21858   4.22745   4.24907   4.25731   4.27192
 Alpha virt. eigenvalues --    4.28625   4.29489   4.30037   4.31702   4.32569
 Alpha virt. eigenvalues --    4.33317   4.34146   4.34664   4.36445   4.36713
 Alpha virt. eigenvalues --    4.40412   4.42066   4.43718   4.46726   4.48199
 Alpha virt. eigenvalues --    4.57522   4.62207   4.74010   4.75316   4.82478
 Alpha virt. eigenvalues --    4.85058   4.93097   4.95173   5.00134   5.01232
 Alpha virt. eigenvalues --    5.04751   5.07145   5.07668   5.11339   5.12827
 Alpha virt. eigenvalues --    5.13962   5.14508   5.16273   5.32811   5.39027
 Alpha virt. eigenvalues --    5.43162   5.57026   5.61558   5.63786   5.85368
 Alpha virt. eigenvalues --    5.87816   6.06948   7.02068   7.04709   7.07374
 Alpha virt. eigenvalues --    7.09523   7.10297   7.11255   7.16399   7.17603
 Alpha virt. eigenvalues --    7.27111   7.35557   7.37732   7.43635   7.53024
 Alpha virt. eigenvalues --    7.54781   7.66090  23.96539  23.97452  24.05468
 Alpha virt. eigenvalues --   24.07681  24.10820  24.11761  24.12421  24.15094
 Alpha virt. eigenvalues --   24.17370  24.19957  50.15533  50.18601  50.24719
          Condensed to atoms (all electrons):
               1          2          3          4          5          6
     1  C    8.495686   0.080947   0.017252  -0.884246  -1.422210   0.053345
     2  C    0.080947   5.563960  -0.002701  -0.135279  -0.053544   0.019961
     3  O    0.017252  -0.002701   8.201707  -0.044508   0.019853  -0.053156
     4  C   -0.884246  -0.135279  -0.044508   6.433784   0.174809  -0.052140
     5  C   -1.422210  -0.053544   0.019853   0.174809   6.771867  -0.184249
     6  O    0.053345   0.019961  -0.053156  -0.052140  -0.184249   8.273624
     7  C    0.085441   0.002325  -0.076106  -0.042146  -0.043466  -0.012908
     8  C   -0.025162   0.001329  -0.003661   0.014401  -0.001142  -0.039871
     9  C   -1.124258   0.035423   0.339614   0.177470   0.340619   0.262775
    10  C    0.028644  -0.002821  -0.073027   0.021282   0.008149  -0.010592
    11  C    0.154889  -0.000737   0.135702  -0.041794  -0.027042   0.010477
    12  C    0.270154  -0.203332   0.002769  -0.055586  -0.121295  -0.008968
    13  O   -0.043203   0.063734  -0.000901   0.120029  -0.034851   0.020049
    14  H    0.551190  -0.006057  -0.014052  -0.065771  -0.066343  -0.029570
    15  H    0.051549   0.524796   0.000067  -0.035478  -0.035939  -0.000040
    16  H   -0.016268   0.412234  -0.000120   0.016036  -0.004272   0.001254
    17  H   -0.020165   0.021586   0.008318   0.426564  -0.028376  -0.019373
    18  H   -0.094318   0.036350  -0.003631   0.437478   0.018209   0.015157
    19  H   -0.108006  -0.033830   0.000710  -0.017921   0.521211  -0.007752
    20  H   -0.055838   0.000463  -0.000069   0.017727   0.438277   0.004689
    21  H   -0.007797   0.000657   0.009979   0.003974  -0.001361  -0.007382
    22  H    0.013033  -0.000062  -0.008891  -0.005025   0.001315   0.009910
    23  H   -0.012486   0.000826   0.001255   0.000776   0.003589  -0.004607
    24  H   -0.001200   0.000056  -0.004783   0.001129  -0.000412   0.000474
    25  H   -0.025743   0.003479  -0.053531   0.000887  -0.003836  -0.021905
    26  H    0.001165   0.000104   0.010519   0.002713  -0.001271   0.000813
    27  H   -0.007081   0.000025  -0.000493   0.000140   0.000860  -0.001168
    28  H    0.006132  -0.000160  -0.071667   0.001194  -0.000717   0.001277
    29  H   -0.023169   0.000193  -0.038815  -0.022940   0.013561   0.014077
    30  H   -0.065185  -0.084685   0.000294  -0.005454   0.003862   0.000235
    31  H    0.018357  -0.019863   0.000150   0.000370  -0.045942  -0.001892
               7          8          9         10         11         12
     1  C    0.085441  -0.025162  -1.124258   0.028644   0.154889   0.270154
     2  C    0.002325   0.001329   0.035423  -0.002821  -0.000737  -0.203332
     3  O   -0.076106  -0.003661   0.339614  -0.073027   0.135702   0.002769
     4  C   -0.042146   0.014401   0.177470   0.021282  -0.041794  -0.055586
     5  C   -0.043466  -0.001142   0.340619   0.008149  -0.027042  -0.121295
     6  O   -0.012908  -0.039871   0.262775  -0.010592   0.010477  -0.008968
     7  C    6.702550  -0.235910  -0.831189  -0.057103   0.133095   0.008626
     8  C   -0.235910   5.739911   0.006242  -0.059029   0.064645  -0.002441
     9  C   -0.831189   0.006242   7.043305   0.128848  -0.472250  -0.150877
    10  C   -0.057103  -0.059029   0.128848   5.858526  -0.176017   0.002329
    11  C    0.133095   0.064645  -0.472250  -0.176017   5.529788   0.003909
    12  C    0.008626  -0.002441  -0.150877   0.002329   0.003909   5.793846
    13  O    0.004449   0.000037   0.000224  -0.001287   0.002394   0.044222
    14  H   -0.022756   0.002462  -0.051805   0.001118   0.012839   0.027769
    15  H    0.000342  -0.000012  -0.005030  -0.000248   0.000810  -0.094937
    16  H    0.000183   0.000115   0.003411   0.000266  -0.001045   0.008192
    17  H   -0.005673   0.010937  -0.014661  -0.022322   0.020057  -0.005898
    18  H    0.007669  -0.003662   0.029165   0.003159  -0.007763  -0.044567
    19  H   -0.002012   0.004023  -0.007897  -0.001077   0.001870  -0.000199
    20  H    0.001155  -0.000731   0.017327  -0.000095  -0.001036  -0.028004
    21  H    0.399586  -0.030525  -0.002740  -0.012320   0.013502  -0.003319
    22  H    0.547300  -0.017159  -0.162476  -0.011155   0.011763   0.000800
    23  H   -0.042788   0.501823  -0.001999  -0.058826  -0.003379  -0.000616
    24  H   -0.043674   0.418340   0.015437  -0.026546   0.012975   0.000153
    25  H   -0.051804  -0.004099   0.508842   0.015530  -0.032440  -0.004745
    26  H   -0.005296  -0.035785  -0.001915   0.430882  -0.032424  -0.000054
    27  H   -0.017205  -0.024924   0.017946   0.487638  -0.087459  -0.000158
    28  H   -0.001906   0.008535  -0.011524  -0.017224   0.428802   0.000372
    29  H    0.012955  -0.002554   0.022083  -0.074965   0.473795  -0.001615
    30  H    0.000453   0.000577   0.004086  -0.000046  -0.000374   0.519507
    31  H    0.000823  -0.000478  -0.002577  -0.000031   0.000333   0.405913
              13         14         15         16         17         18
     1  C   -0.043203   0.551190   0.051549  -0.016268  -0.020165  -0.094318
     2  C    0.063734  -0.006057   0.524796   0.412234   0.021586   0.036350
     3  O   -0.000901  -0.014052   0.000067  -0.000120   0.008318  -0.003631
     4  C    0.120029  -0.065771  -0.035478   0.016036   0.426564   0.437478
     5  C   -0.034851  -0.066343  -0.035939  -0.004272  -0.028376   0.018209
     6  O    0.020049  -0.029570  -0.000040   0.001254  -0.019373   0.015157
     7  C    0.004449  -0.022756   0.000342   0.000183  -0.005673   0.007669
     8  C    0.000037   0.002462  -0.000012   0.000115   0.010937  -0.003662
     9  C    0.000224  -0.051805  -0.005030   0.003411  -0.014661   0.029165
    10  C   -0.001287   0.001118  -0.000248   0.000266  -0.022322   0.003159
    11  C    0.002394   0.012839   0.000810  -0.001045   0.020057  -0.007763
    12  C    0.044222   0.027769  -0.094937   0.008192  -0.005898  -0.044567
    13  O    8.370159   0.007614  -0.067766  -0.076251  -0.072412  -0.030020
    14  H    0.007614   0.453916   0.001557  -0.000062   0.003659  -0.009110
    15  H   -0.067766   0.001557   0.524510  -0.027835  -0.000485   0.007466
    16  H   -0.076251  -0.000062  -0.027835   0.510633  -0.000561  -0.003316
    17  H   -0.072412   0.003659  -0.000485  -0.000561   0.502527  -0.017903
    18  H   -0.030020  -0.009110   0.007466  -0.003316  -0.017903   0.488609
    19  H   -0.000030   0.003567  -0.004190   0.006174  -0.000409  -0.000885
    20  H   -0.000040  -0.010780   0.001221  -0.002015   0.000607   0.000156
    21  H    0.000310  -0.000112   0.000027  -0.000020   0.000181   0.000007
    22  H    0.000003   0.001293   0.000007  -0.000011   0.000169  -0.000017
    23  H    0.000465  -0.000901   0.000015  -0.000063   0.000398   0.000390
    24  H    0.000084  -0.000108  -0.000004   0.000016   0.000114   0.000049
    25  H   -0.001070   0.003566  -0.000286   0.000215  -0.003614   0.001808
    26  H    0.000022   0.000608   0.000012  -0.000019   0.000395  -0.000127
    27  H   -0.000011  -0.001099  -0.000004   0.000005   0.000649   0.000066
    28  H    0.000309   0.001760   0.000069  -0.000046  -0.000717  -0.000098
    29  H   -0.003263  -0.003527  -0.000498   0.000631  -0.003659   0.002085
    30  H    0.001022  -0.005465  -0.015565   0.007629  -0.000430  -0.006975
    31  H    0.009657   0.001281   0.002366  -0.009020   0.001634  -0.001024
              19         20         21         22         23         24
     1  C   -0.108006  -0.055838  -0.007797   0.013033  -0.012486  -0.001200
     2  C   -0.033830   0.000463   0.000657  -0.000062   0.000826   0.000056
     3  O    0.000710  -0.000069   0.009979  -0.008891   0.001255  -0.004783
     4  C   -0.017921   0.017727   0.003974  -0.005025   0.000776   0.001129
     5  C    0.521211   0.438277  -0.001361   0.001315   0.003589  -0.000412
     6  O   -0.007752   0.004689  -0.007382   0.009910  -0.004607   0.000474
     7  C   -0.002012   0.001155   0.399586   0.547300  -0.042788  -0.043674
     8  C    0.004023  -0.000731  -0.030525  -0.017159   0.501823   0.418340
     9  C   -0.007897   0.017327  -0.002740  -0.162476  -0.001999   0.015437
    10  C   -0.001077  -0.000095  -0.012320  -0.011155  -0.058826  -0.026546
    11  C    0.001870  -0.001036   0.013502   0.011763  -0.003379   0.012975
    12  C   -0.000199  -0.028004  -0.003319   0.000800  -0.000616   0.000153
    13  O   -0.000030  -0.000040   0.000310   0.000003   0.000465   0.000084
    14  H    0.003567  -0.010780  -0.000112   0.001293  -0.000901  -0.000108
    15  H   -0.004190   0.001221   0.000027   0.000007   0.000015  -0.000004
    16  H    0.006174  -0.002015  -0.000020  -0.000011  -0.000063   0.000016
    17  H   -0.000409   0.000607   0.000181   0.000169   0.000398   0.000114
    18  H   -0.000885   0.000156   0.000007  -0.000017   0.000390   0.000049
    19  H    0.463246  -0.016416   0.000102   0.000131  -0.001265   0.000139
    20  H   -0.016416   0.482972   0.000164  -0.000090   0.000313  -0.000079
    21  H    0.000102   0.000164   0.480831  -0.005559  -0.002611  -0.008380
    22  H    0.000131  -0.000090  -0.005559   0.453149   0.002051  -0.002886
    23  H   -0.001265   0.000313  -0.002611   0.002051   0.456533  -0.004807
    24  H    0.000139  -0.000079  -0.008380  -0.002886  -0.004807   0.465860
    25  H   -0.000254  -0.005054  -0.010184  -0.012362  -0.001585   0.002133
    26  H   -0.000003  -0.000048   0.001740  -0.002552  -0.004402  -0.006526
    27  H   -0.000041   0.000039  -0.002092  -0.003282   0.001638  -0.001289
    28  H    0.000206  -0.000118   0.001152   0.000510  -0.002456   0.001942
    29  H    0.000775   0.000281   0.000054  -0.001074  -0.002430  -0.002570
    30  H    0.003300  -0.002926  -0.000003  -0.000042  -0.000052   0.000018
    31  H    0.002055  -0.011182  -0.000062   0.000061   0.000062  -0.000011
              25         26         27         28         29         30
     1  C   -0.025743   0.001165  -0.007081   0.006132  -0.023169  -0.065185
     2  C    0.003479   0.000104   0.000025  -0.000160   0.000193  -0.084685
     3  O   -0.053531   0.010519  -0.000493  -0.071667  -0.038815   0.000294
     4  C    0.000887   0.002713   0.000140   0.001194  -0.022940  -0.005454
     5  C   -0.003836  -0.001271   0.000860  -0.000717   0.013561   0.003862
     6  O   -0.021905   0.000813  -0.001168   0.001277   0.014077   0.000235
     7  C   -0.051804  -0.005296  -0.017205  -0.001906   0.012955   0.000453
     8  C   -0.004099  -0.035785  -0.024924   0.008535  -0.002554   0.000577
     9  C    0.508842  -0.001915   0.017946  -0.011524   0.022083   0.004086
    10  C    0.015530   0.430882   0.487638  -0.017224  -0.074965  -0.000046
    11  C   -0.032440  -0.032424  -0.087459   0.428802   0.473795  -0.000374
    12  C   -0.004745  -0.000054  -0.000158   0.000372  -0.001615   0.519507
    13  O   -0.001070   0.000022  -0.000011   0.000309  -0.003263   0.001022
    14  H    0.003566   0.000608  -0.001099   0.001760  -0.003527  -0.005465
    15  H   -0.000286   0.000012  -0.000004   0.000069  -0.000498  -0.015565
    16  H    0.000215  -0.000019   0.000005  -0.000046   0.000631   0.007629
    17  H   -0.003614   0.000395   0.000649  -0.000717  -0.003659  -0.000430
    18  H    0.001808  -0.000127   0.000066  -0.000098   0.002085  -0.006975
    19  H   -0.000254  -0.000003  -0.000041   0.000206   0.000775   0.003300
    20  H   -0.005054  -0.000048   0.000039  -0.000118   0.000281  -0.002926
    21  H   -0.010184   0.001740  -0.002092   0.001152   0.000054  -0.000003
    22  H   -0.012362  -0.002552  -0.003282   0.000510  -0.001074  -0.000042
    23  H   -0.001585  -0.004402   0.001638  -0.002456  -0.002430  -0.000052
    24  H    0.002133  -0.006526  -0.001289   0.001942  -0.002570   0.000018
    25  H    0.453936   0.000674   0.001314  -0.000574   0.000504   0.000079
    26  H    0.000674   0.487930  -0.011784  -0.008564  -0.000029  -0.000011
    27  H    0.001314  -0.011784   0.485226  -0.008028   0.003405   0.000013
    28  H   -0.000574  -0.008564  -0.008028   0.478890  -0.018069  -0.000039
    29  H    0.000504  -0.000029   0.003405  -0.018069   0.526439   0.000344
    30  H    0.000079  -0.000011   0.000013  -0.000039   0.000344   0.467506
    31  H   -0.000232  -0.000008  -0.000001   0.000014  -0.000041  -0.005892
              31
     1  C    0.018357
     2  C   -0.019863
     3  O    0.000150
     4  C    0.000370
     5  C   -0.045942
     6  O   -0.001892
     7  C    0.000823
     8  C   -0.000478
     9  C   -0.002577
    10  C   -0.000031
    11  C    0.000333
    12  C    0.405913
    13  O    0.009657
    14  H    0.001281
    15  H    0.002366
    16  H   -0.009020
    17  H    0.001634
    18  H   -0.001024
    19  H    0.002055
    20  H   -0.011182
    21  H   -0.000062
    22  H    0.000061
    23  H    0.000062
    24  H   -0.000011
    25  H   -0.000232
    26  H   -0.000008
    27  H   -0.000001
    28  H    0.000014
    29  H   -0.000041
    30  H   -0.005892
    31  H    0.482944
 Mulliken charges:
               1
     1  C    0.108551
     2  C   -0.225376
     3  O   -0.298079
     4  C   -0.442472
     5  C   -0.239915
     6  O   -0.232544
     7  C   -0.415009
     8  C   -0.286232
     9  C   -0.111618
    10  C   -0.381643
    11  C   -0.127886
    12  C   -0.361950
    13  O   -0.313677
    14  H    0.213321
    15  H    0.173505
    16  H    0.173930
    17  H    0.218863
    18  H    0.175593
    19  H    0.194679
    20  H    0.169131
    21  H    0.182200
    22  H    0.191149
    23  H    0.175136
    24  H    0.184356
    25  H    0.240352
    26  H    0.173242
    27  H    0.167156
    28  H    0.210742
    29  H    0.128037
    30  H    0.184220
    31  H    0.172239
 Sum of Mulliken charges =  -0.00000
 Mulliken charges with hydrogens summed into heavy atoms:
               1
     1  C    0.321872
     2  C    0.122059
     3  O   -0.298079
     4  C   -0.048016
     5  C    0.123895
     6  O   -0.232544
     7  C   -0.041661
     8  C    0.073260
     9  C    0.128734
    10  C   -0.041245
    11  C    0.210892
    12  C   -0.005491
    13  O   -0.313677
 Electronic spatial extent (au):  <R**2>=           3024.3171
 Charge=              0.0000 electrons
 Dipole moment (field-independent basis, Debye):
    X=              0.3043    Y=              1.5121    Z=             -1.0800  Tot=              1.8829
 Quadrupole moment (field-independent basis, Debye-Ang):
   XX=            -68.3564   YY=            -78.4873   ZZ=            -83.3176
   XY=              3.8038   XZ=             -5.6706   YZ=              0.4316
 Traceless Quadrupole moment (field-independent basis, Debye-Ang):
   XX=              8.3640   YY=             -1.7668   ZZ=             -6.5972
   XY=              3.8038   XZ=             -5.6706   YZ=              0.4316
 Octapole moment (field-independent basis, Debye-Ang**2):
  XXX=             17.9435  YYY=             -0.7058  ZZZ=              1.6371  XYY=            -10.7670
  XXY=              5.7293  XXZ=              4.4655  XZZ=              6.2424  YZZ=              3.7567
  YYZ=             -6.8586  XYZ=              7.2631
 Hexadecapole moment (field-independent basis, Debye-Ang**3):
 XXXX=          -2925.2030 YYYY=           -602.5780 ZZZZ=           -351.8058 XXXY=              9.9824
 XXXZ=             13.1720 YYYX=             15.8459 YYYZ=              5.7263 ZZZX=              1.3462
 ZZZY=             -3.7239 XXYY=           -607.9695 XXZZ=           -575.8969 YYZZ=           -157.2876
 XXYZ=             14.2490 YYXZ=             -2.4235 ZZXY=              0.3739
 N-N= 8.950626567389D+02 E-N=-3.232200668466D+03  KE= 6.153401172522D+02
 D1PCM: PCM CHGder 1st derivatives, ID1Alg=3 FixD1E=F DoIter=F DoCFld=F I1PDM=0.
 Calling FoFJK, ICntrl=      2127 FMM=F ISym2X=0 I1Cent= 0 IOpClX= 0 NMat=1 NMatS=1 NMatT=0.
 ***** Axes restored to original set *****
 -------------------------------------------------------------------
 Center     Atomic                   Forces (Hartrees/Bohr)
 Number     Number              X              Y              Z
 -------------------------------------------------------------------
      1        6          -0.001192669   -0.000689137    0.002200475
      2        6          -0.003839071    0.002915323   -0.004479759
      3        8           0.000419328   -0.001881206   -0.010903692
      4        6           0.005140130    0.005230290    0.001078451
      5        6           0.002059997   -0.003078068   -0.001900584
      6        8           0.000396361    0.001738197    0.011125761
      7        6           0.000988143   -0.002028783    0.001745358
      8        6           0.000787910   -0.000755522   -0.003796380
      9        6          -0.002738357   -0.004530621    0.005956088
     10        6           0.002613740    0.000322300    0.001330805
     11        6          -0.002499407    0.006370507    0.001718017
     12        6          -0.001254963   -0.000459191    0.001660930
     13        8          -0.004031698   -0.003510271    0.007912714
     14        1          -0.000524836    0.001243448   -0.006712894
     15        1           0.003906862   -0.002570338   -0.002959539
     16        1           0.001329353    0.001208707    0.004419049
     17        1          -0.005550601   -0.002235606    0.000691151
     18        1           0.002442423   -0.001489237   -0.005720403
     19        1          -0.001424400   -0.000922531    0.003547441
     20        1          -0.000528574    0.002365624   -0.001317481
     21        1           0.001498986    0.002245396    0.001601248
     22        1          -0.002421544    0.000571936   -0.002373464
     23        1           0.003042548   -0.000946253    0.001639876
     24        1          -0.002035575    0.001098642    0.001103185
     25        1           0.001359647    0.004113943   -0.006631111
     26        1          -0.001132882   -0.001719707    0.001952238
     27        1          -0.001925413    0.001005381   -0.002486253
     28        1          -0.001367385   -0.003297557   -0.002559667
     29        1           0.004511671   -0.001657816    0.005053243
     30        1           0.000118290   -0.000625419   -0.003401505
     31        1           0.001851987    0.001967569    0.000506701
 -------------------------------------------------------------------
 Cartesian Forces:  Max     0.011125761 RMS     0.003318459

 GradGradGradGradGradGradGradGradGradGradGradGradGradGradGradGradGradGrad
 Berny optimization.
 FormGI is forming the generalized inverse of G from B-inverse, IUseBI=4.
 Internal  Forces:  Max     0.010328910 RMS     0.001987343
 Search for a local minimum.
 Step number   1 out of a maximum of  186
 All quantities printed in internal units (Hartrees-Bohrs-Radians)
 Mixed Optimization -- RFO/linear search
 Second derivative matrix not updated -- first step.
 ITU=  0
     Eigenvalues ---    0.00431   0.00615   0.00634   0.00730   0.01393
     Eigenvalues ---    0.01437   0.01735   0.02693   0.02808   0.03078
     Eigenvalues ---    0.03355   0.04094   0.04185   0.04595   0.04753
     Eigenvalues ---    0.04754   0.04889   0.04921   0.05107   0.05139
     Eigenvalues ---    0.05266   0.05635   0.05703   0.05989   0.06195
     Eigenvalues ---    0.06233   0.06453   0.06875   0.07559   0.07821
     Eigenvalues ---    0.07825   0.07863   0.07924   0.08099   0.08296
     Eigenvalues ---    0.08859   0.09298   0.10195   0.11206   0.11631
     Eigenvalues ---    0.11670   0.11767   0.11783   0.12414   0.12673
     Eigenvalues ---    0.14766   0.14826   0.16551   0.17863   0.19247
     Eigenvalues ---    0.19757   0.21975   0.22487   0.25000   0.27105
     Eigenvalues ---    0.27728   0.28607   0.28692   0.28915   0.28995
     Eigenvalues ---    0.29406   0.30353   0.35095   0.35173   0.35205
     Eigenvalues ---    0.35242   0.35245   0.35252   0.35282   0.35295
     Eigenvalues ---    0.35320   0.35432   0.35443   0.35452   0.35517
     Eigenvalues ---    0.35556   0.35775   0.35844   0.35885   0.36142
     Eigenvalues ---    0.40163   0.40728   0.41539   0.42169   0.43348
     Eigenvalues ---    0.461601000.000001000.000001000.000001000.00000
     Eigenvalues --- 1000.000001000.000001000.000001000.000001000.00000
     Eigenvalues --- 1000.000001000.000001000.000001000.000001000.00000
     Eigenvalues --- 1000.000001000.000001000.000001000.000001000.00000
     Eigenvalues --- 1000.000001000.000001000.000001000.000001000.00000
     Eigenvalues --- 1000.000001000.000001000.000001000.000001000.00000
     Eigenvalues --- 1000.000001000.000001000.000001000.000001000.00000
     Eigenvalues --- 1000.000001000.000001000.000001000.000001000.00000
     Eigenvalues --- 1000.000001000.000001000.000001000.000001000.00000
     Eigenvalues --- 1000.000001000.000001000.000001000.000001000.00000
     Eigenvalues --- 1000.000001000.000001000.000001000.000001000.00000
     Eigenvalues --- 1000.000001000.000001000.000001000.000001000.00000
     Eigenvalues --- 1000.000001000.000001000.000001000.000001000.00000
     Eigenvalues --- 1000.000001000.000001000.000001000.000001000.00000
     Eigenvalues --- 1000.000001000.000001000.000001000.000001000.00000
     Eigenvalues --- 1000.000001000.000001000.000001000.000001000.00000
     Eigenvalues --- 1000.000001000.000001000.000001000.000001000.00000
     Eigenvalues --- 1000.000001000.000001000.000001000.000001000.00000
     Eigenvalues --- 1000.000001000.000001000.000001000.000001000.00000
     Eigenvalues --- 1000.000001000.000001000.000001000.000001000.00000
 RFO step:  Lambda=-3.19564762D-03 EMin= 4.30875690D-03
 Linear search not attempted -- first point.
 Iteration  1 RMS(Cart)=  0.05906683 RMS(Int)=  0.00079419
 Iteration  2 RMS(Cart)=  0.00209421 RMS(Int)=  0.00005159
 Iteration  3 RMS(Cart)=  0.00000146 RMS(Int)=  0.00005158
 Iteration  4 RMS(Cart)=  0.00000000 RMS(Int)=  0.00005158
 Iteration  1 RMS(Cart)=  0.00001295 RMS(Int)=  0.00000303
 Iteration  2 RMS(Cart)=  0.00000722 RMS(Int)=  0.00000338
 Iteration  3 RMS(Cart)=  0.00000402 RMS(Int)=  0.00000383
 Iteration  4 RMS(Cart)=  0.00000224 RMS(Int)=  0.00000413
 Iteration  5 RMS(Cart)=  0.00000125 RMS(Int)=  0.00000431
 Iteration  6 RMS(Cart)=  0.00000070 RMS(Int)=  0.00000441
 Variable       Old X    -DE/DX   Delta X   Delta X   Delta X     New X
                                 (Linear)    (Quad)   (Total)
    R1        2.89262   0.00009   0.00000  -0.00039  -0.00040   2.89222
    R2        2.89194  -0.00112   0.00000  -0.00547  -0.00548   2.88646
    R3        2.68708   0.00094   0.00000   0.00221   0.00221   2.68928
    R4        2.04782   0.00683   0.00000   0.01905   0.01905   2.06687
    R5        2.89700   0.00062   0.00000   0.00339   0.00339   2.90039
    R6        2.68372   0.00347   0.00000   0.00962   0.00962   2.69334
    R7        2.05220   0.00543   0.00000   0.01527   0.01527   2.06746
    R8        2.04435   0.00475   0.00000   0.01315   0.01315   2.05750
    R9        2.65474   0.00383   0.00000   0.00812   0.00813   2.66287
   R10        2.68824   0.00270   0.00000   0.00621   0.00621   2.69445
   R11        2.66699   0.00271   0.00000   0.00636   0.00637   2.67336
   R12        2.03861   0.00577   0.00000   0.01581   0.01581   2.05442
   R13        2.05267   0.00633   0.00000   0.01780   0.01780   2.07047
   R14        2.88563  -0.00029   0.00000  -0.00217  -0.00217   2.88346
   R15        2.05199   0.00361   0.00000   0.01013   0.01013   2.06212
   R16        2.04979   0.00274   0.00000   0.00766   0.00766   2.05745
   R17        2.63951   0.00271   0.00000   0.00584   0.00584   2.64535
   R18        2.88876  -0.00139   0.00000  -0.00445  -0.00446   2.88430
   R19        2.87508  -0.00073   0.00000  -0.00257  -0.00259   2.87249
   R20        2.04948   0.00312   0.00000   0.00871   0.00871   2.05819
   R21        2.05344   0.00338   0.00000   0.00952   0.00952   2.06295
   R22        2.88750  -0.00081   0.00000  -0.00215  -0.00216   2.88534
   R23        2.05395   0.00341   0.00000   0.00960   0.00960   2.06355
   R24        2.05158   0.00256   0.00000   0.00718   0.00718   2.05876
   R25        2.04262   0.00786   0.00000   0.02172   0.02172   2.06434
   R26        2.87035   0.00009   0.00000   0.00044   0.00046   2.87081
   R27        2.05284   0.00281   0.00000   0.00791   0.00791   2.06075
   R28        2.05520   0.00322   0.00000   0.00909   0.00909   2.06430
   R29        2.04326   0.00439   0.00000   0.01215   0.01215   2.05541
   R30        2.04844   0.00688   0.00000   0.01919   0.01919   2.06763
   R31        2.05279   0.00343   0.00000   0.00964   0.00964   2.06243
   R32        2.04962   0.00272   0.00000   0.00760   0.00760   2.05722
    A1        1.91648   0.00044   0.00000  -0.00313  -0.00323   1.91325
    A2        1.95188  -0.00169   0.00000  -0.00678  -0.00674   1.94514
    A3        1.88721   0.00030   0.00000   0.00250   0.00255   1.88976
    A4        1.89266   0.00113   0.00000   0.00371   0.00374   1.89640
    A5        1.92224  -0.00071   0.00000  -0.00143  -0.00143   1.92081
    A6        1.89336   0.00050   0.00000   0.00517   0.00515   1.89852
    A7        1.95129   0.00180   0.00000   0.00600   0.00589   1.95718
    A8        1.93885  -0.00106   0.00000  -0.00629  -0.00631   1.93254
    A9        1.93243  -0.00091   0.00000  -0.00588  -0.00585   1.92658
   A10        1.90395   0.00046   0.00000   0.00704   0.00710   1.91105
   A11        1.84293  -0.00087   0.00000  -0.00227  -0.00224   1.84069
   A12        1.89104   0.00059   0.00000   0.00171   0.00167   1.89271
   A13        2.03002  -0.00559   0.00000  -0.03586  -0.03578   1.99425
   A14        1.94067   0.00073   0.00000  -0.00101  -0.00119   1.93948
   A15        1.93718  -0.00203   0.00000  -0.01940  -0.01939   1.91779
   A16        1.91720  -0.00037   0.00000   0.00237   0.00235   1.91955
   A17        1.86844  -0.00012   0.00000   0.00170   0.00164   1.87007
   A18        1.90987   0.00119   0.00000   0.01388   0.01390   1.92377
   A19        1.88913   0.00065   0.00000   0.00292   0.00286   1.89199
   A20        1.91846  -0.00080   0.00000  -0.00812  -0.00828   1.91018
   A21        1.89394  -0.00022   0.00000  -0.00940  -0.00938   1.88456
   A22        1.92187  -0.00020   0.00000   0.00070   0.00079   1.92266
   A23        1.91019   0.00089   0.00000   0.00367   0.00363   1.91382
   A24        1.94479   0.00013   0.00000   0.00576   0.00578   1.95057
   A25        1.87337   0.00022   0.00000   0.00738   0.00733   1.88070
   A26        2.04422  -0.01033   0.00000  -0.04079  -0.04079   2.00343
   A27        1.96015  -0.00167   0.00000  -0.01462  -0.01476   1.94539
   A28        1.94855  -0.00027   0.00000  -0.00161  -0.00171   1.94684
   A29        1.90732   0.00119   0.00000   0.00729   0.00738   1.91470
   A30        1.89839   0.00075   0.00000  -0.00092  -0.00090   1.89750
   A31        1.87094   0.00008   0.00000   0.00395   0.00396   1.87490
   A32        1.87498   0.00001   0.00000   0.00708   0.00705   1.88202
   A33        1.91026   0.00191   0.00000  -0.00106  -0.00105   1.90921
   A34        1.92343  -0.00095   0.00000  -0.00627  -0.00628   1.91715
   A35        1.91600  -0.00053   0.00000   0.00191   0.00190   1.91790
   A36        1.91383  -0.00085   0.00000  -0.00179  -0.00188   1.91195
   A37        1.93237  -0.00026   0.00000   0.00175   0.00181   1.93417
   A38        1.86769   0.00062   0.00000   0.00551   0.00552   1.87321
   A39        1.94702  -0.00011   0.00000  -0.00611  -0.00596   1.94105
   A40        1.94917   0.00333   0.00000   0.01156   0.01133   1.96050
   A41        1.82841  -0.00221   0.00000  -0.01041  -0.01042   1.81800
   A42        1.90486  -0.00303   0.00000  -0.01508  -0.01500   1.88986
   A43        1.90465   0.00190   0.00000   0.01461   0.01461   1.91926
   A44        1.92849   0.00022   0.00000   0.00638   0.00645   1.93494
   A45        1.91868  -0.00095   0.00000  -0.00492  -0.00512   1.91356
   A46        1.94016  -0.00051   0.00000  -0.00142  -0.00139   1.93877
   A47        1.91750   0.00092   0.00000   0.00165   0.00172   1.91922
   A48        1.90131   0.00059   0.00000   0.00395   0.00401   1.90532
   A49        1.90928  -0.00004   0.00000  -0.00262  -0.00256   1.90671
   A50        1.87622   0.00001   0.00000   0.00353   0.00350   1.87972
   A51        1.94826   0.00230   0.00000   0.00604   0.00597   1.95424
   A52        1.84093  -0.00128   0.00000  -0.00149  -0.00150   1.83943
   A53        1.91108   0.00019   0.00000   0.00179   0.00186   1.91294
   A54        1.94753  -0.00024   0.00000  -0.00155  -0.00148   1.94605
   A55        1.92539  -0.00166   0.00000  -0.00804  -0.00808   1.91730
   A56        1.88793   0.00070   0.00000   0.00363   0.00361   1.89155
   A57        1.91084  -0.00034   0.00000  -0.00729  -0.00736   1.90348
   A58        1.92844   0.00060   0.00000   0.00216   0.00215   1.93058
   A59        1.90664  -0.00014   0.00000   0.00407   0.00410   1.91074
   A60        1.91437  -0.00043   0.00000  -0.00170  -0.00170   1.91267
   A61        1.93754   0.00036   0.00000   0.00140   0.00145   1.93899
   A62        1.86575  -0.00002   0.00000   0.00167   0.00165   1.86740
   A63        1.97959  -0.00476   0.00000  -0.02890  -0.02894   1.95064
    D1        0.51087   0.00179   0.00000   0.01861   0.01862   0.52949
    D2        2.58879   0.00079   0.00000   0.00735   0.00739   2.59618
    D3       -1.60586   0.00007   0.00000   0.00022   0.00027  -1.60559
    D4       -1.59105   0.00117   0.00000   0.02048   0.02046  -1.57059
    D5        0.48688   0.00017   0.00000   0.00921   0.00922   0.49610
    D6        2.57541  -0.00055   0.00000   0.00208   0.00210   2.57751
    D7        2.60865   0.00138   0.00000   0.01656   0.01653   2.62518
[...]
 211,0.00032609,0.00461897,0.00002753,-0.00003863,0.00004993,-0.0000205
 3,0.00003911,0.00000082,-0.00054280,-0.00009273,-0.00025485,0.00061063
 ,-0.00088307,-0.00155463,-0.00387371,-0.00582524,0.00457029,0.00104125
 ,0.00168894,0.00074994,-0.07775825,-0.05993064,0.05372414,-0.00647666,
 -0.02058741,0.01399066,-0.00000754,-0.00002220,-0.00000926,-0.00004890
 ,0.00001944,-0.00003164,0.00000896,0.00000657,-0.00000943,-0.00000457,
 0.00000390,0.00000144,-0.00000497,-0.00000148,-0.00000237,0.00001525,-
 0.00001091,0.00000111,-0.00001673,0.00001892,0.00000096,-0.00000721,-0
 .00000477,-0.00000234,-0.00000114,-0.00000598,0.00000241,0.00012098,-0
 .00026782,0.00037762,-0.00000880,-0.00026161,0.00031269,0.00012099,0.0
 0022910,0.00032078,0.00027788,0.00027091,-0.00032379,-0.00002378,-0.00
 016514,-0.00008672,0.08153784,0.00010306,0.00001433,-0.00010989,0.0000
 1627,-0.00000050,0.00000010,0.00322137,0.00125718,-0.00257436,-0.00000
 949,-0.00001108,0.00003404,-0.00001784,0.00002387,0.00002070,-0.000256
 11,0.00018517,0.00025345,-0.00151929,-0.00370844,-0.00484688,-0.008465
 31,-0.01832504,0.01768237,0.00080302,-0.00097382,-0.00095920,-0.061462
 18,-0.18159495,0.11874596,0.00263332,0.00880492,-0.00698619,-0.0000069
 8,-0.00001472,-0.00000779,-0.00003070,0.00000900,-0.00001917,-0.000011
 75,-0.00000156,0.00001651,-0.00000271,0.00000256,0.00000112,-0.0000030
 3,-0.00000083,-0.00000180,0.00001214,-0.00001007,-0.00000027,-0.000015
 07,0.00001297,0.00000099,0.00000324,-0.00000060,0.00000016,-0.00000077
 ,-0.00000416,0.00000016,-0.00103983,-0.00106796,0.00124273,0.00024176,
 0.00025348,-0.00017908,0.00000469,0.00119208,-0.00007526,0.00075866,0.
 00079597,0.00032778,-0.00006754,0.00022495,0.00017187,0.06835152,0.197
 47834,-0.00018220,0.00002558,0.00003172,-0.00002262,-0.00000243,0.0000
 0536,0.00541698,0.00007151,-0.00192939,-0.00004549,-0.00000044,-0.0000
 3193,0.00000907,-0.00001890,0.00000762,0.00039798,0.00021425,0.0003074
 9,-0.00098172,-0.00317934,-0.00170399,-0.00716013,-0.01374083,0.012820
 24,-0.00066792,-0.00169131,-0.00110921,0.05566831,0.11887627,-0.151446
 71,0.00162777,0.01315882,-0.01004132,0.00000401,0.00001328,0.00000438,
 0.00005227,-0.00000377,0.00002274,-0.00000811,-0.00000968,0.00001231,0
 .00000393,-0.00000279,-0.00000191,0.00000533,0.00000183,0.00000175,-0.
 00001648,0.00002901,-0.00000279,0.00001641,-0.00000609,-0.00000443,0.0
 0000813,0.00000356,0.00000128,0.00000175,0.00000512,-0.00000115,-0.000
 43114,-0.00082340,0.00064015,0.00005788,-0.00012470,0.00008269,0.00024
 591,0.00087162,0.00077656,0.00041565,0.00093604,0.00060999,-0.00003747
 ,0.00022957,0.00007320,-0.06081693,-0.12752533,0.16258790,0.00012724,0
 .00004283,-0.00008632,0.00004901,0.00001284,-0.00002577,0.00269943,-0.
 00097951,-0.00036681,0.00013271,0.00011099,0.00005926,-0.00000060,0.00
 000567,0.00001498,-0.00008798,-0.00019301,0.00007329,-0.00004078,0.000
 51746,-0.00009271,-0.00607673,0.00144711,-0.00539280,-0.00024063,0.000
 10100,0.00003085,-0.18758418,0.04177862,-0.12062298,-0.02208576,0.0083
 1768,-0.01757478,-0.00000363,-0.00000957,-0.00000673,-0.00012857,-0.00
 003582,-0.00003264,-0.00000015,-0.00000749,0.00002331,-0.00000858,0.00
 000249,0.00000500,-0.00001514,-0.00000595,-0.00000307,0.00007660,-0.00
 010742,0.00000098,-0.00005464,-0.00002508,0.00001212,-0.00000010,-0.00
 000099,-0.00000197,-0.00000525,-0.00001065,-0.00000197,0.00016806,-0.0
 0010894,0.00013340,-0.00020889,-0.00037030,0.00022991,0.00065963,-0.00
 133064,-0.00072230,0.00058949,-0.00031116,0.00015762,-0.00009282,-0.00
 005014,0.00001081,0.00892478,-0.00187002,0.00698661,0.20525765,-0.0000
 5026,-0.00007363,0.00010297,-0.00003014,-0.00000617,0.00001492,-0.0012
 8826,0.00127592,-0.00067919,-0.00007612,-0.00004193,-0.00004631,-0.000
 00068,-0.00000314,-0.00000595,0.00019091,0.00017763,0.00010332,-0.0000
 7323,0.00172699,-0.00054418,-0.02136136,0.00538422,-0.01865837,-0.0001
 8854,-0.00053794,-0.00032337,0.04300803,-0.06210080,0.03893862,0.01014
 377,-0.00541510,0.00974259,0.00000372,0.00000619,0.00000454,0.00007808
 ,0.00002131,0.00002448,-0.00002098,0.00000630,-0.00000162,0.00000507,-
 0.00000179,-0.00000293,0.00000971,0.00000352,0.00000191,-0.00007613,0.
 00005912,0.00000142,0.00002742,0.00001182,-0.00000789,0.00000246,0.000
 00169,0.00000137,0.00000279,0.00000674,0.00000151,0.00039587,0.0000933
 3,0.00002548,0.00029966,-0.00025222,0.00036360,-0.00194702,-0.00421065
 ,-0.00279515,0.00063941,0.00115526,0.00062007,0.00000301,0.00009320,0.
 00006711,0.01702265,-0.00516944,0.01312569,-0.04850818,0.06747935,0.00
 010584,-0.00007709,-0.00001877,-0.00001084,-0.00000694,0.00001598,-0.0
 0193361,-0.00075699,0.00126565,-0.00004320,-0.00009005,-0.00000770,-0.
 00001364,0.00001917,-0.00000161,-0.00027244,0.00011387,-0.00000344,0.0
 0080679,0.00092803,0.00060680,-0.01323588,0.00331649,-0.01328932,0.000
 22207,-0.00004752,0.00006649,-0.12253829,0.03973100,-0.15476169,0.0151
 6342,-0.00465726,0.01118281,-0.00000390,-0.00000868,-0.00000271,0.0000
 4605,0.00003166,0.00000279,-0.00000735,0.00000422,0.00000700,0.0000017
 4,0.00000120,-0.00000159,0.00000665,0.00000275,0.00000035,-0.00002430,
 0.00005825,-0.00000671,0.00002229,0.00002668,-0.00000704,0.00000032,-0
 .00000010,0.00000099,0.00000179,0.00000226,0.00000260,0.00027545,-0.00
 013214,0.00010397,-0.00008661,-0.00028413,0.00056876,-0.00066022,-0.00
 358665,-0.00071125,0.00042798,0.00034865,0.00032085,-0.00010187,0.0000
 3311,0.00004339,-0.01437859,0.00394991,-0.01248592,0.13375521,-0.03838
 480,0.16723551,0.00048914,-0.00003604,-0.00020055,0.00005326,0.0000072
 3,-0.00001191,-0.00465769,-0.01574675,-0.00481403,0.00003030,0.0000832
 5,0.00015744,-0.00003052,0.00004736,0.00002798,-0.00030782,-0.00044709
 ,0.00012322,-0.00027805,-0.00039266,-0.00000309,-0.00488193,0.00102726
 ,0.00245281,-0.00043837,0.00035781,0.00241291,0.00829740,0.02243247,0.
 01646316,-0.06720541,-0.04885687,-0.04095935,-0.00001208,-0.00003081,-
 0.00001474,-0.00010152,0.00000835,-0.00004813,-0.00000797,0.00000518,0
 .00002498,-0.00000974,0.00000604,0.00000471,-0.00001249,-0.00000451,-0
 .00000557,0.00013949,-0.00010227,-0.00005579,-0.00008469,-0.00001229,0
 .00000914,-0.00000243,-0.00000189,-0.00000134,-0.00000283,-0.00001150,
 0.00000253,0.00015669,0.00001613,-0.00014328,0.00003854,0.00002889,-0.
 00006797,0.00012263,-0.00004657,0.00019376,0.00044005,0.00146154,0.000
 91765,-0.00013808,-0.00069870,-0.00024324,0.00082966,-0.00089095,-0.00
 062109,0.00126927,-0.00041039,-0.00088194,0.07120704,0.00041203,-0.000
 00756,-0.00018975,0.00004274,-0.00000039,-0.00000277,-0.01249413,-0.03
 024917,-0.00902564,0.00004762,-0.00004559,0.00003695,-0.00003235,0.000
 05255,0.00000835,-0.00089308,0.00043393,-0.00084000,-0.00029986,0.0002
 1638,0.00004098,0.00219985,0.00073177,-0.00074819,0.00074867,0.0011026
 2,0.00610679,-0.00181332,-0.00691480,-0.00712334,-0.04837022,-0.203001
 94,-0.12050755,-0.00001292,-0.00003420,-0.00001239,-0.00008964,0.00002
 329,-0.00004416,0.00002527,0.00000179,-0.00000906,-0.00000742,0.000006
 82,0.00000278,-0.00000816,-0.00000235,-0.00000329,-0.00012886,-0.00005
 983,0.00000780,-0.00002502,0.00003908,0.00000708,-0.00000575,-0.000003
 26,0.00000059,-0.00000215,-0.00001013,0.00000337,0.00006809,-0.0000429
 8,-0.00014006,0.00002179,-0.00001903,0.00002231,-0.00011224,-0.0000087
 0,-0.00010934,-0.00032211,-0.00045172,-0.00028570,-0.00039357,-0.00125
 017,-0.00047236,0.00029476,0.00019294,-0.00023430,-0.00031391,0.000161
 56,0.00045108,0.05973510,0.23030806,-0.00000824,-0.00004693,0.00000877
 ,0.00002285,0.00000830,-0.00001917,0.00991312,0.02665615,0.01311545,0.
 00008118,0.00014767,0.00001562,-0.00000186,0.00000809,0.00001661,0.000
 42724,-0.00056794,0.00096156,0.00026857,0.00051216,-0.00022086,0.00417
 460,-0.00053301,-0.00079910,0.00059714,0.00238555,-0.00380594,-0.00579
 395,-0.01134620,-0.00860038,-0.04507962,-0.13143280,-0.14873906,-0.000
 00188,-0.00000173,-0.00000673,-0.00006943,-0.00002710,-0.00000805,-0.0
 0004517,-0.00000494,0.00001847,-0.00000480,0.00000033,0.00000311,-0.00
 000935,-0.00000363,-0.00000164,-0.00001431,-0.00012693,-0.00005141,-0.
 00004629,-0.00003792,0.00001677,0.00000271,-0.00000085,-0.00000416,-0.
 00000236,-0.00000513,-0.00000195,-0.00017228,-0.00005371,0.00016124,-0
 .00000477,-0.00004068,0.00005993,0.00009666,0.00036023,0.00029721,-0.0
 0022634,-0.00130312,-0.00040600,0.00023175,0.00102353,0.00032816,-0.00
 011864,0.00033415,0.00011828,0.00024333,0.00039575,0.00089323,0.039542
 83,0.12876233,0.15710270,0.00007040,-0.00026483,-0.00001424,-0.0000673
 1,-0.00003643,0.00001176,0.01317927,-0.00557281,0.01163960,-0.00094497
 ,-0.00032086,0.00012950,-0.00003960,0.00002632,-0.00004453,-0.00112252
 ,-0.00078281,0.00042066,0.00002747,-0.00000477,0.00014324,0.00106350,-
 0.00107681,-0.00089966,0.00083171,0.00026695,-0.00011878,-0.02188649,0
 .00734046,-0.01658967,-0.18658550,0.05126371,-0.11880682,0.00001127,0.
 00000136,0.00000125,0.00020568,0.00004284,0.00002094,0.00001099,-0.000
 02239,0.00006058,0.00001478,0.00000138,-0.00000565,0.00001375,0.000007
 76,-0.00000081,-0.00202086,0.00012534,0.00059545,0.00009369,0.00004732
 ,-0.00001755,0.00000741,-0.00000052,0.00000147,0.00001915,0.00001898,0
 .00000972,0.00006228,0.00006357,-0.00006055,-0.00004970,-0.00008840,0.
 00002061,0.00039198,0.00054654,0.00056112,0.00019910,-0.00028244,0.000
 23822,-0.00017411,0.00008360,-0.00006720,0.00057830,-0.00047136,0.0000
 6470,-0.00331204,0.00219504,0.00336111,-0.00488246,0.00175058,-0.00400
 190,0.20430107,-0.00027703,-0.00019820,0.00020076,-0.00006270,-0.00001
 875,0.00003489,0.01035577,-0.01734237,0.02570088,-0.00005423,-0.000160
 80,-0.00015977,0.00002796,-0.00003395,-0.00005353,-0.00123955,0.000578
 73,-0.00144871,-0.00031419,-0.00048832,-0.00013869,0.00023990,0.000345
 10,0.00120998,0.00364916,0.00214659,0.00358151,0.01063638,-0.00223495,
 0.00652291,0.04781242,-0.06939645,0.03514623,0.00001801,0.00002026,0.0
 0001837,0.00015202,0.00004681,0.00002739,0.00008059,0.00000425,-0.0000
 5996,0.00001304,-0.00000285,-0.00000721,0.00002241,0.00000911,0.000005
 71,0.00007080,0.00065154,0.00000411,0.00012862,0.00004870,-0.00002736,
 -0.00000469,-0.00000172,0.00000083,0.00000484,0.00001587,0.00000477,0.
 00007555,-0.00007613,-0.00013550,-0.00005588,0.00009005,-0.00000441,-0
 .00015707,-0.00006460,-0.00029684,-0.00019515,0.00015719,-0.00013535,-
 0.00031050,-0.00021556,-0.00029654,-0.00013160,0.00043194,-0.00019555,
 0.00190226,0.00014850,-0.00098953,-0.01753390,0.00882212,-0.01506005,-
 0.05486482,0.07671801,-0.00030859,0.00032779,0.00005349,0.00012682,0.0
 0004992,-0.00012114,-0.00707125,0.02052970,-0.02098377,0.00040311,0.00
 052816,0.00016558,0.00008608,-0.00008013,0.00002054,0.00127542,-0.0012
 4872,0.00178308,0.00037276,0.00019380,0.00022418,0.00051532,0.00060554
 ,0.00118451,-0.00273903,-0.00380714,-0.00294000,0.01320858,-0.00627936
 ,0.01115773,-0.11684656,0.03973366,-0.14874976,0.00001473,0.00002483,-
 0.00000553,-0.00039678,-0.00018924,-0.00008476,-0.00000887,-0.00002249
 ,0.00003863,-0.00001898,0.00000111,0.00001500,-0.00005417,-0.00002241,
 -0.00000713,0.00070089,-0.00037104,0.00022937,-0.00018164,-0.00015587,
 0.00004935,0.00000114,-0.00000491,-0.00001642,-0.00001684,-0.00002987,
 -0.00001702,-0.00012465,0.00008375,0.00016860,-0.00001451,-0.00000007,
 -0.00006353,-0.00030673,0.00038930,-0.00011988,-0.00010364,0.00019397,
 0.00002898,0.00024907,0.00030789,0.00015053,-0.00104905,0.00050234,0.0
 0065699,0.00319299,-0.00208550,-0.00102065,-0.01426373,0.00429290,-0.0
 1045256,0.12334726,-0.05345010,0.16865785,0.00101180,0.00010905,0.0014
 0990,-0.00197052,0.00060957,-0.00485624,-0.00002724,-0.00001429,-0.000
 03320,-0.00020552,-0.00024433,0.00024938,-0.00486953,0.00628025,0.0320
 1586,0.00025902,-0.00006520,-0.00041851,0.00002355,0.00000233,0.000019
 00,0.00000243,-0.00000472,0.00000076,-0.00001434,-0.00005395,-0.000124
 73,0.00000067,-0.00000006,0.00000318,-0.00000580,-0.00000031,-0.000014
 97,-0.05179124,0.00258579,0.02623237,0.00038058,-0.00026643,0.00009283
 ,-0.00008341,-0.00003139,-0.00041332,0.00051855,-0.00018505,-0.0003732
 7,0.00074462,0.00142598,-0.00079874,0.00004554,0.00005264,-0.00011721,
 -0.00024835,-0.00063296,0.00011875,-0.00547640,0.00250177,0.00072795,0
 .00114237,-0.00015594,-0.00064367,-0.00000173,-0.00000099,-0.00000116,
 0.00000726,-0.00000432,-0.00000364,-0.00000062,-0.00000006,0.00000178,
 0.00000208,0.00000098,-0.00000179,-0.00001944,0.00000316,-0.00000087,0
 .00000098,0.00000083,-0.00000083,0.00000190,-0.00000178,-0.00000049,0.
 00000176,0.00000055,0.00000175,0.00000014,-0.00000436,0.00000815,0.057
 38121,-0.00089716,0.00022280,0.00037630,-0.00074764,0.00477890,0.02981
 367,0.00008103,0.00006098,0.00003670,-0.00012674,-0.00033667,0.0003604
 5,0.00174012,-0.00306582,-0.01466535,0.00023754,-0.00000850,0.00008564
 ,0.00001117,0.00000327,0.00001423,0.00000143,-0.00000604,0.00000126,-0
 .00017857,0.00002383,-0.00010880,-0.00000088,0.00000251,-0.00000305,-0
 .00001898,-0.00002175,0.00001861,0.00347443,-0.05815820,-0.04985018,-0
 .00036298,-0.00087882,0.00002148,0.00023837,0.00011773,-0.00001405,-0.
 00041103,0.00174100,-0.00047357,0.00012681,-0.00386458,0.00298698,0.00
 000972,0.00008176,-0.00003243,-0.00063473,-0.00046358,-0.00000081,0.00
 295439,-0.00035013,0.00014689,-0.00062632,0.00006976,0.00010174,-0.000
 00094,0.00000205,-0.00000022,0.00001221,-0.00000192,-0.00000350,-0.000
 00013,-0.00000086,0.00000185,0.00000435,0.00000147,-0.00000279,0.00000
 826,-0.00000059,0.00001193,0.00000267,0.00000154,-0.00000202,0.0000014
 5,-0.00000101,0.00000085,0.00000417,0.00000429,-0.00000009,0.00000279,
 -0.00000190,-0.00000118,-0.00784606,0.06424613,-0.00028966,-0.00057255
 ,0.00068532,-0.00051925,-0.00421368,-0.01582520,0.00007149,0.00005060,
 0.00003708,-0.00048857,-0.00081508,-0.00146507,0.00186326,-0.00126218,
 -0.00430378,0.00022531,0.00000824,0.00016070,0.00001308,0.00000568,0.0
 0001530,0.00000209,-0.00000662,0.00000022,-0.00010402,0.00003698,-0.00
 012573,-0.00000205,0.00000265,-0.00000564,-0.00001571,-0.00002322,0.00
 002036,0.02592387,-0.04685255,-0.29823068,0.00107629,0.00149842,0.0003
 8132,0.00069385,0.00028598,-0.00013422,0.00011270,-0.00000267,0.001538
 26,0.00008890,0.00303250,-0.00040563,-0.00000329,0.00013089,0.00034203
 ,-0.00046333,0.00009930,0.00059245,0.00066341,-0.00052371,0.00122857,0
 .00041641,-0.00024181,0.00029785,-0.00000139,0.00000174,-0.00000125,0.
 00001116,-0.00000384,-0.00000327,-0.00000076,-0.00000017,0.00000239,0.
 00000389,0.00000190,-0.00000317,0.00000242,-0.00000360,0.00000286,0.00
 000252,0.00000107,-0.00000183,0.00000103,-0.00000037,0.00000142,0.0000
 0295,0.00000434,-0.00000033,0.00000098,-0.00000043,-0.00000381,-0.0296
 2986,0.05128662,0.32374926,-0.00155429,0.00432737,0.00250544,0.0021611
 5,0.00249211,0.00085970,-0.00034623,-0.00030734,-0.00022305,-0.0000668
 0,0.00095418,0.00007590,-0.02113933,-0.01963214,-0.00953996,-0.0032976
 1,-0.00060589,-0.00064557,-0.00011474,-0.00000975,-0.00016809,-0.00000
 171,0.00003974,-0.00001457,0.00065418,-0.00021609,0.00108674,0.0000106
 4,-0.00000870,0.00001519,0.00010405,0.00011748,-0.00008632,-0.18781211
 ,-0.12493735,-0.05354829,0.00089228,0.00019531,-0.00017623,-0.00006562
 ,-0.00005679,-0.00026915,-0.00080666,-0.00029005,0.00041333,0.00110120
 ,0.00011571,0.00020235,0.00001737,-0.00009203,0.00008811,0.00011957,-0
 .00007193,0.00000648,0.00121397,-0.00027646,0.00033962,0.00130170,0.00
 012976,-0.00041520,0.00000543,-0.00000206,0.00000481,-0.00008230,0.000
 03296,0.00003475,0.00000441,-0.00000025,-0.00001503,-0.00002427,-0.000
 00893,0.00001836,0.00000719,0.00002806,-0.00009012,-0.00001442,-0.0000
 0896,0.00000946,-0.00000929,0.00000547,-0.00000354,-0.00002114,-0.0000
 2234,-0.00000255,0.00000362,0.00001595,0.00000271,0.00318966,0.0029412
 6,0.00034228,0.20457008,0.00238074,-0.00156418,-0.00115503,-0.01928664
 ,-0.01400524,-0.00849441,0.00007196,0.00008940,0.00006546,0.00143121,-
 0.00019953,0.00091424,0.01236313,0.01117588,0.00590258,0.00144131,0.00
 036984,0.00018465,0.00004473,-0.00000959,0.00005580,-0.00000505,-0.000
 00979,0.00000564,-0.00005290,0.00007500,-0.00033598,-0.00000697,0.0000
 0257,-0.00001256,-0.00001530,-0.00003304,0.00004124,-0.12644309,-0.157
 42857,-0.04803718,-0.00168393,-0.00505929,0.00238017,-0.00005665,0.000
 11067,0.00015325,0.00115333,-0.00078604,0.00034020,-0.00040295,0.00171
 466,0.00010513,-0.00012223,0.00004796,-0.00005957,-0.00018361,0.000093
 87,0.00000126,-0.00087936,0.00029666,-0.00003714,-0.00086690,0.0006574
 5,0.00030719,-0.00000260,-0.00000012,-0.00000100,0.00002395,-0.0000132
 3,-0.00001040,-0.00000083,0.00000049,0.00000272,0.00000508,0.00000292,
 -0.00000335,-0.00000620,-0.00001288,0.00002826,0.00000324,0.00000192,-
 0.00000127,-0.00000160,0.00000116,0.00000272,0.00000241,0.00000462,-0.
 00000147,0.00000469,0.00000178,-0.00001666,-0.00406071,-0.00419765,-0.
 00192443,0.13515172,0.16867230,0.00060622,-0.00049351,0.00057804,0.013
 85889,0.01037405,0.00337808,0.00000478,-0.00000172,0.00000620,-0.00076
 871,-0.00038617,-0.00133381,0.00481189,0.00451636,0.00108173,0.0001894
 5,-0.00000327,0.00008788,0.00000158,-0.00000009,-0.00000078,-0.0000002
 5,0.00000006,0.00000041,0.00006944,0.00002594,0.00000635,0.00000043,-0
 .00000018,0.00000029,-0.00000010,-0.00000116,0.00000344,-0.05605233,-0
 .04951014,-0.06812673,0.00191596,0.00504363,-0.00190634,0.00029839,0.0
 0012831,0.00005082,-0.00052680,0.00036254,0.00024926,0.00080869,-0.000
 15365,0.00094398,0.00003040,0.00002802,0.00025768,-0.00018871,0.000149
 45,0.00041942,-0.00038403,0.00047003,0.00034472,-0.00041955,-0.0000401
 7,0.00007262,0.00000004,-0.00000028,-0.00000065,-0.00000059,-0.0000011
 9,-0.00000007,0.00000011,0.00000053,-0.00000098,-0.00000009,0.00000021
 ,-0.00000058,0.00000251,-0.00000189,-0.00000700,0.00000009,-0.00000020
 ,-0.00000008,0.00000013,0.00000027,-0.00000020,-0.00000032,0.00000022,
 0.00000023,-0.00000081,0.00000120,0.00000155,-0.02344917,-0.02010716,-
 0.00854578,0.05919245,0.04959995,0.07244032\\0.00039196,-0.00039199,0.
 00078089,0.00002170,0.00000390,-0.00000224,-0.00000220,0.00002384,-0.0
 0001007,-0.00000631,0.00001353,-0.00000204,-0.00021464,0.00057081,-0.0
 0059127,-0.00036720,-0.00114313,-0.00016571,0.00000582,-0.00001117,-0.
 00000253,0.00000473,0.00000216,0.00000164,0.00020245,0.00094798,-0.000
 01498,-0.00000201,-0.00000904,-0.00000229,-0.00000285,-0.00001203,0.00
 000525,-0.00000581,-0.00000208,0.00000258,-0.00001226,-0.00001387,-0.0
 0000295,0.00000237,0.00000491,0.00000685,-0.00000468,0.00000165,0.0000
 0021,-0.00000442,-0.00000355,-0.00000038,0.00000263,-0.00000092,-0.000
 00210,0.00000017,0.00000077,-0.00000660,0.00000100,-0.00000302,0.00000
 203,-0.00000014,0.00000032,0.00000414,-0.00000345,0.00000045,0.0000080
 3,-0.00000412,0.00000739,0.00000338,-0.00000241,-0.00000593,0.00000073
 ,0.00000098,0.00000128,-0.00000220,-0.00000430,0.00000246,0.00000527,-
 0.00000469,0.00000189,-0.00000588,0.00000132,0.00000232,-0.00000451,0.
 00000340,0.00000513,-0.00000657,-0.00000176,0.00000444,-0.00000600,0.0
 0000237,0.00000184,0.00000253,0.00000237,-0.00000035,0.00000480\\\@


 10 WHATSOEVER THY HAND FINDETH TO DO, DO IT WITH THY  
 MIGHT. FOR THERE IS NO WORK, NOR DEVICE, NOR KNOWLEDGE, NOR  
 WISDOM, IN THE GRAVE, WHITHER THOU GOEST.                    
 11 I RETURNED AND SAW UNDER THE SUN, THAT THE RACE IS NOT TO 
 THE SWIFT, NOR THE BATTLE TO THE STRONG, NEITHER YET BREAD TO
 THE WISE, NOR YET RICHES TO MEN OF UNDERSTANDING, NOR YET    
 FAVOR TO MEN OF SKILL. BUT TIME AND CHANCE HAPPEN TO THEM ALL.
 12 FOR MAN ALSO KNOWETH NOT HIS TIME. AS THE FISHES   
 THAT ARE TAKEN IN AN EVIL NET, AND AS THE BIRDS THAT ARE     
 CAUGHT IN THE SNARE. SO ARE THE SONS OF MEN SNARED IN AN EVIL
 TIME, WHEN IT FALLETH SUDDENLY UPON THEM.
                                         ECCLESIASTES 9
 Job cpu time:       0 days 15 hours 58 minutes 11.8 seconds.
 Elapsed time:       0 days  0 hours 59 minutes 54.5 seconds.
 File lengths (MBytes):  RWF=    694 Int=      0 D2E=      0 Chk=     33 Scr=      1
 Normal termination of Gaussian 16 at Sun Nov  4 22:57:39 2018.
