 Entering Gaussian System, Link 0=g16
 Initial command:
 /apps/gaussian/g16a03/g16/l1.exe "/jobfs/local/2012012.r-man2/Gau-16589.inp" -scrdir="/jobfs/local/2012012.r-man2/"
 Entering Link 1 = /apps/gaussian/g16a03/g16/l1.exe PID=     16590.
  
 Copyright (c) 1988,1990,1992,1993,1995,1998,2003,2009,2016,
            Gaussian, Inc.  All Rights Reserved.
  
 This is part of the Gaussian(R) 16 program.  It is based on
 the Gaussian(R) 09 system (copyright 2009, Gaussian, Inc.),
 the Gaussian(R) 03 system (copyright 2003, Gaussian, Inc.),
 the Gaussian(R) 98 system (copyright 1998, Gaussian, Inc.),
 the Gaussian(R) 94 system (copyright 1995, Gaussian, Inc.),
 the Gaussian 92(TM) system (copyright 1992, Gaussian, Inc.),
 the Gaussian 90(TM) system (copyright 1990, Gaussian, Inc.),
 the Gaussian 88(TM) system (copyright 1988, Gaussian, Inc.),
 the Gaussian 86(TM) system (copyright 1986, Carnegie Mellon
 University), and the Gaussian 82(TM) system (copyright 1983,
 Carnegie Mellon University). Gaussian is a federally registered
 trademark of Gaussian, Inc.
  
 This software contains proprietary and confidential information,
 including trade secrets, belonging to Gaussian, Inc.
  
 This software is provided under written license and may be
 used, copied, transmitted, or stored only in accord with that
 written license.
  
 The following legend is applicable only to US Government
 contracts under FAR:
  
                    RESTRICTED RIGHTS LEGEND
  
 Use, reproduction and disclosure by the US Government is
 subject to restrictions as set forth in subparagraphs (a)
 and (c) of the Commercial Computer Software - Restricted
 Rights clause in FAR 52.227-19.
  
 Gaussian, Inc.
 340 Quinnipiac St., Bldg. 40, Wallingford CT 06492
  
  
 ---------------------------------------------------------------
 Warning -- This program may not be used in any manner that
 competes with the business of Gaussian, Inc. or will provide
 assistance to any competitor of Gaussian, Inc.  The licensee
 of this program is prohibited from giving any competitor of
 Gaussian, Inc. access to this program.  By using this program,
 the user acknowledges that Gaussian, Inc. is engaged in the
 business of creating and licensing software in the field of
 computational chemistry and represents and warrants to the
 licensee that it is not a competitor of Gaussian, Inc. and that
 it will not use this program in any manner prohibited above.
 ---------------------------------------------------------------
  

 Cite this work as:
 Gaussian 16, Revision A.03,
 M. J. Frisch, G. W. Trucks, H. B. Schlegel, G. E. Scuseria, 
 M. A. Robb, J. R. Cheeseman, G. Scalmani, V. Barone, 
 G. A. Petersson, H. Nakatsuji, X. Li, M. Caricato, A. V. Marenich, 
 J. Bloino, B. G. Janesko, R. Gomperts, B. Mennucci, H. P. Hratchian, 
 J. V. Ortiz, A. F. Izmaylov, J. L. Sonnenberg, D. Williams-Young, 
 F. Ding, F. Lipparini, F. Egidi, J. Goings, B. Peng, A. Petrone, 
 T. Henderson, D. Ranasinghe, V. G. Zakrzewski, J. Gao, N. Rega, 
 G. Zheng, W. Liang, M. Hada, M. Ehara, K. Toyota, R. Fukuda, 
 J. Hasegawa, M. Ishida, T. Nakajima, Y. Honda, O. Kitao, H. Nakai, 
 T. Vreven, K. Throssell, J. A. Montgomery, Jr., J. E. Peralta, 
 F. Ogliaro, M. J. Bearpark, J. J. Heyd, E. N. Brothers, K. N. Kudin, 
 V. N. Staroverov, T. A. Keith, R. Kobayashi, J. Normand, 
 K. Raghavachari, A. P. Rendell, J. C. Burant, S. S. Iyengar, 
 J. Tomasi, M. Cossi, J. M. Millam, M. Klene, C. Adamo, R. Cammi, 
 J. W. Ochterski, R. L. Martin, K. Morokuma, O. Farkas, 
 J. B. Foresman, and D. J. Fox, Gaussian, Inc., Wallingford CT, 2016.
 
 ******************************************
 Gaussian 16:  ES64L-G16RevA.03 25-Dec-2016
                 4-Nov-2018 
 ******************************************
 %mem=6000mb
 %nproc=24
 Will use up to   24 processors via shared memory.
 %chk=D_a1-4_2SO_PSI.inp_extract_11.chk
 ----------------------------------------------------------------------
 #M062X/6-311++G(2d,2p) opt=ModRedundant freq=noraman SCRF=(Solvent=Wat
 er)
 ----------------------------------------------------------------------
 1/18=120,19=15,26=3,38=1/1,3;
 2/9=110,12=2,17=6,18=5,40=1/2;
 3/5=4,6=6,7=1212,11=2,25=1,30=1,70=2201,71=1,72=1,74=-55/1,2,3;
 4//1;
 5/5=2,38=5,53=1/2;
 6/7=2,8=2,9=2,10=2,28=1/1;
 7//1,2,3,16;
 1/18=20,19=15,26=3/3(2);
 2/9=110/2;
 99//99;
 2/9=110/2;
 3/5=4,6=6,7=1212,11=2,25=1,30=1,70=2205,71=1,72=1,74=-55/1,2,3;
 4/5=5,16=3,69=1/1;
 5/5=2,38=5,53=1/2;
 7//1,2,3,16;
 1/18=20,19=15,26=3/3(-5);
 2/9=110/2;
 6/7=2,8=2,9=2,10=2,19=2,28=1/1;
 99/9=1/99;
 -----------------------------
 D_a1-4_2SO_PSI.inp_extract_11
 -----------------------------
 Symbolic Z-matrix:
 Charge =  0 Multiplicity = 1
 C                     1.10565   0.93064   0.62828 
 C                     3.25024  -0.77801  -0.51437 
 O                    -1.07681  -0.53453  -1.01022 
 C                     1.82477   1.09854  -0.71664 
 C                     1.61899  -0.33286   1.32431 
 O                    -0.32654   0.92792   0.62974 
 C                    -2.52899   1.21982  -0.18708 
 C                    -3.26441   0.20697   0.68975 
 C                    -1.10824   0.7805   -0.51757 
 C                    -3.16973  -1.1787    0.0529 
 C                    -1.71562  -1.52578  -0.21555 
 C                     3.09508  -0.54252   0.99237 
 O                     2.219    -0.14238  -1.25693 
 H                     1.36244   1.79469   1.2282 
 H                     4.21321  -0.42235  -0.86869 
 H                     3.16918  -1.83125  -0.74758 
 H                     1.2282    1.59854  -1.46139 
 H                     2.7045    1.71187  -0.54986 
 H                     1.0496   -1.18657   0.97511 
 H                     1.46242  -0.25356   2.39471 
 H                    -2.49244   2.19928   0.27708 
 H                    -3.05817   1.32672  -1.13026 
 H                    -2.82763   0.18292   1.6847 
 H                    -4.3016    0.50638   0.80557 
 H                    -0.72141   1.38441  -1.32051 
 H                    -3.5999   -1.93827   0.69959 
 H                    -3.72386  -1.19388  -0.88284 
 H                    -1.62349  -2.44674  -0.77467 
 H                    -1.1786   -1.64289   0.71848 
 H                     3.66923   0.3257    1.30331 
 H                     3.49664  -1.39471   1.52984 
 
 The following ModRedundant input section has been read:
 D       5       1       6       9 F                                           
 

 GradGradGradGradGradGradGradGradGradGradGradGradGradGradGradGradGradGrad
 Berny optimization.
 Initialization pass.
                           ----------------------------
                           !    Initial Parameters    !
                           ! (Angstroms and Degrees)  !
 --------------------------                            --------------------------
 ! Name  Definition              Value          Derivative Info.                !
 --------------------------------------------------------------------------------
 ! R1    R(1,4)                  1.5343         estimate D2E/DX2                !
 ! R2    R(1,5)                  1.5311         estimate D2E/DX2                !
 ! R3    R(1,6)                  1.4322         estimate D2E/DX2                !
 ! R4    R(1,14)                 1.0828         estimate D2E/DX2                !
 ! R5    R(2,12)                 1.5329         estimate D2E/DX2                !
 ! R6    R(2,13)                 1.4209         estimate D2E/DX2                !
 ! R7    R(2,15)                 1.086          estimate D2E/DX2                !
 ! R8    R(2,16)                 1.0818         estimate D2E/DX2                !
 ! R9    R(3,9)                  1.4046         estimate D2E/DX2                !
 ! R10   R(3,11)                 1.422          estimate D2E/DX2                !
 ! R11   R(4,13)                 1.4097         estimate D2E/DX2                !
 ! R12   R(4,17)                 1.0773         estimate D2E/DX2                !
 ! R13   R(4,18)                 1.0853         estimate D2E/DX2                !
 ! R14   R(5,12)                 1.5274         estimate D2E/DX2                !
 ! R15   R(5,19)                 1.084          estimate D2E/DX2                !
 ! R16   R(5,20)                 1.0847         estimate D2E/DX2                !
 ! R17   R(6,9)                  1.3961         estimate D2E/DX2                !
 ! R18   R(7,8)                  1.5282         estimate D2E/DX2                !
 ! R19   R(7,9)                  1.5234         estimate D2E/DX2                !
 ! R20   R(7,21)                 1.0845         estimate D2E/DX2                !
 ! R21   R(7,22)                 1.0868         estimate D2E/DX2                !
 ! R22   R(8,10)                 1.5279         estimate D2E/DX2                !
 ! R23   R(8,23)                 1.0869         estimate D2E/DX2                !
 ! R24   R(8,24)                 1.0857         estimate D2E/DX2                !
 ! R25   R(9,25)                 1.0766         estimate D2E/DX2                !
 ! R26   R(10,11)                1.5189         estimate D2E/DX2                !
 ! R27   R(10,26)                1.0864         estimate D2E/DX2                !
 ! R28   R(10,27)                1.0876         estimate D2E/DX2                !
 ! R29   R(11,28)                1.0813         estimate D2E/DX2                !
 ! R30   R(11,29)                1.0837         estimate D2E/DX2                !
 ! R31   R(12,30)                1.0863         estimate D2E/DX2                !
 ! R32   R(12,31)                1.0846         estimate D2E/DX2                !
 ! A1    A(4,1,5)              109.3677         estimate D2E/DX2                !
 ! A2    A(4,1,6)              118.0206         estimate D2E/DX2                !
 ! A3    A(4,1,14)             106.6897         estimate D2E/DX2                !
 ! A4    A(5,1,6)              109.4648         estimate D2E/DX2                !
 ! A5    A(5,1,14)             109.0946         estimate D2E/DX2                !
 ! A6    A(6,1,14)             103.7751         estimate D2E/DX2                !
 ! A7    A(12,2,13)            111.8079         estimate D2E/DX2                !
 ! A8    A(12,2,15)            111.1086         estimate D2E/DX2                !
 ! A9    A(12,2,16)            110.7245         estimate D2E/DX2                !
 ! A10   A(13,2,15)            109.0598         estimate D2E/DX2                !
 ! A11   A(13,2,16)            105.5754         estimate D2E/DX2                !
 ! A12   A(15,2,16)            108.3594         estimate D2E/DX2                !
 ! A13   A(9,3,11)             116.5224         estimate D2E/DX2                !
 ! A14   A(1,4,13)             111.759          estimate D2E/DX2                !
 ! A15   A(1,4,17)             113.4043         estimate D2E/DX2                !
 ! A16   A(1,4,18)             107.8812         estimate D2E/DX2                !
 ! A17   A(13,4,17)            107.3659         estimate D2E/DX2                !
 ! A18   A(13,4,18)            109.2491         estimate D2E/DX2                !
 ! A19   A(17,4,18)            107.0273         estimate D2E/DX2                !
 ! A20   A(1,5,12)             109.7842         estimate D2E/DX2                !
 ! A21   A(1,5,19)             109.1091         estimate D2E/DX2                !
 ! A22   A(1,5,20)             109.8688         estimate D2E/DX2                !
 ! A23   A(12,5,19)            109.2392         estimate D2E/DX2                !
 ! A24   A(12,5,20)            111.345          estimate D2E/DX2                !
 ! A25   A(19,5,20)            107.4379         estimate D2E/DX2                !
 ! A26   A(1,6,9)              124.0059         estimate D2E/DX2                !
 ! A27   A(8,7,9)              112.4658         estimate D2E/DX2                !
 ! A28   A(8,7,21)             111.6678         estimate D2E/DX2                !
 ! A29   A(8,7,22)             109.1972         estimate D2E/DX2                !
 ! A30   A(9,7,21)             108.7763         estimate D2E/DX2                !
 ! A31   A(9,7,22)             107.1098         estimate D2E/DX2                !
 ! A32   A(21,7,22)            107.399          estimate D2E/DX2                !
 ! A33   A(7,8,10)             109.3951         estimate D2E/DX2                !
 ! A34   A(7,8,23)             110.2733         estimate D2E/DX2                !
 ! A35   A(7,8,24)             109.7633         estimate D2E/DX2                !
 ! A36   A(10,8,23)            109.6692         estimate D2E/DX2                !
 ! A37   A(10,8,24)            110.7168         estimate D2E/DX2                !
 ! A38   A(23,8,24)            106.9989         estimate D2E/DX2                !
 ! A39   A(3,9,6)              111.9972         estimate D2E/DX2                !
 ! A40   A(3,9,7)              111.5271         estimate D2E/DX2                !
 ! A41   A(3,9,25)             104.8058         estimate D2E/DX2                !
 ! A42   A(6,9,7)              108.2674         estimate D2E/DX2                !
 ! A43   A(6,9,25)             110.6399         estimate D2E/DX2                !
 ! A44   A(7,9,25)             109.58           estimate D2E/DX2                !
 ! A45   A(8,10,11)            109.8909         estimate D2E/DX2                !
 ! A46   A(8,10,26)            111.1878         estimate D2E/DX2                !
 ! A47   A(8,10,27)            109.8578         estimate D2E/DX2                !
 ! A48   A(11,10,26)           108.9367         estimate D2E/DX2                !
 ! A49   A(11,10,27)           109.4219         estimate D2E/DX2                !
 ! A50   A(26,10,27)           107.4962         estimate D2E/DX2                !
 ! A51   A(3,11,10)            111.6878         estimate D2E/DX2                !
 ! A52   A(3,11,28)            105.4533         estimate D2E/DX2                !
 ! A53   A(3,11,29)            109.5331         estimate D2E/DX2                !
 ! A54   A(10,11,28)           111.5668         estimate D2E/DX2                !
 ! A55   A(10,11,29)           110.2894         estimate D2E/DX2                !
 ! A56   A(28,11,29)           108.1427         estimate D2E/DX2                !
 ! A57   A(2,12,5)             109.4219         estimate D2E/DX2                !
 ! A58   A(2,12,30)            110.5255         estimate D2E/DX2                !
 ! A59   A(2,12,31)            109.2026         estimate D2E/DX2                !
 ! A60   A(5,12,30)            109.807          estimate D2E/DX2                !
 ! A61   A(5,12,31)            110.9748         estimate D2E/DX2                !
 ! A62   A(30,12,31)           106.884          estimate D2E/DX2                !
 ! A63   A(2,13,4)             113.3578         estimate D2E/DX2                !
 ! D1    D(5,1,4,13)            28.6549         estimate D2E/DX2                !
 ! D2    D(5,1,4,17)           150.1846         estimate D2E/DX2                !
 ! D3    D(5,1,4,18)           -91.4614         estimate D2E/DX2                !
 ! D4    D(6,1,4,13)           -97.3028         estimate D2E/DX2                !
 ! D5    D(6,1,4,17)            24.2269         estimate D2E/DX2                !
 ! D6    D(6,1,4,18)           142.5809         estimate D2E/DX2                !
 ! D7    D(14,1,4,13)          146.5202         estimate D2E/DX2                !
 ! D8    D(14,1,4,17)          -91.9501         estimate D2E/DX2                !
 ! D9    D(14,1,4,18)           26.4038         estimate D2E/DX2                !
 ! D10   D(4,1,5,12)            33.4523         estimate D2E/DX2                !
 ! D11   D(4,1,5,19)           -86.2325         estimate D2E/DX2                !
 ! D12   D(4,1,5,20)           156.2238         estimate D2E/DX2                !
 ! D13   D(6,1,5,12)           164.1746         estimate D2E/DX2                !
 ! D14   D(6,1,5,19)            44.4897         estimate D2E/DX2                !
 ! D15   D(6,1,5,20)           -73.054          estimate D2E/DX2                !
 ! D16   D(14,1,5,12)          -82.8961         estimate D2E/DX2                !
 ! D17   D(14,1,5,19)          157.4191         estimate D2E/DX2                !
 ! D18   D(14,1,5,20)           39.8754         estimate D2E/DX2                !
 ! D19   D(4,1,6,9)             14.3058         estimate D2E/DX2                !
 ! D20   D(5,1,6,9)           -111.6047         Frozen                          !
 ! D21   D(14,1,6,9)           132.0436         estimate D2E/DX2                !
 ! D22   D(13,2,12,5)           28.0494         estimate D2E/DX2                !
 ! D23   D(13,2,12,30)         -92.9923         estimate D2E/DX2                !
 ! D24   D(13,2,12,31)         149.6987         estimate D2E/DX2                !
 ! D25   D(15,2,12,5)          150.1556         estimate D2E/DX2                !
 ! D26   D(15,2,12,30)          29.114          estimate D2E/DX2                !
 ! D27   D(15,2,12,31)         -88.195          estimate D2E/DX2                !
 ! D28   D(16,2,12,5)          -89.3767         estimate D2E/DX2                !
 ! D29   D(16,2,12,30)         149.5816         estimate D2E/DX2                !
 ! D30   D(16,2,12,31)          32.2726         estimate D2E/DX2                !
 ! D31   D(12,2,13,4)           36.2292         estimate D2E/DX2                !
 ! D32   D(15,2,13,4)          -87.0444         estimate D2E/DX2                !
 ! D33   D(16,2,13,4)          156.7078         estimate D2E/DX2                !
 ! D34   D(11,3,9,6)            68.6994         estimate D2E/DX2                !
 ! D35   D(11,3,9,7)           -52.8182         estimate D2E/DX2                !
 ! D36   D(11,3,9,25)         -171.3005         estimate D2E/DX2                !
 ! D37   D(9,3,11,10)           56.2121         estimate D2E/DX2                !
 ! D38   D(9,3,11,28)          177.5692         estimate D2E/DX2                !
 ! D39   D(9,3,11,29)          -66.2716         estimate D2E/DX2                !
 ! D40   D(1,4,13,2)           -68.4017         estimate D2E/DX2                !
 ! D41   D(17,4,13,2)          166.643          estimate D2E/DX2                !
 ! D42   D(18,4,13,2)           50.9096         estimate D2E/DX2                !
 ! D43   D(1,5,12,2)           -63.3054         estimate D2E/DX2                !
 ! D44   D(1,5,12,30)           58.1709         estimate D2E/DX2                !
 ! D45   D(1,5,12,31)          176.1192         estimate D2E/DX2                !
 ! D46   D(19,5,12,2)           56.2999         estimate D2E/DX2                !
 ! D47   D(19,5,12,30)         177.7762         estimate D2E/DX2                !
 ! D48   D(19,5,12,31)         -64.2754         estimate D2E/DX2                !
 ! D49   D(20,5,12,2)          174.8001         estimate D2E/DX2                !
 ! D50   D(20,5,12,30)         -63.7236         estimate D2E/DX2                !
 ! D51   D(20,5,12,31)          54.2247         estimate D2E/DX2                !
 ! D52   D(1,6,9,3)             72.5548         estimate D2E/DX2                !
 ! D53   D(1,6,9,7)           -164.0714         estimate D2E/DX2                !
 ! D54   D(1,6,9,25)           -43.9756         estimate D2E/DX2                !
 ! D55   D(9,7,8,10)           -52.0008         estimate D2E/DX2                !
 ! D56   D(9,7,8,23)            68.6929         estimate D2E/DX2                !
 ! D57   D(9,7,8,24)          -173.669          estimate D2E/DX2                !
 ! D58   D(21,7,8,10)         -174.6217         estimate D2E/DX2                !
 ! D59   D(21,7,8,23)          -53.928          estimate D2E/DX2                !
 ! D60   D(21,7,8,24)           63.7101         estimate D2E/DX2                !
 ! D61   D(22,7,8,10)           66.7558         estimate D2E/DX2                !
 ! D62   D(22,7,8,23)         -172.5505         estimate D2E/DX2                !
 ! D63   D(22,7,8,24)          -54.9123         estimate D2E/DX2                !
 ! D64   D(8,7,9,3)             50.3361         estimate D2E/DX2                !
 ! D65   D(8,7,9,6)            -73.321          estimate D2E/DX2                !
 ! D66   D(8,7,9,25)           165.9224         estimate D2E/DX2                !
 ! D67   D(21,7,9,3)           174.5709         estimate D2E/DX2                !
 ! D68   D(21,7,9,6)            50.9138         estimate D2E/DX2                !
 ! D69   D(21,7,9,25)          -69.8428         estimate D2E/DX2                !
 ! D70   D(22,7,9,3)           -69.6369         estimate D2E/DX2                !
 ! D71   D(22,7,9,6)           166.7059         estimate D2E/DX2                !
 ! D72   D(22,7,9,25)           45.9494         estimate D2E/DX2                !
 ! D73   D(7,8,10,11)           53.8176         estimate D2E/DX2                !
 ! D74   D(7,8,10,26)          174.507          estimate D2E/DX2                !
 ! D75   D(7,8,10,27)          -66.6232         estimate D2E/DX2                !
 ! D76   D(23,8,10,11)         -67.2433         estimate D2E/DX2                !
 ! D77   D(23,8,10,26)          53.4461         estimate D2E/DX2                !
 ! D78   D(23,8,10,27)         172.3158         estimate D2E/DX2                !
 ! D79   D(24,8,10,11)         174.9093         estimate D2E/DX2                !
 ! D80   D(24,8,10,26)         -64.4013         estimate D2E/DX2                !
 ! D81   D(24,8,10,27)          54.4685         estimate D2E/DX2                !
 ! D82   D(8,10,11,3)          -55.3235         estimate D2E/DX2                !
 ! D83   D(8,10,11,28)        -173.0682         estimate D2E/DX2                !
 ! D84   D(8,10,11,29)          66.7262         estimate D2E/DX2                !
 ! D85   D(26,10,11,3)        -177.3617         estimate D2E/DX2                !
 ! D86   D(26,10,11,28)         64.8935         estimate D2E/DX2                !
 ! D87   D(26,10,11,29)        -55.312          estimate D2E/DX2                !
 ! D88   D(27,10,11,3)          65.3807         estimate D2E/DX2                !
 ! D89   D(27,10,11,28)        -52.3641         estimate D2E/DX2                !
 ! D90   D(27,10,11,29)       -172.5696         estimate D2E/DX2                !
 --------------------------------------------------------------------------------
 Trust Radius=3.00D-01 FncErr=1.00D-07 GrdErr=1.00D-06 EigMax=2.50D+02 EigMin=1.00D-04
 Number of steps in this run=    186 maximum allowed number of steps=    186.
 GradGradGradGradGradGradGradGradGradGradGradGradGradGradGradGradGradGrad

                          Input orientation:                          
 ---------------------------------------------------------------------
 Center     Atomic      Atomic             Coordinates (Angstroms)
 Number     Number       Type             X           Y           Z
 ---------------------------------------------------------------------
      1          6           0        1.105651    0.930644    0.628284
      2          6           0        3.250240   -0.778009   -0.514374
      3          8           0       -1.076808   -0.534530   -1.010221
      4          6           0        1.824774    1.098541   -0.716640
      5          6           0        1.618986   -0.332858    1.324308
      6          8           0       -0.326539    0.927915    0.629740
      7          6           0       -2.528992    1.219822   -0.187077
      8          6           0       -3.264410    0.206966    0.689753
      9          6           0       -1.108235    0.780497   -0.517568
     10          6           0       -3.169727   -1.178695    0.052900
     11          6           0       -1.715623   -1.525783   -0.215545
     12          6           0        3.095076   -0.542518    0.992366
     13          8           0        2.219003   -0.142378   -1.256926
     14          1           0        1.362437    1.794686    1.228204
     15          1           0        4.213207   -0.422345   -0.868685
     16          1           0        3.169179   -1.831250   -0.747575
     17          1           0        1.228198    1.598540   -1.461385
     18          1           0        2.704503    1.711870   -0.549856
     19          1           0        1.049603   -1.186569    0.975107
     20          1           0        1.462424   -0.253556    2.394713
     21          1           0       -2.492444    2.199278    0.277079
     22          1           0       -3.058166    1.326720   -1.130257
     23          1           0       -2.827628    0.182921    1.684699
     24          1           0       -4.301598    0.506379    0.805572
     25          1           0       -0.721409    1.384412   -1.320507
     26          1           0       -3.599903   -1.938270    0.699588
     27          1           0       -3.723863   -1.193875   -0.882841
     28          1           0       -1.623489   -2.446742   -0.774672
     29          1           0       -1.178603   -1.642892    0.718483
     30          1           0        3.669230    0.325700    1.303310
     31          1           0        3.496640   -1.394711    1.529841
 ---------------------------------------------------------------------
                    Distance matrix (angstroms):
                    1          2          3          4          5
     1  C    0.000000
     2  C    2.970593   0.000000
     3  O    3.097509   4.362166   0.000000
     4  C    1.534323   2.365228   3.342497   0.000000
     5  C    1.531143   2.497979   3.571835   2.501344   0.000000
     6  O    1.432193   4.124624   2.321879   2.543619   2.420132
     7  C    3.736184   6.123559   2.421602   4.387531   4.679831
     8  C    4.430002   6.697818   2.867984   5.354684   4.953951
     9  C    2.497361   4.628742   1.404632   2.956911   3.474162
    10  C    4.802003   6.457424   2.434232   5.542836   5.026300
    11  C    3.834797   5.030732   1.422033   4.435379   3.861843
    12  C    2.502114   1.532905   4.627638   2.688390   1.527411
    13  O    2.438226   1.420866   3.328215   1.409683   2.656891
    14  H    1.082780   3.635813   4.047927   2.116788   2.145110
    15  H    3.705186   1.085974   5.293097   2.835635   3.398118
    16  H    3.712034   1.081790   4.447344   3.223671   2.990146
    17  H    2.197230   3.260900   3.172789   1.077287   3.412199
    18  H    2.134164   2.549232   4.422280   1.085317   2.978548
    19  H    2.146164   2.688546   2.981326   2.946969   1.083956
    20  H    2.156360   3.454580   4.256785   3.411742   1.084697
    21  H    3.831327   6.516829   3.336896   4.564808   4.940876
    22  H    4.537258   6.678711   2.721110   4.905736   5.536681
    23  H    4.140747   6.534507   3.292826   5.315038   4.490911
    24  H    5.426765   7.773170   3.844459   6.340364   6.002226
    25  H    2.709583   4.593464   1.976088   2.632380   3.927023
    26  H    5.511623   7.052969   3.355584   6.376131   5.495855
    27  H    5.488286   6.996201   2.730909   6.005844   5.844561
    28  H    4.563247   5.158067   2.002723   4.946000   4.403166
    29  H    3.442243   4.677885   2.056027   4.312228   3.147970
    30  H    2.719109   2.167418   5.349514   2.842446   2.153518
    31  H    3.454983   2.149383   5.301722   3.749416   2.166878
                    6          7          8          9         10
     6  O    0.000000
     7  C    2.367108   0.000000
     8  C    3.025633   1.528250   0.000000
     9  C    1.396100   1.523411   2.536859   0.000000
    10  C    3.585285   2.494196   1.527941   2.900623   0.000000
    11  C    2.943585   2.863691   2.494138   2.403969   1.518865
    12  C    3.741807   6.010580   6.410645   4.658121   6.366716
    13  O    3.344371   5.054070   5.829187   3.531127   5.641632
    14  H    1.990500   4.180515   4.921229   3.190693   5.546426
    15  H    4.967673   6.972700   7.664171   5.466979   7.478576
    16  H    4.661548   6.487862   6.900094   5.017011   6.422485
    17  H    2.690678   3.985444   5.171789   2.649321   5.417364
    18  H    3.345631   5.269079   6.279275   3.924980   6.574592
    19  H    2.546387   4.466288   4.542475   3.279282   4.318944
    20  H    2.776939   4.976734   5.045981   4.019818   5.272266
    21  H    2.536115   1.084486   2.176129   2.135518   3.452488
    22  H    3.273900   1.086757   2.146817   2.115651   2.772979
    23  H    2.814854   2.160531   1.086864   2.857165   2.152626
    24  H    4.001213   2.153250   1.085735   3.467479   2.164976
    25  H    2.041513   2.139885   3.448823   1.076596   3.801319
    26  H    4.351414   3.450590   2.171334   3.883500   1.086375
    27  H    4.281554   2.781679   2.155575   3.297435   1.087616
    28  H    3.878500   3.822158   3.446640   3.278210   2.164179
    29  H    2.709785   3.292221   2.788080   2.721321   2.150129
    30  H    4.096649   6.437287   6.961746   5.132895   7.113231
    31  H    4.563055   6.789096   6.998779   5.488924   6.831432
                   11         12         13         14         15
    11  C    0.000000
    12  C    5.056549   0.000000
    13  O    4.298787   2.446820   0.000000
    14  H    4.752302   2.918935   3.265240   0.000000
    15  H    6.065904   2.174435   2.050844   4.176010   0.000000
    16  H    4.923175   2.166499   2.003637   4.507264   1.757747
    17  H    4.469854   3.753699   2.013528   2.700071   3.653156
    18  H    5.489233   2.759214   2.043011   2.229237   2.633005
    19  H    3.029718   2.144542   2.727600   3.008289   3.740588
    20  H    4.304880   2.171550   3.730850   2.359245   4.271424
    21  H    3.836953   6.264939   5.480352   3.991045   7.290503
    22  H    3.282666   6.772146   5.479307   5.032202   7.483349
    23  H    2.786961   6.006997   5.850424   4.512518   7.513952
    24  H    3.443781   7.473009   6.869718   5.824057   8.727403
    25  H    3.267818   4.860864   3.313782   3.317630   5.274367
    26  H    2.134977   6.845187   6.396315   6.232111   8.111855
    27  H    2.142073   7.102014   6.046755   6.265657   7.974493
    28  H    1.081331   5.386404   4.506374   5.560304   6.178515
    29  H    1.083750   4.421557   4.206841   4.305072   5.751561
    30  H    5.893348   1.086343   2.979440   2.735846   2.360730
    31  H    5.498294   1.084604   3.311611   3.849423   2.685496
                   16         17         18         19         20
    16  H    0.000000
    17  H    4.005046   0.000000
    18  H    3.578927   1.738737   0.000000
    19  H    2.806394   3.704757   3.669490   0.000000
    20  H    3.908466   4.284228   3.751819   1.748204   0.000000
    21  H    7.024888   4.150460   5.284851   4.949475   5.112900
    22  H    6.992785   4.307720   5.804615   5.255754   5.946295
    23  H    6.777502   5.324617   6.159172   4.172762   4.370261
    24  H    7.980557   6.075406   7.237116   5.615173   6.027173
    25  H    5.079902   1.966384   3.526756   3.875083   4.610306
    26  H    6.922875   6.363127   7.391222   4.717931   5.598113
    27  H    6.923769   5.714473   7.062445   5.122304   6.206781
    28  H    4.832104   4.996799   6.006339   3.434412   4.937401
    29  H    4.592169   4.588180   5.285984   2.288884   3.422722
    30  H    3.018048   3.901576   2.507267   3.042552   2.529168
    31  H    2.341884   4.801335   3.821448   2.517746   2.487624
                   21         22         23         24         25
    21  H    0.000000
    22  H    1.749855   0.000000
    23  H    2.481821   3.047196   0.000000
    24  H    2.533427   2.442645   1.746447   0.000000
    25  H    2.520487   2.345199   3.861477   4.255456   0.000000
    26  H    4.303985   3.781795   2.462987   2.545568   4.838050
    27  H    3.791477   2.618734   3.048125   2.464829   3.981689
    28  H    4.842186   4.052623   3.796523   4.288399   3.973591
    29  H    4.084518   3.971044   2.643189   3.792103   3.678461
    30  H    6.521478   7.223721   6.509609   7.988397   5.223313
    31  H    7.096147   7.579432   6.519913   8.059232   5.799995
                   26         27         28         29         30
    26  H    0.000000
    27  H    1.753160   0.000000
    28  H    2.517578   2.448050   0.000000
    29  H    2.439323   3.040428   1.753171   0.000000
    30  H    7.637430   7.857874   6.325924   5.264871   0.000000
    31  H    7.165591   7.615578   5.712554   4.751609   1.743823
                   31
    31  H    0.000000
 Stoichiometry    C10H18O3
 Framework group  C1[X(C10H18O3)]
 Deg. of freedom    87
 Full point group                 C1      NOp   1
 Largest Abelian subgroup         C1      NOp   1
 Largest concise Abelian subgroup C1      NOp   1
                         Standard orientation:                         
 ---------------------------------------------------------------------
 Center     Atomic      Atomic             Coordinates (Angstroms)
 Number     Number       Type             X           Y           Z
 ---------------------------------------------------------------------
      1          6           0       -1.105651   -0.930644    0.628284
      2          6           0       -3.250240    0.778009   -0.514374
      3          8           0        1.076808    0.534530   -1.010221
      4          6           0       -1.824774   -1.098541   -0.716640
      5          6           0       -1.618986    0.332858    1.324308
      6          8           0        0.326539   -0.927915    0.629740
      7          6           0        2.528992   -1.219822   -0.187077
      8          6           0        3.264410   -0.206966    0.689753
      9          6           0        1.108235   -0.780497   -0.517568
     10          6           0        3.169727    1.178695    0.052900
     11          6           0        1.715623    1.525783   -0.215545
     12          6           0       -3.095076    0.542518    0.992366
     13          8           0       -2.219003    0.142378   -1.256926
     14          1           0       -1.362437   -1.794686    1.228204
     15          1           0       -4.213207    0.422345   -0.868685
     16          1           0       -3.169179    1.831250   -0.747575
     17          1           0       -1.228198   -1.598540   -1.461385
     18          1           0       -2.704503   -1.711870   -0.549856
     19          1           0       -1.049603    1.186569    0.975107
     20          1           0       -1.462424    0.253556    2.394713
     21          1           0        2.492444   -2.199278    0.277079
     22          1           0        3.058166   -1.326720   -1.130257
     23          1           0        2.827628   -0.182921    1.684699
     24          1           0        4.301598   -0.506379    0.805572
     25          1           0        0.721409   -1.384412   -1.320507
     26          1           0        3.599903    1.938270    0.699588
     27          1           0        3.723863    1.193875   -0.882841
     28          1           0        1.623489    2.446742   -0.774672
     29          1           0        1.178603    1.642892    0.718483
     30          1           0       -3.669230   -0.325700    1.303310
     31          1           0       -3.496640    1.394711    1.529841
 ---------------------------------------------------------------------
 Rotational constants (GHZ):           1.7158085           0.4708493           0.4556093
 Standard basis: 6-311++G(2d,2p) (5D, 7F)
 There are   557 symmetry adapted cartesian basis functions of A   symmetry.
 There are   531 symmetry adapted basis functions of A   symmetry.
   531 basis functions,   762 primitive gaussians,   557 cartesian basis functions
    51 alpha electrons       51 beta electrons
       nuclear repulsion energy       910.4576384808 Hartrees.
 NAtoms=   31 NActive=   31 NUniq=   31 SFac= 1.00D+00 NAtFMM=   60 NAOKFM=F Big=F
 Integral buffers will be    131072 words long.
 Raffenetti 2 integral format.
 Two-electron integral symmetry is turned on.
 ------------------------------------------------------------------------------
 Polarizable Continuum Model (PCM)
 =================================
 Model                : PCM.
 Atomic radii         : UFF (Universal Force Field).
 Polarization charges : Total charges.
 Charge compensation  : None.
 Solution method      : On-the-fly selection.
 Cavity type          : Scaled VdW (van der Waals Surface) (Alpha=1.100).
 Cavity algorithm     : GePol (No added spheres)
                        Default sphere list used, NSphG=   31.
                        Lebedev-Laikov grids with approx.  5.0 points / Ang**2.
                        Smoothing algorithm: York/Karplus (Gamma=1.0000).
                        Polarization charges: spherical gaussians, with
                                              point-specific exponents (IZeta= 3).
                        Self-potential: point-specific (ISelfS= 7).
                        Self-field    : sphere-specific E.n sum rule (ISelfD= 2).
 1st derivatives      : Analytical E(r).r(x)/FMM algorithm (CHGder, D1EAlg=3).
                        Cavity 1st derivative terms included.
 Solvent              : Water, Eps=  78.355300 Eps(inf)=   1.777849
 ------------------------------------------------------------------------------
 One-electron integrals computed using PRISM.
 NBasis=   531 RedAO= T EigKep=  3.65D-06  NBF=   531
 NBsUse=   531 1.00D-06 EigRej= -1.00D+00 NBFU=   531
 ExpMin= 3.60D-02 ExpMax= 8.59D+03 ExpMxC= 1.30D+03 IAcc=3 IRadAn=         5 AccDes= 0.00D+00
 Harris functional with IExCor= 1009 and IRadAn=       5 diagonalized for initial guess.
 HarFok:  IExCor= 1009 AccDes= 0.00D+00 IRadAn=         5 IDoV= 1 UseB2=F ITyADJ=14
 ICtDFT=  3500011 ScaDFX=  1.000000  1.000000  1.000000  1.000000
 FoFCou: FMM=F IPFlag=           0 FMFlag=      100000 FMFlg1=           0
         NFxFlg=           0 DoJE=T BraDBF=F KetDBF=T FulRan=T
         wScrn=  0.000000 ICntrl=       500 IOpCl=  0 I1Cent=   200000004 NGrid=           0
         NMat0=    1 NMatS0=      1 NMatT0=    0 NMatD0=    1 NMtDS0=    0 NMtDT0=    0
 Petite list used in FoFCou.
 Requested convergence on RMS density matrix=1.00D-08 within 128 cycles.
 Requested convergence on MAX density matrix=1.00D-06.
 Requested convergence on             energy=1.00D-06.
 No special actions if energy rises.
 Inv3:  Mode=1 IEnd=    12484800.
 Iteration    1 A*A^-1 deviation from unit magnitude is 4.88D-15 for   2008.
 Iteration    1 A*A^-1 deviation from orthogonality  is 1.67D-15 for   1476    312.
 Iteration    1 A^-1*A deviation from unit magnitude is 4.88D-15 for   2008.
 Iteration    1 A^-1*A deviation from orthogonality  is 1.96D-15 for   1676    682.
 Error on total polarization charges =  0.01449
 SCF Done:  E(RM062X) =  -617.485529267     A.U. after   12 cycles
            NFock= 12  Conv=0.73D-08     -V/T= 2.0035

 **********************************************************************

            Population analysis using the SCF density.

 **********************************************************************

 Orbital symmetries:
       Occupied  (A) (A) (A) (A) (A) (A) (A) (A) (A) (A) (A) (A)
                 (A) (A) (A) (A) (A) (A) (A) (A) (A) (A) (A) (A)
                 (A) (A) (A) (A) (A) (A) (A) (A) (A) (A) (A) (A)
                 (A) (A) (A) (A) (A) (A) (A) (A) (A) (A) (A) (A)
                 (A) (A) (A)
       Virtual   (A) (A) (A) (A) (A) (A) (A) (A) (A) (A) (A) (A)
                 (A) (A) (A) (A) (A) (A) (A) (A) (A) (A) (A) (A)
                 (A) (A) (A) (A) (A) (A) (A) (A) (A) (A) (A) (A)
                 (A) (A) (A) (A) (A) (A) (A) (A) (A) (A) (A) (A)
                 (A) (A) (A) (A) (A) (A) (A) (A) (A) (A) (A) (A)
                 (A) (A) (A) (A) (A) (A) (A) (A) (A) (A) (A) (A)
                 (A) (A) (A) (A) (A) (A) (A) (A) (A) (A) (A) (A)
                 (A) (A) (A) (A) (A) (A) (A) (A) (A) (A) (A) (A)
                 (A) (A) (A) (A) (A) (A) (A) (A) (A) (A) (A) (A)
                 (A) (A) (A) (A) (A) (A) (A) (A) (A) (A) (A) (A)
                 (A) (A) (A) (A) (A) (A) (A) (A) (A) (A) (A) (A)
                 (A) (A) (A) (A) (A) (A) (A) (A) (A) (A) (A) (A)
                 (A) (A) (A) (A) (A) (A) (A) (A) (A) (A) (A) (A)
                 (A) (A) (A) (A) (A) (A) (A) (A) (A) (A) (A) (A)
                 (A) (A) (A) (A) (A) (A) (A) (A) (A) (A) (A) (A)
                 (A) (A) (A) (A) (A) (A) (A) (A) (A) (A) (A) (A)
                 (A) (A) (A) (A) (A) (A) (A) (A) (A) (A) (A) (A)
                 (A) (A) (A) (A) (A) (A) (A) (A) (A) (A) (A) (A)
                 (A) (A) (A) (A) (A) (A) (A) (A) (A) (A) (A) (A)
                 (A) (A) (A) (A) (A) (A) (A) (A) (A) (A) (A) (A)
                 (A) (A) (A) (A) (A) (A) (A) (A) (A) (A) (A) (A)
                 (A) (A) (A) (A) (A) (A) (A) (A) (A) (A) (A) (A)
                 (A) (A) (A) (A) (A) (A) (A) (A) (A) (A) (A) (A)
                 (A) (A) (A) (A) (A) (A) (A) (A) (A) (A) (A) (A)
                 (A) (A) (A) (A) (A) (A) (A) (A) (A) (A) (A) (A)
                 (A) (A) (A) (A) (A) (A) (A) (A) (A) (A) (A) (A)
                 (A) (A) (A) (A) (A) (A) (A) (A) (A) (A) (A) (A)
                 (A) (A) (A) (A) (A) (A) (A) (A) (A) (A) (A) (A)
                 (A) (A) (A) (A) (A) (A) (A) (A) (A) (A) (A) (A)
                 (A) (A) (A) (A) (A) (A) (A) (A) (A) (A) (A) (A)
                 (A) (A) (A) (A) (A) (A) (A) (A) (A) (A) (A) (A)
                 (A) (A) (A) (A) (A) (A) (A) (A) (A) (A) (A) (A)
                 (A) (A) (A) (A) (A) (A) (A) (A) (A) (A) (A) (A)
                 (A) (A) (A) (A) (A) (A) (A) (A) (A) (A) (A) (A)
                 (A) (A) (A) (A) (A) (A) (A) (A) (A) (A) (A) (A)
                 (A) (A) (A) (A) (A) (A) (A) (A) (A) (A) (A) (A)
                 (A) (A) (A) (A) (A) (A) (A) (A) (A) (A) (A) (A)
                 (A) (A) (A) (A) (A) (A) (A) (A) (A) (A) (A) (A)
                 (A) (A) (A) (A) (A) (A) (A) (A) (A) (A) (A) (A)
                 (A) (A) (A) (A) (A) (A) (A) (A) (A) (A) (A) (A)
 The electronic state is 1-A.
 Alpha  occ. eigenvalues --  -19.62524 -19.62465 -19.62438 -10.63266 -10.58925
 Alpha  occ. eigenvalues --  -10.58148 -10.57784 -10.57500 -10.53177 -10.52956
 Alpha  occ. eigenvalues --  -10.52882 -10.52837 -10.52675  -1.19519  -1.16364
 Alpha  occ. eigenvalues --   -1.12980  -0.90857  -0.89696  -0.87042  -0.84806
 Alpha  occ. eigenvalues --   -0.75679  -0.74412  -0.73284  -0.70890  -0.65161
 Alpha  occ. eigenvalues --   -0.61520  -0.60858  -0.58671  -0.58404  -0.56393
 Alpha  occ. eigenvalues --   -0.53960  -0.53147  -0.52777  -0.50547  -0.49696
 Alpha  occ. eigenvalues --   -0.47643  -0.46637  -0.45580  -0.45224  -0.44694
 Alpha  occ. eigenvalues --   -0.43916  -0.42541  -0.41873  -0.40830  -0.39864
 Alpha  occ. eigenvalues --   -0.38394  -0.36708  -0.35927  -0.33680  -0.33199
 Alpha  occ. eigenvalues --   -0.31794
 Alpha virt. eigenvalues --   -0.00188   0.00762   0.00864   0.01057   0.02279
 Alpha virt. eigenvalues --    0.02490   0.02611   0.03221   0.03648   0.04432
 Alpha virt. eigenvalues --    0.04737   0.04991   0.05472   0.05750   0.07190
 Alpha virt. eigenvalues --    0.07468   0.07921   0.08111   0.08840   0.09588
 Alpha virt. eigenvalues --    0.10081   0.10415   0.11032   0.11422   0.11979
 Alpha virt. eigenvalues --    0.12491   0.12631   0.12910   0.13205   0.13360
 Alpha virt. eigenvalues --    0.13851   0.13934   0.14555   0.14651   0.14896
 Alpha virt. eigenvalues --    0.15065   0.15320   0.15757   0.16018   0.16327
 Alpha virt. eigenvalues --    0.16692   0.16931   0.17240   0.17688   0.17777
 Alpha virt. eigenvalues --    0.17851   0.18396   0.18563   0.19359   0.19577
 Alpha virt. eigenvalues --    0.19952   0.20069   0.20647   0.21047   0.21382
 Alpha virt. eigenvalues --    0.22139   0.22655   0.22725   0.23235   0.24075
 Alpha virt. eigenvalues --    0.24240   0.24814   0.25557   0.25980   0.27595
 Alpha virt. eigenvalues --    0.27728   0.28086   0.28883   0.29228   0.29777
 Alpha virt. eigenvalues --    0.30214   0.30576   0.31048   0.31792   0.32083
 Alpha virt. eigenvalues --    0.32774   0.33248   0.33998   0.34344   0.34642
 Alpha virt. eigenvalues --    0.34912   0.35447   0.35811   0.36242   0.36607
 Alpha virt. eigenvalues --    0.37005   0.37397   0.37780   0.38073   0.39099
 Alpha virt. eigenvalues --    0.39241   0.39810   0.40331   0.40840   0.40980
 Alpha virt. eigenvalues --    0.41841   0.42618   0.43648   0.44193   0.45444
 Alpha virt. eigenvalues --    0.46096   0.49026   0.50012   0.50483   0.51061
 Alpha virt. eigenvalues --    0.52197   0.52345   0.54612   0.54748   0.55546
 Alpha virt. eigenvalues --    0.57021   0.57696   0.57942   0.59055   0.59396
 Alpha virt. eigenvalues --    0.60078   0.60418   0.61274   0.61509   0.61634
 Alpha virt. eigenvalues --    0.62024   0.62275   0.62797   0.63370   0.64422
 Alpha virt. eigenvalues --    0.64977   0.65806   0.66047   0.66800   0.67434
 Alpha virt. eigenvalues --    0.67511   0.68778   0.69057   0.70161   0.70349
 Alpha virt. eigenvalues --    0.70431   0.72145   0.72916   0.73322   0.73533
 Alpha virt. eigenvalues --    0.73867   0.74402   0.75029   0.75183   0.75683
 Alpha virt. eigenvalues --    0.75984   0.76448   0.77266   0.78534   0.78944
 Alpha virt. eigenvalues --    0.79937   0.81457   0.83392   0.84491   0.86545
 Alpha virt. eigenvalues --    0.87172   0.87861   0.88245   0.88509   0.89400
 Alpha virt. eigenvalues --    0.90064   0.92672   0.94658   0.95199   0.95817
 Alpha virt. eigenvalues --    0.97333   0.98229   1.00107   1.02073   1.02338
 Alpha virt. eigenvalues --    1.02760   1.03640   1.04770   1.05799   1.06890
 Alpha virt. eigenvalues --    1.07980   1.08781   1.10845   1.11500   1.12933
 Alpha virt. eigenvalues --    1.13152   1.14434   1.15397   1.16052   1.17261
 Alpha virt. eigenvalues --    1.17958   1.19217   1.19453   1.19846   1.20781
 Alpha virt. eigenvalues --    1.22044   1.22850   1.23563   1.24175   1.24941
 Alpha virt. eigenvalues --    1.25389   1.25754   1.26297   1.27386   1.28348
 Alpha virt. eigenvalues --    1.29296   1.29900   1.30525   1.31613   1.32244
 Alpha virt. eigenvalues --    1.32898   1.33128   1.34082   1.34960   1.35050
 Alpha virt. eigenvalues --    1.35951   1.36861   1.37204   1.38784   1.38927
 Alpha virt. eigenvalues --    1.40145   1.40609   1.41172   1.42515   1.42724
 Alpha virt. eigenvalues --    1.43146   1.44009   1.44634   1.45002   1.45718
 Alpha virt. eigenvalues --    1.46038   1.46691   1.47099   1.47391   1.48206
 Alpha virt. eigenvalues --    1.49215   1.49642   1.50455   1.51622   1.52078
 Alpha virt. eigenvalues --    1.52611   1.52846   1.53236   1.54809   1.55545
 Alpha virt. eigenvalues --    1.56287   1.57322   1.58464   1.59031   1.59363
 Alpha virt. eigenvalues --    1.59977   1.60510   1.61336   1.61501   1.62526
 Alpha virt. eigenvalues --    1.62879   1.63631   1.64116   1.65794   1.66418
 Alpha virt. eigenvalues --    1.67887   1.69504   1.71091   1.71647   1.72469
 Alpha virt. eigenvalues --    1.74135   1.74985   1.75416   1.76993   1.77886
 Alpha virt. eigenvalues --    1.78450   1.79956   1.81293   1.82885   1.83589
 Alpha virt. eigenvalues --    1.84937   1.87918   1.89079   1.95601   1.98913
 Alpha virt. eigenvalues --    2.03553   2.06325   2.10418   2.12835   2.18843
 Alpha virt. eigenvalues --    2.22353   2.25670   2.32537   2.36799   2.39283
 Alpha virt. eigenvalues --    2.42071   2.43806   2.45060   2.48818   2.55515
 Alpha virt. eigenvalues --    2.62749   2.76870   2.77787   2.78848   2.83736
 Alpha virt. eigenvalues --    2.85002   2.88586   2.90419   2.92271   2.93599
 Alpha virt. eigenvalues --    2.94881   2.98267   2.99382   3.01919   3.03912
 Alpha virt. eigenvalues --    3.04642   3.07043   3.09065   3.10224   3.11109
 Alpha virt. eigenvalues --    3.14681   3.14889   3.16577   3.19382   3.21791
 Alpha virt. eigenvalues --    3.24909   3.26665   3.30978   3.32100   3.34010
 Alpha virt. eigenvalues --    3.35269   3.36232   3.37233   3.37702   3.39914
 Alpha virt. eigenvalues --    3.41936   3.42369   3.44289   3.44576   3.45784
 Alpha virt. eigenvalues --    3.47922   3.49726   3.50515   3.51290   3.51708
 Alpha virt. eigenvalues --    3.52129   3.53330   3.54381   3.55158   3.55944
 Alpha virt. eigenvalues --    3.56789   3.58128   3.58646   3.59185   3.59362
 Alpha virt. eigenvalues --    3.60330   3.61395   3.62270   3.63018   3.65327
 Alpha virt. eigenvalues --    3.66311   3.66677   3.67512   3.68850   3.69233
 Alpha virt. eigenvalues --    3.69956   3.71612   3.72207   3.73742   3.74037
 Alpha virt. eigenvalues --    3.75051   3.75887   3.77561   3.78168   3.79276
 Alpha virt. eigenvalues --    3.79490   3.81423   3.82808   3.84003   3.85864
 Alpha virt. eigenvalues --    3.87751   3.88859   3.89912   3.91677   3.92043
 Alpha virt. eigenvalues --    3.93229   3.93505   3.95428   3.97623   3.99227
 Alpha virt. eigenvalues --    3.99526   4.00762   4.02321   4.03383   4.04717
 Alpha virt. eigenvalues --    4.05073   4.05671   4.06384   4.07449   4.07758
 Alpha virt. eigenvalues --    4.08538   4.08843   4.09573   4.10671   4.11586
 Alpha virt. eigenvalues --    4.12669   4.13487   4.14301   4.15623   4.16063
 Alpha virt. eigenvalues --    4.17237   4.17889   4.18446   4.19630   4.19931
 Alpha virt. eigenvalues --    4.21231   4.24669   4.24776   4.26602   4.28057
 Alpha virt. eigenvalues --    4.28469   4.28846   4.31706   4.32081   4.32738
 Alpha virt. eigenvalues --    4.33137   4.34085   4.35091   4.37250   4.39838
 Alpha virt. eigenvalues --    4.41216   4.45677   4.47250   4.48850   4.50633
 Alpha virt. eigenvalues --    4.58490   4.61417   4.72745   4.75785   4.82390
 Alpha virt. eigenvalues --    4.85805   4.93171   4.95287   5.01039   5.01272
 Alpha virt. eigenvalues --    5.05072   5.07226   5.07783   5.12366   5.13002
 Alpha virt. eigenvalues --    5.14331   5.15915   5.17404   5.34420   5.39412
 Alpha virt. eigenvalues --    5.43084   5.57843   5.61848   5.67284   5.85558
 Alpha virt. eigenvalues --    5.88316   6.03099   7.00362   7.05221   7.08401
 Alpha virt. eigenvalues --    7.09621   7.10489   7.12090   7.17867   7.19211
 Alpha virt. eigenvalues --    7.30031   7.35951   7.41729   7.45269   7.53223
 Alpha virt. eigenvalues --    7.54373   7.65284  23.96944  23.98059  24.05051
 Alpha virt. eigenvalues --   24.07439  24.11267  24.11567  24.11972  24.15593
 Alpha virt. eigenvalues --   24.17710  24.20620  50.15966  50.18183  50.29890
          Condensed to atoms (all electrons):
               1          2          3          4          5          6
     1  C    9.623034   0.029559   0.145899  -2.050338  -1.987630  -0.191269
     2  C    0.029559   5.477169   0.001985  -0.115968   0.037674   0.000585
     3  O    0.145899   0.001985   8.178664  -0.050362  -0.077874  -0.062326
     4  C   -2.050338  -0.115968  -0.050362   7.036534   0.992474   0.155654
     5  C   -1.987630   0.037674  -0.077874   0.992474   6.810724  -0.017302
     6  O   -0.191269   0.000585  -0.062326   0.155654  -0.017302   8.367557
     7  C    0.745053  -0.010986  -0.038920  -0.488435  -0.246649  -0.145479
     8  C    0.077966  -0.006600   0.001498  -0.015846  -0.017925   0.000500
     9  C   -1.100996   0.054685   0.264381   0.207724   0.297898   0.292626
    10  C   -0.057970  -0.001126  -0.094178   0.007070  -0.002806  -0.007844
    11  C    0.098046  -0.008023   0.147140   0.013542  -0.050930  -0.004300
    12  C    0.210288  -0.099617  -0.000889  -0.234098  -0.213135   0.022144
    13  O    0.054287   0.090537   0.006651   0.132185  -0.074880  -0.015280
    14  H    0.559934  -0.003201   0.001860  -0.071152  -0.100665  -0.066245
    15  H    0.093113   0.501489   0.000307  -0.084682  -0.026095  -0.002124
    16  H   -0.044356   0.448727  -0.001069   0.036472  -0.002783   0.002287
    17  H    0.039357  -0.000375  -0.000341   0.316756  -0.028530  -0.020760
    18  H    0.038883   0.011631  -0.000497   0.432284  -0.006454  -0.005572
    19  H   -0.141578  -0.036889   0.006953   0.024270   0.516668  -0.010437
    20  H    0.020090  -0.001119   0.001393  -0.007604   0.392520  -0.004541
    21  H   -0.023474   0.000350   0.011811   0.007714   0.009495  -0.003070
    22  H    0.012357   0.000160  -0.008787  -0.006412  -0.004387   0.010214
    23  H   -0.001355   0.000245   0.002605  -0.000395  -0.002609  -0.002962
    24  H    0.008715  -0.000333  -0.005791  -0.002992  -0.001634   0.000178
    25  H   -0.086646   0.006893  -0.074701   0.056051   0.043047  -0.008357
    26  H   -0.007653  -0.000156   0.009433   0.003968   0.004415   0.001013
    27  H   -0.002455   0.000173   0.001716  -0.000169  -0.000976  -0.000635
    28  H   -0.008361  -0.000492  -0.065015   0.006001   0.005147   0.001308
    29  H   -0.006624   0.003933  -0.037805  -0.014271   0.024867   0.013621
    30  H   -0.066269  -0.071905  -0.000787   0.019414  -0.011481   0.004353
    31  H    0.024835  -0.023505   0.000305  -0.013779  -0.033638  -0.003448
               7          8          9         10         11         12
     1  C    0.745053   0.077966  -1.100996  -0.057970   0.098046   0.210288
     2  C   -0.010986  -0.006600   0.054685  -0.001126  -0.008023  -0.099617
     3  O   -0.038920   0.001498   0.264381  -0.094178   0.147140  -0.000889
     4  C   -0.488435  -0.015846   0.207724   0.007070   0.013542  -0.234098
     5  C   -0.246649  -0.017925   0.297898  -0.002806  -0.050930  -0.213135
     6  O   -0.145479   0.000500   0.292626  -0.007844  -0.004300   0.022144
     7  C    7.513271   0.023849  -1.639656  -0.197412   0.132659   0.033310
     8  C    0.023849   5.792243  -0.365958  -0.043249   0.018308   0.002895
     9  C   -1.639656  -0.365958   7.872462   0.361114  -0.419444  -0.023309
    10  C   -0.197412  -0.043249   0.361114   5.771945  -0.094990   0.015471
    11  C    0.132659   0.018308  -0.419444  -0.094990   5.508590  -0.000362
    12  C    0.033310   0.002895  -0.023309   0.015471  -0.000362   5.790533
    13  O    0.014198   0.001843   0.003012  -0.000712   0.006636   0.035018
    14  H    0.027875   0.008701  -0.059739  -0.008504   0.010020  -0.003892
    15  H    0.001786  -0.000186   0.002421  -0.000136   0.001467  -0.084239
    16  H   -0.002055   0.000394   0.001258  -0.000535  -0.002402  -0.014057
    17  H    0.030242   0.011742   0.027248  -0.003345   0.010298   0.018492
    18  H   -0.016123  -0.003032  -0.005235   0.000947  -0.002165  -0.035691
    19  H    0.006658   0.009265  -0.029198  -0.012233   0.026329   0.011898
    20  H    0.000446  -0.002962   0.004718   0.003921  -0.008223  -0.013779
    21  H    0.394733  -0.037297   0.008375  -0.003562   0.003550  -0.001117
    22  H    0.546824   0.009093  -0.178938  -0.014808   0.016399   0.000640
    23  H   -0.043648   0.526550  -0.030298  -0.071798   0.007720  -0.001171
    24  H   -0.047611   0.418130   0.016598  -0.026535   0.013359   0.000580
    25  H   -0.136705  -0.050867   0.564989   0.034799  -0.053277  -0.004966
    26  H   -0.018575  -0.055684   0.022234   0.445887  -0.032782   0.000180
    27  H   -0.012902  -0.009350   0.002487   0.470072  -0.082576  -0.000375
    28  H   -0.007798   0.009142  -0.002833  -0.008490   0.423632   0.000785
    29  H    0.032065   0.001304  -0.005419  -0.076048   0.440567  -0.013895
    30  H   -0.000545   0.001087  -0.005850  -0.000310   0.000797   0.501904
    31  H    0.001038  -0.000217   0.001588   0.000465  -0.000863   0.410157
              13         14         15         16         17         18
     1  C    0.054287   0.559934   0.093113  -0.044356   0.039357   0.038883
     2  C    0.090537  -0.003201   0.501489   0.448727  -0.000375   0.011631
     3  O    0.006651   0.001860   0.000307  -0.001069  -0.000341  -0.000497
     4  C    0.132185  -0.071152  -0.084682   0.036472   0.316756   0.432284
     5  C   -0.074880  -0.100665  -0.026095  -0.002783  -0.028530  -0.006454
     6  O   -0.015280  -0.066245  -0.002124   0.002287  -0.020760  -0.005572
     7  C    0.014198   0.027875   0.001786  -0.002055   0.030242  -0.016123
     8  C    0.001843   0.008701  -0.000186   0.000394   0.011742  -0.003032
     9  C    0.003012  -0.059739   0.002421   0.001258   0.027248  -0.005235
    10  C   -0.000712  -0.008504  -0.000136  -0.000535  -0.003345   0.000947
    11  C    0.006636   0.010020   0.001467  -0.002402   0.010298  -0.002165
    12  C    0.035018  -0.003892  -0.084239  -0.014057   0.018492  -0.035691
    13  O    8.280508   0.000465  -0.075319  -0.074628  -0.054357  -0.048938
    14  H    0.000465   0.472507   0.001008   0.000722   0.001825  -0.006764
    15  H   -0.075319   0.001008   0.529324  -0.026788  -0.001458   0.011430
    16  H   -0.074628   0.000722  -0.026788   0.503421   0.000928  -0.005104
    17  H   -0.054357   0.001825  -0.001458   0.000928   0.502588  -0.013086
    18  H   -0.048938  -0.006764   0.011430  -0.005104  -0.013086   0.469245
    19  H   -0.005399   0.001071  -0.009115   0.005695   0.002377  -0.007888
    20  H    0.000127  -0.008086   0.002753  -0.003388  -0.000575   0.003212
    21  H   -0.000004  -0.000972  -0.000019   0.000077  -0.000284   0.000486
    22  H    0.000108   0.000086   0.000063  -0.000152   0.003535  -0.000552
    23  H    0.000015   0.000813   0.000024  -0.000044   0.000340  -0.000222
    24  H   -0.000011   0.000205  -0.000010   0.000015  -0.000182  -0.000061
    25  H   -0.007337  -0.012930  -0.001702   0.001046  -0.033120   0.007769
    26  H   -0.000202  -0.000290  -0.000008   0.000047   0.000145   0.000060
    27  H    0.000185   0.000001  -0.000007  -0.000011  -0.000711   0.000004
    28  H    0.000468  -0.000192   0.000138  -0.000767  -0.000049   0.000229
    29  H    0.002397   0.002026   0.000182   0.000428  -0.000437   0.000438
    30  H    0.004808  -0.000289  -0.017869   0.008124  -0.000226  -0.012062
    31  H    0.009601  -0.002395   0.004539  -0.012024   0.001328   0.000975
              19         20         21         22         23         24
     1  C   -0.141578   0.020090  -0.023474   0.012357  -0.001355   0.008715
     2  C   -0.036889  -0.001119   0.000350   0.000160   0.000245  -0.000333
     3  O    0.006953   0.001393   0.011811  -0.008787   0.002605  -0.005791
     4  C    0.024270  -0.007604   0.007714  -0.006412  -0.000395  -0.002992
     5  C    0.516668   0.392520   0.009495  -0.004387  -0.002609  -0.001634
     6  O   -0.010437  -0.004541  -0.003070   0.010214  -0.002962   0.000178
     7  C    0.006658   0.000446   0.394733   0.546824  -0.043648  -0.047611
     8  C    0.009265  -0.002962  -0.037297   0.009093   0.526550   0.418130
     9  C   -0.029198   0.004718   0.008375  -0.178938  -0.030298   0.016598
    10  C   -0.012233   0.003921  -0.003562  -0.014808  -0.071798  -0.026535
    11  C    0.026329  -0.008223   0.003550   0.016399   0.007720   0.013359
    12  C    0.011898  -0.013779  -0.001117   0.000640  -0.001171   0.000580
    13  O   -0.005399   0.000127  -0.000004   0.000108   0.000015  -0.000011
    14  H    0.001071  -0.008086  -0.000972   0.000086   0.000813   0.000205
    15  H   -0.009115   0.002753  -0.000019   0.000063   0.000024  -0.000010
    16  H    0.005695  -0.003388   0.000077  -0.000152  -0.000044   0.000015
    17  H    0.002377  -0.000575  -0.000284   0.003535   0.000340  -0.000182
    18  H   -0.007888   0.003212   0.000486  -0.000552  -0.000222  -0.000061
    19  H    0.522620  -0.020705  -0.000300   0.000430   0.002615   0.000327
    20  H   -0.020705   0.466964  -0.000199  -0.000126  -0.000783   0.000069
    21  H   -0.000300  -0.000199   0.474380  -0.004060  -0.001744  -0.008871
    22  H    0.000430  -0.000126  -0.004060   0.454503   0.002473  -0.004530
    23  H    0.002615  -0.000783  -0.001744   0.002473   0.456184  -0.005913
    24  H    0.000327   0.000069  -0.008871  -0.004530  -0.005913   0.465089
    25  H   -0.007119   0.002535  -0.011776  -0.021406  -0.004613   0.003790
    26  H    0.000267  -0.000170   0.001378  -0.002566  -0.004609  -0.006718
    27  H    0.001012   0.000022  -0.001075  -0.003396   0.002179  -0.002110
    28  H   -0.000489   0.000007   0.000692   0.001223  -0.001749   0.001638
    29  H   -0.008406  -0.000286  -0.000202  -0.002186  -0.003608  -0.001971
    30  H    0.001938  -0.006345  -0.000022  -0.000011  -0.000037   0.000027
    31  H   -0.003510  -0.008454   0.000012   0.000026  -0.000082   0.000009
              25         26         27         28         29         30
     1  C   -0.086646  -0.007653  -0.002455  -0.008361  -0.006624  -0.066269
     2  C    0.006893  -0.000156   0.000173  -0.000492   0.003933  -0.071905
     3  O   -0.074701   0.009433   0.001716  -0.065015  -0.037805  -0.000787
     4  C    0.056051   0.003968  -0.000169   0.006001  -0.014271   0.019414
     5  C    0.043047   0.004415  -0.000976   0.005147   0.024867  -0.011481
     6  O   -0.008357   0.001013  -0.000635   0.001308   0.013621   0.004353
     7  C   -0.136705  -0.018575  -0.012902  -0.007798   0.032065  -0.000545
     8  C   -0.050867  -0.055684  -0.009350   0.009142   0.001304   0.001087
     9  C    0.564989   0.022234   0.002487  -0.002833  -0.005419  -0.005850
    10  C    0.034799   0.445887   0.470072  -0.008490  -0.076048  -0.000310
    11  C   -0.053277  -0.032782  -0.082576   0.423632   0.440567   0.000797
    12  C   -0.004966   0.000180  -0.000375   0.000785  -0.013895   0.501904
    13  O   -0.007337  -0.000202   0.000185   0.000468   0.002397   0.004808
    14  H   -0.012930  -0.000290   0.000001  -0.000192   0.002026  -0.000289
    15  H   -0.001702  -0.000008  -0.000007   0.000138   0.000182  -0.017869
    16  H    0.001046   0.000047  -0.000011  -0.000767   0.000428   0.008124
    17  H   -0.033120   0.000145  -0.000711  -0.000049  -0.000437  -0.000226
    18  H    0.007769   0.000060   0.000004   0.000229   0.000438  -0.012062
    19  H   -0.007119   0.000267   0.001012  -0.000489  -0.008406   0.001938
    20  H    0.002535  -0.000170   0.000022   0.000007  -0.000286  -0.006345
    21  H   -0.011776   0.001378  -0.001075   0.000692  -0.000202  -0.000022
    22  H   -0.021406  -0.002566  -0.003396   0.001223  -0.002186  -0.000011
    23  H   -0.004613  -0.004609   0.002179  -0.001749  -0.003608  -0.000037
    24  H    0.003790  -0.006718  -0.002110   0.001638  -0.001971   0.000027
    25  H    0.514399   0.001396   0.001461  -0.000698   0.002304  -0.000444
    26  H    0.001396   0.491937  -0.013822  -0.010082  -0.002506   0.000040
    27  H    0.001461  -0.013822   0.488146  -0.005829   0.003967  -0.000024
    28  H   -0.000698  -0.010082  -0.005829   0.477322  -0.020030  -0.000083
    29  H    0.002304  -0.002506   0.003967  -0.020030   0.547652   0.000090
    30  H   -0.000444   0.000040  -0.000024  -0.000083   0.000090   0.473835
    31  H   -0.000229  -0.000053  -0.000010   0.000240   0.001105  -0.009726
              31
     1  C    0.024835
     2  C   -0.023505
     3  O    0.000305
     4  C   -0.013779
     5  C   -0.033638
     6  O   -0.003448
     7  C    0.001038
     8  C   -0.000217
     9  C    0.001588
    10  C    0.000465
    11  C   -0.000863
    12  C    0.410157
    13  O    0.009601
    14  H   -0.002395
    15  H    0.004539
    16  H   -0.012024
    17  H    0.001328
    18  H    0.000975
    19  H   -0.003510
    20  H   -0.008454
    21  H    0.000012
    22  H    0.000026
    23  H   -0.000082
    24  H    0.000009
    25  H   -0.000229
    26  H   -0.000053
    27  H   -0.000010
    28  H    0.000240
    29  H    0.001105
    30  H   -0.009726
    31  H    0.496408
 Mulliken charges:
               1
     1  C   -0.004445
     2  C   -0.285499
     3  O   -0.263259
     4  C   -0.291612
     5  C   -0.226546
     6  O   -0.300091
     7  C   -0.450510
     8  C   -0.305338
     9  C   -0.138946
    10  C   -0.385099
    11  C   -0.118724
    12  C   -0.309702
    13  O   -0.285987
    14  H    0.256198
    15  H    0.179713
    16  H    0.180520
    17  H    0.190636
    18  H    0.191854
    19  H    0.152874
    20  H    0.188570
    21  H    0.184993
    22  H    0.194185
    23  H    0.175877
    24  H    0.186544
    25  H    0.276413
    26  H    0.173477
    27  H    0.165006
    28  H    0.204985
    29  H    0.116747
    30  H    0.187866
    31  H    0.159301
 Sum of Mulliken charges =  -0.00000
 Mulliken charges with hydrogens summed into heavy atoms:
               1
     1  C    0.251752
     2  C    0.074734
     3  O   -0.263259
     4  C    0.090879
     5  C    0.114898
     6  O   -0.300091
     7  C   -0.071333
     8  C    0.057082
     9  C    0.137468
    10  C   -0.046616
    11  C    0.203008
    12  C    0.037465
    13  O   -0.285987
 Electronic spatial extent (au):  <R**2>=           2743.6484
 Charge=             -0.0000 electrons
 Dipole moment (field-independent basis, Debye):
    X=             -0.5660    Y=             -0.6844    Z=              2.0666  Tot=              2.2494
 Quadrupole moment (field-independent basis, Debye-Ang):
   XX=            -68.8670   YY=            -74.7365   ZZ=            -85.1836
   XY=              1.5463   XZ=             -4.1429   YZ=              4.0162
 Traceless Quadrupole moment (field-independent basis, Debye-Ang):
   XX=              7.3953   YY=              1.5259   ZZ=             -8.9212
   XY=              1.5463   XZ=             -4.1429   YZ=              4.0162
 Octapole moment (field-independent basis, Debye-Ang**2):
  XXX=            -11.7706  YYY=              2.9209  ZZZ=              4.4327  XYY=             -4.1176
  XXY=              1.9669  XXZ=              6.2176  XZZ=              1.6951  YZZ=             -3.9489
  YYZ=             -5.2201  XYZ=              1.0128
 Hexadecapole moment (field-independent basis, Debye-Ang**3):
 XXXX=          -2564.9523 YYYY=           -541.8378 ZZZZ=           -452.0675 XXXY=            -10.0740
 XXXZ=             -5.1292 YYYX=              5.0888 YYYZ=             -5.5586 ZZZX=            -11.4515
 ZZZY=              5.3969 XXYY=           -512.8773 XXZZ=           -536.0351 YYZZ=           -161.2199
 XXYZ=              3.4565 YYXZ=              0.8306 ZZXY=              2.0681
 N-N= 9.104576384808D+02 E-N=-3.263202770489D+03  KE= 6.153146660201D+02
 D1PCM: PCM CHGder 1st derivatives, ID1Alg=3 FixD1E=F DoIter=F DoCFld=F I1PDM=0.
 Calling FoFJK, ICntrl=      2127 FMM=F ISym2X=0 I1Cent= 0 IOpClX= 0 NMat=1 NMatS=1 NMatT=0.
 ***** Axes restored to original set *****
 -------------------------------------------------------------------
 Center     Atomic                   Forces (Hartrees/Bohr)
 Number     Number              X              Y              Z
 -------------------------------------------------------------------
      1        6          -0.001851176   -0.003876164   -0.004481718
      2        6          -0.002809673    0.004596401    0.004041589
      3        8           0.003670194   -0.002568806   -0.009619585
      4        6           0.001477274   -0.006818662    0.005354106
      5        6           0.003561717    0.002032855   -0.002236618
      6        8          -0.005299054    0.003222066    0.008628126
      7        6           0.000587247   -0.001269615    0.002285265
      8        6           0.002225748   -0.000899566   -0.003107880
      9        6          -0.000903500   -0.005908239    0.006227248
     10        6           0.001781033    0.000940119    0.002058179
     11        6          -0.003779581    0.006130429   -0.000316527
     12        6          -0.001738165   -0.000892801   -0.001221555
     13        8          -0.004859365   -0.003361422   -0.007117058
     14        1           0.002177790    0.004311018    0.003729191
     15        1           0.005270056    0.001668101   -0.000736282
     16        1          -0.000720172   -0.004723743   -0.000658500
     17        1          -0.004058155    0.002461276   -0.003482247
     18        1           0.004534417    0.004436770    0.001355430
     19        1          -0.003110453   -0.002666082   -0.003216657
     20        1          -0.000616851    0.000406278    0.002653651
     21        1           0.000333978    0.002684731    0.001643144
     22        1          -0.001477201   -0.000242185   -0.003106962
     23        1           0.002375988   -0.000058130    0.002669092
     24        1          -0.002493856    0.000695681    0.000151916
     25        1           0.002712232    0.003800540   -0.006995975
     26        1          -0.001433293   -0.001756943    0.001753212
     27        1          -0.001095341    0.000309910   -0.003126064
     28        1           0.000276264   -0.003788337   -0.002303984
     29        1           0.002745919   -0.000026096    0.006525969
     30        1           0.001416374    0.003067949    0.000917869
     31        1           0.001099605   -0.001907334    0.001733624
 -------------------------------------------------------------------
 Cartesian Forces:  Max     0.009619585 RMS     0.003409784

 GradGradGradGradGradGradGradGradGradGradGradGradGradGradGradGradGradGrad
 Berny optimization.
 FormGI is forming the generalized inverse of G from B-inverse, IUseBI=4.
 Internal  Forces:  Max     0.012910634 RMS     0.002071225
 Search for a local minimum.
 Step number   1 out of a maximum of  186
 All quantities printed in internal units (Hartrees-Bohrs-Radians)
 Mixed Optimization -- RFO/linear search
 Second derivative matrix not updated -- first step.
 ITU=  0
     Eigenvalues ---    0.00407   0.00616   0.00632   0.00723   0.01388
     Eigenvalues ---    0.01404   0.01743   0.02692   0.02749   0.03078
     Eigenvalues ---    0.03293   0.03894   0.04085   0.04502   0.04688
     Eigenvalues ---    0.04752   0.04893   0.04929   0.05049   0.05143
     Eigenvalues ---    0.05323   0.05630   0.05711   0.05960   0.06200
     Eigenvalues ---    0.06205   0.06370   0.06942   0.07566   0.07811
     Eigenvalues ---    0.07818   0.07843   0.07918   0.08103   0.08314
     Eigenvalues ---    0.08873   0.09168   0.10278   0.11319   0.11628
     Eigenvalues ---    0.11749   0.11770   0.11790   0.12413   0.12725
     Eigenvalues ---    0.14782   0.15135   0.16553   0.18464   0.19152
     Eigenvalues ---    0.19838   0.21982   0.22501   0.25000   0.27064
     Eigenvalues ---    0.27694   0.28571   0.28640   0.28904   0.29007
     Eigenvalues ---    0.29227   0.30276   0.35090   0.35178   0.35190
     Eigenvalues ---    0.35235   0.35239   0.35282   0.35310   0.35360
     Eigenvalues ---    0.35433   0.35444   0.35458   0.35521   0.35545
     Eigenvalues ---    0.35661   0.35779   0.35834   0.36324   0.36409
     Eigenvalues ---    0.40156   0.40676   0.40802   0.41703   0.43388
     Eigenvalues ---    0.462731000.000001000.000001000.000001000.00000
     Eigenvalues --- 1000.000001000.000001000.000001000.000001000.00000
     Eigenvalues --- 1000.000001000.000001000.000001000.000001000.00000
     Eigenvalues --- 1000.000001000.000001000.000001000.000001000.00000
     Eigenvalues --- 1000.000001000.000001000.000001000.000001000.00000
     Eigenvalues --- 1000.000001000.000001000.000001000.000001000.00000
     Eigenvalues --- 1000.000001000.000001000.000001000.000001000.00000
     Eigenvalues --- 1000.000001000.000001000.000001000.000001000.00000
     Eigenvalues --- 1000.000001000.000001000.000001000.000001000.00000
     Eigenvalues --- 1000.000001000.000001000.000001000.000001000.00000
     Eigenvalues --- 1000.000001000.000001000.000001000.000001000.00000
     Eigenvalues --- 1000.000001000.000001000.000001000.000001000.00000
     Eigenvalues --- 1000.000001000.000001000.000001000.000001000.00000
     Eigenvalues --- 1000.000001000.000001000.000001000.000001000.00000
     Eigenvalues --- 1000.000001000.000001000.000001000.000001000.00000
     Eigenvalues --- 1000.000001000.000001000.000001000.000001000.00000
     Eigenvalues --- 1000.000001000.000001000.000001000.000001000.00000
     Eigenvalues --- 1000.000001000.000001000.000001000.000001000.00000
     Eigenvalues --- 1000.000001000.000001000.000001000.000001000.00000
     Eigenvalues --- 1000.000001000.000001000.000001000.000001000.00000
 RFO step:  Lambda=-3.42616702D-03 EMin= 4.07063478D-03
 Linear search not attempted -- first point.
 Iteration  1 RMS(Cart)=  0.05267720 RMS(Int)=  0.00046398
 Iteration  2 RMS(Cart)=  0.00139439 RMS(Int)=  0.00006285
 Iteration  3 RMS(Cart)=  0.00000083 RMS(Int)=  0.00006285
 Iteration  1 RMS(Cart)=  0.00000480 RMS(Int)=  0.00000110
 Iteration  2 RMS(Cart)=  0.00000269 RMS(Int)=  0.00000123
 Iteration  3 RMS(Cart)=  0.00000151 RMS(Int)=  0.00000140
 Iteration  4 RMS(Cart)=  0.00000085 RMS(Int)=  0.00000151
 Variable       Old X    -DE/DX   Delta X   Delta X   Delta X     New X
                                 (Linear)    (Quad)   (Total)
    R1        2.89945   0.00016   0.00000   0.00019   0.00021   2.89966
    R2        2.89344  -0.00113   0.00000  -0.00600  -0.00600   2.88744
    R3        2.70645  -0.00023   0.00000  -0.00056  -0.00056   2.70589
    R4        2.04616   0.00602   0.00000   0.01673   0.01673   2.06289
    R5        2.89677   0.00054   0.00000   0.00260   0.00260   2.89937
    R6        2.68505   0.00301   0.00000   0.00875   0.00877   2.69382
    R7        2.05219   0.00546   0.00000   0.01532   0.01532   2.06752
    R8        2.04429   0.00479   0.00000   0.01327   0.01327   2.05755
    R9        2.65437   0.00344   0.00000   0.00705   0.00704   2.66141
   R10        2.68725   0.00241   0.00000   0.00526   0.00526   2.69251
   R11        2.66391   0.00253   0.00000   0.00647   0.00647   2.67039
   R12        2.03578   0.00579   0.00000   0.01580   0.01580   2.05158
   R13        2.05095   0.00639   0.00000   0.01791   0.01791   2.06886
   R14        2.88639  -0.00035   0.00000  -0.00271  -0.00275   2.88364
   R15        2.04838   0.00477   0.00000   0.01330   0.01330   2.06168
   R16        2.04978   0.00274   0.00000   0.00766   0.00766   2.05744
   R17        2.63825   0.00149   0.00000   0.00320   0.00320   2.64144
   R18        2.88797  -0.00141   0.00000  -0.00417  -0.00416   2.88381
   R19        2.87883  -0.00047   0.00000  -0.00179  -0.00182   2.87701
   R20        2.04938   0.00314   0.00000   0.00876   0.00876   2.05814
   R21        2.05367   0.00340   0.00000   0.00956   0.00956   2.06323
   R22        2.88739  -0.00089   0.00000  -0.00216  -0.00214   2.88525
   R23        2.05388   0.00339   0.00000   0.00955   0.00955   2.06343
   R24        2.05174   0.00259   0.00000   0.00727   0.00727   2.05901
   R25        2.03447   0.00833   0.00000   0.02265   0.02265   2.05713
   R26        2.87024   0.00016   0.00000   0.00071   0.00074   2.87098
   R27        2.05295   0.00284   0.00000   0.00797   0.00797   2.06092
   R28        2.05530   0.00325   0.00000   0.00917   0.00917   2.06446
   R29        2.04342   0.00444   0.00000   0.01228   0.01228   2.05570
   R30        2.04799   0.00699   0.00000   0.01947   0.01947   2.06746
   R31        2.05289   0.00347   0.00000   0.00974   0.00974   2.06263
   R32        2.04960   0.00277   0.00000   0.00773   0.00773   2.05733
    A1        1.90883  -0.00018   0.00000  -0.00749  -0.00766   1.90116
    A2        2.05985  -0.00115   0.00000  -0.00622  -0.00626   2.05359
    A3        1.86209   0.00058   0.00000   0.00997   0.01000   1.87209
    A4        1.91052   0.00039   0.00000  -0.00502  -0.00508   1.90544
    A5        1.90406  -0.00024   0.00000  -0.00031  -0.00025   1.90381
    A6        1.81122   0.00069   0.00000   0.01097   0.01097   1.82219
    A7        1.95142   0.00173   0.00000   0.00583   0.00573   1.95714
    A8        1.93921  -0.00121   0.00000  -0.00566  -0.00570   1.93351
    A9        1.93251  -0.00082   0.00000  -0.00727  -0.00724   1.92527
   A10        1.90345   0.00071   0.00000   0.00929   0.00937   1.91282
   A11        1.84264  -0.00100   0.00000  -0.00369  -0.00368   1.83896
   A12        1.89123   0.00060   0.00000   0.00176   0.00172   1.89295
   A13        2.03370  -0.00563   0.00000  -0.03726  -0.03723   1.99647
   A14        1.95056   0.00157   0.00000   0.00635   0.00623   1.95680
   A15        1.97928  -0.00134   0.00000  -0.01353  -0.01351   1.96577
   A16        1.88288  -0.00076   0.00000  -0.00069  -0.00077   1.88211
   A17        1.87389  -0.00088   0.00000  -0.00348  -0.00344   1.87045
   A18        1.90676   0.00100   0.00000   0.01191   0.01190   1.91866
   A19        1.86798   0.00048   0.00000   0.00017   0.00013   1.86811
   A20        1.91610  -0.00052   0.00000  -0.00704  -0.00726   1.90884
   A21        1.90431  -0.00060   0.00000  -0.01295  -0.01288   1.89143
   A22        1.91757  -0.00023   0.00000   0.00058   0.00066   1.91823
   A23        1.90658   0.00109   0.00000   0.00583   0.00577   1.91235
   A24        1.94334  -0.00006   0.00000   0.00504   0.00510   1.94843
   A25        1.87515   0.00034   0.00000   0.00850   0.00842   1.88357
   A26        2.16431  -0.01291   0.00000  -0.05094  -0.05094   2.11337
   A27        1.96290  -0.00168   0.00000  -0.01443  -0.01462   1.94828
   A28        1.94897  -0.00031   0.00000  -0.00223  -0.00232   1.94665
   A29        1.90585   0.00121   0.00000   0.00762   0.00773   1.91358
   A30        1.89850   0.00079   0.00000  -0.00068  -0.00064   1.89786
   A31        1.86942   0.00007   0.00000   0.00384   0.00385   1.87327
   A32        1.87447   0.00001   0.00000   0.00711   0.00707   1.88154
   A33        1.90930   0.00187   0.00000  -0.00053  -0.00049   1.90881
   A34        1.92463  -0.00096   0.00000  -0.00647  -0.00650   1.91813
   A35        1.91573  -0.00049   0.00000   0.00184   0.00183   1.91756
   A36        1.91409  -0.00084   0.00000  -0.00213  -0.00223   1.91185
   A37        1.93237  -0.00025   0.00000   0.00175   0.00181   1.93418
   A38        1.86748   0.00062   0.00000   0.00557   0.00558   1.87307
   A39        1.95472   0.00023   0.00000  -0.00422  -0.00406   1.95066
   A40        1.94651   0.00329   0.00000   0.00982   0.00952   1.95603
   A41        1.82921  -0.00215   0.00000  -0.00923  -0.00923   1.81998
   A42        1.88962  -0.00347   0.00000  -0.01753  -0.01744   1.87218
   A43        1.93103   0.00217   0.00000   0.01758   0.01758   1.94861
   A44        1.91253   0.00012   0.00000   0.00488   0.00499   1.91752
   A45        1.91796  -0.00104   0.00000  -0.00512  -0.00534   1.91262
   A46        1.94059  -0.00052   0.00000  -0.00146  -0.00144   1.93915
   A47        1.91738   0.00096   0.00000   0.00149   0.00158   1.91896
   A48        1.90130   0.00069   0.00000   0.00455   0.00462   1.90592
   A49        1.90977  -0.00005   0.00000  -0.00280  -0.00274   1.90703
   A50        1.87616  -0.00001   0.00000   0.00352   0.00348   1.87965
   A51        1.94932   0.00243   0.00000   0.00594   0.00582   1.95514
   A52        1.84051  -0.00131   0.00000  -0.00155  -0.00155   1.83896
   A53        1.91171   0.00010   0.00000   0.00141   0.00150   1.91322
   A54        1.94721  -0.00036   0.00000  -0.00216  -0.00207   1.94514
   A55        1.92491  -0.00158   0.00000  -0.00718  -0.00722   1.91770
   A56        1.88745   0.00073   0.00000   0.00388   0.00386   1.89131
   A57        1.90977  -0.00010   0.00000  -0.00758  -0.00773   1.90204
   A58        1.92903   0.00066   0.00000   0.00295   0.00297   1.93200
   A59        1.90594  -0.00030   0.00000   0.00399   0.00404   1.90998
   A60        1.91649  -0.00073   0.00000  -0.00317  -0.00316   1.91333
   A61        1.93688   0.00048   0.00000   0.00260   0.00269   1.93957
   A62        1.86548   0.00001   0.00000   0.00155   0.00152   1.86700
   A63        1.97847  -0.00460   0.00000  -0.02622  -0.02623   1.95224
    D1        0.50012   0.00112   0.00000  -0.00526  -0.00523   0.49489
    D2        2.62122   0.00015   0.00000  -0.01498  -0.01496   2.60626
    D3       -1.59630  -0.00058   0.00000  -0.02336  -0.02331  -1.61961
    D4       -1.69825   0.00168   0.00000   0.01370   0.01368  -1.68457
    D5        0.42284   0.00071   0.00000   0.00399   0.00396   0.42680
    D6        2.48851  -0.00001   0.00000  -0.00439  -0.00439   2.48412
    D7        2.55726   0.00106   0.00000  -0.00402  -0.00404   2.55322
    D8       -1.60483   0.00009   0.00000  -0.01373  -0.01377  -1.61860
    D9        0.46083  -0.00064   0.00000  -0.02211  -0.02212   0.43872
   D10        0.58385   0.00141   0.00000   0.02923   0.02919   0.61305
[...]
 03,0.00047963,-0.00047716,-0.00001621,-0.00017866,-0.00000523,0.000002
 42,0.00004737,0.00004383,-0.00002432,0.00004502,0.00130620,-0.00039539
 ,0.00168765,0.00013229,-0.00009448,0.00048826,0.00006034,-0.00003088,-
 0.00000657,0.00004037,-0.00012665,0.00010127,-0.00020007,0.00000391,0.
 00003966,-0.00000382,-0.00033153,0.00091132,-0.00017778,-0.00012823,0.
 00011513,0.00014517,0.00044157,-0.00030318,-0.06594688,-0.11951530,0.2
 0729848,0.00030770,0.00003289,0.00009471,0.00004813,-0.00003836,0.0000
 3117,-0.00872859,-0.00157652,0.00280737,0.00006435,-0.00000089,0.00000
 432,-0.00002519,-0.00001137,0.00002323,-0.00032764,-0.00036584,-0.0005
 5788,0.00085829,0.00125632,0.00035097,0.00103015,0.00274806,-0.0036307
 8,0.00003933,0.00261307,0.00121693,-0.08295572,-0.06832462,0.05314561,
 -0.00691230,-0.02512558,0.01766395,0.00000066,0.00001953,-0.00001607,-
 0.00015205,0.00001605,-0.00002014,-0.00004734,-0.00000986,-0.00001770,
 -0.00001889,0.00000230,-0.00000515,-0.00000671,0.00000972,-0.00000180,
 0.00004764,0.00002679,-0.00004200,-0.00004636,0.00000910,-0.00000129,0
 .00001996,-0.00001341,0.00001824,-0.00000386,-0.00000009,-0.00001245,0
 .00041771,0.00033904,-0.00000129,-0.00011207,-0.00024703,0.00029472,0.
 00007387,-0.00030223,0.00010359,0.00020212,-0.00024804,-0.00052170,0.0
 0009182,-0.00027527,-0.00008349,0.08746186,0.00018753,0.00000473,-0.00
 000956,0.00002256,-0.00000666,0.00000243,0.00213046,0.00167219,-0.0009
 3684,-0.00000376,-0.00003319,-0.00002198,-0.00004714,-0.00000506,0.000
 02375,-0.00041477,0.00010425,0.00002785,0.00124532,-0.00446010,-0.0048
 2957,-0.01070988,-0.02060071,0.01749098,0.00126794,-0.00041283,-0.0003
 6850,-0.06946536,-0.19025677,0.11357293,0.00141081,0.00420242,-0.00397
 066,0.00000010,0.00001340,-0.00001697,-0.00003920,0.00003513,0.0000124
 4,-0.00004349,-0.00000812,-0.00001167,-0.00000480,-0.00000149,0.000002
 92,-0.00000308,0.00000407,-0.00000009,0.00000840,0.00001074,-0.0000192
 8,-0.00001889,0.00000196,0.00000649,0.00001060,-0.00000829,0.00000093,
 -0.00000054,-0.00000051,-0.00000695,-0.00111476,-0.00127740,0.00109887
 ,0.00020966,0.00021976,-0.00004046,-0.00023231,0.00124370,-0.00009697,
 0.00048912,0.00106719,0.00039012,-0.00013761,0.00018015,0.00009290,0.0
 7579119,0.20804176,-0.00011598,-0.00003198,-0.00004334,-0.00002150,0.0
 0001725,-0.00000853,0.00283365,0.00077515,0.00081836,-0.00002533,-0.00
 000991,0.00000286,0.00001620,-0.00002191,-0.00001957,0.00011729,0.0002
 2118,0.00024044,0.00057018,-0.00290610,-0.00123709,-0.00737115,-0.0131
 5936,0.01014129,0.00002504,-0.00110801,-0.00065094,0.05498900,0.114554
 73,-0.13731732,-0.00033623,0.00455049,-0.00501780,0.00000090,0.0000058
 6,0.00000921,0.00006386,0.00000019,0.00000455,0.00001491,0.00000658,0.
 00000437,0.00000885,-0.00000075,0.00000126,0.00000222,-0.00000420,0.,-
 0.00001321,-0.00000683,0.00001269,0.00001742,-0.00000294,-0.00000010,-
 0.00001348,0.00002641,-0.00000011,0.00000171,0.00000183,0.00000769,-0.
 00024743,-0.00072921,0.00055234,0.00000278,-0.00020843,0.00023042,-0.0
 0017730,0.00083570,0.00078224,0.00002751,0.00095582,0.00042336,-0.0000
 5897,0.00013055,-0.00001634,-0.06074537,-0.12257545,0.14581598,0.00011
 208,0.00011332,-0.00005443,0.00002666,-0.00000623,-0.00002935,0.003564
 78,-0.00011955,0.00058967,0.00003008,0.00000713,-0.00002881,-0.0000660
 8,0.00021420,0.00013700,0.00001913,-0.00024646,0.00007608,-0.00014236,
 -0.00022911,-0.00022161,0.00200210,0.00008430,0.00406823,-0.00029637,0
 .00014064,-0.00001765,-0.11727036,-0.00007905,-0.11361382,-0.02029282,
 0.00231214,-0.03030829,-0.00000378,-0.00010937,-0.00004703,-0.00004006
 ,-0.00000048,0.00003413,-0.00000782,-0.00003546,0.00000470,-0.00000856
 ,-0.00000273,0.00001206,-0.00000122,0.00000542,0.00000374,0.00000110,0
 .00000291,0.00000380,-0.00001216,-0.00000176,0.00000332,0.00005705,-0.
 00017483,-0.00007908,-0.00000541,-0.00001718,-0.00002239,-0.00002729,-
 0.00007714,0.00008521,-0.00015867,-0.00024448,-0.00007250,0.00090865,0
 .00108935,0.00039824,0.00040739,-0.00056829,0.00007361,-0.00002185,-0.
 00008905,-0.00002900,0.00654878,0.00073219,0.01036554,0.12900275,-0.00
 003894,-0.00006252,0.00007995,-0.00001115,0.00000388,0.00000556,-0.000
 69139,0.00072877,-0.00100100,-0.00002943,-0.00000867,-0.00000067,0.000
 01949,-0.00004128,-0.00004630,0.00006082,0.00015690,0.00014565,-0.0002
 4676,0.00177112,-0.00073901,-0.01582284,-0.00087000,-0.02655133,-0.000
 00085,-0.00053206,-0.00029615,0.00109941,-0.04900354,0.00436951,0.0037
 9097,-0.00178613,0.00761687,0.00000289,0.00002856,0.00001204,0.0000244
 0,0.00000388,-0.00000603,0.00000299,0.00001035,-0.00000032,0.00000411,
 0.00000032,-0.00000275,0.00000060,-0.00000217,-0.00000089,-0.00000265,
 -0.00000287,0.00000077,0.00000407,0.,0.00000363,-0.00003736,0.00004366
 ,0.00001336,0.00000364,0.00000497,0.00000836,0.00037883,0.00016466,0.0
 0018529,0.00016003,-0.00028576,0.00053914,0.00027810,-0.00505306,-0.00
 274929,0.00029247,0.00129277,0.00074613,-0.00006643,0.00007414,0.00005
 386,0.01317058,-0.00012462,0.01907666,-0.00371672,0.05257140,0.0001633
 8,-0.00002346,0.00003500,0.00001402,-0.00000823,0.00000983,-0.00088734
 ,-0.00128812,0.00101899,0.00000016,-0.00002145,-0.00000506,0.00002026,
 -0.00003879,0.00000455,-0.00027884,-0.00006505,-0.00009884,0.00034851,
 0.00103139,0.00068519,-0.00761672,-0.00056802,-0.01515301,0.00008602,0
 .00010998,0.00016451,-0.11568759,0.00427773,-0.23796055,0.00482414,0.0
 0057752,0.00590924,0.00000376,0.00002785,0.00000095,-0.00003975,0.0000
 2104,0.00000177,-0.00002561,-0.00000076,-0.00001089,-0.00000456,-0.000
 00018,-0.00000061,-0.00000230,0.00000307,-0.00000089,0.00000996,0.0000
 0814,-0.00001642,-0.00001624,0.00000216,0.00000351,0.00001000,0.000025
 96,0.00001358,-0.00000095,0.00000239,0.00000186,0.00023810,-0.00009505
 ,0.00022714,-0.00026497,-0.00033948,0.00053414,0.00070220,-0.00326268,
 -0.00018688,0.00035735,0.00024052,0.00041352,-0.00012412,-0.00002387,-
 0.00000455,-0.00915846,0.00002127,-0.01507090,0.12633006,-0.00097304,0
 .25796033,0.00039788,0.00007661,0.00004010,0.00002619,-0.00000820,-0.0
 0000635,0.00124697,-0.01786227,-0.00578106,0.00003609,-0.00002629,-0.0
 0003015,-0.00014154,0.00002484,0.00005817,-0.00012490,-0.00037332,-0.0
 0008214,-0.00016312,-0.00061375,0.00005336,-0.00691471,-0.00042478,0.0
 0049786,-0.00122996,-0.00071274,0.00193753,-0.00260608,0.02845521,0.01
 813316,-0.05439240,0.03201983,0.01740478,0.00000543,-0.00001989,-0.000
 02655,-0.00003923,0.00005636,0.00002756,-0.00004787,-0.00001261,-0.000
 01130,-0.00000761,-0.00000058,0.00000621,-0.00000391,0.00000765,0.0000
 0136,0.00002899,0.00000910,-0.00002135,-0.00002776,0.00000353,0.000007
 42,0.00013147,0.00002126,0.00003362,0.00002421,0.00002054,0.00000651,0
 .00021048,0.00007487,-0.00009645,0.00004755,0.00004429,-0.00007901,0.0
 0009342,-0.00013826,0.00014656,-0.00022395,0.00201339,0.00092593,0.000
 13215,-0.00073594,-0.00015813,0.00107288,-0.00079234,-0.00017830,0.001
 56334,-0.00032701,-0.00072595,0.05790060,0.00059095,0.00005906,0.00005
 719,0.00006611,-0.00003540,0.00002478,-0.00212270,-0.03428349,-0.00848
 047,0.00007293,-0.00005129,-0.00001029,-0.00010260,0.00003066,0.000068
 29,-0.00062596,0.00002251,-0.00107392,-0.00034902,0.00007530,-0.000103
 15,0.00098636,0.00116985,0.00007145,-0.00167992,0.00174544,0.00600910,
 0.00141683,-0.00211680,-0.00306746,0.02872179,-0.23153896,-0.11930310,
 -0.00000424,0.00001792,-0.00004449,-0.00017013,0.00006659,-0.00000091,
 -0.00009740,-0.00002084,-0.00002384,-0.00002102,0.,0.00000058,-0.00001
 289,0.00001270,-0.00000206,0.00006203,0.00003454,-0.00007343,-0.000065
 24,0.00001305,0.00000136,-0.00007213,-0.00013564,-0.00005981,-0.000003
 92,-0.00000431,-0.00002129,0.00014367,-0.00002935,-0.00011897,0.000028
 51,-0.00000620,0.00001986,-0.00005649,-0.00001456,-0.00006072,-0.00014
 157,-0.00022209,-0.00012269,0.00009438,-0.00142178,-0.00041552,0.00056
 280,0.00009189,-0.00020255,-0.00009439,0.00009413,0.00025527,-0.026579
 59,0.26293382,0.00011990,0.00003356,0.00002097,0.00000514,-0.00001427,
 -0.00003140,-0.00019146,0.02643785,0.01117943,-0.00003072,-0.00000049,
 -0.00004638,-0.00011492,0.00017949,0.00010597,0.00019038,-0.00055589,0
 .00123300,0.00018546,0.00035954,-0.00019095,0.00206882,0.00025116,0.00
 076547,0.00103304,0.00204709,-0.00360961,-0.00113356,-0.00372412,-0.00
 258244,0.01600689,-0.13045354,-0.13253667,-0.00000800,-0.00010216,-0.0
 0003515,-0.00000444,-0.00001781,0.00002247,-0.00000610,-0.00000742,-0.
 00000893,-0.00000266,-0.00000027,0.00001044,0.00000003,0.00000407,0.00
 000432,-0.00001663,-0.00000251,0.00002608,-0.00000053,-0.00000169,0.00
 001564,0.00004892,-0.00014332,-0.00010627,0.00002329,0.00002045,0.0000
 0076,-0.00014039,-0.00006317,0.00008681,-0.00000199,-0.00002314,0.0000
 3725,-0.00005441,0.00038032,0.00034198,0.00014704,-0.00073166,0.000011
 52,-0.00010310,0.00096693,0.00023459,0.00010837,0.00004565,-0.00001659
 ,0.00039044,0.00040587,0.00065648,-0.02269208,0.12687225,0.13726613,0.
 00026280,-0.00025489,0.00002939,-0.00003427,0.00002388,0.00004921,0.00
 886926,-0.00450891,0.01627411,-0.00006347,-0.00009680,0.00007298,-0.00
 105776,-0.00046782,-0.00009964,-0.00095497,-0.00060759,-0.00015670,-0.
 00008454,0.00003833,0.00005468,0.00153706,-0.00109510,-0.00102714,0.00
 068198,0.00129686,0.00034161,-0.02006000,0.00156465,-0.02823835,-0.120
 97507,0.00951999,-0.11592094,-0.00002055,0.00005641,-0.00000792,0.0001
 0960,0.00008150,-0.00007088,-0.00005180,0.00009478,-0.00007987,0.00001
 950,-0.00000193,-0.00002195,-0.00000020,-0.00001008,-0.00000547,0.0000
 1687,0.00001536,-0.00002668,0.00000283,0.00000790,-0.00000087,-0.00303
 379,-0.00047372,-0.00039667,0.00014948,0.00013337,-0.00003802,0.000090
 41,0.00005471,-0.00005872,-0.00001832,-0.00009909,0.00004539,0.0001860
 6,0.00050994,0.00071981,0.00024768,-0.00029394,0.00034140,-0.00012113,
 -0.00004961,-0.00013853,0.00106765,-0.00046255,0.00023421,-0.00582316,
 0.00167796,0.00172470,0.00304069,-0.00050684,0.00422397,0.13595585,-0.
 00028680,-0.00036022,0.00007284,-0.00000352,-0.00000091,0.00005991,0.0
 0679584,-0.01201520,0.03129725,0.00003674,0.00002884,0.00011850,0.0000
 1932,-0.00017067,-0.00013954,-0.00091793,-0.00002457,-0.00152875,-0.00
 012990,-0.00050279,-0.00010461,0.00013884,0.00026701,0.00112659,0.0017
 6526,0.00292568,0.00395203,0.00455929,0.00083242,0.00462292,0.00777736
 ,-0.05243404,0.00280324,0.00000416,0.00011163,0.00005463,-0.00003654,-
 0.00000312,-0.00007247,0.00002964,0.00002335,-0.00000949,0.00000327,0.
 00000281,-0.00002373,-0.00000056,-0.00000588,-0.00000888,0.00003302,0.
 00002389,-0.00003779,0.00000077,0.00000666,-0.00003315,-0.00039576,0.0
 0049246,0.00001821,-0.00000962,-0.00000751,-0.00003260,0.00013085,-0.0
 0004022,-0.00009692,-0.00007128,0.00004694,-0.00003228,0.00003575,0.00
 006822,-0.00020705,-0.00012785,0.00005208,-0.00011971,-0.00015404,-0.0
 0029562,-0.00038896,-0.00005965,0.00029963,-0.00019019,0.00110484,0.00
 082580,0.00010311,-0.01420014,0.00350738,-0.02216763,-0.00613042,0.056
 35871,-0.00019790,0.00029269,-0.00016440,0.00003383,0.00002078,-0.0001
 1236,-0.00169235,0.01707009,-0.02229815,0.00000016,0.00007568,-0.00010
 359,-0.00064319,0.00060865,0.00051515,0.00054235,-0.00096792,0.0024016
 5,0.00022437,0.00033826,0.00033353,0.00044909,0.00044891,0.00087171,-0
 .00064155,-0.00443407,-0.00332458,0.00338282,-0.00199187,0.00640629,-0
 .11418406,0.00884446,-0.23283233,-0.00004836,-0.00042895,-0.00018045,0
 .00004853,-0.00006275,0.00011823,0.00007089,-0.00009351,0.00001037,0.0
 0000163,-0.00000912,0.00003093,0.00000638,0.00000060,0.00000910,-0.000
 05686,-0.00004358,0.00007439,0.00003277,-0.00001942,0.00001431,-0.0004
 8288,-0.00063943,-0.00001553,0.00008625,-0.00000390,-0.00018750,-0.000
 17122,0.00007973,0.00010172,-0.00000031,-0.00004613,-0.00005268,-0.000
 25309,0.00048733,-0.00005513,-0.00005442,0.00006524,0.00010053,0.00007
 064,0.00040444,0.00018554,-0.00104527,0.00011338,0.00035076,0.00193733
 ,-0.00089286,0.00086800,-0.00939553,-0.00019851,-0.01286183,0.12217574
 ,-0.01902377,0.25976441,0.00049049,-0.00179382,-0.00028205,0.00128710,
 0.00700533,0.00416862,-0.00010740,0.00014125,-0.00003349,-0.00009561,-
 0.00060503,-0.00004431,-0.01856973,-0.02861832,-0.01046281,0.00052030,
 0.00044673,0.00040232,0.00002267,0.00001873,0.00005647,-0.00000447,-0.
 00001806,-0.00000423,0.00020715,-0.00024581,-0.00008765,-0.00001392,0.
 00000046,-0.00013435,-0.00001188,-0.00004746,0.00030982,-0.10544454,-0
 .10200953,-0.03780158,0.00020909,0.00029708,-0.00046201,-0.00008007,0.
 00076966,0.00005174,0.00099135,0.00055568,-0.00015957,0.00046262,0.000
 51147,0.00196861,0.00007988,0.00014812,0.00005303,0.00020845,0.0001107
 0,-0.00030874,-0.00614063,0.00162912,0.00136784,0.00108825,0.00014092,
 0.00042342,-0.00000828,0.00000841,0.00000192,0.00001424,-0.00000291,-0
 .00000487,0.00000477,0.00000005,-0.00000414,-0.00000734,0.00001234,0.0
 0000200,-0.00001466,0.00001967,-0.00001980,-0.00000187,-0.00000273,0.0
 0000755,-0.00005837,0.00001745,0.00000774,-0.00002045,-0.00001257,-0.0
 0004768,0.00004744,0.00006796,-0.00019869,0.11879016,0.00131719,0.0009
 0168,0.00097604,-0.00050716,-0.00451825,-0.00019152,-0.00008213,-0.000
 08287,-0.00004119,-0.00013946,-0.00104927,0.00014119,0.00118413,0.0040
 0174,0.00154429,-0.00060850,-0.00001188,-0.00011690,-0.00001262,-0.000
 00659,-0.00002519,-0.00000235,0.00000663,-0.00000348,0.00018255,0.0001
 1188,0.00022794,0.00000040,-0.00000190,-0.00000029,0.00004734,0.000022
 37,-0.00000859,-0.10154826,-0.23075475,-0.06235001,-0.00053393,0.00089
 938,-0.00074568,-0.00054257,0.00031362,-0.00044121,0.00034786,0.001155
 88,-0.00004744,0.00024453,0.00109672,-0.00139458,0.00004148,0.00016380
 ,-0.00008502,0.00036135,-0.00001860,0.00033016,0.00120959,0.00087386,0
 .00037742,-0.00054691,0.00017890,0.00009736,-0.00000029,-0.00000183,0.
 00000072,-0.00002013,-0.00000079,-0.00000076,0.00000262,0.00000032,-0.
 00000366,-0.00000750,-0.00000196,0.00000191,-0.00000136,0.00000199,-0.
 00003833,-0.00000454,-0.00000249,0.00000231,-0.00000429,0.00000089,-0.
 00000102,-0.00000609,-0.00000559,-0.00000086,-0.00000591,0.00000030,-0
 .00001464,0.11168101,0.24752684,-0.00071192,-0.00015981,0.00021704,-0.
 01318452,-0.02878220,-0.00931307,-0.00001363,0.00000618,0.00002511,-0.
 00018096,-0.00094131,-0.00016018,0.00253643,0.00574261,0.00181057,0.00
 007891,0.00005700,0.00008472,-0.00000046,0.00000015,0.00000809,0.00000
 088,0.00000075,0.00000155,-0.00003978,0.00002375,-0.00008256,0.0000016
 6,-0.00000175,0.00002341,0.00001016,0.00001597,-0.00005751,-0.03568074
 ,-0.06006676,-0.07063795,-0.00024466,0.00084221,-0.00191944,-0.0000396
 9,0.00010115,0.00000685,-0.00043895,0.00048677,0.00175879,0.00057931,-
 0.00067969,-0.00501200,0.00005249,0.00015314,0.00009082,0.00001319,0.0
 0048686,-0.00030411,0.00131299,-0.00055754,0.00054320,-0.00049805,0.00
 028010,0.00007525,-0.00000003,-0.00000095,-0.00000064,0.00000581,-0.00
 000080,-0.00000005,-0.00000198,0.00000012,0.00000206,0.00000308,-0.000
 00107,-0.00000127,0.00000717,-0.00000179,0.00000762,0.00000038,0.00000
 100,-0.00000086,0.00001186,-0.00000308,-0.00000019,0.00000467,0.000004
 74,0.00000950,0.00000046,-0.00001126,0.00003450,0.03716308,0.06883612,
 0.07767878,-0.00419901,-0.00304240,0.00241925,0.00119447,-0.00422265,0
 .00244814,-0.00014167,-0.00038862,-0.00019633,-0.00049469,-0.00031267,
 0.00078691,-0.01131248,0.02762308,-0.01809520,-0.00286166,0.00174113,-
 0.00176313,-0.00008157,-0.00007144,-0.00023101,-0.00001388,0.00003474,
 -0.00002049,0.00041846,0.00073618,0.00125129,0.00000375,-0.00000431,0.
 00001812,0.00011019,0.00012955,-0.00005944,-0.08023014,0.07281078,-0.0
 5185514,0.00050985,-0.00016774,-0.00001637,0.00013404,0.00028740,0.000
 12033,-0.00086118,0.00027687,-0.00010822,0.00100123,-0.00010553,-0.000
 14801,0.00004553,-0.00001164,-0.00009513,0.00022639,0.00004054,-0.0000
 9824,0.00130372,-0.00063783,-0.00031280,0.00171098,-0.00027809,0.00035
 569,0.00001270,-0.00001316,-0.00000277,-0.00011562,-0.00000355,0.00000
 758,0.00000939,-0.00000191,-0.00000904,-0.00002587,-0.00001398,0.00001
 356,-0.00003503,0.00000279,-0.00014864,-0.00001431,-0.00001267,0.00000
 542,-0.00000756,0.00000270,-0.00000695,-0.00001487,-0.00002777,-0.0000
 0299,0.00001384,0.00002109,0.00000290,0.00615527,-0.01204606,0.0092528
 4,0.08755969,0.00029635,0.00131345,-0.00046853,-0.00340602,0.00427264,
 -0.00489826,0.00006306,0.00010783,0.00007057,-0.00006545,-0.00055958,-
 0.00037559,0.00001193,-0.00140693,0.00002769,0.00042608,-0.00016038,0.
 00065497,0.00001927,0.00003653,0.00008442,0.00000961,-0.00001340,0.000
 00813,-0.00008124,-0.00016184,-0.00041327,-0.00000144,0.00000008,0.000
 00872,-0.00002933,-0.00004061,-0.00001279,0.07540675,-0.20842997,0.113
 30202,-0.00084636,0.00068538,-0.00257723,-0.00014183,0.00028202,-0.000
 10758,0.00051669,0.00032383,0.00028016,-0.00042650,0.00141465,-0.00025
 398,0.00005631,0.00015021,0.00007748,0.00020501,0.00020289,0.00000697,
 0.00037146,0.00036203,-0.00009477,0.00013526,0.00006592,-0.00022441,-0
 .00000571,0.00000072,-0.00000212,0.00004041,-0.00000189,-0.00000400,-0
 .00000496,0.00000121,0.00000372,0.00001096,0.00000517,-0.00000717,-0.0
 0000144,0.00000015,0.00003153,0.00000584,0.00000523,-0.00000285,0.0000
 1012,-0.00000352,0.00000181,0.00000632,0.00001146,0.00000574,-0.000010
 44,-0.00001307,0.00002021,0.00977410,-0.02080004,0.01416940,-0.0823448
 1,0.22234983,0.00190829,0.00016429,0.00008760,-0.01191827,0.02299272,-
 0.01379186,-0.00009683,0.00005129,0.00004181,0.00095040,-0.00186995,-0
 .00028122,0.00252118,-0.00728195,0.00366400,0.00068686,-0.00037651,0.0
 0050502,0.00003055,0.00000727,0.00006442,-0.00000269,-0.00000213,0.000
 00268,0.00007599,-0.00014065,-0.00023688,-0.00000218,-0.00000666,-0.00
 000048,0.00000723,0.00002108,-0.00000301,-0.05267756,0.11181353,-0.124
 91357,-0.00123229,0.00087738,-0.00731325,-0.00015881,0.00011303,-0.000
 00787,0.00124315,-0.00036752,-0.00120817,-0.00090250,-0.00008499,0.001
 53120,-0.00005982,0.00016436,0.00006297,-0.00001087,0.00018681,0.00006
 495,-0.00033693,0.00030283,0.00003412,-0.00060204,-0.00021454,0.000465
 18,-0.00000547,0.00000446,0.00000316,0.00002244,-0.00000074,-0.0000022
 0,-0.00000139,0.00000040,0.00000027,-0.00000007,0.00000106,-0.00000107
 ,0.00000543,-0.00001779,0.00002946,-0.00000271,0.00000103,0.00000166,-
 0.00000107,0.00000007,0.00000021,-0.00000046,-0.00000164,-0.00000260,0
 .00000070,-0.00000044,-0.00000257,0.00407182,-0.00702511,0.00511196,0.
 05648789,-0.11931099,0.13609407\\0.00001033,0.00000022,0.00006079,-0.0
 0001806,0.00002084,0.00000524,0.00000085,-0.00001760,-0.00000088,-0.00
 001326,-0.00000992,0.00000406,-0.00001223,-0.00002454,-0.00005215,-0.0
 0001210,0.00009343,-0.00005105,-0.00000308,-0.00001064,-0.00000302,0.0
 0000579,-0.00000474,-0.00000407,0.00001105,-0.00005493,0.00003628,-0.0
 0000048,-0.00000166,0.00000656,0.00000044,0.00001827,-0.00001225,0.000
 01341,-0.00000026,-0.00000471,0.00001155,0.00000073,0.00000169,-0.0000
 0460,0.00001021,-0.00000057,0.00001249,-0.00000159,-0.00000192,0.00000
 063,-0.00000232,0.00000517,-0.00000583,0.00000059,-0.00000526,0.000000
 91,-0.00000080,-0.00000665,-0.00000261,-0.00000209,-0.00000176,0.00000
 144,0.00000356,0.00000265,0.00000138,-0.00000176,-0.00000159,-0.000000
 95,-0.00000458,-0.00000294,0.00000080,-0.00000006,0.00000497,-0.000002
 63,-0.00000302,0.00000064,-0.00000845,0.00000073,-0.00001508,0.0000013
 1,-0.00000341,0.00000869,0.00000074,-0.00000672,0.00000190,0.00000197,
 -0.00000852,0.00000646,0.00000733,-0.00000277,0.00001456,-0.00000342,0
 .00000851,-0.00000138,0.00000528,0.00000486,0.00000563\\\@


 ACHIEVEMENT--  THE MAN WHO ROWS THE BOAT GENERALLY 
                DOESN'T HAVE TIME TO ROCK IT.

                   -- FROM THE BACK OF A SUGAR PACKET
 Job cpu time:       0 days 14 hours 31 minutes 23.7 seconds.
 Elapsed time:       0 days  0 hours 54 minutes 28.9 seconds.
 File lengths (MBytes):  RWF=    689 Int=      0 D2E=      0 Chk=     33 Scr=      1
 Normal termination of Gaussian 16 at Sun Nov  4 23:10:01 2018.
