 Entering Gaussian System, Link 0=g16
 Initial command:
 /apps/gaussian/g16a03/g16/l1.exe "/jobfs/local/2012034.r-man2/Gau-30658.inp" -scrdir="/jobfs/local/2012034.r-man2/"
 Entering Link 1 = /apps/gaussian/g16a03/g16/l1.exe PID=     30659.
  
 Copyright (c) 1988,1990,1992,1993,1995,1998,2003,2009,2016,
            Gaussian, Inc.  All Rights Reserved.
  
 This is part of the Gaussian(R) 16 program.  It is based on
 the Gaussian(R) 09 system (copyright 2009, Gaussian, Inc.),
 the Gaussian(R) 03 system (copyright 2003, Gaussian, Inc.),
 the Gaussian(R) 98 system (copyright 1998, Gaussian, Inc.),
 the Gaussian(R) 94 system (copyright 1995, Gaussian, Inc.),
 the Gaussian 92(TM) system (copyright 1992, Gaussian, Inc.),
 the Gaussian 90(TM) system (copyright 1990, Gaussian, Inc.),
 the Gaussian 88(TM) system (copyright 1988, Gaussian, Inc.),
 the Gaussian 86(TM) system (copyright 1986, Carnegie Mellon
 University), and the Gaussian 82(TM) system (copyright 1983,
 Carnegie Mellon University). Gaussian is a federally registered
 trademark of Gaussian, Inc.
  
 This software contains proprietary and confidential information,
 including trade secrets, belonging to Gaussian, Inc.
  
 This software is provided under written license and may be
 used, copied, transmitted, or stored only in accord with that
 written license.
  
 The following legend is applicable only to US Government
 contracts under FAR:
  
                    RESTRICTED RIGHTS LEGEND
  
 Use, reproduction and disclosure by the US Government is
 subject to restrictions as set forth in subparagraphs (a)
 and (c) of the Commercial Computer Software - Restricted
 Rights clause in FAR 52.227-19.
  
 Gaussian, Inc.
 340 Quinnipiac St., Bldg. 40, Wallingford CT 06492
  
  
 ---------------------------------------------------------------
 Warning -- This program may not be used in any manner that
 competes with the business of Gaussian, Inc. or will provide
 assistance to any competitor of Gaussian, Inc.  The licensee
 of this program is prohibited from giving any competitor of
 Gaussian, Inc. access to this program.  By using this program,
 the user acknowledges that Gaussian, Inc. is engaged in the
 business of creating and licensing software in the field of
 computational chemistry and represents and warrants to the
 licensee that it is not a competitor of Gaussian, Inc. and that
 it will not use this program in any manner prohibited above.
 ---------------------------------------------------------------
  

 Cite this work as:
 Gaussian 16, Revision A.03,
 M. J. Frisch, G. W. Trucks, H. B. Schlegel, G. E. Scuseria, 
 M. A. Robb, J. R. Cheeseman, G. Scalmani, V. Barone, 
 G. A. Petersson, H. Nakatsuji, X. Li, M. Caricato, A. V. Marenich, 
 J. Bloino, B. G. Janesko, R. Gomperts, B. Mennucci, H. P. Hratchian, 
 J. V. Ortiz, A. F. Izmaylov, J. L. Sonnenberg, D. Williams-Young, 
 F. Ding, F. Lipparini, F. Egidi, J. Goings, B. Peng, A. Petrone, 
 T. Henderson, D. Ranasinghe, V. G. Zakrzewski, J. Gao, N. Rega, 
 G. Zheng, W. Liang, M. Hada, M. Ehara, K. Toyota, R. Fukuda, 
 J. Hasegawa, M. Ishida, T. Nakajima, Y. Honda, O. Kitao, H. Nakai, 
 T. Vreven, K. Throssell, J. A. Montgomery, Jr., J. E. Peralta, 
 F. Ogliaro, M. J. Bearpark, J. J. Heyd, E. N. Brothers, K. N. Kudin, 
 V. N. Staroverov, T. A. Keith, R. Kobayashi, J. Normand, 
 K. Raghavachari, A. P. Rendell, J. C. Burant, S. S. Iyengar, 
 J. Tomasi, M. Cossi, J. M. Millam, M. Klene, C. Adamo, R. Cammi, 
 J. W. Ochterski, R. L. Martin, K. Morokuma, O. Farkas, 
 J. B. Foresman, and D. J. Fox, Gaussian, Inc., Wallingford CT, 2016.
 
 ******************************************
 Gaussian 16:  ES64L-G16RevA.03 25-Dec-2016
                 4-Nov-2018 
 ******************************************
 %mem=6000mb
 %nproc=24
 Will use up to   24 processors via shared memory.
 %chk=D_a1-4_2SO_PSI.inp_extract_8.chk
 ----------------------------------------------------------------------
 #M062X/6-311++G(2d,2p) opt=ModRedundant freq=noraman SCRF=(Solvent=Wat
 er)
 ----------------------------------------------------------------------
 1/18=120,19=15,26=3,38=1/1,3;
 2/9=110,12=2,17=6,18=5,40=1/2;
 3/5=4,6=6,7=1212,11=2,25=1,30=1,70=2201,71=1,72=1,74=-55/1,2,3;
 4//1;
 5/5=2,38=5,53=1/2;
 6/7=2,8=2,9=2,10=2,28=1/1;
 7//1,2,3,16;
 1/18=20,19=15,26=3/3(2);
 2/9=110/2;
 99//99;
 2/9=110/2;
 3/5=4,6=6,7=1212,11=2,25=1,30=1,70=2205,71=1,72=1,74=-55/1,2,3;
 4/5=5,16=3,69=1/1;
 5/5=2,38=5,53=1/2;
 7//1,2,3,16;
 1/18=20,19=15,26=3/3(-5);
 2/9=110/2;
 6/7=2,8=2,9=2,10=2,19=2,28=1/1;
 99/9=1/99;
 ----------------------------
 D_a1-4_2SO_PSI.inp_extract_8
 ----------------------------
 Symbolic Z-matrix:
 Charge =  0 Multiplicity = 1
 C                     1.12055   1.00561  -0.34771 
 C                     3.26103  -0.95454   0.32293 
 O                    -1.30178  -0.94146  -0.79051 
 C                     1.64128  -0.15551  -1.20261 
 C                     1.89887   1.03393   0.97258 
 O                    -0.261     0.96388   0.00451 
 C                    -2.55909   1.10486  -0.56458 
 C                    -3.13587   0.61387   0.76407 
 C                    -1.2168    0.4574   -0.87672 
 C                    -3.15487  -0.91459   0.78211 
 C                    -1.7772   -1.4598    0.44433 
 C                     3.31837   0.50875   0.77243 
 O                     2.07091  -1.2333   -0.40127 
 H                     1.2798    1.92003  -0.90984 
 H                     4.11898  -1.20965  -0.29195 
 H                     3.2452   -1.61719   1.17798 
 H                     0.904    -0.54137  -1.88537 
 H                     2.47446   0.20868  -1.79586 
 H                     1.38022   0.40053   1.68488 
 H                     1.90735   2.03879   1.381 
 H                    -2.43933   2.18288  -0.57328 
 H                    -3.23942   0.84519  -1.37123 
 H                    -2.53543   0.98231   1.59155 
 H                    -4.13772   1.01003   0.89885 
 H                    -0.93048   0.66497  -1.8977 
 H                    -3.45645  -1.29077   1.75565 
 H                    -3.8734   -1.28241   0.05317 
 H                    -1.79594  -2.53365   0.31949 
 H                    -1.06816  -1.22395   1.2305 
 H                     3.83689   1.11513   0.03574 
 H                     3.88683   0.57757   1.69353 
 
 The following ModRedundant input section has been read:
 D       5       1       6       9 F                                           
 

 GradGradGradGradGradGradGradGradGradGradGradGradGradGradGradGradGradGrad
 Berny optimization.
 Initialization pass.
                           ----------------------------
                           !    Initial Parameters    !
                           ! (Angstroms and Degrees)  !
 --------------------------                            --------------------------
 ! Name  Definition              Value          Derivative Info.                !
 --------------------------------------------------------------------------------
 ! R1    R(1,4)                  1.533          estimate D2E/DX2                !
 ! R2    R(1,5)                  1.5329         estimate D2E/DX2                !
 ! R3    R(1,6)                  1.4264         estimate D2E/DX2                !
 ! R4    R(1,14)                 1.0851         estimate D2E/DX2                !
 ! R5    R(2,12)                 1.5318         estimate D2E/DX2                !
 ! R6    R(2,13)                 1.4208         estimate D2E/DX2                !
 ! R7    R(2,15)                 1.0859         estimate D2E/DX2                !
 ! R8    R(2,16)                 1.0819         estimate D2E/DX2                !
 ! R9    R(3,9)                  1.4041         estimate D2E/DX2                !
 ! R10   R(3,11)                 1.4211         estimate D2E/DX2                !
 ! R11   R(4,13)                 1.4101         estimate D2E/DX2                !
 ! R12   R(4,17)                 1.0764         estimate D2E/DX2                !
 ! R13   R(4,18)                 1.0857         estimate D2E/DX2                !
 ! R14   R(5,12)                 1.5267         estimate D2E/DX2                !
 ! R15   R(5,19)                 1.0852         estimate D2E/DX2                !
 ! R16   R(5,20)                 1.0847         estimate D2E/DX2                !
 ! R17   R(6,9)                  1.3952         estimate D2E/DX2                !
 ! R18   R(7,8)                  1.5294         estimate D2E/DX2                !
 ! R19   R(7,9)                  1.5226         estimate D2E/DX2                !
 ! R20   R(7,21)                 1.0847         estimate D2E/DX2                !
 ! R21   R(7,22)                 1.0867         estimate D2E/DX2                !
 ! R22   R(8,10)                 1.5287         estimate D2E/DX2                !
 ! R23   R(8,23)                 1.0867         estimate D2E/DX2                !
 ! R24   R(8,24)                 1.0857         estimate D2E/DX2                !
 ! R25   R(9,25)                 1.0805         estimate D2E/DX2                !
 ! R26   R(10,11)                1.5196         estimate D2E/DX2                !
 ! R27   R(10,26)                1.0864         estimate D2E/DX2                !
 ! R28   R(10,27)                1.0876         estimate D2E/DX2                !
 ! R29   R(11,28)                1.0812         estimate D2E/DX2                !
 ! R30   R(11,29)                1.0846         estimate D2E/DX2                !
 ! R31   R(12,30)                1.0859         estimate D2E/DX2                !
 ! R32   R(12,31)                1.0846         estimate D2E/DX2                !
 ! A1    A(4,1,5)              108.7739         estimate D2E/DX2                !
 ! A2    A(4,1,6)              116.3942         estimate D2E/DX2                !
 ! A3    A(4,1,14)             107.4285         estimate D2E/DX2                !
 ! A4    A(5,1,6)              106.2396         estimate D2E/DX2                !
 ! A5    A(5,1,14)             110.861          estimate D2E/DX2                !
 ! A6    A(6,1,14)             107.1406         estimate D2E/DX2                !
 ! A7    A(12,2,13)            111.6143         estimate D2E/DX2                !
 ! A8    A(12,2,15)            111.1606         estimate D2E/DX2                !
 ! A9    A(12,2,16)            110.7151         estimate D2E/DX2                !
 ! A10   A(13,2,15)            109.0923         estimate D2E/DX2                !
 ! A11   A(13,2,16)            105.6896         estimate D2E/DX2                !
 ! A12   A(15,2,16)            108.3716         estimate D2E/DX2                !
 ! A13   A(9,3,11)             115.9118         estimate D2E/DX2                !
 ! A14   A(1,4,13)             111.438          estimate D2E/DX2                !
 ! A15   A(1,4,17)             113.1145         estimate D2E/DX2                !
 ! A16   A(1,4,18)             108.1386         estimate D2E/DX2                !
 ! A17   A(13,4,17)            107.167          estimate D2E/DX2                !
 ! A18   A(13,4,18)            109.4567         estimate D2E/DX2                !
 ! A19   A(17,4,18)            107.415          estimate D2E/DX2                !
 ! A20   A(1,5,12)             110.6601         estimate D2E/DX2                !
 ! A21   A(1,5,19)             108.174          estimate D2E/DX2                !
 ! A22   A(1,5,20)             110.205          estimate D2E/DX2                !
 ! A23   A(12,5,19)            109.2475         estimate D2E/DX2                !
 ! A24   A(12,5,20)            111.1473         estimate D2E/DX2                !
 ! A25   A(19,5,20)            107.2956         estimate D2E/DX2                !
 ! A26   A(1,6,9)              121.2112         estimate D2E/DX2                !
 ! A27   A(8,7,9)              111.9647         estimate D2E/DX2                !
 ! A28   A(8,7,21)             111.5716         estimate D2E/DX2                !
 ! A29   A(8,7,22)             109.3926         estimate D2E/DX2                !
 ! A30   A(9,7,21)             108.8834         estimate D2E/DX2                !
 ! A31   A(9,7,22)             107.3443         estimate D2E/DX2                !
 ! A32   A(21,7,22)            107.4973         estimate D2E/DX2                !
 ! A33   A(7,8,10)             109.6291         estimate D2E/DX2                !
 ! A34   A(7,8,23)             110.1377         estimate D2E/DX2                !
 ! A35   A(7,8,24)             109.7972         estimate D2E/DX2                !
 ! A36   A(10,8,23)            109.6858         estimate D2E/DX2                !
 ! A37   A(10,8,24)            110.6031         estimate D2E/DX2                !
 ! A38   A(23,8,24)            106.954          estimate D2E/DX2                !
 ! A39   A(3,9,6)              111.3669         estimate D2E/DX2                !
 ! A40   A(3,9,7)              110.9597         estimate D2E/DX2                !
 ! A41   A(3,9,25)             105.3935         estimate D2E/DX2                !
 ! A42   A(6,9,7)              108.6677         estimate D2E/DX2                !
 ! A43   A(6,9,25)             110.2148         estimate D2E/DX2                !
 ! A44   A(7,9,25)             110.2198         estimate D2E/DX2                !
 ! A45   A(8,10,11)            110.1714         estimate D2E/DX2                !
 ! A46   A(8,10,26)            111.1147         estimate D2E/DX2                !
 ! A47   A(8,10,27)            109.7813         estimate D2E/DX2                !
 ! A48   A(11,10,26)           109.064          estimate D2E/DX2                !
 ! A49   A(11,10,27)           109.1848         estimate D2E/DX2                !
 ! A50   A(26,10,27)           107.4639         estimate D2E/DX2                !
 ! A51   A(3,11,10)            111.4431         estimate D2E/DX2                !
 ! A52   A(3,11,28)            105.5291         estimate D2E/DX2                !
 ! A53   A(3,11,29)            109.3785         estimate D2E/DX2                !
 ! A54   A(10,11,28)           111.4861         estimate D2E/DX2                !
 ! A55   A(10,11,29)           110.7022         estimate D2E/DX2                !
 ! A56   A(28,11,29)           108.1179         estimate D2E/DX2                !
 ! A57   A(2,12,5)             109.4064         estimate D2E/DX2                !
 ! A58   A(2,12,30)            110.6226         estimate D2E/DX2                !
 ! A59   A(2,12,31)            109.2353         estimate D2E/DX2                !
 ! A60   A(5,12,30)            109.9252         estimate D2E/DX2                !
 ! A61   A(5,12,31)            110.7422         estimate D2E/DX2                !
 ! A62   A(30,12,31)           106.8838         estimate D2E/DX2                !
 ! A63   A(2,13,4)             113.2614         estimate D2E/DX2                !
 ! D1    D(5,1,4,13)            31.9627         estimate D2E/DX2                !
 ! D2    D(5,1,4,17)           152.785          estimate D2E/DX2                !
 ! D3    D(5,1,4,18)           -88.3819         estimate D2E/DX2                !
 ! D4    D(6,1,4,13)           -87.9339         estimate D2E/DX2                !
 ! D5    D(6,1,4,17)            32.8883         estimate D2E/DX2                !
 ! D6    D(6,1,4,18)           151.7214         estimate D2E/DX2                !
 ! D7    D(14,1,4,13)          152.0235         estimate D2E/DX2                !
 ! D8    D(14,1,4,17)          -87.1542         estimate D2E/DX2                !
 ! D9    D(14,1,4,18)           31.6789         estimate D2E/DX2                !
 ! D10   D(4,1,5,12)            30.5392         estimate D2E/DX2                !
 ! D11   D(4,1,5,19)           -89.1035         estimate D2E/DX2                !
 ! D12   D(4,1,5,20)           153.8801         estimate D2E/DX2                !
 ! D13   D(6,1,5,12)           156.5578         estimate D2E/DX2                !
 ! D14   D(6,1,5,19)            36.9151         estimate D2E/DX2                !
 ! D15   D(6,1,5,20)           -80.1013         estimate D2E/DX2                !
 ! D16   D(14,1,5,12)          -87.3702         estimate D2E/DX2                !
 ! D17   D(14,1,5,19)          152.9871         estimate D2E/DX2                !
 ! D18   D(14,1,5,20)           35.9707         estimate D2E/DX2                !
 ! D19   D(4,1,6,9)            -35.3548         estimate D2E/DX2                !
 ! D20   D(5,1,6,9)           -156.6047         Frozen                          !
 ! D21   D(14,1,6,9)            84.8421         estimate D2E/DX2                !
 ! D22   D(13,2,12,5)           29.0017         estimate D2E/DX2                !
 ! D23   D(13,2,12,30)         -92.2389         estimate D2E/DX2                !
 ! D24   D(13,2,12,31)         150.3756         estimate D2E/DX2                !
 ! D25   D(15,2,12,5)          151.0503         estimate D2E/DX2                !
 ! D26   D(15,2,12,30)          29.8097         estimate D2E/DX2                !
 ! D27   D(15,2,12,31)         -87.5758         estimate D2E/DX2                !
 ! D28   D(16,2,12,5)          -88.4383         estimate D2E/DX2                !
 ! D29   D(16,2,12,30)         150.321          estimate D2E/DX2                !
 ! D30   D(16,2,12,31)          32.9356         estimate D2E/DX2                !
 ! D31   D(12,2,13,4)           35.257          estimate D2E/DX2                !
 ! D32   D(15,2,13,4)          -87.975          estimate D2E/DX2                !
 ! D33   D(16,2,13,4)          155.6875         estimate D2E/DX2                !
 ! D34   D(11,3,9,6)            65.5699         estimate D2E/DX2                !
 ! D35   D(11,3,9,7)           -55.623          estimate D2E/DX2                !
 ! D36   D(11,3,9,25)         -174.9208         estimate D2E/DX2                !
 ! D37   D(9,3,11,10)           57.5935         estimate D2E/DX2                !
 ! D38   D(9,3,11,28)          178.7623         estimate D2E/DX2                !
 ! D39   D(9,3,11,29)          -65.1417         estimate D2E/DX2                !
 ! D40   D(1,4,13,2)           -69.9862         estimate D2E/DX2                !
 ! D41   D(17,4,13,2)          165.7699         estimate D2E/DX2                !
 ! D42   D(18,4,13,2)           49.5799         estimate D2E/DX2                !
 ! D43   D(1,5,12,2)           -62.5645         estimate D2E/DX2                !
 ! D44   D(1,5,12,30)           59.0973         estimate D2E/DX2                !
 ! D45   D(1,5,12,31)          176.977          estimate D2E/DX2                !
 ! D46   D(19,5,12,2)           56.4308         estimate D2E/DX2                !
 ! D47   D(19,5,12,30)         178.0926         estimate D2E/DX2                !
 ! D48   D(19,5,12,31)         -64.0277         estimate D2E/DX2                !
 ! D49   D(20,5,12,2)          174.6409         estimate D2E/DX2                !
 ! D50   D(20,5,12,30)         -63.6973         estimate D2E/DX2                !
 ! D51   D(20,5,12,31)          54.1823         estimate D2E/DX2                !
 ! D52   D(1,6,9,3)             83.8108         estimate D2E/DX2                !
 ! D53   D(1,6,9,7)           -153.6674         estimate D2E/DX2                !
 ! D54   D(1,6,9,25)           -32.7923         estimate D2E/DX2                !
 ! D55   D(9,7,8,10)           -52.029          estimate D2E/DX2                !
 ! D56   D(9,7,8,23)            68.7493         estimate D2E/DX2                !
 ! D57   D(9,7,8,24)          -173.728          estimate D2E/DX2                !
 ! D58   D(21,7,8,10)         -174.3532         estimate D2E/DX2                !
 ! D59   D(21,7,8,23)          -53.5748         estimate D2E/DX2                !
 ! D60   D(21,7,8,24)           63.9479         estimate D2E/DX2                !
 ! D61   D(22,7,8,10)           66.836          estimate D2E/DX2                !
 ! D62   D(22,7,8,23)         -172.3857         estimate D2E/DX2                !
 ! D63   D(22,7,8,24)          -54.863          estimate D2E/DX2                !
 ! D64   D(8,7,9,3)             52.2842         estimate D2E/DX2                !
 ! D65   D(8,7,9,6)            -70.4838         estimate D2E/DX2                !
 ! D66   D(8,7,9,25)           168.6443         estimate D2E/DX2                !
 ! D67   D(21,7,9,3)           176.1288         estimate D2E/DX2                !
 ! D68   D(21,7,9,6)            53.3609         estimate D2E/DX2                !
 ! D69   D(21,7,9,25)          -67.511          estimate D2E/DX2                !
 ! D70   D(22,7,9,3)           -67.7847         estimate D2E/DX2                !
 ! D71   D(22,7,9,6)           169.4474         estimate D2E/DX2                !
 ! D72   D(22,7,9,25)           48.5755         estimate D2E/DX2                !
 ! D73   D(7,8,10,11)           52.7089         estimate D2E/DX2                !
 ! D74   D(7,8,10,26)          173.6978         estimate D2E/DX2                !
 ! D75   D(7,8,10,27)          -67.5671         estimate D2E/DX2                !
 ! D76   D(23,8,10,11)         -68.3428         estimate D2E/DX2                !
 ! D77   D(23,8,10,26)          52.646          estimate D2E/DX2                !
 ! D78   D(23,8,10,27)         171.3812         estimate D2E/DX2                !
 ! D79   D(24,8,10,11)         173.9231         estimate D2E/DX2                !
 ! D80   D(24,8,10,26)         -65.088          estimate D2E/DX2                !
 ! D81   D(24,8,10,27)          53.6472         estimate D2E/DX2                !
 ! D82   D(8,10,11,3)          -54.676          estimate D2E/DX2                !
 ! D83   D(8,10,11,28)        -172.3035         estimate D2E/DX2                !
 ! D84   D(8,10,11,29)          67.2971         estimate D2E/DX2                !
 ! D85   D(26,10,11,3)        -176.8841         estimate D2E/DX2                !
 ! D86   D(26,10,11,28)         65.4883         estimate D2E/DX2                !
 ! D87   D(26,10,11,29)        -54.9111         estimate D2E/DX2                !
 ! D88   D(27,10,11,3)          65.9589         estimate D2E/DX2                !
 ! D89   D(27,10,11,28)        -51.6687         estimate D2E/DX2                !
 ! D90   D(27,10,11,29)       -172.0681         estimate D2E/DX2                !
 --------------------------------------------------------------------------------
 Trust Radius=3.00D-01 FncErr=1.00D-07 GrdErr=1.00D-06 EigMax=2.50D+02 EigMin=1.00D-04
 Number of steps in this run=    186 maximum allowed number of steps=    186.
 GradGradGradGradGradGradGradGradGradGradGradGradGradGradGradGradGradGrad

                          Input orientation:                          
 ---------------------------------------------------------------------
 Center     Atomic      Atomic             Coordinates (Angstroms)
 Number     Number       Type             X           Y           Z
 ---------------------------------------------------------------------
      1          6           0        1.120552    1.005612   -0.347710
      2          6           0        3.261025   -0.954538    0.322934
      3          8           0       -1.301776   -0.941458   -0.790505
      4          6           0        1.641280   -0.155506   -1.202610
      5          6           0        1.898873    1.033931    0.972576
      6          8           0       -0.261003    0.963879    0.004507
      7          6           0       -2.559091    1.104865   -0.564583
      8          6           0       -3.135870    0.613869    0.764071
      9          6           0       -1.216804    0.457398   -0.876715
     10          6           0       -3.154869   -0.914593    0.782113
     11          6           0       -1.777204   -1.459800    0.444328
     12          6           0        3.318367    0.508745    0.772433
     13          8           0        2.070912   -1.233300   -0.401269
     14          1           0        1.279797    1.920026   -0.909838
     15          1           0        4.118980   -1.209645   -0.291947
     16          1           0        3.245196   -1.617189    1.177981
     17          1           0        0.903997   -0.541373   -1.885372
     18          1           0        2.474455    0.208678   -1.795856
     19          1           0        1.380218    0.400532    1.684882
     20          1           0        1.907348    2.038791    1.380995
     21          1           0       -2.439333    2.182882   -0.573275
     22          1           0       -3.239416    0.845185   -1.371232
     23          1           0       -2.535433    0.982306    1.591546
     24          1           0       -4.137715    1.010027    0.898847
     25          1           0       -0.930478    0.664971   -1.897704
     26          1           0       -3.456447   -1.290765    1.755650
     27          1           0       -3.873401   -1.282406    0.053171
     28          1           0       -1.795939   -2.533651    0.319493
     29          1           0       -1.068158   -1.223946    1.230503
     30          1           0        3.836885    1.115132    0.035737
     31          1           0        3.886834    0.577574    1.693527
 ---------------------------------------------------------------------
                    Distance matrix (angstroms):
                    1          2          3          4          5
     1  C    0.000000
     2  C    2.978855   0.000000
     3  O    3.139239   4.696708   0.000000
     4  C    1.533038   2.364172   3.073944   0.000000
     5  C    1.532886   2.496298   4.153886   2.492498   0.000000
     6  O    1.426356   4.023233   2.312047   2.515718   2.367938
     7  C    3.687365   6.237193   2.412327   4.431561   4.716072
     8  C    4.416633   6.601119   2.863503   5.223115   5.056537
     9  C    2.458377   4.845996   1.404084   2.941174   3.668748
    10  C    4.821090   6.432429   2.430597   5.245797   5.419717
    11  C    3.886203   5.064956   1.421099   4.012433   4.473397
    12  C    2.516344   1.531840   5.088377   2.674817   1.526709
    13  O    2.432854   1.420756   3.407595   1.410096   2.656574
    14  H    1.085127   3.702446   3.855755   2.127021   2.170692
    15  H    3.728410   1.085930   5.450237   2.842448   3.400225
    16  H    3.704177   1.081879   5.000650   3.221223   2.980472
    17  H    2.191909   3.256210   2.494842   1.076403   3.411631
    18  H    2.136653   2.541857   4.073508   1.085703   2.945599
    19  H    2.136581   2.688597   3.888646   2.952108   1.085162
    20  H    2.162158   3.451370   4.888330   3.400110   1.084722
    21  H    3.756278   6.568156   3.332075   4.745053   4.746554
    22  H    4.481368   6.954490   2.698849   4.985079   5.650759
    23  H    4.138536   6.241768   3.301052   5.152364   4.477595
    24  H    5.404007   7.676754   3.834678   6.258704   6.037086
    25  H    2.593307   5.012259   1.986043   2.787522   4.047205
    26  H    5.535918   6.876784   3.353733   6.002244   5.890405
    27  H    5.507749   7.147049   2.727873   5.767027   6.287278
    28  H    4.634378   5.297782   2.002841   4.448241   5.177431
    29  H    3.500305   4.431488   2.053984   3.795083   3.737353
    30  H    2.745449   2.167402   5.596255   2.822890   2.154101
    31  H    3.464416   2.148844   5.949752   3.737316   2.163336
                    6          7          8          9         10
     6  O    0.000000
     7  C    2.371697   0.000000
     8  C    2.994045   1.529403   0.000000
     9  C    1.395217   1.522621   2.529719   0.000000
    10  C    3.536635   2.499350   1.528687   2.896578   0.000000
    11  C    2.892495   2.864743   2.499662   2.394755   1.519641
    12  C    3.689004   6.057019   6.455098   4.825982   6.627878
    13  O    3.229563   5.189472   5.646293   3.727410   5.367565
    14  H    2.030839   3.939638   4.899605   2.893682   5.528474
    15  H    4.898606   7.073042   7.554682   5.620638   7.358637
    16  H    4.509145   6.643482   6.772514   5.332460   6.450673
    17  H    2.682285   4.055559   4.967359   2.552005   4.871259
    18  H    3.360709   5.258875   6.180061   3.812096   6.292611
    19  H    2.415497   4.590679   4.613942   3.648224   4.807448
    20  H    2.784224   4.960501   5.276841   4.166339   5.891280
    21  H    2.562210   1.084683   2.176111   2.136340   3.455925
    22  H    3.282939   1.086719   2.150290   2.117991   2.782240
    23  H    2.773457   2.159739   1.086731   2.847213   2.153395
    24  H    3.978803   2.154687   1.085725   3.462620   2.164203
    25  H    2.038615   2.150139   3.457081   1.080503   3.824181
    26  H    4.284949   3.453661   2.171089   3.873167   1.086383
    27  H    4.254126   2.794297   2.155270   3.308944   1.087626
    28  H    3.832488   3.821360   3.449630   3.273024   2.163806
    29  H    2.634605   3.296752   2.805451   2.699885   2.156645
    30  H    4.100797   6.424095   7.028588   5.177350   7.318571
    31  H    4.495172   6.850332   7.084037   5.715567   7.255537
                   11         12         13         14         15
    11  C    0.000000
    12  C    5.472446   0.000000
    13  O    3.946433   2.443039   0.000000
    14  H    4.754182   2.996251   3.290588   0.000000
    15  H    5.947240   2.174109   2.051120   4.270549   0.000000
    16  H    5.078141   2.165507   2.005080   4.553424   1.757919
    17  H    3.668767   3.741104   2.010725   2.674206   3.649891
    18  H    5.087126   2.719988   2.046221   2.267366   2.641561
    19  H    3.868995   2.144923   2.738337   3.008574   3.741836
    20  H    5.166566   2.168493   3.729584   2.378201   4.271111
    21  H    3.839670   6.145305   5.660583   3.743567   7.389171
    22  H    3.278304   6.907460   5.784506   4.668132   7.715774
    23  H    2.802660   5.929771   5.486222   4.657491   7.254889
    24  H    3.446541   7.473983   6.728289   5.783500   8.632378
    25  H    3.273639   5.020630   3.853712   2.726969   5.620469
    26  H    2.137287   7.078351   5.933574   6.312370   7.847696
    27  H    2.139746   7.446280   5.961861   6.143159   8.000160
    28  H    1.081245   5.968036   4.142819   5.550373   6.092054
    29  H    1.084640   4.738528   3.537871   4.469733   5.405965
    30  H    6.189929   1.085950   2.970651   2.842651   2.364644
    31  H    6.147578   1.084577   3.311345   3.921266   2.681446
                   16         17         18         19         20
    16  H    0.000000
    17  H    4.002840   0.000000
    18  H    3.573729   1.742678   0.000000
    19  H    2.793974   3.722994   3.653724   0.000000
    20  H    3.898364   4.281718   3.709893   1.747600   0.000000
    21  H    7.058421   4.507884   5.434841   4.781738   4.767973
    22  H    7.389991   4.399404   5.764874   5.556849   5.957233
    23  H    6.351699   5.122522   6.096882   3.959734   4.571520
    24  H    7.841400   5.964694   7.185011   5.606864   6.150903
    25  H    5.666070   2.195613   3.436880   4.271319   4.548682
    26  H    6.734410   5.729930   7.073692   5.124336   6.324287
    27  H    7.214686   5.208705   6.777721   5.752849   6.797832
    28  H    5.195185   4.015004   5.498303   4.534500   5.978992
    29  H    4.331561   3.750197   4.874563   2.973203   4.418341
    30  H    3.019999   3.877693   2.456137   3.043936   2.527049
    31  H    2.344029   4.791438   3.782419   2.512875   2.480161
                   21         22         23         24         25
    21  H    0.000000
    22  H    1.751086   0.000000
    23  H    2.477311   3.048352   0.000000
    24  H    2.535199   2.446911   1.745826   0.000000
    25  H    2.516905   2.375046   3.853758   4.269207   0.000000
    26  H    4.304026   3.792990   2.458058   2.547917   4.853083
    27  H    3.802263   2.637708   3.047241   2.457698   4.032243
    28  H    4.843209   4.044590   3.811420   4.286866   3.987000
    29  H    4.091481   3.970477   2.674097   3.810881   3.656862
    30  H    6.395459   7.219866   6.560840   8.021861   5.164164
    31  H    6.909109   7.761946   6.435816   8.075390   6.009249
                   26         27         28         29         30
    26  H    0.000000
    27  H    1.752814   0.000000
    28  H    2.522816   2.439752   0.000000
    29  H    2.446256   3.042847   1.753548   0.000000
    30  H    7.870142   8.074466   6.717354   5.564009   0.000000
    31  H    7.577488   8.146873   6.622809   5.292619   1.743482
                   31
    31  H    0.000000
 Stoichiometry    C10H18O3
 Framework group  C1[X(C10H18O3)]
 Deg. of freedom    87
 Full point group                 C1      NOp   1
 Largest Abelian subgroup         C1      NOp   1
 Largest concise Abelian subgroup C1      NOp   1
                         Standard orientation:                         
 ---------------------------------------------------------------------
 Center     Atomic      Atomic             Coordinates (Angstroms)
 Number     Number       Type             X           Y           Z
 ---------------------------------------------------------------------
      1          6           0        1.120552   -1.005612    0.347710
      2          6           0        3.261025    0.954538   -0.322934
      3          8           0       -1.301776    0.941458    0.790505
      4          6           0        1.641280    0.155506    1.202610
      5          6           0        1.898873   -1.033931   -0.972576
      6          8           0       -0.261003   -0.963879   -0.004507
      7          6           0       -2.559091   -1.104865    0.564583
      8          6           0       -3.135870   -0.613869   -0.764071
      9          6           0       -1.216804   -0.457398    0.876715
     10          6           0       -3.154869    0.914593   -0.782113
     11          6           0       -1.777204    1.459800   -0.444328
     12          6           0        3.318367   -0.508745   -0.772433
     13          8           0        2.070912    1.233300    0.401269
     14          1           0        1.279797   -1.920026    0.909838
     15          1           0        4.118980    1.209645    0.291947
     16          1           0        3.245196    1.617189   -1.177981
     17          1           0        0.903997    0.541373    1.885372
     18          1           0        2.474455   -0.208678    1.795856
     19          1           0        1.380218   -0.400532   -1.684882
     20          1           0        1.907348   -2.038791   -1.380995
     21          1           0       -2.439333   -2.182882    0.573275
     22          1           0       -3.239416   -0.845185    1.371232
     23          1           0       -2.535433   -0.982306   -1.591546
     24          1           0       -4.137715   -1.010027   -0.898847
     25          1           0       -0.930478   -0.664971    1.897704
     26          1           0       -3.456447    1.290765   -1.755650
     27          1           0       -3.873401    1.282406   -0.053171
     28          1           0       -1.795939    2.533651   -0.319493
     29          1           0       -1.068158    1.223946   -1.230503
     30          1           0        3.836885   -1.115132   -0.035737
     31          1           0        3.886834   -0.577574   -1.693527
 ---------------------------------------------------------------------
 Rotational constants (GHZ):           1.7135056           0.4700823           0.4405409
 Standard basis: 6-311++G(2d,2p) (5D, 7F)
 There are   557 symmetry adapted cartesian basis functions of A   symmetry.
 There are   531 symmetry adapted basis functions of A   symmetry.
   531 basis functions,   762 primitive gaussians,   557 cartesian basis functions
    51 alpha electrons       51 beta electrons
       nuclear repulsion energy       908.7004346099 Hartrees.
 NAtoms=   31 NActive=   31 NUniq=   31 SFac= 1.00D+00 NAtFMM=   60 NAOKFM=F Big=F
 Integral buffers will be    131072 words long.
 Raffenetti 2 integral format.
 Two-electron integral symmetry is turned on.
 ------------------------------------------------------------------------------
 Polarizable Continuum Model (PCM)
 =================================
 Model                : PCM.
 Atomic radii         : UFF (Universal Force Field).
 Polarization charges : Total charges.
 Charge compensation  : None.
 Solution method      : On-the-fly selection.
 Cavity type          : Scaled VdW (van der Waals Surface) (Alpha=1.100).
 Cavity algorithm     : GePol (No added spheres)
                        Default sphere list used, NSphG=   31.
                        Lebedev-Laikov grids with approx.  5.0 points / Ang**2.
                        Smoothing algorithm: York/Karplus (Gamma=1.0000).
                        Polarization charges: spherical gaussians, with
                                              point-specific exponents (IZeta= 3).
                        Self-potential: point-specific (ISelfS= 7).
                        Self-field    : sphere-specific E.n sum rule (ISelfD= 2).
 1st derivatives      : Analytical E(r).r(x)/FMM algorithm (CHGder, D1EAlg=3).
                        Cavity 1st derivative terms included.
 Solvent              : Water, Eps=  78.355300 Eps(inf)=   1.777849
 ------------------------------------------------------------------------------
 One-electron integrals computed using PRISM.
 NBasis=   531 RedAO= T EigKep=  3.87D-06  NBF=   531
 NBsUse=   531 1.00D-06 EigRej= -1.00D+00 NBFU=   531
 ExpMin= 3.60D-02 ExpMax= 8.59D+03 ExpMxC= 1.30D+03 IAcc=3 IRadAn=         5 AccDes= 0.00D+00
 Harris functional with IExCor= 1009 and IRadAn=       5 diagonalized for initial guess.
 HarFok:  IExCor= 1009 AccDes= 0.00D+00 IRadAn=         5 IDoV= 1 UseB2=F ITyADJ=14
 ICtDFT=  3500011 ScaDFX=  1.000000  1.000000  1.000000  1.000000
 FoFCou: FMM=F IPFlag=           0 FMFlag=      100000 FMFlg1=           0
         NFxFlg=           0 DoJE=T BraDBF=F KetDBF=T FulRan=T
         wScrn=  0.000000 ICntrl=       500 IOpCl=  0 I1Cent=   200000004 NGrid=           0
         NMat0=    1 NMatS0=      1 NMatT0=    0 NMatD0=    1 NMtDS0=    0 NMtDT0=    0
 Petite list used in FoFCou.
 Requested convergence on RMS density matrix=1.00D-08 within 128 cycles.
 Requested convergence on MAX density matrix=1.00D-06.
 Requested convergence on             energy=1.00D-06.
 No special actions if energy rises.
 Inv3:  Mode=1 IEnd=    12991683.
 Iteration    1 A*A^-1 deviation from unit magnitude is 4.11D-15 for   2068.
 Iteration    1 A*A^-1 deviation from orthogonality  is 3.73D-15 for   2058    914.
 Iteration    1 A^-1*A deviation from unit magnitude is 4.11D-15 for   2068.
 Iteration    1 A^-1*A deviation from orthogonality  is 2.61D-15 for   1540   1515.
 Error on total polarization charges =  0.01461
 SCF Done:  E(RM062X) =  -617.490447785     A.U. after   12 cycles
            NFock= 12  Conv=0.46D-08     -V/T= 2.0035

 **********************************************************************

            Population analysis using the SCF density.

 **********************************************************************

 Orbital symmetries:
       Occupied  (A) (A) (A) (A) (A) (A) (A) (A) (A) (A) (A) (A)
                 (A) (A) (A) (A) (A) (A) (A) (A) (A) (A) (A) (A)
                 (A) (A) (A) (A) (A) (A) (A) (A) (A) (A) (A) (A)
                 (A) (A) (A) (A) (A) (A) (A) (A) (A) (A) (A) (A)
                 (A) (A) (A)
       Virtual   (A) (A) (A) (A) (A) (A) (A) (A) (A) (A) (A) (A)
                 (A) (A) (A) (A) (A) (A) (A) (A) (A) (A) (A) (A)
                 (A) (A) (A) (A) (A) (A) (A) (A) (A) (A) (A) (A)
                 (A) (A) (A) (A) (A) (A) (A) (A) (A) (A) (A) (A)
                 (A) (A) (A) (A) (A) (A) (A) (A) (A) (A) (A) (A)
                 (A) (A) (A) (A) (A) (A) (A) (A) (A) (A) (A) (A)
                 (A) (A) (A) (A) (A) (A) (A) (A) (A) (A) (A) (A)
                 (A) (A) (A) (A) (A) (A) (A) (A) (A) (A) (A) (A)
                 (A) (A) (A) (A) (A) (A) (A) (A) (A) (A) (A) (A)
                 (A) (A) (A) (A) (A) (A) (A) (A) (A) (A) (A) (A)
                 (A) (A) (A) (A) (A) (A) (A) (A) (A) (A) (A) (A)
                 (A) (A) (A) (A) (A) (A) (A) (A) (A) (A) (A) (A)
                 (A) (A) (A) (A) (A) (A) (A) (A) (A) (A) (A) (A)
                 (A) (A) (A) (A) (A) (A) (A) (A) (A) (A) (A) (A)
                 (A) (A) (A) (A) (A) (A) (A) (A) (A) (A) (A) (A)
                 (A) (A) (A) (A) (A) (A) (A) (A) (A) (A) (A) (A)
                 (A) (A) (A) (A) (A) (A) (A) (A) (A) (A) (A) (A)
                 (A) (A) (A) (A) (A) (A) (A) (A) (A) (A) (A) (A)
                 (A) (A) (A) (A) (A) (A) (A) (A) (A) (A) (A) (A)
                 (A) (A) (A) (A) (A) (A) (A) (A) (A) (A) (A) (A)
                 (A) (A) (A) (A) (A) (A) (A) (A) (A) (A) (A) (A)
                 (A) (A) (A) (A) (A) (A) (A) (A) (A) (A) (A) (A)
                 (A) (A) (A) (A) (A) (A) (A) (A) (A) (A) (A) (A)
                 (A) (A) (A) (A) (A) (A) (A) (A) (A) (A) (A) (A)
                 (A) (A) (A) (A) (A) (A) (A) (A) (A) (A) (A) (A)
                 (A) (A) (A) (A) (A) (A) (A) (A) (A) (A) (A) (A)
                 (A) (A) (A) (A) (A) (A) (A) (A) (A) (A) (A) (A)
                 (A) (A) (A) (A) (A) (A) (A) (A) (A) (A) (A) (A)
                 (A) (A) (A) (A) (A) (A) (A) (A) (A) (A) (A) (A)
                 (A) (A) (A) (A) (A) (A) (A) (A) (A) (A) (A) (A)
                 (A) (A) (A) (A) (A) (A) (A) (A) (A) (A) (A) (A)
                 (A) (A) (A) (A) (A) (A) (A) (A) (A) (A) (A) (A)
                 (A) (A) (A) (A) (A) (A) (A) (A) (A) (A) (A) (A)
                 (A) (A) (A) (A) (A) (A) (A) (A) (A) (A) (A) (A)
                 (A) (A) (A) (A) (A) (A) (A) (A) (A) (A) (A) (A)
                 (A) (A) (A) (A) (A) (A) (A) (A) (A) (A) (A) (A)
                 (A) (A) (A) (A) (A) (A) (A) (A) (A) (A) (A) (A)
                 (A) (A) (A) (A) (A) (A) (A) (A) (A) (A) (A) (A)
                 (A) (A) (A) (A) (A) (A) (A) (A) (A) (A) (A) (A)
                 (A) (A) (A) (A) (A) (A) (A) (A) (A) (A) (A) (A)
 The electronic state is 1-A.
 Alpha  occ. eigenvalues --  -19.62631 -19.62490 -19.62478 -10.63300 -10.58906
 Alpha  occ. eigenvalues --  -10.57784 -10.57766 -10.57484 -10.53199 -10.53137
 Alpha  occ. eigenvalues --  -10.52889 -10.52842 -10.52666  -1.19847  -1.16336
 Alpha  occ. eigenvalues --   -1.13219  -0.90845  -0.89662  -0.86985  -0.84745
 Alpha  occ. eigenvalues --   -0.75653  -0.74183  -0.73129  -0.71128  -0.64703
 Alpha  occ. eigenvalues --   -0.62112  -0.60631  -0.59260  -0.57939  -0.56460
 Alpha  occ. eigenvalues --   -0.54414  -0.53118  -0.52554  -0.50317  -0.49664
 Alpha  occ. eigenvalues --   -0.48344  -0.46764  -0.45439  -0.45200  -0.44223
 Alpha  occ. eigenvalues --   -0.43894  -0.42370  -0.41628  -0.40743  -0.39746
 Alpha  occ. eigenvalues --   -0.38410  -0.36972  -0.35949  -0.34607  -0.33050
 Alpha  occ. eigenvalues --   -0.31639
 Alpha virt. eigenvalues --   -0.00161   0.00765   0.00807   0.01109   0.02256
 Alpha virt. eigenvalues --    0.02495   0.02607   0.03326   0.03344   0.04477
 Alpha virt. eigenvalues --    0.04611   0.04810   0.05591   0.05670   0.06956
 Alpha virt. eigenvalues --    0.07427   0.07870   0.08081   0.08654   0.09484
 Alpha virt. eigenvalues --    0.09961   0.10863   0.11249   0.11608   0.11681
 Alpha virt. eigenvalues --    0.12259   0.12511   0.12951   0.13210   0.13382
 Alpha virt. eigenvalues --    0.13658   0.14048   0.14313   0.14464   0.14879
 Alpha virt. eigenvalues --    0.14922   0.15429   0.15602   0.15950   0.16139
 Alpha virt. eigenvalues --    0.16474   0.17000   0.17276   0.17497   0.17888
 Alpha virt. eigenvalues --    0.17953   0.18471   0.18893   0.19122   0.19624
 Alpha virt. eigenvalues --    0.19860   0.20051   0.20404   0.20869   0.21150
 Alpha virt. eigenvalues --    0.21601   0.22222   0.22875   0.23316   0.23916
 Alpha virt. eigenvalues --    0.24365   0.24600   0.25674   0.26461   0.27469
 Alpha virt. eigenvalues --    0.27526   0.28401   0.28926   0.29128   0.29613
 Alpha virt. eigenvalues --    0.30323   0.30405   0.31153   0.32025   0.32194
 Alpha virt. eigenvalues --    0.32718   0.32869   0.33682   0.34366   0.34894
 Alpha virt. eigenvalues --    0.35074   0.35504   0.35702   0.35965   0.36317
 Alpha virt. eigenvalues --    0.36771   0.37040   0.37637   0.37798   0.38351
 Alpha virt. eigenvalues --    0.38732   0.39274   0.40404   0.40930   0.41374
 Alpha virt. eigenvalues --    0.42132   0.42783   0.43598   0.44292   0.46703
 Alpha virt. eigenvalues --    0.47184   0.47694   0.49306   0.49677   0.50637
 Alpha virt. eigenvalues --    0.51163   0.53045   0.53436   0.54296   0.56009
 Alpha virt. eigenvalues --    0.56668   0.57451   0.58276   0.59274   0.59542
 Alpha virt. eigenvalues --    0.59780   0.60106   0.60592   0.61045   0.61546
 Alpha virt. eigenvalues --    0.61972   0.62518   0.62826   0.63103   0.64417
 Alpha virt. eigenvalues --    0.64927   0.65318   0.65358   0.66694   0.66903
 Alpha virt. eigenvalues --    0.67696   0.68584   0.69531   0.69891   0.70136
 Alpha virt. eigenvalues --    0.70926   0.71577   0.71986   0.73298   0.73442
 Alpha virt. eigenvalues --    0.73543   0.74155   0.75140   0.75545   0.75637
 Alpha virt. eigenvalues --    0.76387   0.76542   0.77485   0.78631   0.79095
 Alpha virt. eigenvalues --    0.80344   0.81616   0.84706   0.85478   0.85920
 Alpha virt. eigenvalues --    0.86572   0.86832   0.87962   0.89437   0.90389
 Alpha virt. eigenvalues --    0.90529   0.92886   0.93758   0.94941   0.95923
 Alpha virt. eigenvalues --    0.97034   0.99962   1.00442   1.01410   1.02272
 Alpha virt. eigenvalues --    1.03018   1.04035   1.04680   1.05564   1.07478
 Alpha virt. eigenvalues --    1.08417   1.09121   1.10566   1.12310   1.12838
 Alpha virt. eigenvalues --    1.13191   1.13893   1.14334   1.15728   1.17403
 Alpha virt. eigenvalues --    1.18176   1.18618   1.19637   1.20208   1.20740
 Alpha virt. eigenvalues --    1.22430   1.22900   1.23331   1.23838   1.24668
 Alpha virt. eigenvalues --    1.25323   1.25884   1.26599   1.26951   1.27376
 Alpha virt. eigenvalues --    1.28178   1.28688   1.29849   1.30179   1.31538
 Alpha virt. eigenvalues --    1.32201   1.32875   1.33166   1.34203   1.35376
 Alpha virt. eigenvalues --    1.36055   1.36572   1.37090   1.38012   1.39042
 Alpha virt. eigenvalues --    1.39518   1.40047   1.40287   1.41359   1.42233
 Alpha virt. eigenvalues --    1.43148   1.43869   1.44405   1.44865   1.45163
 Alpha virt. eigenvalues --    1.46125   1.46724   1.47199   1.47551   1.48895
 Alpha virt. eigenvalues --    1.48999   1.49292   1.50588   1.50939   1.52533
 Alpha virt. eigenvalues --    1.53352   1.53643   1.54733   1.55057   1.56256
 Alpha virt. eigenvalues --    1.56571   1.56871   1.57363   1.58111   1.58373
 Alpha virt. eigenvalues --    1.59189   1.60069   1.60933   1.61589   1.62055
 Alpha virt. eigenvalues --    1.63796   1.64454   1.65318   1.65607   1.66774
 Alpha virt. eigenvalues --    1.68298   1.69109   1.69454   1.70332   1.72232
 Alpha virt. eigenvalues --    1.73620   1.74892   1.75322   1.76131   1.77432
 Alpha virt. eigenvalues --    1.79012   1.81032   1.81939   1.82804   1.83148
 Alpha virt. eigenvalues --    1.85292   1.87713   1.92366   1.98398   2.00375
 Alpha virt. eigenvalues --    2.02123   2.05557   2.10141   2.17592   2.18038
 Alpha virt. eigenvalues --    2.22341   2.26667   2.33118   2.34871   2.39402
 Alpha virt. eigenvalues --    2.42242   2.43797   2.46109   2.47301   2.53329
 Alpha virt. eigenvalues --    2.62462   2.76750   2.77696   2.81265   2.82432
 Alpha virt. eigenvalues --    2.83966   2.88998   2.91540   2.92986   2.93969
 Alpha virt. eigenvalues --    2.94168   2.97041   2.98435   3.01181   3.03452
 Alpha virt. eigenvalues --    3.04696   3.07086   3.08484   3.10267   3.11352
 Alpha virt. eigenvalues --    3.14096   3.15800   3.16611   3.18829   3.22093
 Alpha virt. eigenvalues --    3.23938   3.26162   3.30956   3.33407   3.34451
 Alpha virt. eigenvalues --    3.35246   3.36748   3.37507   3.38113   3.40309
 Alpha virt. eigenvalues --    3.41462   3.42872   3.43738   3.45127   3.45435
 Alpha virt. eigenvalues --    3.47233   3.48608   3.50039   3.50893   3.50958
 Alpha virt. eigenvalues --    3.52821   3.53821   3.54019   3.55073   3.56518
 Alpha virt. eigenvalues --    3.56856   3.57550   3.59080   3.59433   3.60316
 Alpha virt. eigenvalues --    3.61066   3.62838   3.63154   3.64827   3.65535
 Alpha virt. eigenvalues --    3.66588   3.67689   3.68316   3.68367   3.69910
 Alpha virt. eigenvalues --    3.70617   3.71414   3.72122   3.72905   3.74649
 Alpha virt. eigenvalues --    3.75952   3.76650   3.77423   3.78240   3.79517
 Alpha virt. eigenvalues --    3.80331   3.80739   3.82939   3.83537   3.85342
 Alpha virt. eigenvalues --    3.86507   3.89334   3.90063   3.91001   3.91666
 Alpha virt. eigenvalues --    3.92801   3.93802   3.94063   3.97032   3.99298
 Alpha virt. eigenvalues --    4.00128   4.00815   4.02061   4.02697   4.03975
 Alpha virt. eigenvalues --    4.05512   4.06703   4.06977   4.07402   4.07795
 Alpha virt. eigenvalues --    4.08583   4.09218   4.10454   4.11036   4.11744
 Alpha virt. eigenvalues --    4.12170   4.12483   4.14469   4.15731   4.16692
 Alpha virt. eigenvalues --    4.16869   4.17778   4.18503   4.18917   4.20272
 Alpha virt. eigenvalues --    4.21740   4.23644   4.24417   4.26693   4.27386
 Alpha virt. eigenvalues --    4.28341   4.29213   4.31362   4.31481   4.32612
 Alpha virt. eigenvalues --    4.33358   4.34265   4.35109   4.35339   4.38952
 Alpha virt. eigenvalues --    4.40064   4.41934   4.44079   4.47576   4.49050
 Alpha virt. eigenvalues --    4.58092   4.60920   4.72927   4.75667   4.82198
 Alpha virt. eigenvalues --    4.85102   4.93475   4.95658   5.00254   5.01466
 Alpha virt. eigenvalues --    5.05022   5.07017   5.07739   5.11156   5.13092
 Alpha virt. eigenvalues --    5.14151   5.15817   5.17119   5.32814   5.39281
 Alpha virt. eigenvalues --    5.42494   5.58574   5.63564   5.68014   5.87335
 Alpha virt. eigenvalues --    5.87543   6.05726   7.03566   7.05067   7.07638
 Alpha virt. eigenvalues --    7.08196   7.09404   7.12736   7.16196   7.20292
 Alpha virt. eigenvalues --    7.27797   7.34751   7.41332   7.47836   7.52463
 Alpha virt. eigenvalues --    7.54679   7.63001  23.96490  23.97705  24.04621
 Alpha virt. eigenvalues --   24.07750  24.10929  24.11936  24.13794  24.15843
 Alpha virt. eigenvalues --   24.18166  24.20831  50.17101  50.19806  50.29752
          Condensed to atoms (all electrons):
               1          2          3          4          5          6
     1  C    9.415754   0.103634  -0.059111  -1.553735  -1.875683   0.042764
     2  C    0.103634   5.500748   0.000321  -0.107821  -0.095793   0.014256
     3  O   -0.059111   0.000321   8.242365   0.023968  -0.004191  -0.046114
     4  C   -1.553735  -0.107821   0.023968   6.705944   0.698319  -0.004594
     5  C   -1.875683  -0.095793  -0.004191   0.698319   6.937776  -0.192595
     6  O    0.042764   0.014256  -0.046114  -0.004594  -0.192595   8.345040
     7  C    0.309917   0.000791  -0.088660  -0.257474  -0.118789  -0.041220
     8  C    0.042386  -0.001680  -0.002941  -0.015718  -0.000657  -0.002269
     9  C   -1.084554   0.045477   0.317275   0.343637   0.323467   0.186258
    10  C    0.107079   0.002076  -0.081516  -0.038317  -0.033016  -0.021810
    11  C   -0.024646   0.000804   0.110740   0.065759   0.009937   0.016043
    12  C    0.191119  -0.098942  -0.003939  -0.226260  -0.119065   0.024405
    13  O    0.042668   0.061159   0.017275   0.162697  -0.066515   0.017010
    14  H    0.630972   0.002818  -0.001093  -0.090986  -0.133784  -0.054324
    15  H    0.074764   0.520818  -0.000384  -0.064314  -0.029615   0.000068
    16  H   -0.044557   0.428503   0.000026   0.036692  -0.004923   0.002141
    17  H    0.070494   0.007674  -0.020864   0.316448  -0.013731  -0.011415
    18  H   -0.003972   0.009083   0.003384   0.454440  -0.032309   0.003677
    19  H   -0.052128  -0.024755   0.001391  -0.011775   0.493430  -0.012569
    20  H   -0.039608   0.001220  -0.000484   0.011138   0.430066  -0.001507
    21  H   -0.020254   0.000081   0.008939   0.001501   0.008097  -0.006187
    22  H    0.009599   0.000444  -0.008591  -0.001717  -0.003883   0.009752
    23  H    0.004060   0.000939   0.003614  -0.000797  -0.001855  -0.003390
    24  H    0.010105  -0.000241  -0.005500  -0.002973  -0.002556   0.000753
    25  H   -0.034323   0.000106  -0.053637   0.023249   0.014355  -0.025643
    26  H    0.002713  -0.000105   0.009976   0.001705   0.000491  -0.000835
    27  H   -0.006934   0.000197  -0.000268   0.000995   0.000702   0.000409
    28  H    0.001691   0.000318  -0.071980   0.003013  -0.000597   0.000625
    29  H   -0.013286   0.000436  -0.035046  -0.025069  -0.009145   0.017558
    30  H   -0.084274  -0.088119  -0.000008   0.009417   0.005609   0.001625
    31  H    0.014331  -0.024948  -0.000446  -0.012034  -0.029023  -0.002879
               7          8          9         10         11         12
     1  C    0.309917   0.042386  -1.084554   0.107079  -0.024646   0.191119
     2  C    0.000791  -0.001680   0.045477   0.002076   0.000804  -0.098942
     3  O   -0.088660  -0.002941   0.317275  -0.081516   0.110740  -0.003939
     4  C   -0.257474  -0.015718   0.343637  -0.038317   0.065759  -0.226260
     5  C   -0.118789  -0.000657   0.323467  -0.033016   0.009937  -0.119065
     6  O   -0.041220  -0.002269   0.186258  -0.021810   0.016043   0.024405
     7  C    6.980523   0.002779  -1.044005  -0.126809   0.070937   0.015256
     8  C    0.002779   5.609610  -0.197210   0.028814  -0.042396   0.002187
     9  C   -1.044005  -0.197210   7.074973   0.157770  -0.295097  -0.035459
    10  C   -0.126809   0.028814   0.157770   5.752990  -0.080198  -0.003275
    11  C    0.070937  -0.042396  -0.295097  -0.080198   5.527015  -0.004475
    12  C    0.015256   0.002187  -0.035459  -0.003275  -0.004475   5.692621
    13  O    0.002348   0.004466  -0.053732  -0.001065   0.002078   0.047426
    14  H    0.001751   0.001467  -0.042915   0.003081   0.000447  -0.001685
    15  H    0.000300  -0.000012  -0.001946  -0.000146   0.000517  -0.094219
    16  H   -0.001077   0.000153   0.001760  -0.000002  -0.000891   0.000085
    17  H    0.011573  -0.002896  -0.026011   0.014681  -0.006191   0.000426
    18  H    0.001884   0.000560  -0.002470  -0.001679   0.002234  -0.022729
    19  H    0.002247  -0.001158  -0.020862   0.005032   0.001504  -0.012681
    20  H   -0.001433   0.000743   0.001283  -0.000142  -0.001439  -0.021655
    21  H    0.406492  -0.039082   0.001290  -0.009238   0.009922  -0.000197
    22  H    0.524915  -0.010999  -0.150455  -0.008743   0.013768  -0.000314
    23  H   -0.049771   0.530315  -0.026223  -0.072028   0.002911  -0.002594
    24  H   -0.047870   0.417378   0.011665  -0.010950   0.003351   0.000451
    25  H   -0.062772  -0.008970   0.526680   0.006735  -0.022528   0.002573
    26  H   -0.009049  -0.051818   0.008290   0.450174  -0.038695  -0.000329
    27  H   -0.014411  -0.007561   0.008141   0.475979  -0.089747  -0.000201
    28  H   -0.008076   0.006218  -0.001523  -0.015304   0.437174  -0.001078
    29  H    0.041651   0.018218  -0.018602  -0.098737   0.459266   0.009734
    30  H   -0.000438   0.000180  -0.002289   0.000104  -0.000172   0.535719
    31  H   -0.000782   0.000296   0.000772  -0.000592   0.000634   0.408899
              13         14         15         16         17         18
     1  C    0.042668   0.630972   0.074764  -0.044557   0.070494  -0.003972
     2  C    0.061159   0.002818   0.520818   0.428503   0.007674   0.009083
     3  O    0.017275  -0.001093  -0.000384   0.000026  -0.020864   0.003384
     4  C    0.162697  -0.090986  -0.064314   0.036692   0.316448   0.454440
     5  C   -0.066515  -0.133784  -0.029615  -0.004923  -0.013731  -0.032309
     6  O    0.017010  -0.054324   0.000068   0.002141  -0.011415   0.003677
     7  C    0.002348   0.001751   0.000300  -0.001077   0.011573   0.001884
     8  C    0.004466   0.001467  -0.000012   0.000153  -0.002896   0.000560
     9  C   -0.053732  -0.042915  -0.001946   0.001760  -0.026011  -0.002470
    10  C   -0.001065   0.003081  -0.000146  -0.000002   0.014681  -0.001679
    11  C    0.002078   0.000447   0.000517  -0.000891  -0.006191   0.002234
    12  C    0.047426  -0.001685  -0.094219   0.000085   0.000426  -0.022729
    13  O    8.285017   0.005021  -0.066000  -0.075554  -0.059124  -0.045199
    14  H    0.005021   0.452868   0.002204   0.000080   0.001597   0.003063
    15  H   -0.066000   0.002204   0.524262  -0.029953  -0.002074   0.013369
    16  H   -0.075554   0.000080  -0.029953   0.513488  -0.000308  -0.006481
    17  H   -0.059124   0.001597  -0.002074  -0.000308   0.474743  -0.007631
    18  H   -0.045199   0.003063   0.013369  -0.006481  -0.007631   0.464997
    19  H   -0.006602   0.002583  -0.006487   0.008770   0.005015  -0.004963
    20  H    0.000424  -0.007866   0.001750  -0.002947  -0.000523   0.001424
    21  H   -0.000120  -0.001832  -0.000021   0.000049  -0.001336  -0.000175
    22  H    0.000287   0.000880   0.000006  -0.000034   0.002064  -0.000026
    23  H    0.000505   0.000273   0.000082  -0.000158  -0.000421   0.000343
    24  H    0.000091   0.000259  -0.000006   0.000012   0.000280  -0.000062
    25  H   -0.003932  -0.009639  -0.000781   0.000645  -0.010101  -0.005747
    26  H   -0.000177  -0.000001  -0.000006   0.000024   0.000337  -0.000063
    27  H    0.000051  -0.000154   0.000000  -0.000013  -0.000614   0.000116
    28  H   -0.000574   0.000052  -0.000117   0.000167   0.001390  -0.000349
    29  H    0.001186  -0.000271   0.000658  -0.000732  -0.004227   0.000733
    30  H    0.002261  -0.007093  -0.019285   0.010085  -0.000186  -0.014346
    31  H    0.011095  -0.000593   0.005172  -0.012744   0.001194   0.000602
              19         20         21         22         23         24
     1  C   -0.052128  -0.039608  -0.020254   0.009599   0.004060   0.010105
     2  C   -0.024755   0.001220   0.000081   0.000444   0.000939  -0.000241
     3  O    0.001391  -0.000484   0.008939  -0.008591   0.003614  -0.005500
     4  C   -0.011775   0.011138   0.001501  -0.001717  -0.000797  -0.002973
     5  C    0.493430   0.430066   0.008097  -0.003883  -0.001855  -0.002556
     6  O   -0.012569  -0.001507  -0.006187   0.009752  -0.003390   0.000753
     7  C    0.002247  -0.001433   0.406492   0.524915  -0.049771  -0.047870
     8  C   -0.001158   0.000743  -0.039082  -0.010999   0.530315   0.417378
     9  C   -0.020862   0.001283   0.001290  -0.150455  -0.026223   0.011665
    10  C    0.005032  -0.000142  -0.009238  -0.008743  -0.072028  -0.010950
    11  C    0.001504  -0.001439   0.009922   0.013768   0.002911   0.003351
    12  C   -0.012681  -0.021655  -0.000197  -0.000314  -0.002594   0.000451
    13  O   -0.006602   0.000424  -0.000120   0.000287   0.000505   0.000091
    14  H    0.002583  -0.007866  -0.001832   0.000880   0.000273   0.000259
    15  H   -0.006487   0.001750  -0.000021   0.000006   0.000082  -0.000006
    16  H    0.008770  -0.002947   0.000049  -0.000034  -0.000158   0.000012
    17  H    0.005015  -0.000523  -0.001336   0.002064  -0.000421   0.000280
    18  H   -0.004963   0.001424  -0.000175  -0.000026   0.000343  -0.000062
    19  H    0.469362  -0.013488  -0.000422   0.000478  -0.001054   0.000267
    20  H   -0.013488   0.465807   0.000438  -0.000247   0.000339  -0.000031
    21  H   -0.000422   0.000438   0.477943  -0.004295  -0.001838  -0.010586
    22  H    0.000478  -0.000247  -0.004295   0.451425   0.001475  -0.001444
    23  H   -0.001054   0.000339  -0.001838   0.001475   0.459751  -0.005763
    24  H    0.000267  -0.000031  -0.010586  -0.001444  -0.005763   0.467925
    25  H   -0.001420   0.000760  -0.007217  -0.015839  -0.003580   0.001115
    26  H    0.000526  -0.000060   0.001496  -0.001895  -0.004723  -0.008122
    27  H   -0.000211   0.000063  -0.002077  -0.002989   0.001902  -0.001152
    28  H    0.001245  -0.000070   0.001324   0.000800  -0.002667   0.001200
    29  H   -0.010724   0.000969  -0.000014  -0.002442  -0.000161  -0.001188
    30  H    0.003132  -0.003998   0.000023  -0.000022  -0.000250   0.000026
    31  H   -0.001043  -0.010026   0.000052  -0.000023   0.000141  -0.000013
              25         26         27         28         29         30
     1  C   -0.034323   0.002713  -0.006934   0.001691  -0.013286  -0.084274
     2  C    0.000106  -0.000105   0.000197   0.000318   0.000436  -0.088119
     3  O   -0.053637   0.009976  -0.000268  -0.071980  -0.035046  -0.000008
     4  C    0.023249   0.001705   0.000995   0.003013  -0.025069   0.009417
     5  C    0.014355   0.000491   0.000702  -0.000597  -0.009145   0.005609
     6  O   -0.025643  -0.000835   0.000409   0.000625   0.017558   0.001625
     7  C   -0.062772  -0.009049  -0.014411  -0.008076   0.041651  -0.000438
     8  C   -0.008970  -0.051818  -0.007561   0.006218   0.018218   0.000180
     9  C    0.526680   0.008290   0.008141  -0.001523  -0.018602  -0.002289
    10  C    0.006735   0.450174   0.475979  -0.015304  -0.098737   0.000104
    11  C   -0.022528  -0.038695  -0.089747   0.437174   0.459266  -0.000172
    12  C    0.002573  -0.000329  -0.000201  -0.001078   0.009734   0.535719
    13  O   -0.003932  -0.000177   0.000051  -0.000574   0.001186   0.002261
    14  H   -0.009639  -0.000001  -0.000154   0.000052  -0.000271  -0.007093
    15  H   -0.000781  -0.000006   0.000000  -0.000117   0.000658  -0.019285
    16  H    0.000645   0.000024  -0.000013   0.000167  -0.000732   0.010085
    17  H   -0.010101   0.000337  -0.000614   0.001390  -0.004227  -0.000186
    18  H   -0.005747  -0.000063   0.000116  -0.000349   0.000733  -0.014346
    19  H   -0.001420   0.000526  -0.000211   0.001245  -0.010724   0.003132
    20  H    0.000760  -0.000060   0.000063  -0.000070   0.000969  -0.003998
    21  H   -0.007217   0.001496  -0.002077   0.001324  -0.000014   0.000023
    22  H   -0.015839  -0.001895  -0.002989   0.000800  -0.002442  -0.000022
    23  H   -0.003580  -0.004723   0.001902  -0.002667  -0.000161  -0.000250
    24  H    0.001115  -0.008122  -0.001152   0.001200  -0.001188   0.000026
    25  H    0.456067   0.001174   0.000793  -0.000722   0.001835   0.001230
    26  H    0.001174   0.489456  -0.013047  -0.007692  -0.003681   0.000017
    27  H    0.000793  -0.013047   0.488161  -0.008620   0.007011  -0.000014
    28  H   -0.000722  -0.007692  -0.008620   0.482973  -0.020542   0.000067
    29  H    0.001835  -0.003681   0.007011  -0.020542   0.535061  -0.000230
    30  H    0.001230   0.000017  -0.000014   0.000067  -0.000230   0.473159
    31  H   -0.000282   0.000014  -0.000008  -0.000082   0.000472  -0.010345
              31
     1  C    0.014331
     2  C   -0.024948
     3  O   -0.000446
     4  C   -0.012034
     5  C   -0.029023
     6  O   -0.002879
     7  C   -0.000782
     8  C    0.000296
     9  C    0.000772
    10  C   -0.000592
    11  C    0.000634
    12  C    0.408899
    13  O    0.011095
    14  H   -0.000593
    15  H    0.005172
    16  H   -0.012744
    17  H    0.001194
    18  H    0.000602
    19  H   -0.001043
    20  H   -0.010026
    21  H    0.000052
    22  H   -0.000023
    23  H    0.000141
    24  H   -0.000013
    25  H   -0.000282
    26  H    0.000014
    27  H   -0.000008
    28  H   -0.000082
    29  H    0.000472
    30  H   -0.010345
    31  H    0.496591
 Mulliken charges:
               1
     1  C   -0.176984
     2  C   -0.259501
     3  O   -0.254500
     4  C   -0.445338
     5  C   -0.154524
     6  O   -0.255033
     7  C   -0.500728
     8  C   -0.280403
     9  C   -0.005383
    10  C   -0.400950
    11  C   -0.128567
    12  C   -0.281803
    13  O   -0.284469
    14  H    0.242818
    15  H    0.171399
    16  H    0.177693
    17  H    0.259733
    18  H    0.188290
    19  H    0.187363
    20  H    0.189102
    21  H    0.187244
    22  H    0.198063
    23  H    0.170620
    24  H    0.183579
    25  H    0.229816
    26  H    0.173903
    27  H    0.163501
    28  H    0.201735
    29  H    0.149311
    30  H    0.188413
    31  H    0.165598
 Sum of Mulliken charges =  -0.00000
 Mulliken charges with hydrogens summed into heavy atoms:
               1
     1  C    0.065834
     2  C    0.089591
     3  O   -0.254500
     4  C    0.002686
     5  C    0.221941
     6  O   -0.255033
     7  C   -0.115421
     8  C    0.073797
     9  C    0.224434
    10  C   -0.063546
    11  C    0.222479
    12  C    0.072208
    13  O   -0.284469
 Electronic spatial extent (au):  <R**2>=           2784.5210
 Charge=             -0.0000 electrons
 Dipole moment (field-independent basis, Debye):
    X=              0.8201    Y=             -2.2443    Z=             -0.3922  Tot=              2.4214
 Quadrupole moment (field-independent basis, Debye-Ang):
   XX=            -68.1717   YY=            -82.7918   ZZ=            -77.3793
   XY=             -3.0905   XZ=             -0.0992   YZ=             -5.2288
 Traceless Quadrupole moment (field-independent basis, Debye-Ang):
   XX=              7.9425   YY=             -6.6776   ZZ=             -1.2650
   XY=             -3.0905   XZ=             -0.0992   YZ=             -5.2288
 Octapole moment (field-independent basis, Debye-Ang**2):
  XXX=             15.7686  YYY=             -0.0760  ZZZ=              5.1967  XYY=             -3.9048
  XXY=             -2.8247  XXZ=             -6.0590  XZZ=              5.9148  YZZ=             -1.2241
  YYZ=             -3.0053  XYZ=              1.2474
 Hexadecapole moment (field-independent basis, Debye-Ang**3):
 XXXX=          -2610.1046 YYYY=           -579.4506 ZZZZ=           -409.0239 XXXY=             14.5729
 XXXZ=            -12.5510 YYYX=            -14.1163 YYYZ=             -7.1512 ZZZX=             -2.7735
 ZZZY=             -3.8189 XXYY=           -552.6762 XXZZ=           -511.0062 YYZZ=           -168.8697
 XXYZ=            -14.3751 YYXZ=             -3.6966 ZZXY=              2.3296
 N-N= 9.087004346099D+02 E-N=-3.259710473339D+03  KE= 6.153239829363D+02
 D1PCM: PCM CHGder 1st derivatives, ID1Alg=3 FixD1E=F DoIter=F DoCFld=F I1PDM=0.
 Calling FoFJK, ICntrl=      2127 FMM=F ISym2X=0 I1Cent= 0 IOpClX= 0 NMat=1 NMatS=1 NMatT=0.
 ***** Axes restored to original set *****
 -------------------------------------------------------------------
 Center     Atomic                   Forces (Hartrees/Bohr)
 Number     Number              X              Y              Z
 -------------------------------------------------------------------
      1        6          -0.001508512   -0.006801359   -0.000963127
      2        6          -0.002465987    0.005908941   -0.001721888
      3        8           0.002868325   -0.006716336   -0.009412700
      4        6           0.003180969    0.001555743    0.006964572
      5        6           0.002617012    0.002217272   -0.003468315
      6        8          -0.002270730    0.000561505    0.012423142
      7        6           0.000922006   -0.000305277    0.002307197
      8        6           0.001603003   -0.002326522   -0.002701868
      9        6          -0.001799624    0.001755116    0.005442319
     10        6           0.002080246    0.001577166    0.000820440
     11        6          -0.003677157    0.005491034   -0.001138232
     12        6          -0.001856833   -0.001189096    0.000250286
     13        8          -0.006207873   -0.007446560    0.001092172
     14        1           0.002041013    0.005374775   -0.002873049
     15        1           0.004851915   -0.000460128   -0.002628365
     16        1          -0.000331739   -0.002582508    0.004069744
     17        1          -0.006137037   -0.001938125   -0.002998950
     18        1           0.004592713    0.002981642   -0.003707805
     19        1          -0.002820048   -0.003069484    0.001248746
     20        1          -0.000144130    0.002567256    0.000907633
     21        1           0.000580753    0.003075727    0.000263535
     22        1          -0.001987886   -0.001412064   -0.002383689
     23        1           0.002910416    0.000908058    0.002009891
     24        1          -0.002413697    0.000900148    0.000228306
     25        1           0.001808707    0.000511651   -0.007809409
     26        1          -0.001042419   -0.000753460    0.002542084
     27        1          -0.001737237   -0.000894802   -0.002714314
     28        1          -0.000215171   -0.004412069   -0.000590155
     29        1           0.003783198    0.002348411    0.004823781
     30        1           0.001279748    0.001975548   -0.002567504
     31        1           0.001496054    0.000597798    0.002285523
 -------------------------------------------------------------------
 Cartesian Forces:  Max     0.012423142 RMS     0.003461194

 GradGradGradGradGradGradGradGradGradGradGradGradGradGradGradGradGradGrad
 Berny optimization.
 FormGI is forming the generalized inverse of G from B-inverse, IUseBI=4.
 Internal  Forces:  Max     0.016023619 RMS     0.002278262
 Search for a local minimum.
 Step number   1 out of a maximum of  186
 All quantities printed in internal units (Hartrees-Bohrs-Radians)
 Mixed Optimization -- RFO/linear search
 Second derivative matrix not updated -- first step.
 ITU=  0
     Eigenvalues ---    0.00408   0.00622   0.00623   0.00721   0.01414
     Eigenvalues ---    0.01419   0.01755   0.02703   0.02785   0.03080
     Eigenvalues ---    0.03354   0.04089   0.04115   0.04598   0.04695
     Eigenvalues ---    0.04747   0.04887   0.04892   0.05073   0.05141
     Eigenvalues ---    0.05287   0.05620   0.05688   0.05975   0.06170
     Eigenvalues ---    0.06186   0.06420   0.07045   0.07609   0.07814
     Eigenvalues ---    0.07850   0.07951   0.07959   0.08135   0.08233
     Eigenvalues ---    0.08823   0.09207   0.10166   0.11269   0.11600
     Eigenvalues ---    0.11710   0.11766   0.11766   0.12399   0.12645
     Eigenvalues ---    0.14681   0.14713   0.16474   0.18102   0.19116
     Eigenvalues ---    0.19678   0.21958   0.22427   0.25000   0.27064
     Eigenvalues ---    0.27579   0.28618   0.28628   0.28836   0.28931
     Eigenvalues ---    0.29318   0.30266   0.35088   0.35193   0.35195
     Eigenvalues ---    0.35234   0.35285   0.35287   0.35311   0.35314
     Eigenvalues ---    0.35378   0.35382   0.35430   0.35434   0.35439
     Eigenvalues ---    0.35447   0.35768   0.35844   0.35934   0.36432
     Eigenvalues ---    0.40128   0.40912   0.41517   0.41651   0.43415
     Eigenvalues ---    0.464221000.000001000.000001000.000001000.00000
     Eigenvalues --- 1000.000001000.000001000.000001000.000001000.00000
     Eigenvalues --- 1000.000001000.000001000.000001000.000001000.00000
     Eigenvalues --- 1000.000001000.000001000.000001000.000001000.00000
     Eigenvalues --- 1000.000001000.000001000.000001000.000001000.00000
     Eigenvalues --- 1000.000001000.000001000.000001000.000001000.00000
     Eigenvalues --- 1000.000001000.000001000.000001000.000001000.00000
     Eigenvalues --- 1000.000001000.000001000.000001000.000001000.00000
     Eigenvalues --- 1000.000001000.000001000.000001000.000001000.00000
     Eigenvalues --- 1000.000001000.000001000.000001000.000001000.00000
     Eigenvalues --- 1000.000001000.000001000.000001000.000001000.00000
     Eigenvalues --- 1000.000001000.000001000.000001000.000001000.00000
     Eigenvalues --- 1000.000001000.000001000.000001000.000001000.00000
     Eigenvalues --- 1000.000001000.000001000.000001000.000001000.00000
     Eigenvalues --- 1000.000001000.000001000.000001000.000001000.00000
     Eigenvalues --- 1000.000001000.000001000.000001000.000001000.00000
     Eigenvalues --- 1000.000001000.000001000.000001000.000001000.00000
     Eigenvalues --- 1000.000001000.000001000.000001000.000001000.00000
     Eigenvalues --- 1000.000001000.000001000.000001000.000001000.00000
     Eigenvalues --- 1000.000001000.000001000.000001000.000001000.00000
 RFO step:  Lambda=-4.35495696D-03 EMin= 4.08265679D-03
 Linear search not attempted -- first point.
 Iteration  1 RMS(Cart)=  0.08876225 RMS(Int)=  0.00168463
 Iteration  2 RMS(Cart)=  0.00456387 RMS(Int)=  0.00006585
 Iteration  3 RMS(Cart)=  0.00000532 RMS(Int)=  0.00006577
 Iteration  4 RMS(Cart)=  0.00000000 RMS(Int)=  0.00006577
 Iteration  1 RMS(Cart)=  0.00000266 RMS(Int)=  0.00000061
 Iteration  2 RMS(Cart)=  0.00000149 RMS(Int)=  0.00000068
 Iteration  3 RMS(Cart)=  0.00000083 RMS(Int)=  0.00000078
 Variable       Old X    -DE/DX   Delta X   Delta X   Delta X     New X
                                 (Linear)    (Quad)   (Total)
    R1        2.89702  -0.00057   0.00000  -0.00057  -0.00053   2.89650
    R2        2.89674  -0.00207   0.00000  -0.00708  -0.00706   2.88968
    R3        2.69542  -0.00036   0.00000  -0.00087  -0.00087   2.69456
    R4        2.05059   0.00632   0.00000   0.01764   0.01764   2.06823
    R5        2.89476   0.00114   0.00000   0.00265   0.00264   2.89739
    R6        2.68484   0.00380   0.00000   0.00906   0.00907   2.69391
    R7        2.05211   0.00543   0.00000   0.01520   0.01520   2.06731
    R8        2.04446   0.00480   0.00000   0.01326   0.01326   2.05772
    R9        2.65333   0.00362   0.00000   0.00747   0.00748   2.66081
   R10        2.68549   0.00272   0.00000   0.00615   0.00616   2.69164
   R11        2.66470   0.00274   0.00000   0.00680   0.00679   2.67149
   R12        2.03411   0.00680   0.00000   0.01844   0.01844   2.05255
   R13        2.05168   0.00655   0.00000   0.01833   0.01833   2.07001
   R14        2.88506  -0.00049   0.00000  -0.00278  -0.00282   2.88224
   R15        2.05066   0.00396   0.00000   0.01105   0.01105   2.06171
   R16        2.04983   0.00272   0.00000   0.00759   0.00759   2.05741
   R17        2.63658   0.00283   0.00000   0.00604   0.00604   2.64262
   R18        2.89015  -0.00140   0.00000  -0.00441  -0.00441   2.88574
   R19        2.87734  -0.00060   0.00000  -0.00249  -0.00252   2.87482
   R20        2.04975   0.00312   0.00000   0.00869   0.00869   2.05844
   R21        2.05360   0.00335   0.00000   0.00941   0.00941   2.06301
   R22        2.88880  -0.00073   0.00000  -0.00167  -0.00168   2.88712
   R23        2.05362   0.00344   0.00000   0.00967   0.00967   2.06329
   R24        2.05172   0.00258   0.00000   0.00723   0.00723   2.05895
   R25        2.04186   0.00796   0.00000   0.02188   0.02188   2.06373
   R26        2.87171   0.00027   0.00000   0.00134   0.00137   2.87308
   R27        2.05297   0.00283   0.00000   0.00793   0.00793   2.06090
   R28        2.05532   0.00327   0.00000   0.00920   0.00920   2.06452
   R29        2.04326   0.00446   0.00000   0.01228   0.01228   2.05554
   R30        2.04967   0.00648   0.00000   0.01807   0.01807   2.06774
   R31        2.05215   0.00346   0.00000   0.00968   0.00968   2.06183
   R32        2.04955   0.00276   0.00000   0.00770   0.00770   2.05725
    A1        1.89846   0.00173   0.00000  -0.00475  -0.00494   1.89352
    A2        2.03146  -0.00350   0.00000  -0.02751  -0.02749   2.00397
    A3        1.87498   0.00120   0.00000   0.01185   0.01195   1.88693
    A4        1.85423   0.00153   0.00000   0.00234   0.00205   1.85628
    A5        1.93489  -0.00233   0.00000   0.00062   0.00061   1.93550
    A6        1.86996   0.00118   0.00000   0.01801   0.01810   1.88806
    A7        1.94804   0.00223   0.00000   0.00521   0.00510   1.95314
    A8        1.94012  -0.00111   0.00000  -0.00547  -0.00550   1.93462
    A9        1.93234  -0.00113   0.00000  -0.00693  -0.00690   1.92545
   A10        1.90402   0.00030   0.00000   0.00832   0.00840   1.91242
   A11        1.84463  -0.00093   0.00000  -0.00274  -0.00272   1.84191
   A12        1.89144   0.00065   0.00000   0.00189   0.00185   1.89329
   A13        2.02304  -0.00580   0.00000  -0.03744  -0.03735   1.98569
   A14        1.94496   0.00010   0.00000   0.00053   0.00039   1.94535
   A15        1.97422  -0.00170   0.00000  -0.02001  -0.02006   1.95416
   A16        1.88737  -0.00034   0.00000   0.00363   0.00359   1.89097
   A17        1.87042  -0.00006   0.00000  -0.00543  -0.00555   1.86487
   A18        1.91038   0.00124   0.00000   0.01500   0.01496   1.92534
   A19        1.87474   0.00088   0.00000   0.00761   0.00763   1.88237
   A20        1.93138  -0.00148   0.00000  -0.00783  -0.00798   1.92340
   A21        1.88799  -0.00022   0.00000  -0.01064  -0.01058   1.87741
   A22        1.92344   0.00012   0.00000   0.00098   0.00104   1.92448
   A23        1.90673   0.00098   0.00000   0.00521   0.00514   1.91187
   A24        1.93989   0.00054   0.00000   0.00520   0.00524   1.94513
   A25        1.87266   0.00011   0.00000   0.00716   0.00710   1.87976
   A26        2.11554  -0.01602   0.00000  -0.06300  -0.06300   2.05254
   A27        1.95415  -0.00195   0.00000  -0.01665  -0.01679   1.93736
   A28        1.94729  -0.00023   0.00000  -0.00136  -0.00146   1.94583
   A29        1.90926   0.00124   0.00000   0.00728   0.00738   1.91664
   A30        1.90037   0.00088   0.00000   0.00024   0.00027   1.90064
   A31        1.87351   0.00018   0.00000   0.00446   0.00445   1.87796
   A32        1.87618  -0.00004   0.00000   0.00719   0.00716   1.88334
   A33        1.91339   0.00194   0.00000  -0.00081  -0.00080   1.91259
   A34        1.92227  -0.00100   0.00000  -0.00671  -0.00671   1.91555
   A35        1.91632  -0.00054   0.00000   0.00171   0.00169   1.91802
   A36        1.91438  -0.00086   0.00000  -0.00197  -0.00208   1.91230
   A37        1.93039  -0.00026   0.00000   0.00198   0.00205   1.93244
   A38        1.86670   0.00065   0.00000   0.00586   0.00587   1.87257
   A39        1.94372   0.00027   0.00000  -0.00157  -0.00140   1.94232
   A40        1.93661   0.00353   0.00000   0.01337   0.01315   1.94976
   A41        1.83946  -0.00268   0.00000  -0.01599  -0.01599   1.82347
   A42        1.89661  -0.00305   0.00000  -0.01344  -0.01334   1.88327
   A43        1.92361   0.00175   0.00000   0.01218   0.01216   1.93578
   A44        1.92370   0.00029   0.00000   0.00607   0.00616   1.92986
   A45        1.92285  -0.00095   0.00000  -0.00419  -0.00441   1.91845
   A46        1.93932  -0.00052   0.00000  -0.00187  -0.00184   1.93747
   A47        1.91604   0.00088   0.00000   0.00116   0.00125   1.91729
   A48        1.90353   0.00057   0.00000   0.00323   0.00328   1.90681
   A49        1.90563   0.00005   0.00000  -0.00147  -0.00140   1.90424
   A50        1.87560   0.00001   0.00000   0.00333   0.00330   1.87890
   A51        1.94505   0.00227   0.00000   0.00549   0.00544   1.95049
   A52        1.84183  -0.00130   0.00000  -0.00202  -0.00203   1.83980
   A53        1.90902   0.00002   0.00000   0.00018   0.00025   1.90926
   A54        1.94580  -0.00026   0.00000  -0.00180  -0.00172   1.94407
   A55        1.93212  -0.00146   0.00000  -0.00593  -0.00598   1.92614
   A56        1.88701   0.00071   0.00000   0.00433   0.00432   1.89134
   A57        1.90950  -0.00065   0.00000  -0.00843  -0.00858   1.90092
   A58        1.93073   0.00072   0.00000   0.00345   0.00348   1.93421
   A59        1.90652  -0.00007   0.00000   0.00337   0.00340   1.90991
   A60        1.91856  -0.00028   0.00000  -0.00121  -0.00120   1.91736
   A61        1.93282   0.00039   0.00000   0.00149   0.00158   1.93439
   A62        1.86547  -0.00008   0.00000   0.00169   0.00166   1.86713
   A63        1.97678  -0.00528   0.00000  -0.02736  -0.02741   1.94938
    D1        0.55785   0.00180   0.00000   0.00580   0.00584   0.56369
    D2        2.66660   0.00059   0.00000  -0.01512  -0.01500   2.65160
    D3       -1.54256   0.00043   0.00000  -0.01539  -0.01531  -1.55787
    D4       -1.53474   0.00084   0.00000   0.02503   0.02489  -1.50984
    D5        0.57401  -0.00037   0.00000   0.00411   0.00405   0.57806
    D6        2.64804  -0.00053   0.00000   0.00384   0.00374   2.65178
    D7        2.65331   0.00068   0.00000   0.01069   0.01066   2.66397
    D8       -1.52113  -0.00053   0.00000  -0.01022  -0.01018  -1.53131
    D9        0.55290  -0.00069   0.00000  -0.01050  -0.01050   0.54241
   D10        0.53301   0.00136   0.00000   0.02132   0.02132   0.55433
[...]
 04,0.00010963,0.00000510,0.00002479,0.00001350,0.00005316,0.00001645,0
 .00002458,0.00030827,0.00043250,0.00057369,0.00003852,0.00021991,0.000
 13134,0.00013299,-0.00007330,0.00019076,0.00002599,-0.00001552,0.00004
 627,0.00019121,-0.00020540,-0.00004314,0.00038248,-0.00005208,0.000611
 48,-0.00012060,-0.00000368,0.00013191,0.00002220,0.00016133,-0.0003235
 6,-0.07076591,-0.05445190,0.29999731,0.00027765,0.00006250,-0.00003674
 ,0.00005239,0.00000205,0.00002739,-0.00753558,0.00081796,0.00459031,0.
 00003467,-0.00004797,0.00014641,-0.00002294,-0.00000208,0.00002503,-0.
 00042059,-0.00043734,-0.00029284,0.00094854,0.00056194,-0.00029907,-0.
 00051724,-0.00043001,-0.00168753,0.00031536,0.00258068,-0.00008878,-0.
 06666638,-0.02317373,0.05955555,-0.00383667,-0.01300818,0.02644101,-0.
 00000409,-0.00000441,-0.00002103,-0.00008962,0.00002917,-0.00004691,-0
 .00004060,-0.00001833,0.00002097,-0.00001314,0.00000062,0.00000036,-0.
 00000890,0.00000304,-0.00000980,0.00006529,-0.00003754,-0.00010098,-0.
 00007057,-0.00000674,-0.00003191,-0.00000005,-0.00000196,0.00000209,-0
 .00000503,-0.00000646,-0.00001012,0.00037155,0.00018768,-0.00005028,-0
 .00006943,-0.00009461,0.00041690,0.00008381,-0.00002326,0.00027200,0.0
 0011138,-0.00031179,-0.00035855,0.00003646,-0.00028002,0.00002167,0.06
 887464,0.00009935,0.00001743,-0.00005920,0.00000309,-0.00000386,-0.000
 00163,0.00369139,0.00111133,-0.00207404,-0.00000627,-0.00002025,-0.000
 03872,-0.00002949,0.00000474,0.00002116,-0.00025152,0.00023810,0.00009
 892,0.00054353,-0.00701605,-0.00188295,-0.00947302,-0.01117536,0.03111
 841,0.00099604,-0.00136681,-0.00033026,-0.02343172,-0.07891522,0.08363
 706,0.00031581,0.00354829,-0.01020710,-0.00000229,-0.00000452,-0.00001
 456,-0.00001089,0.00001562,-0.00000628,-0.00001789,-0.00000642,0.00000
 692,-0.00000015,0.00000173,0.00000168,-0.00000018,0.00000051,-0.000000
 30,-0.00000182,0.00000495,0.00001801,0.00000868,0.00001528,0.00002003,
 0.00000178,0.00000031,0.00000019,-0.00000097,-0.00000205,-0.00000142,-
 0.00096098,-0.00068816,0.00189247,0.00019880,0.00010774,-0.00004001,-0
 .00024622,0.00152670,-0.00042123,0.00053600,0.00142330,-0.00021858,-0.
 00013566,0.00027170,-0.00001606,0.02556334,0.08709267,-0.00024699,-0.0
 0006196,0.00005121,-0.00004302,0.00000100,-0.00002380,0.00297121,0.000
 16349,0.00011991,-0.00002828,0.00002667,-0.00008390,0.00002645,-0.0000
 0344,-0.00002184,0.00041309,0.00026577,0.00013159,-0.00007431,-0.00003
 674,0.00137516,-0.00132044,-0.00129445,0.00220193,-0.00067123,-0.00125
 222,0.00001311,0.06178762,0.08445588,-0.26462202,-0.00089240,0.0027690
 2,-0.00717779,0.00000462,0.00000557,0.00001992,0.00009494,-0.00002326,
 0.00002295,0.00003698,0.00001743,-0.00001802,0.00001216,-0.00000054,-0
 .00000062,0.00000672,-0.00000294,0.00000752,-0.00002472,0.00002790,0.0
 0006313,0.00004747,-0.00000060,0.00001348,-0.00000421,0.00000281,-0.00
 000611,0.00000519,0.00000704,0.00000711,0.00022974,-0.00011104,-0.0000
 2907,-0.00005924,-0.00014088,0.00027221,0.00005715,0.00048741,0.000580
 80,-0.00018655,0.00047471,0.00006963,0.00000613,0.00005330,-0.00007199
 ,-0.06817279,-0.09230596,0.28490700,0.00020848,0.00004778,-0.00005698,
 0.00003963,-0.00000241,0.00003270,0.00343183,-0.00022984,0.00025621,0.
 00002611,0.00001338,-0.00006402,0.00000616,0.00002354,-0.00001469,-0.0
 0001616,-0.00027128,0.00016310,-0.00011658,-0.00011060,-0.00005657,0.0
 0085773,0.00061872,0.00110480,-0.00029186,0.00016561,-0.00007572,-0.15
 921811,-0.05894624,-0.11263149,-0.02415002,-0.00938776,-0.02329746,0.0
 0000010,-0.00000760,-0.00000915,-0.00018340,0.00000207,0.00006660,-0.0
 0003129,-0.00001402,0.00002139,-0.00001502,0.00000098,-0.00000046,-0.0
 0000187,0.00000181,-0.00000538,0.00002285,0.00000466,-0.00001055,-0.00
 001180,0.00000022,0.00001109,0.00001613,-0.00000535,0.00002803,-0.0000
 0875,-0.00001167,0.00000524,0.00002785,-0.00002919,0.00014559,-0.00018
 880,-0.00025518,0.00018763,0.00109157,0.00053697,-0.00004932,0.0005373
 2,-0.00040370,0.00031669,-0.00004315,-0.00007580,0.00001846,0.00620016
 ,0.00380657,0.00562780,0.17520493,0.00001577,-0.00000159,0.00007204,-0
 .00001042,-0.00000086,-0.00001166,-0.00133771,-0.00007758,-0.00021795,
 -0.00003042,-0.00002625,0.00003832,-0.00000171,-0.00000431,0.00000934,
 -0.00006582,0.00022692,0.00000176,-0.00004239,0.00160792,-0.00120365,-
 0.02258183,-0.01397789,-0.02386506,0.00004157,-0.00046598,0.00002681,-
 0.05900585,-0.07730331,-0.05840299,0.00949860,0.00345195,0.00995949,0.
 00000026,0.00000109,-0.00000039,0.00006670,0.00000974,-0.00003657,-0.0
 0000858,-0.00000040,0.00000091,0.00000499,0.00000061,0.00000151,-0.000
 00019,-0.00000040,0.00000109,-0.00000492,-0.00000583,-0.00000068,-0.00
 000316,0.00000946,0.00000026,-0.00000779,-0.00000380,-0.00001061,0.000
 00372,0.00000462,-0.00000430,0.00048656,0.00017434,0.00014237,0.000132
 92,-0.00000121,0.00081076,0.00008632,-0.00655065,0.00060055,0.00049845
 ,0.00153635,0.00007992,-0.00010507,0.00007630,0.00002150,0.00826916,0.
 00344542,0.00687471,0.06206757,0.08718860,0.00015177,0.00001057,-0.000
 03649,0.00001424,-0.00000016,0.00000271,-0.00077685,-0.00062241,0.0020
 0414,0.00000271,-0.00002465,0.00003981,-0.00001505,0.00000015,0.000022
 57,-0.00032609,-0.00012908,-0.00006416,0.00056531,0.00041980,0.0007756
 0,0.00039251,-0.00077237,-0.00111501,0.00015850,0.00038862,0.00005880,
 -0.11495987,-0.05819642,-0.16701388,0.00646902,0.00322062,0.00404528,-
 0.00000163,-0.00000128,-0.00001349,-0.00000978,0.00001661,-0.00002327,
 -0.00002072,-0.00001026,0.00001078,-0.00000264,0.00000072,0.00000174,-
 0.00000267,0.00000088,-0.00000214,0.00001160,-0.00000834,-0.00002075,-
 0.00001756,0.00000210,-0.00000184,0.00000275,0.00000138,-0.00000338,-0
 .00000072,-0.00000094,-0.00000289,0.00002650,-0.00008903,0.00014347,-0
 .00025752,-0.00005928,0.00028623,0.00051351,-0.00009529,0.00122013,0.0
 0012400,-0.00029450,0.00014451,-0.00007326,-0.00003845,0.00000747,-0.0
 1898473,-0.00970812,-0.01833361,0.12591003,0.06572728,0.17679473,0.000
 40887,0.00005068,-0.00005459,0.00002630,-0.00000953,-0.00000661,0.0002
 1528,-0.01337062,0.00219167,0.00003632,-0.00005774,0.00001964,-0.00000
 730,0.00003695,-0.00003393,-0.00005185,-0.00042898,0.00052356,-0.00011
 935,-0.00049297,0.00026792,-0.00618558,0.00046067,0.00172462,-0.000906
 43,0.00013106,0.00137715,0.00045255,0.03237912,0.00321545,-0.05072880,
 0.00520058,-0.00159793,0.00000167,-0.00002039,-0.00001000,-0.00000962,
 0.00008614,-0.00000159,-0.00007400,-0.00001362,0.00002791,-0.00000448,
 0.00000488,0.00000458,-0.00000574,0.00000263,-0.00000476,0.00001107,-0
 .00002548,-0.00002461,-0.00003205,0.00002032,0.00000365,0.00001640,-0.
 00001916,0.00004132,-0.00001645,-0.00001667,0.00000736,0.00017983,0.00
 000397,-0.00012341,0.00004330,0.00000092,-0.00009063,0.00008606,0.0000
 4647,0.00018833,-0.00005974,0.00204971,-0.00004716,0.00005661,-0.00056
 511,0.00011828,0.00099490,-0.00086701,0.00005739,0.00153141,-0.0005873
 7,-0.00062028,0.05281525,0.00057290,0.00008987,-0.00011822,0.00006651,
 -0.00000673,0.00003022,-0.00276980,-0.01616156,0.00602349,0.00004458,-
 0.00007731,0.00008879,-0.00004744,0.00002955,0.00002534,-0.00050339,-0
 .00029255,-0.00013388,-0.00025054,0.00015840,-0.00023843,0.00244513,0.
 00109630,-0.00057720,-0.00025208,0.00379524,0.00226484,-0.00001537,-0.
 00814377,-0.00223219,0.00327178,-0.31545575,-0.03179675,-0.00000562,-0
 .00001741,-0.00003724,-0.00014860,0.00004625,-0.00001701,-0.00008715,-
 0.00002742,0.00004014,-0.00001789,0.00000456,0.00000298,-0.00001050,0.
 00000458,-0.00001317,0.00005962,-0.00004608,-0.00008243,-0.00007162,0.
 00001745,-0.00001007,0.00000585,-0.00001376,0.00002515,-0.00001187,-0.
 00001641,-0.00000742,0.00004768,-0.00008922,-0.00003175,0.00002742,0.0
 0000059,0.00004206,-0.00007523,0.00017462,-0.00000047,-0.00007099,-0.0
 0071042,0.00014595,-0.00005698,-0.00081072,0.00008511,0.00043869,-0.00
 000388,-0.00029579,0.00004672,0.00058141,0.00040163,-0.00268699,0.3429
 2179,-0.00019359,-0.00011099,0.00015141,-0.00001695,-0.00000976,-0.000
 00840,0.00393844,0.04321406,-0.00572196,-0.00004425,0.00001970,-0.0000
 7840,0.00006157,0.00002215,-0.00006509,0.00061804,-0.00005537,0.001561
 03,0.00035107,0.00030366,-0.00033472,0.00241707,-0.00009589,0.00028612
 ,0.00059528,-0.00171638,-0.00649678,-0.00204365,-0.00749798,0.00012251
 ,-0.00246142,-0.04351862,-0.05238473,0.00000483,-0.00000464,0.00002544
 ,0.00001965,-0.00000304,0.00006218,-0.00003765,0.00000872,-0.00001542,
 0.00000533,0.00000141,-0.00000019,0.00000472,-0.00000180,0.00000429,-0
 .00005062,0.00003927,0.00005114,0.00002981,0.00000443,0.00000226,0.000
 02249,-0.00000789,0.00003264,-0.00000601,-0.00000502,0.00001310,-0.000
 21992,0.00004275,0.00019343,-0.00000810,-0.00000624,0.00004408,-0.0000
 1256,0.00043970,0.00008133,0.00017973,-0.00079156,0.00028747,0.0000210
 6,0.00162751,-0.00025715,-0.00032913,0.00022167,0.00007391,0.00023068,
 0.00059093,0.00034070,-0.00448030,0.02860422,0.06266127,0.00046369,0.0
 0029391,-0.00013197,0.00020583,-0.00000185,0.00009459,0.01114159,0.003
 23188,0.01015325,0.00004026,0.00009725,-0.00030763,0.00001596,-0.00005
 831,0.00004381,-0.00085197,-0.00149407,0.00145507,-0.00004397,0.000124
 89,0.00007912,0.00130606,-0.00127585,-0.00038682,-0.00010182,0.0001624
 4,-0.00100326,-0.02252512,-0.00926012,-0.02060171,-0.16794238,-0.04645
 216,-0.11976874,0.00003795,0.00002678,-0.00007459,-0.00011234,-0.00024
 023,-0.00007241,-0.00009550,-0.00005632,0.00005520,-0.00005263,0.00000
 303,0.00000262,-0.00000055,0.00000662,-0.00002439,0.00004084,0.0000046
 5,-0.00000776,-0.00003226,-0.00001735,0.00004499,-0.00008303,0.0000088
 1,-0.00001936,-0.00002270,-0.00002892,0.00002321,0.00006344,0.00002745
 ,-0.00008004,0.00001130,-0.00006316,0.00008056,0.00016233,0.00083281,0
 .00033725,0.00025703,-0.00005276,0.00037536,-0.00010458,0.00005000,-0.
 00003828,0.00094514,-0.00032081,0.00032714,-0.00491156,0.00261904,0.00
 173253,0.00135054,0.00008416,0.00140311,0.18085874,-0.00040123,-0.0000
 3270,0.00026655,-0.00000380,0.00002384,0.00002163,0.00710977,0.0041985
 0,0.01493190,0.00002093,0.00009249,-0.00005805,0.00000789,-0.00011744,
 0.00003106,-0.00063833,-0.00089832,0.00045457,0.00006070,-0.00027983,0
 .00014693,0.00018585,0.00113829,0.00097382,0.00158262,0.00106253,0.001
 39945,0.00876231,0.00345838,0.00755058,-0.04821879,-0.07498032,-0.0535
 2578,0.00001767,0.00005311,-0.00002406,-0.00010349,-0.00014982,0.00004
 321,0.00006959,0.00000470,-0.00002723,-0.00000485,-0.00000933,-0.00000
 782,0.00000234,-0.00000353,0.00000310,0.00004863,0.00000278,-0.0000117
 0,0.00002016,-0.00002924,-0.00000243,-0.00009293,-0.00001848,-0.000139
 01,0.00001950,0.00002131,0.00000259,0.00001620,-0.00002794,-0.00002698
 ,-0.00007693,0.00001627,-0.00004593,-0.00029563,0.00018050,-0.00032851
 ,-0.00018708,0.00004308,-0.00013141,-0.00015343,-0.00010103,-0.0002090
 7,-0.00063525,0.00037342,-0.00009998,0.00241292,0.00010428,-0.00014206
 ,-0.02132276,-0.00705847,-0.02131419,0.05175975,0.07295255,0.00011194,
 0.00000416,0.00006285,0.00001326,-0.00001456,0.00004502,-0.01207857,0.
 00362262,-0.04074524,-0.00002508,0.00004692,-0.00031006,0.00010449,0.0
 0003060,-0.00009945,0.00131925,0.00018692,0.00295810,0.00030717,0.0006
 4037,0.00003066,0.00010223,0.00057164,0.00011406,-0.00250065,-0.006830
 80,-0.00181428,0.00540375,0.00119042,0.00739016,-0.11661485,-0.0476255
 7,-0.16295583,0.00002098,-0.00001029,0.00000960,-0.00060092,0.00011104
 ,0.00040160,-0.00008130,-0.00001279,0.00001608,-0.00001549,0.00000298,
 -0.00000447,0.00001106,0.00000207,-0.00000316,-0.00012578,0.00003387,0
 .00009100,0.00004986,0.00001819,0.00005215,0.00008036,-0.00002950,0.00
 002144,-0.00002151,-0.00002281,0.00003057,-0.00019915,0.00016548,0.000
 12576,0.00005270,-0.00005108,-0.00001040,-0.00026269,0.00023388,-0.000
 21811,-0.00003181,0.00010938,0.00001570,0.00022646,0.00046471,0.000082
 64,-0.00099728,0.00028832,0.00045824,0.00214301,-0.00120552,0.00073126
 ,-0.00267711,-0.00219069,-0.00063248,0.12630024,0.05027017,0.19414332,
 0.00057415,-0.00083862,0.00115634,-0.00125846,0.00218009,0.00020054,0.
 00002316,-0.00000835,-0.00001336,-0.00031882,-0.00050327,0.00063429,-0
 .01656817,-0.01737915,0.02325678,0.00021332,0.00019995,-0.00035721,0.0
 0001171,0.00000265,0.00001164,-0.00000040,0.00000210,0.00000390,0.0001
 0792,0.00009837,-0.00015115,-0.00000121,-0.00000247,-0.00001348,0.0000
 3100,-0.00000623,0.00003986,-0.10221360,-0.06605110,0.08237295,0.00008
 919,-0.00040001,-0.00058336,-0.00024103,0.00024267,-0.00041195,0.00075
 583,0.00028940,-0.00062829,0.00087717,0.00077583,0.00008827,0.00013911
 ,0.00015115,-0.00015112,0.00008485,-0.00034129,-0.00071146,-0.00534949
 ,0.00279934,0.00053030,0.00113563,0.00025276,-0.00024375,-0.00000163,-
 0.00000007,-0.00000019,-0.00000074,-0.00000318,0.00000059,0.00000253,-
 0.00000210,-0.00000104,-0.00000288,0.00000040,-0.00000040,-0.00004790,
 -0.00002038,-0.00003582,0.00000105,-0.00000017,0.00000056,-0.00000566,
 0.00000145,0.00000057,-0.00001049,-0.00000492,-0.00000676,0.00000271,0
 .00002353,-0.00001336,0.11315134,-0.00034239,0.00096810,-0.00009038,-0
 .01151122,-0.01870294,0.02443798,0.00001321,0.00001293,-0.00001195,-0.
 00017115,-0.00068535,0.00120774,0.00564744,0.00786594,-0.01024457,-0.0
 0006798,-0.00010295,0.00008098,-0.00001011,-0.00000355,-0.00000941,0.0
 0000003,-0.00000017,-0.00000111,-0.00006927,-0.00000627,0.00003918,0.0
 0000009,0.00000136,-0.00000102,-0.00000574,-0.00000440,-0.00000243,-0.
 06432531,-0.12455306,0.09912080,-0.00077281,-0.00048417,-0.00159533,-0
 .00033432,-0.00015058,-0.00006560,-0.00002563,0.00182100,-0.00006270,-
 0.00069406,-0.00514010,-0.00224018,0.00009500,0.00012541,-0.00019295,0
 .00010584,0.00026771,-0.00052745,0.00283972,-0.00024377,-0.00011214,-0
 .00091039,0.00035744,-0.00007428,0.00000180,0.00000020,0.00000076,-0.0
 0000256,0.00000116,0.00000078,-0.00000153,0.00000043,0.00000031,0.0000
 0088,0.00000010,0.00000043,0.00001816,0.00000960,0.00001339,0.00000058
 ,-0.00000046,-0.00000046,0.00000022,0.00000029,-0.00000003,0.00000411,
 0.00000360,0.00000181,-0.00000810,-0.00001146,0.00000048,0.06864789,0.
 13758525,-0.00072177,-0.00081022,0.00037828,-0.00524531,-0.00651362,0.
 00706030,0.00004764,0.00008893,0.00000330,-0.00019661,-0.00004043,-0.0
 0129212,0.00262286,0.00199933,-0.00331714,0.00039174,0.00011831,0.0001
 0475,0.00001921,0.00002740,0.00002677,0.00000290,-0.00000694,0.0000043
 1,-0.00015884,-0.00017680,-0.00016748,-0.00000134,0.00000243,0.0000026
 9,-0.00002210,-0.00001232,0.00000414,0.08348095,0.10169791,-0.18172725
 ,0.00028539,-0.00021225,0.00052280,0.00054436,0.00019628,0.00023005,-0
 .00029459,0.00050978,0.00115532,-0.00024333,-0.00168477,0.00072495,-0.
 00006674,-0.00001259,0.00025115,-0.00117497,-0.00050758,-0.00053757,0.
 00057522,-0.00090591,0.00102367,0.00010743,-0.00018014,-0.00002716,-0.
 00000003,-0.00000049,-0.00000065,0.00002370,-0.00000315,-0.00000192,-0
 .00000138,0.00000320,0.00000524,0.00000745,0.00000105,-0.00000367,-0.0
 0000287,0.00000817,0.00002959,0.00000318,0.00000147,-0.00000325,0.0000
 0539,-0.00000055,0.00000159,0.00000674,0.00000824,0.00000019,0.0000155
 9,-0.00000423,0.00001421,-0.09286009,-0.10807729,0.19501640,-0.0027621
 4,0.00186185,0.00394492,-0.00154937,-0.00012725,-0.00067817,-0.0001479
 1,-0.00035941,0.00001075,-0.00018826,0.00028816,0.00119611,-0.01623221
 ,-0.00195871,-0.02735155,-0.00251646,-0.00060628,-0.00193980,-0.000110
 31,-0.00016001,-0.00017533,-0.00001038,0.00002406,-0.00002970,0.000193
 07,0.00082745,0.00070853,0.00000798,0.00000629,0.00001544,0.00007495,0
 .00006624,-0.00010669,-0.12347835,-0.01161633,-0.12110822,0.00025660,-
 0.00115998,-0.00066823,-0.00007041,0.00018080,-0.00041530,-0.00067465,
 -0.00030270,-0.00027399,0.00073907,-0.00003159,0.00016453,0.00004257,-
 0.00006384,-0.00008806,0.00025840,0.00003107,-0.00010500,0.00112203,-0
 .00070889,0.00015594,0.00153561,0.00002452,0.00015941,0.00000679,0.000
 00205,0.00000258,-0.00011120,0.00002117,0.00001718,0.00000578,-0.00000
 906,-0.00000809,-0.00002297,-0.00000496,0.00002081,-0.00000655,-0.0000
 2257,-0.00007864,-0.00001215,-0.00000734,0.00001181,-0.00000825,0.0000
 0013,-0.00000620,-0.00001445,-0.00002405,0.00000805,-0.00002303,0.0000
 1413,-0.00000122,0.00881979,0.00187762,0.01285023,0.13487639,0.0020727
 0,-0.00022724,-0.00183552,-0.01768928,-0.00063905,-0.02442720,-0.00001
 152,0.00016034,0.00000541,0.00093892,-0.00153343,0.00133339,0.00655510
 ,-0.00017558,0.01225147,0.00115337,0.00037141,0.00100482,0.00005939,0.
 00007627,0.00009549,-0.00000088,-0.00000977,0.00001118,0.00003953,-0.0
 0038674,-0.00034933,-0.00000462,-0.00000518,-0.00000488,-0.00002021,-0
 .00000263,0.00002005,-0.01118312,-0.04816290,-0.01697686,-0.00310019,-
 0.00622611,-0.00418207,-0.00025257,-0.00005705,0.00006941,0.00130827,-
 0.00073249,-0.00015500,-0.00083961,0.00154453,0.00021565,-0.00000111,0
 .00024141,-0.00016228,0.00012654,0.00018555,-0.00021374,-0.00039163,0.
 00032548,-0.00040879,-0.00064814,0.00027932,0.00034644,-0.00000578,0.0
 0000137,-0.00000019,0.00005069,-0.00001177,-0.00000749,-0.00000194,0.0
 0000311,0.00000314,0.00000719,0.00000290,-0.00000742,0.00000184,0.0000
 0445,0.00003781,0.00000228,0.00000378,-0.00000245,0.00000091,0.0000007
 7,0.00000232,0.00000620,0.00000726,-0.00000262,-0.00000347,-0.00000814
 ,-0.00000062,0.00989371,0.00106873,0.01448679,0.01193742,0.05390140,0.
 00157248,-0.00075441,0.00041433,-0.00312611,0.00174120,-0.00626228,-0.
 00009486,-0.00001660,0.00001502,0.00054190,-0.00012884,-0.00011651,0.0
 0461479,0.00059643,0.00709003,0.00018384,0.00003617,0.00011081,0.00001
 428,-0.00000774,0.00001097,-0.00000655,0.00000278,-0.00000396,0.000175
 08,-0.00001052,0.00007845,0.00000036,-0.00000256,0.00000649,0.00001376
 ,0.00002932,-0.00003400,-0.12428273,-0.01790090,-0.24174901,0.00004638
 ,-0.00075277,-0.00004830,0.00009166,0.00001725,0.00019652,0.00012804,-
 0.00072175,0.00008835,0.00015561,0.00019655,0.00146145,-0.00011367,-0.
 00006268,0.00010398,-0.00036374,-0.00007091,0.00023248,-0.00060911,0.0
 0020488,0.00032306,-0.00057097,0.00035787,0.00035548,-0.00000212,0.000
 00203,0.00000120,-0.00000160,0.00000021,0.00000141,0.00000107,-0.00000
 077,-0.00000213,-0.00000433,-0.00000022,0.00000261,-0.00000117,-0.0000
 0969,0.00000152,-0.00000440,0.00000012,0.00000320,-0.00000265,0.000000
 37,-0.00000062,-0.00000266,-0.00000545,0.00000081,-0.00000669,0.000002
 89,-0.00000097,-0.01211378,-0.00159535,-0.01948149,0.13376789,0.018853
 09,0.25720108\\0.00014521,0.00200959,0.00051281,0.00001840,0.00000080,
 0.00001523,-0.00000071,0.00001001,-0.00002245,-0.00000258,-0.00000022,
 0.00000647,0.00000858,-0.00253343,0.00003802,-0.00044904,0.00329168,-0
 .00175997,0.00001154,0.00000443,-0.00000799,-0.00000795,0.00000618,-0.
 00000197,0.00030364,-0.00275131,0.00120673,0.00000167,-0.00000662,0.00
 000641,-0.00000511,-0.00001800,0.00003318,-0.00000421,0.00000027,0.000
 00225,0.00000111,-0.00000157,-0.00001395,0.00000023,-0.00000276,0.0000
 0059,-0.00000558,-0.00000152,0.00000446,-0.00000624,0.00000368,0.00000
 492,0.00000135,-0.00000837,0.00000236,-0.00000052,-0.00000418,0.000000
 59,0.00000058,0.00000038,0.00000070,-0.00000643,0.00000145,-0.00000390
 ,-0.00000728,-0.00000477,-0.00000292,-0.00000399,-0.00000696,-0.000006
 00,0.00000209,0.00000118,0.00000050,0.00000315,0.00000214,-0.00000267,
 -0.00000291,-0.00000651,0.00000596,-0.00000493,0.00000381,-0.00000395,
 0.00000077,-0.00000123,-0.00000320,0.00000434,0.00000544,-0.00000128,-
 0.00000038,0.00000501,-0.00000374,0.00000213,0.00000103,-0.00000316,0.
 00000308,0.00000037,-0.00000404\\\@


 ... SUBJECTS WHICH DISCLOSE THEIR FULL POWER, MEANING AND BEAUTY AS SOON
 AS THEY ARE PRESENTED TO THE MIND HAVE VERY LITTLE OF THOSE QUALITIES
 TO DISCLOSE.
                           -- CHARLES DUTTON (1882)
 Job cpu time:       0 days 15 hours  7 minutes 17.9 seconds.
 Elapsed time:       0 days  0 hours 56 minutes 43.7 seconds.
 File lengths (MBytes):  RWF=    686 Int=      0 D2E=      0 Chk=     33 Scr=      1
 Normal termination of Gaussian 16 at Sun Nov  4 22:57:52 2018.
