 Entering Gaussian System, Link 0=g16
 Initial command:
 /apps/gaussian/g16a03/g16/l1.exe "/jobfs/local/2012016.r-man2/Gau-31125.inp" -scrdir="/jobfs/local/2012016.r-man2/"
 Entering Link 1 = /apps/gaussian/g16a03/g16/l1.exe PID=     31126.
  
 Copyright (c) 1988,1990,1992,1993,1995,1998,2003,2009,2016,
            Gaussian, Inc.  All Rights Reserved.
  
 This is part of the Gaussian(R) 16 program.  It is based on
 the Gaussian(R) 09 system (copyright 2009, Gaussian, Inc.),
 the Gaussian(R) 03 system (copyright 2003, Gaussian, Inc.),
 the Gaussian(R) 98 system (copyright 1998, Gaussian, Inc.),
 the Gaussian(R) 94 system (copyright 1995, Gaussian, Inc.),
 the Gaussian 92(TM) system (copyright 1992, Gaussian, Inc.),
 the Gaussian 90(TM) system (copyright 1990, Gaussian, Inc.),
 the Gaussian 88(TM) system (copyright 1988, Gaussian, Inc.),
 the Gaussian 86(TM) system (copyright 1986, Carnegie Mellon
 University), and the Gaussian 82(TM) system (copyright 1983,
 Carnegie Mellon University). Gaussian is a federally registered
 trademark of Gaussian, Inc.
  
 This software contains proprietary and confidential information,
 including trade secrets, belonging to Gaussian, Inc.
  
 This software is provided under written license and may be
 used, copied, transmitted, or stored only in accord with that
 written license.
  
 The following legend is applicable only to US Government
 contracts under FAR:
  
                    RESTRICTED RIGHTS LEGEND
  
 Use, reproduction and disclosure by the US Government is
 subject to restrictions as set forth in subparagraphs (a)
 and (c) of the Commercial Computer Software - Restricted
 Rights clause in FAR 52.227-19.
  
 Gaussian, Inc.
 340 Quinnipiac St., Bldg. 40, Wallingford CT 06492
  
  
 ---------------------------------------------------------------
 Warning -- This program may not be used in any manner that
 competes with the business of Gaussian, Inc. or will provide
 assistance to any competitor of Gaussian, Inc.  The licensee
 of this program is prohibited from giving any competitor of
 Gaussian, Inc. access to this program.  By using this program,
 the user acknowledges that Gaussian, Inc. is engaged in the
 business of creating and licensing software in the field of
 computational chemistry and represents and warrants to the
 licensee that it is not a competitor of Gaussian, Inc. and that
 it will not use this program in any manner prohibited above.
 ---------------------------------------------------------------
  

 Cite this work as:
 Gaussian 16, Revision A.03,
 M. J. Frisch, G. W. Trucks, H. B. Schlegel, G. E. Scuseria, 
 M. A. Robb, J. R. Cheeseman, G. Scalmani, V. Barone, 
 G. A. Petersson, H. Nakatsuji, X. Li, M. Caricato, A. V. Marenich, 
 J. Bloino, B. G. Janesko, R. Gomperts, B. Mennucci, H. P. Hratchian, 
 J. V. Ortiz, A. F. Izmaylov, J. L. Sonnenberg, D. Williams-Young, 
 F. Ding, F. Lipparini, F. Egidi, J. Goings, B. Peng, A. Petrone, 
 T. Henderson, D. Ranasinghe, V. G. Zakrzewski, J. Gao, N. Rega, 
 G. Zheng, W. Liang, M. Hada, M. Ehara, K. Toyota, R. Fukuda, 
 J. Hasegawa, M. Ishida, T. Nakajima, Y. Honda, O. Kitao, H. Nakai, 
 T. Vreven, K. Throssell, J. A. Montgomery, Jr., J. E. Peralta, 
 F. Ogliaro, M. J. Bearpark, J. J. Heyd, E. N. Brothers, K. N. Kudin, 
 V. N. Staroverov, T. A. Keith, R. Kobayashi, J. Normand, 
 K. Raghavachari, A. P. Rendell, J. C. Burant, S. S. Iyengar, 
 J. Tomasi, M. Cossi, J. M. Millam, M. Klene, C. Adamo, R. Cammi, 
 J. W. Ochterski, R. L. Martin, K. Morokuma, O. Farkas, 
 J. B. Foresman, and D. J. Fox, Gaussian, Inc., Wallingford CT, 2016.
 
 ******************************************
 Gaussian 16:  ES64L-G16RevA.03 25-Dec-2016
                 4-Nov-2018 
 ******************************************
 %mem=6000mb
 %nproc=24
 Will use up to   24 processors via shared memory.
 %chk=D_a1-4_2SO_PSI.inp_extract_15.chk
 ----------------------------------------------------------------------
 #M062X/6-311++G(2d,2p) opt=ModRedundant freq=noraman SCRF=(Solvent=Wat
 er)
 ----------------------------------------------------------------------
 1/18=120,19=15,26=3,38=1/1,3;
 2/9=110,12=2,17=6,18=5,40=1/2;
 3/5=4,6=6,7=1212,11=2,25=1,30=1,70=2201,71=1,72=1,74=-55/1,2,3;
 4//1;
 5/5=2,38=5,53=1/2;
 6/7=2,8=2,9=2,10=2,28=1/1;
 7//1,2,3,16;
 1/18=20,19=15,26=3/3(2);
 2/9=110/2;
 99//99;
 2/9=110/2;
 3/5=4,6=6,7=1212,11=2,25=1,30=1,70=2205,71=1,72=1,74=-55/1,2,3;
 4/5=5,16=3,69=1/1;
 5/5=2,38=5,53=1/2;
 7//1,2,3,16;
 1/18=20,19=15,26=3/3(-5);
 2/9=110/2;
 6/7=2,8=2,9=2,10=2,19=2,28=1/1;
 99/9=1/99;
 -----------------------------
 D_a1-4_2SO_PSI.inp_extract_15
 -----------------------------
 Symbolic Z-matrix:
 Charge =  0 Multiplicity = 1
 C                     1.08807   0.05165   0.94551 
 C                     3.57832   0.01502  -0.65117 
 O                    -1.39283  -0.94785  -0.79693 
 C                     1.94064   1.26008   0.51668 
 C                     1.58366  -1.20842   0.23375 
 O                    -0.30556   0.30743   0.81048 
 C                    -2.01113   1.36121  -0.47291 
 C                    -3.20838   0.93071   0.37558 
 C                    -0.89802   0.32247  -0.45677 
 C                    -3.65413  -0.47055  -0.04159 
 C                    -2.47346  -1.42651  -0.00742 
 C                     3.11157  -1.16836   0.20618 
 O                     2.59565   1.03615  -0.71239 
 H                     1.21026  -0.07941   2.01211 
 H                     4.50478   0.43384  -0.26925 
 H                     3.74039  -0.29232  -1.67545 
 H                     1.32013   2.13527   0.3884 
 H                     2.68081   1.47918   1.28084 
 H                     1.21165  -1.24931  -0.78217 
 H                     1.22215  -2.09169   0.7491 
 H                    -1.60848   2.31191  -0.14056 
 H                    -2.32658   1.48283  -1.50572 
 H                    -2.9403    0.93112   1.42884 
 H                    -4.01967   1.64207   0.25501 
 H                    -0.16122   0.54995  -1.21122 
 H                    -4.43336  -0.84588   0.61576 
 H                    -4.06241  -0.44206  -1.04926 
 H                    -2.732    -2.39019  -0.42415 
 H                    -2.13469  -1.57989   1.01168 
 H                     3.4918   -1.07621   1.21979 
 H                     3.51591  -2.08896  -0.19999 
 
 The following ModRedundant input section has been read:
 D       5       1       6       9 F                                           
 

 GradGradGradGradGradGradGradGradGradGradGradGradGradGradGradGradGradGrad
 Berny optimization.
 Initialization pass.
                           ----------------------------
                           !    Initial Parameters    !
                           ! (Angstroms and Degrees)  !
 --------------------------                            --------------------------
 ! Name  Definition              Value          Derivative Info.                !
 --------------------------------------------------------------------------------
 ! R1    R(1,4)                  1.5398         estimate D2E/DX2                !
 ! R2    R(1,5)                  1.5297         estimate D2E/DX2                !
 ! R3    R(1,6)                  1.4233         estimate D2E/DX2                !
 ! R4    R(1,14)                 1.0815         estimate D2E/DX2                !
 ! R5    R(2,12)                 1.534          estimate D2E/DX2                !
 ! R6    R(2,13)                 1.4185         estimate D2E/DX2                !
 ! R7    R(2,15)                 1.0861         estimate D2E/DX2                !
 ! R8    R(2,16)                 1.0816         estimate D2E/DX2                !
 ! R9    R(3,9)                  1.4051         estimate D2E/DX2                !
 ! R10   R(3,11)                 1.4213         estimate D2E/DX2                !
 ! R11   R(4,13)                 1.4106         estimate D2E/DX2                !
 ! R12   R(4,17)                 1.0805         estimate D2E/DX2                !
 ! R13   R(4,18)                 1.0862         estimate D2E/DX2                !
 ! R14   R(5,12)                 1.5287         estimate D2E/DX2                !
 ! R15   R(5,19)                 1.0827         estimate D2E/DX2                !
 ! R16   R(5,20)                 1.0846         estimate D2E/DX2                !
 ! R17   R(6,9)                  1.399          estimate D2E/DX2                !
 ! R18   R(7,8)                  1.5293         estimate D2E/DX2                !
 ! R19   R(7,9)                  1.5226         estimate D2E/DX2                !
 ! R20   R(7,21)                 1.0846         estimate D2E/DX2                !
 ! R21   R(7,22)                 1.0867         estimate D2E/DX2                !
 ! R22   R(8,10)                 1.5285         estimate D2E/DX2                !
 ! R23   R(8,23)                 1.0868         estimate D2E/DX2                !
 ! R24   R(8,24)                 1.0857         estimate D2E/DX2                !
 ! R25   R(9,25)                 1.0788         estimate D2E/DX2                !
 ! R26   R(10,11)                1.5195         estimate D2E/DX2                !
 ! R27   R(10,26)                1.0864         estimate D2E/DX2                !
 ! R28   R(10,27)                1.0876         estimate D2E/DX2                !
 ! R29   R(11,28)                1.0813         estimate D2E/DX2                !
 ! R30   R(11,29)                1.0848         estimate D2E/DX2                !
 ! R31   R(12,30)                1.0865         estimate D2E/DX2                !
 ! R32   R(12,31)                1.0844         estimate D2E/DX2                !
 ! A1    A(4,1,5)              109.7246         estimate D2E/DX2                !
 ! A2    A(4,1,6)              112.0044         estimate D2E/DX2                !
 ! A3    A(4,1,14)             107.8906         estimate D2E/DX2                !
 ! A4    A(5,1,6)              114.9041         estimate D2E/DX2                !
 ! A5    A(5,1,14)             108.8105         estimate D2E/DX2                !
 ! A6    A(6,1,14)             103.0585         estimate D2E/DX2                !
 ! A7    A(12,2,13)            111.6334         estimate D2E/DX2                !
 ! A8    A(12,2,15)            111.1295         estimate D2E/DX2                !
 ! A9    A(12,2,16)            110.8334         estimate D2E/DX2                !
 ! A10   A(13,2,15)            109.1791         estimate D2E/DX2                !
 ! A11   A(13,2,16)            105.515          estimate D2E/DX2                !
 ! A12   A(15,2,16)            108.3463         estimate D2E/DX2                !
 ! A13   A(9,3,11)             115.9592         estimate D2E/DX2                !
 ! A14   A(1,4,13)             112.0349         estimate D2E/DX2                !
 ! A15   A(1,4,17)             110.5342         estimate D2E/DX2                !
 ! A16   A(1,4,18)             109.857          estimate D2E/DX2                !
 ! A17   A(13,4,17)            106.9666         estimate D2E/DX2                !
 ! A18   A(13,4,18)            109.1826         estimate D2E/DX2                !
 ! A19   A(17,4,18)            108.1482         estimate D2E/DX2                !
 ! A20   A(1,5,12)             108.0962         estimate D2E/DX2                !
 ! A21   A(1,5,19)             110.8795         estimate D2E/DX2                !
 ! A22   A(1,5,20)             109.9833         estimate D2E/DX2                !
 ! A23   A(12,5,19)            109.1172         estimate D2E/DX2                !
 ! A24   A(12,5,20)            111.2868         estimate D2E/DX2                !
 ! A25   A(19,5,20)            107.4917         estimate D2E/DX2                !
 ! A26   A(1,6,9)              120.167          estimate D2E/DX2                !
 ! A27   A(8,7,9)              111.9883         estimate D2E/DX2                !
 ! A28   A(8,7,21)             111.5533         estimate D2E/DX2                !
 ! A29   A(8,7,22)             109.3627         estimate D2E/DX2                !
 ! A30   A(9,7,21)             108.8653         estimate D2E/DX2                !
 ! A31   A(9,7,22)             107.3756         estimate D2E/DX2                !
 ! A32   A(21,7,22)            107.5103         estimate D2E/DX2                !
 ! A33   A(7,8,10)             109.5697         estimate D2E/DX2                !
 ! A34   A(7,8,23)             110.1496         estimate D2E/DX2                !
 ! A35   A(7,8,24)             109.8133         estimate D2E/DX2                !
 ! A36   A(10,8,23)            109.6804         estimate D2E/DX2                !
 ! A37   A(10,8,24)            110.6369         estimate D2E/DX2                !
 ! A38   A(23,8,24)            106.9593         estimate D2E/DX2                !
 ! A39   A(3,9,6)              111.0212         estimate D2E/DX2                !
 ! A40   A(3,9,7)              110.9025         estimate D2E/DX2                !
 ! A41   A(3,9,25)             105.18           estimate D2E/DX2                !
 ! A42   A(6,9,7)              109.0587         estimate D2E/DX2                !
 ! A43   A(6,9,25)             110.2739         estimate D2E/DX2                !
 ! A44   A(7,9,25)             110.3674         estimate D2E/DX2                !
 ! A45   A(8,10,11)            110.1222         estimate D2E/DX2                !
 ! A46   A(8,10,26)            111.1473         estimate D2E/DX2                !
 ! A47   A(8,10,27)            109.7753         estimate D2E/DX2                !
 ! A48   A(11,10,26)           109.048          estimate D2E/DX2                !
 ! A49   A(11,10,27)           109.2077         estimate D2E/DX2                !
 ! A50   A(26,10,27)           107.4813         estimate D2E/DX2                !
 ! A51   A(3,11,10)            111.4923         estimate D2E/DX2                !
 ! A52   A(3,11,28)            105.5359         estimate D2E/DX2                !
 ! A53   A(3,11,29)            109.3904         estimate D2E/DX2                !
 ! A54   A(10,11,28)           111.484          estimate D2E/DX2                !
 ! A55   A(10,11,29)           110.6533         estimate D2E/DX2                !
 ! A56   A(28,11,29)           108.1022         estimate D2E/DX2                !
 ! A57   A(2,12,5)             109.5356         estimate D2E/DX2                !
 ! A58   A(2,12,30)            110.4561         estimate D2E/DX2                !
 ! A59   A(2,12,31)            109.3966         estimate D2E/DX2                !
 ! A60   A(5,12,30)            109.5834         estimate D2E/DX2                !
 ! A61   A(5,12,31)            110.9269         estimate D2E/DX2                !
 ! A62   A(30,12,31)           106.9144         estimate D2E/DX2                !
 ! A63   A(2,13,4)             113.4755         estimate D2E/DX2                !
 ! D1    D(5,1,4,13)            21.2506         estimate D2E/DX2                !
 ! D2    D(5,1,4,17)           140.4447         estimate D2E/DX2                !
 ! D3    D(5,1,4,18)          -100.2864         estimate D2E/DX2                !
 ! D4    D(6,1,4,13)          -107.6068         estimate D2E/DX2                !
 ! D5    D(6,1,4,17)            11.5873         estimate D2E/DX2                !
 ! D6    D(6,1,4,18)           130.8562         estimate D2E/DX2                !
 ! D7    D(14,1,4,13)          139.6543         estimate D2E/DX2                !
 ! D8    D(14,1,4,17)         -101.1516         estimate D2E/DX2                !
 ! D9    D(14,1,4,18)           18.1173         estimate D2E/DX2                !
 ! D10   D(4,1,5,12)            40.1608         estimate D2E/DX2                !
 ! D11   D(4,1,5,19)           -79.4042         estimate D2E/DX2                !
 ! D12   D(4,1,5,20)           161.8442         estimate D2E/DX2                !
 ! D13   D(6,1,5,12)           167.4108         estimate D2E/DX2                !
 ! D14   D(6,1,5,19)            47.8458         estimate D2E/DX2                !
 ! D15   D(6,1,5,20)           -70.9057         estimate D2E/DX2                !
 ! D16   D(14,1,5,12)          -77.6719         estimate D2E/DX2                !
 ! D17   D(14,1,5,19)          162.7631         estimate D2E/DX2                !
 ! D18   D(14,1,5,20)           44.0116         estimate D2E/DX2                !
 ! D19   D(4,1,6,9)             74.478          estimate D2E/DX2                !
 ! D20   D(5,1,6,9)            -51.6047         Frozen                          !
 ! D21   D(14,1,6,9)          -169.809          estimate D2E/DX2                !
 ! D22   D(13,2,12,5)           24.6768         estimate D2E/DX2                !
 ! D23   D(13,2,12,30)         -96.1164         estimate D2E/DX2                !
 ! D24   D(13,2,12,31)         146.4614         estimate D2E/DX2                !
 ! D25   D(15,2,12,5)          146.8283         estimate D2E/DX2                !
 ! D26   D(15,2,12,30)          26.0351         estimate D2E/DX2                !
 ! D27   D(15,2,12,31)         -91.3871         estimate D2E/DX2                !
 ! D28   D(16,2,12,5)          -92.6335         estimate D2E/DX2                !
 ! D29   D(16,2,12,30)         146.5733         estimate D2E/DX2                !
 ! D30   D(16,2,12,31)          29.1511         estimate D2E/DX2                !
 ! D31   D(12,2,13,4)           40.0528         estimate D2E/DX2                !
 ! D32   D(15,2,13,4)          -83.2134         estimate D2E/DX2                !
 ! D33   D(16,2,13,4)          160.5283         estimate D2E/DX2                !
 ! D34   D(11,3,9,6)            65.9652         estimate D2E/DX2                !
 ! D35   D(11,3,9,7)           -55.4493         estimate D2E/DX2                !
 ! D36   D(11,3,9,25)         -174.7667         estimate D2E/DX2                !
 ! D37   D(9,3,11,10)           57.4522         estimate D2E/DX2                !
 ! D38   D(9,3,11,28)          178.6505         estimate D2E/DX2                !
 ! D39   D(9,3,11,29)          -65.2624         estimate D2E/DX2                !
 ! D40   D(1,4,13,2)           -66.2187         estimate D2E/DX2                !
 ! D41   D(17,4,13,2)          172.5088         estimate D2E/DX2                !
 ! D42   D(18,4,13,2)           55.705          estimate D2E/DX2                !
 ! D43   D(1,5,12,2)           -64.8513         estimate D2E/DX2                !
 ! D44   D(1,5,12,30)           56.4699         estimate D2E/DX2                !
 ! D45   D(1,5,12,31)          174.2875         estimate D2E/DX2                !
 ! D46   D(19,5,12,2)           55.8194         estimate D2E/DX2                !
 ! D47   D(19,5,12,30)         177.1406         estimate D2E/DX2                !
 ! D48   D(19,5,12,31)         -65.0419         estimate D2E/DX2                !
 ! D49   D(20,5,12,2)          174.2733         estimate D2E/DX2                !
 ! D50   D(20,5,12,30)         -64.4055         estimate D2E/DX2                !
 ! D51   D(20,5,12,31)          53.412          estimate D2E/DX2                !
 ! D52   D(1,6,9,3)             91.7784         estimate D2E/DX2                !
 ! D53   D(1,6,9,7)           -145.7321         estimate D2E/DX2                !
 ! D54   D(1,6,9,25)           -24.3894         estimate D2E/DX2                !
 ! D55   D(9,7,8,10)           -52.2607         estimate D2E/DX2                !
 ! D56   D(9,7,8,23)            68.4806         estimate D2E/DX2                !
 ! D57   D(9,7,8,24)          -173.9736         estimate D2E/DX2                !
 ! D58   D(21,7,8,10)         -174.565          estimate D2E/DX2                !
 ! D59   D(21,7,8,23)          -53.8237         estimate D2E/DX2                !
 ! D60   D(21,7,8,24)           63.7221         estimate D2E/DX2                !
 ! D61   D(22,7,8,10)           66.6385         estimate D2E/DX2                !
 ! D62   D(22,7,8,23)         -172.6203         estimate D2E/DX2                !
 ! D63   D(22,7,8,24)          -55.0744         estimate D2E/DX2                !
 ! D64   D(8,7,9,3)             52.3219         estimate D2E/DX2                !
 ! D65   D(8,7,9,6)            -70.2389         estimate D2E/DX2                !
 ! D66   D(8,7,9,25)           168.4753         estimate D2E/DX2                !
 ! D67   D(21,7,9,3)           176.1463         estimate D2E/DX2                !
 ! D68   D(21,7,9,6)            53.5856         estimate D2E/DX2                !
 ! D69   D(21,7,9,25)          -67.7003         estimate D2E/DX2                !
 ! D70   D(22,7,9,3)           -67.7445         estimate D2E/DX2                !
 ! D71   D(22,7,9,6)           169.6948         estimate D2E/DX2                !
 ! D72   D(22,7,9,25)           48.4089         estimate D2E/DX2                !
 ! D73   D(7,8,10,11)           52.8771         estimate D2E/DX2                !
 ! D74   D(7,8,10,26)          173.8343         estimate D2E/DX2                !
 ! D75   D(7,8,10,27)          -67.3924         estimate D2E/DX2                !
 ! D76   D(23,8,10,11)         -68.1484         estimate D2E/DX2                !
 ! D77   D(23,8,10,26)          52.8089         estimate D2E/DX2                !
 ! D78   D(23,8,10,27)         171.5821         estimate D2E/DX2                !
 ! D79   D(24,8,10,11)         174.0942         estimate D2E/DX2                !
 ! D80   D(24,8,10,26)         -64.9486         estimate D2E/DX2                !
 ! D81   D(24,8,10,27)          53.8247         estimate D2E/DX2                !
 ! D82   D(8,10,11,3)          -54.697          estimate D2E/DX2                !
 ! D83   D(8,10,11,28)        -172.3639         estimate D2E/DX2                !
 ! D84   D(8,10,11,29)          67.291          estimate D2E/DX2                !
 ! D85   D(26,10,11,3)        -176.9038         estimate D2E/DX2                !
 ! D86   D(26,10,11,28)         65.4293         estimate D2E/DX2                !
 ! D87   D(26,10,11,29)        -54.9158         estimate D2E/DX2                !
 ! D88   D(27,10,11,3)          65.9144         estimate D2E/DX2                !
 ! D89   D(27,10,11,28)        -51.7525         estimate D2E/DX2                !
 ! D90   D(27,10,11,29)       -172.0976         estimate D2E/DX2                !
 --------------------------------------------------------------------------------
 Trust Radius=3.00D-01 FncErr=1.00D-07 GrdErr=1.00D-06 EigMax=2.50D+02 EigMin=1.00D-04
 Number of steps in this run=    186 maximum allowed number of steps=    186.
 GradGradGradGradGradGradGradGradGradGradGradGradGradGradGradGradGradGrad

                          Input orientation:                          
 ---------------------------------------------------------------------
 Center     Atomic      Atomic             Coordinates (Angstroms)
 Number     Number       Type             X           Y           Z
 ---------------------------------------------------------------------
      1          6           0        1.088074    0.051654    0.945505
      2          6           0        3.578315    0.015023   -0.651167
      3          8           0       -1.392827   -0.947849   -0.796932
      4          6           0        1.940636    1.260081    0.516676
      5          6           0        1.583656   -1.208418    0.233745
      6          8           0       -0.305564    0.307429    0.810479
      7          6           0       -2.011127    1.361207   -0.472909
      8          6           0       -3.208383    0.930713    0.375576
      9          6           0       -0.898024    0.322468   -0.456771
     10          6           0       -3.654126   -0.470545   -0.041593
     11          6           0       -2.473461   -1.426512   -0.007417
     12          6           0        3.111573   -1.168360    0.206182
     13          8           0        2.595646    1.036155   -0.712386
     14          1           0        1.210256   -0.079414    2.012105
     15          1           0        4.504778    0.433836   -0.269246
     16          1           0        3.740389   -0.292319   -1.675448
     17          1           0        1.320128    2.135271    0.388403
     18          1           0        2.680812    1.479182    1.280838
     19          1           0        1.211648   -1.249310   -0.782174
     20          1           0        1.222147   -2.091686    0.749098
     21          1           0       -1.608480    2.311908   -0.140557
     22          1           0       -2.326579    1.482829   -1.505720
     23          1           0       -2.940303    0.931120    1.428836
     24          1           0       -4.019670    1.642070    0.255005
     25          1           0       -0.161215    0.549950   -1.211215
     26          1           0       -4.433363   -0.845875    0.615756
     27          1           0       -4.062412   -0.442058   -1.049262
     28          1           0       -2.731995   -2.390185   -0.424147
     29          1           0       -2.134690   -1.579888    1.011680
     30          1           0        3.491795   -1.076212    1.219788
     31          1           0        3.515908   -2.088962   -0.199990
 ---------------------------------------------------------------------
                    Distance matrix (angstroms):
                    1          2          3          4          5
     1  C    0.000000
     2  C    2.958379   0.000000
     3  O    3.192172   5.065632   0.000000
     4  C    1.539822   2.365591   4.208622   0.000000
     5  C    1.529701   2.501708   3.160640   2.510174   0.000000
     6  O    1.423334   4.160099   2.311197   2.457495   2.489893
     7  C    3.651284   5.752030   2.412266   4.075038   4.474908
     8  C    4.422342   6.924735   2.863567   5.161472   5.249727
     9  C    2.446284   4.491094   1.405078   3.143996   2.996525
    10  C    4.871911   7.274308   2.431425   5.882864   5.296662
    11  C    3.972099   6.254313   1.421345   5.193911   4.070126
    12  C    2.475799   1.534044   4.620009   2.713821   1.528691
    13  O    2.447574   1.418484   4.455484   1.410594   2.637688
    14  H    1.081546   3.565058   3.926947   2.136354   2.139309
    15  H    3.646306   1.086095   6.080234   2.806275   3.388650
    16  H    3.744661   1.081609   5.248944   3.233336   3.022541
    17  H    2.169256   3.267348   4.274432   1.080482   3.357622
    18  H    2.164971   2.584940   5.177079   1.086190   3.085992
    19  H    2.166253   2.686413   2.621905   2.918129   1.082660
    20  H    2.156492   3.456948   3.246022   3.435781   1.084638
    21  H    3.682347   5.695546   3.332169   3.759590   4.766815
    22  H    4.440340   6.144305   2.698605   4.727455   5.055540
    23  H    4.151493   6.903479   3.298371   4.976326   5.145102
    24  H    5.394002   7.822903   3.835956   5.978264   6.286732
    25  H    2.541744   3.818885   1.982902   2.812058   2.867811
    26  H    5.603620   8.156790   3.354243   6.713623   6.040024
    27  H    5.545300   7.664732   2.728769   6.433197   5.840505
    28  H    4.736185   6.756965   2.003166   6.003588   4.522636
    29  H    3.612827   6.160132   2.054486   4.991867   3.816971
    30  H    2.669305   2.167661   5.286130   2.891146   2.151919
    31  H    3.433478   2.152721   5.074855   3.769772   2.167275
                    6          7          8          9         10
     6  O    0.000000
     7  C    2.380437   0.000000
     8  C    3.000664   1.529272   0.000000
     9  C    1.398984   1.522576   2.529925   0.000000
    10  C    3.541770   2.498158   1.528477   2.897817   0.000000
    11  C    2.894008   2.863881   2.498660   2.396425   1.519543
    12  C    3.770935   5.753428   6.661580   4.328850   6.806102
    13  O    3.356662   4.624431   5.906059   3.574971   6.463726
    14  H    1.972628   4.316016   4.819020   3.271346   5.294608
    15  H    4.931650   6.584718   7.756000   5.407202   8.212031
    16  H    4.786363   6.104112   7.347649   4.835081   7.574965
    17  H    2.482343   3.526796   4.685994   2.986766   5.631907
    18  H    3.242327   5.010373   5.983555   4.143107   6.758824
    19  H    2.694794   4.158933   5.062565   2.650866   4.983040
    20  H    2.844894   4.885676   5.376245   3.431819   5.199166
    21  H    2.572935   1.084627   2.175726   2.136027   3.454925
    22  H    3.291025   1.086738   2.149810   2.118372   2.778798
    23  H    2.777266   2.159856   1.086841   2.845501   2.153223
    24  H    3.985524   2.154759   1.085704   3.463040   2.164425
    25  H    2.041299   2.150676   3.456605   1.078806   3.822284
    26  H    4.290309   3.453061   2.171296   3.874785   1.086366
    27  H    4.258436   2.791365   2.155001   3.308912   1.087615
    28  H    3.832622   3.820336   3.448893   3.274599   2.163722
    29  H    2.635934   3.296864   2.803669   2.702712   2.156087
    30  H    4.062257   6.252070   7.045057   4.902822   7.281628
    31  H    4.622487   6.521217   7.393633   5.036241   7.352126
                   11         12         13         14         15
    11  C    0.000000
    12  C    5.595076   0.000000
    13  O    5.679574   2.443324   0.000000
    14  H    4.411679   2.839396   3.253713   0.000000
    15  H    7.226705   2.175795   2.050353   4.040033   0.000000
    16  H    6.533043   2.168730   2.000692   4.477159   1.757554
    17  H    5.218648   3.762507   2.011651   2.748329   3.670065
    18  H    6.055509   2.889623   2.043641   2.264179   2.611965
    19  H    3.769838   2.143155   2.672765   3.029299   3.733736
    20  H    3.830443   2.171916   3.715619   2.375830   4.265085
    21  H    3.839492   5.874640   4.430486   4.277575   6.396533
    22  H    3.275783   6.287520   5.005716   5.227322   7.021160
    23  H    2.799856   6.521342   5.936547   4.311441   7.652451
    24  H    3.446132   7.665215   6.713076   5.779536   8.625595
    25  H    3.271393   3.958882   2.843503   3.559048   4.761542
    26  H    2.136984   7.562923   7.396821   5.864102   9.072555
    27  H    2.139943   7.319133   6.828494   6.107742   8.647101
    28  H    1.081281   6.003121   6.340871   5.178449   7.769812
    29  H    1.084827   5.323670   5.673814   3.800123   7.055380
    30  H    6.100248   1.086488   2.999746   2.612813   2.350234
    31  H    6.028969   1.084422   3.297846   3.774610   2.710566
                   16         17         18         19         20
    16  H    0.000000
    17  H    4.001292   0.000000
    18  H    3.605627   1.754524   0.000000
    19  H    2.847508   3.582933   3.722785   0.000000
    20  H    3.931627   4.243450   3.893783   1.747713   0.000000
    21  H    6.143964   2.981232   4.594760   4.587708   5.309951
    22  H    6.323611   4.160752   5.730522   4.528482   5.518588
    23  H    7.467599   4.547939   5.649709   5.184741   5.188968
    24  H    8.227212   5.364185   6.780511   6.066507   6.454588
    25  H    4.018388   2.695626   3.892418   2.303512   3.568579
    26  H    8.506836   6.483948   7.513968   5.829504   5.792635
    27  H    7.829319   6.138505   7.388613   5.342163   5.820819
    28  H    6.917987   6.128596   6.868585   4.120934   4.135317
    29  H    6.587491   5.111423   5.711341   3.811190   3.405766
    30  H    3.009764   3.964967   2.681690   3.039224   2.530620
    31  H    2.335657   4.797062   3.952453   2.520628   2.482361
                   21         22         23         24         25
    21  H    0.000000
    22  H    1.751202   0.000000
    23  H    2.478573   3.048386   0.000000
    24  H    2.533572   2.447870   1.745956   0.000000
    25  H    2.519004   2.376089   3.852076   4.269684   0.000000
    26  H    4.303901   3.789731   2.459276   2.547774   4.851536
    27  H    3.798928   2.631855   3.047247   2.458969   4.028604
    28  H    4.842767   4.041584   3.808938   4.287008   3.984066
    29  H    4.092753   3.969176   2.669868   3.808769   3.656785
    30  H    6.272376   6.915964   6.741288   8.046239   4.679600
    31  H    6.755038   6.971175   7.311404   8.420959   4.637636
                   26         27         28         29         30
    26  H    0.000000
    27  H    1.752985   0.000000
    28  H    2.522091   2.440487   0.000000
    29  H    2.445287   3.042737   1.753555   0.000000
    30  H    7.951480   7.913077   6.569978   5.652816   0.000000
    31  H    8.087127   7.801570   6.259175   5.801427   1.744137
                   31
    31  H    0.000000
 Stoichiometry    C10H18O3
 Framework group  C1[X(C10H18O3)]
 Deg. of freedom    87
 Full point group                 C1      NOp   1
 Largest Abelian subgroup         C1      NOp   1
 Largest concise Abelian subgroup C1      NOp   1
                         Standard orientation:                         
 ---------------------------------------------------------------------
 Center     Atomic      Atomic             Coordinates (Angstroms)
 Number     Number       Type             X           Y           Z
 ---------------------------------------------------------------------
      1          6           0       -1.088074   -0.051654    0.945505
      2          6           0       -3.578315   -0.015023   -0.651167
      3          8           0        1.392827    0.947849   -0.796932
      4          6           0       -1.940636   -1.260081    0.516676
      5          6           0       -1.583656    1.208418    0.233745
      6          8           0        0.305564   -0.307429    0.810479
      7          6           0        2.011127   -1.361207   -0.472909
      8          6           0        3.208383   -0.930713    0.375576
      9          6           0        0.898024   -0.322468   -0.456771
     10          6           0        3.654126    0.470545   -0.041593
     11          6           0        2.473461    1.426512   -0.007417
     12          6           0       -3.111573    1.168360    0.206182
     13          8           0       -2.595646   -1.036155   -0.712386
     14          1           0       -1.210256    0.079414    2.012105
     15          1           0       -4.504778   -0.433836   -0.269246
     16          1           0       -3.740389    0.292319   -1.675448
     17          1           0       -1.320128   -2.135271    0.388403
     18          1           0       -2.680812   -1.479182    1.280838
     19          1           0       -1.211648    1.249310   -0.782174
     20          1           0       -1.222147    2.091686    0.749098
     21          1           0        1.608480   -2.311908   -0.140557
     22          1           0        2.326579   -1.482829   -1.505720
     23          1           0        2.940303   -0.931120    1.428836
     24          1           0        4.019670   -1.642070    0.255005
     25          1           0        0.161215   -0.549950   -1.211215
     26          1           0        4.433363    0.845875    0.615756
     27          1           0        4.062412    0.442058   -1.049262
     28          1           0        2.731995    2.390185   -0.424147
     29          1           0        2.134690    1.579888    1.011680
     30          1           0       -3.491795    1.076212    1.219788
     31          1           0       -3.515908    2.088962   -0.199990
 ---------------------------------------------------------------------
 Rotational constants (GHZ):           1.9274593           0.4412072           0.4024647
 Standard basis: 6-311++G(2d,2p) (5D, 7F)
 There are   557 symmetry adapted cartesian basis functions of A   symmetry.
 There are   531 symmetry adapted basis functions of A   symmetry.
   531 basis functions,   762 primitive gaussians,   557 cartesian basis functions
    51 alpha electrons       51 beta electrons
       nuclear repulsion energy       902.4595377943 Hartrees.
 NAtoms=   31 NActive=   31 NUniq=   31 SFac= 1.00D+00 NAtFMM=   60 NAOKFM=F Big=F
 Integral buffers will be    131072 words long.
 Raffenetti 2 integral format.
 Two-electron integral symmetry is turned on.
 ------------------------------------------------------------------------------
 Polarizable Continuum Model (PCM)
 =================================
 Model                : PCM.
 Atomic radii         : UFF (Universal Force Field).
 Polarization charges : Total charges.
 Charge compensation  : None.
 Solution method      : On-the-fly selection.
 Cavity type          : Scaled VdW (van der Waals Surface) (Alpha=1.100).
 Cavity algorithm     : GePol (No added spheres)
                        Default sphere list used, NSphG=   31.
                        Lebedev-Laikov grids with approx.  5.0 points / Ang**2.
                        Smoothing algorithm: York/Karplus (Gamma=1.0000).
                        Polarization charges: spherical gaussians, with
                                              point-specific exponents (IZeta= 3).
                        Self-potential: point-specific (ISelfS= 7).
                        Self-field    : sphere-specific E.n sum rule (ISelfD= 2).
 1st derivatives      : Analytical E(r).r(x)/FMM algorithm (CHGder, D1EAlg=3).
                        Cavity 1st derivative terms included.
 Solvent              : Water, Eps=  78.355300 Eps(inf)=   1.777849
 ------------------------------------------------------------------------------
 One-electron integrals computed using PRISM.
 NBasis=   531 RedAO= T EigKep=  4.13D-06  NBF=   531
 NBsUse=   531 1.00D-06 EigRej= -1.00D+00 NBFU=   531
 ExpMin= 3.60D-02 ExpMax= 8.59D+03 ExpMxC= 1.30D+03 IAcc=3 IRadAn=         5 AccDes= 0.00D+00
 Harris functional with IExCor= 1009 and IRadAn=       5 diagonalized for initial guess.
 HarFok:  IExCor= 1009 AccDes= 0.00D+00 IRadAn=         5 IDoV= 1 UseB2=F ITyADJ=14
 ICtDFT=  3500011 ScaDFX=  1.000000  1.000000  1.000000  1.000000
 FoFCou: FMM=F IPFlag=           0 FMFlag=      100000 FMFlg1=           0
         NFxFlg=           0 DoJE=T BraDBF=F KetDBF=T FulRan=T
         wScrn=  0.000000 ICntrl=       500 IOpCl=  0 I1Cent=   200000004 NGrid=           0
         NMat0=    1 NMatS0=      1 NMatT0=    0 NMatD0=    1 NMtDS0=    0 NMtDT0=    0
 Petite list used in FoFCou.
 Requested convergence on RMS density matrix=1.00D-08 within 128 cycles.
 Requested convergence on MAX density matrix=1.00D-06.
 Requested convergence on             energy=1.00D-06.
 No special actions if energy rises.
 Inv3:  Mode=1 IEnd=    12509292.
 Iteration    1 A*A^-1 deviation from unit magnitude is 9.55D-15 for   2024.
 Iteration    1 A*A^-1 deviation from orthogonality  is 2.87D-15 for   2030    858.
 Iteration    1 A^-1*A deviation from unit magnitude is 9.55D-15 for   2024.
 Iteration    1 A^-1*A deviation from orthogonality  is 2.37D-15 for   2014   1377.
 Error on total polarization charges =  0.01466
 SCF Done:  E(RM062X) =  -617.491218832     A.U. after   12 cycles
            NFock= 12  Conv=0.58D-08     -V/T= 2.0035

 **********************************************************************

            Population analysis using the SCF density.

 **********************************************************************

 Orbital symmetries:
       Occupied  (A) (A) (A) (A) (A) (A) (A) (A) (A) (A) (A) (A)
                 (A) (A) (A) (A) (A) (A) (A) (A) (A) (A) (A) (A)
                 (A) (A) (A) (A) (A) (A) (A) (A) (A) (A) (A) (A)
                 (A) (A) (A) (A) (A) (A) (A) (A) (A) (A) (A) (A)
                 (A) (A) (A)
       Virtual   (A) (A) (A) (A) (A) (A) (A) (A) (A) (A) (A) (A)
                 (A) (A) (A) (A) (A) (A) (A) (A) (A) (A) (A) (A)
                 (A) (A) (A) (A) (A) (A) (A) (A) (A) (A) (A) (A)
                 (A) (A) (A) (A) (A) (A) (A) (A) (A) (A) (A) (A)
                 (A) (A) (A) (A) (A) (A) (A) (A) (A) (A) (A) (A)
                 (A) (A) (A) (A) (A) (A) (A) (A) (A) (A) (A) (A)
                 (A) (A) (A) (A) (A) (A) (A) (A) (A) (A) (A) (A)
                 (A) (A) (A) (A) (A) (A) (A) (A) (A) (A) (A) (A)
                 (A) (A) (A) (A) (A) (A) (A) (A) (A) (A) (A) (A)
                 (A) (A) (A) (A) (A) (A) (A) (A) (A) (A) (A) (A)
                 (A) (A) (A) (A) (A) (A) (A) (A) (A) (A) (A) (A)
                 (A) (A) (A) (A) (A) (A) (A) (A) (A) (A) (A) (A)
                 (A) (A) (A) (A) (A) (A) (A) (A) (A) (A) (A) (A)
                 (A) (A) (A) (A) (A) (A) (A) (A) (A) (A) (A) (A)
                 (A) (A) (A) (A) (A) (A) (A) (A) (A) (A) (A) (A)
                 (A) (A) (A) (A) (A) (A) (A) (A) (A) (A) (A) (A)
                 (A) (A) (A) (A) (A) (A) (A) (A) (A) (A) (A) (A)
                 (A) (A) (A) (A) (A) (A) (A) (A) (A) (A) (A) (A)
                 (A) (A) (A) (A) (A) (A) (A) (A) (A) (A) (A) (A)
                 (A) (A) (A) (A) (A) (A) (A) (A) (A) (A) (A) (A)
                 (A) (A) (A) (A) (A) (A) (A) (A) (A) (A) (A) (A)
                 (A) (A) (A) (A) (A) (A) (A) (A) (A) (A) (A) (A)
                 (A) (A) (A) (A) (A) (A) (A) (A) (A) (A) (A) (A)
                 (A) (A) (A) (A) (A) (A) (A) (A) (A) (A) (A) (A)
                 (A) (A) (A) (A) (A) (A) (A) (A) (A) (A) (A) (A)
                 (A) (A) (A) (A) (A) (A) (A) (A) (A) (A) (A) (A)
                 (A) (A) (A) (A) (A) (A) (A) (A) (A) (A) (A) (A)
                 (A) (A) (A) (A) (A) (A) (A) (A) (A) (A) (A) (A)
                 (A) (A) (A) (A) (A) (A) (A) (A) (A) (A) (A) (A)
                 (A) (A) (A) (A) (A) (A) (A) (A) (A) (A) (A) (A)
                 (A) (A) (A) (A) (A) (A) (A) (A) (A) (A) (A) (A)
                 (A) (A) (A) (A) (A) (A) (A) (A) (A) (A) (A) (A)
                 (A) (A) (A) (A) (A) (A) (A) (A) (A) (A) (A) (A)
                 (A) (A) (A) (A) (A) (A) (A) (A) (A) (A) (A) (A)
                 (A) (A) (A) (A) (A) (A) (A) (A) (A) (A) (A) (A)
                 (A) (A) (A) (A) (A) (A) (A) (A) (A) (A) (A) (A)
                 (A) (A) (A) (A) (A) (A) (A) (A) (A) (A) (A) (A)
                 (A) (A) (A) (A) (A) (A) (A) (A) (A) (A) (A) (A)
                 (A) (A) (A) (A) (A) (A) (A) (A) (A) (A) (A) (A)
                 (A) (A) (A) (A) (A) (A) (A) (A) (A) (A) (A) (A)
 The electronic state is 1-A.
 Alpha  occ. eigenvalues --  -19.62657 -19.62625 -19.62447 -10.63198 -10.58890
 Alpha  occ. eigenvalues --  -10.57839 -10.57818 -10.57485 -10.53230 -10.53113
 Alpha  occ. eigenvalues --  -10.52892 -10.52818 -10.52669  -1.19765  -1.16544
 Alpha  occ. eigenvalues --   -1.13235  -0.90722  -0.89576  -0.87204  -0.84684
 Alpha  occ. eigenvalues --   -0.75110  -0.74833  -0.73169  -0.71027  -0.65298
 Alpha  occ. eigenvalues --   -0.61561  -0.61296  -0.58805  -0.57451  -0.56134
 Alpha  occ. eigenvalues --   -0.54413  -0.53531  -0.52474  -0.50941  -0.49373
 Alpha  occ. eigenvalues --   -0.48142  -0.46474  -0.45480  -0.45064  -0.44864
 Alpha  occ. eigenvalues --   -0.44076  -0.42301  -0.42042  -0.40473  -0.39787
 Alpha  occ. eigenvalues --   -0.38149  -0.37722  -0.36193  -0.34459  -0.32988
 Alpha  occ. eigenvalues --   -0.31351
 Alpha virt. eigenvalues --   -0.00165   0.00741   0.00826   0.01171   0.02243
 Alpha virt. eigenvalues --    0.02456   0.02582   0.03311   0.03684   0.04309
 Alpha virt. eigenvalues --    0.04396   0.04899   0.05447   0.05780   0.07161
 Alpha virt. eigenvalues --    0.07408   0.07831   0.07964   0.08646   0.09639
 Alpha virt. eigenvalues --    0.09926   0.10529   0.10778   0.11113   0.12089
 Alpha virt. eigenvalues --    0.12234   0.12798   0.13121   0.13332   0.13453
 Alpha virt. eigenvalues --    0.13837   0.14076   0.14290   0.14769   0.14819
 Alpha virt. eigenvalues --    0.15189   0.15292   0.15425   0.15654   0.15996
 Alpha virt. eigenvalues --    0.16603   0.16748   0.17332   0.17621   0.17934
 Alpha virt. eigenvalues --    0.18255   0.18489   0.19005   0.19267   0.19575
 Alpha virt. eigenvalues --    0.19682   0.20082   0.20308   0.20440   0.20781
 Alpha virt. eigenvalues --    0.22125   0.22606   0.22683   0.23218   0.23990
 Alpha virt. eigenvalues --    0.24318   0.24773   0.26080   0.26336   0.27012
 Alpha virt. eigenvalues --    0.28384   0.28485   0.28575   0.28977   0.29871
 Alpha virt. eigenvalues --    0.30802   0.30855   0.31207   0.31530   0.32178
 Alpha virt. eigenvalues --    0.32731   0.33044   0.33658   0.34174   0.34579
 Alpha virt. eigenvalues --    0.35021   0.35447   0.35698   0.35900   0.36416
 Alpha virt. eigenvalues --    0.37001   0.37268   0.37590   0.37981   0.38822
 Alpha virt. eigenvalues --    0.39237   0.39498   0.39824   0.40408   0.41286
 Alpha virt. eigenvalues --    0.42124   0.42987   0.43647   0.44750   0.45548
 Alpha virt. eigenvalues --    0.46466   0.47167   0.49394   0.50379   0.50891
 Alpha virt. eigenvalues --    0.51769   0.52324   0.53005   0.53633   0.55631
 Alpha virt. eigenvalues --    0.56450   0.56929   0.57340   0.59192   0.59504
 Alpha virt. eigenvalues --    0.60161   0.60388   0.60859   0.60956   0.61713
 Alpha virt. eigenvalues --    0.62133   0.62334   0.62970   0.63400   0.63880
 Alpha virt. eigenvalues --    0.64599   0.65124   0.65766   0.66669   0.67064
 Alpha virt. eigenvalues --    0.67745   0.68295   0.68854   0.70043   0.70684
 Alpha virt. eigenvalues --    0.71298   0.71998   0.72414   0.73026   0.73144
 Alpha virt. eigenvalues --    0.73654   0.74216   0.74400   0.75408   0.75825
 Alpha virt. eigenvalues --    0.76551   0.76969   0.77630   0.78172   0.79037
 Alpha virt. eigenvalues --    0.79908   0.81599   0.83630   0.84503   0.85505
 Alpha virt. eigenvalues --    0.86591   0.87022   0.88318   0.89173   0.90024
 Alpha virt. eigenvalues --    0.90418   0.91690   0.92142   0.94819   0.96847
 Alpha virt. eigenvalues --    0.98029   0.98572   0.99236   1.01734   1.02265
 Alpha virt. eigenvalues --    1.03443   1.04137   1.04615   1.05932   1.06964
 Alpha virt. eigenvalues --    1.08158   1.10476   1.11142   1.11524   1.12420
 Alpha virt. eigenvalues --    1.13704   1.14200   1.15515   1.16678   1.17513
 Alpha virt. eigenvalues --    1.18277   1.18417   1.19255   1.19913   1.20911
 Alpha virt. eigenvalues --    1.21422   1.21711   1.22105   1.23065   1.24583
 Alpha virt. eigenvalues --    1.24841   1.25640   1.26302   1.27274   1.28304
 Alpha virt. eigenvalues --    1.28426   1.29394   1.30170   1.30652   1.31948
 Alpha virt. eigenvalues --    1.32210   1.32859   1.33577   1.34478   1.35451
 Alpha virt. eigenvalues --    1.36115   1.36691   1.37452   1.37820   1.38731
 Alpha virt. eigenvalues --    1.39359   1.39544   1.40797   1.41564   1.42199
 Alpha virt. eigenvalues --    1.43081   1.43547   1.44065   1.44649   1.45369
 Alpha virt. eigenvalues --    1.46134   1.47183   1.47857   1.48271   1.48859
 Alpha virt. eigenvalues --    1.49128   1.50222   1.50608   1.51910   1.52271
 Alpha virt. eigenvalues --    1.53222   1.53798   1.54582   1.55021   1.55998
 Alpha virt. eigenvalues --    1.56266   1.57364   1.58073   1.58244   1.58821
 Alpha virt. eigenvalues --    1.59439   1.60002   1.60367   1.61118   1.62219
 Alpha virt. eigenvalues --    1.63630   1.63917   1.65420   1.65991   1.66266
 Alpha virt. eigenvalues --    1.68189   1.68368   1.69901   1.70632   1.71675
 Alpha virt. eigenvalues --    1.73030   1.73560   1.75298   1.77092   1.78001
 Alpha virt. eigenvalues --    1.78793   1.80084   1.81582   1.82881   1.84000
 Alpha virt. eigenvalues --    1.84728   1.86767   1.93684   1.97270   1.99691
 Alpha virt. eigenvalues --    2.01911   2.06712   2.10990   2.13675   2.20601
 Alpha virt. eigenvalues --    2.22738   2.25862   2.28937   2.35231   2.38226
 Alpha virt. eigenvalues --    2.41879   2.44700   2.46189   2.47465   2.53875
 Alpha virt. eigenvalues --    2.60000   2.76674   2.77409   2.80659   2.82799
 Alpha virt. eigenvalues --    2.84133   2.89628   2.92940   2.93011   2.94417
 Alpha virt. eigenvalues --    2.94656   2.96511   2.99247   3.03149   3.04638
 Alpha virt. eigenvalues --    3.05772   3.07312   3.08348   3.10355   3.11213
 Alpha virt. eigenvalues --    3.13319   3.14641   3.17680   3.20373   3.21818
 Alpha virt. eigenvalues --    3.25720   3.27523   3.30847   3.31636   3.33643
 Alpha virt. eigenvalues --    3.34396   3.36626   3.37498   3.39313   3.39790
 Alpha virt. eigenvalues --    3.41211   3.43271   3.44810   3.45526   3.46362
 Alpha virt. eigenvalues --    3.47857   3.48307   3.49960   3.50296   3.51235
 Alpha virt. eigenvalues --    3.53269   3.53664   3.54336   3.55454   3.55925
 Alpha virt. eigenvalues --    3.56561   3.56948   3.57972   3.58849   3.59838
 Alpha virt. eigenvalues --    3.60829   3.62086   3.63548   3.64688   3.65161
 Alpha virt. eigenvalues --    3.66594   3.68297   3.68496   3.69012   3.69621
 Alpha virt. eigenvalues --    3.70501   3.71691   3.72484   3.73434   3.73833
 Alpha virt. eigenvalues --    3.75109   3.76127   3.76962   3.77280   3.79948
 Alpha virt. eigenvalues --    3.81826   3.83126   3.83427   3.83533   3.86359
 Alpha virt. eigenvalues --    3.86736   3.88679   3.89161   3.90579   3.92561
 Alpha virt. eigenvalues --    3.93249   3.94304   3.94741   3.96836   3.98473
 Alpha virt. eigenvalues --    4.00474   4.01423   4.01846   4.03129   4.03875
 Alpha virt. eigenvalues --    4.04960   4.06422   4.07473   4.07662   4.08665
 Alpha virt. eigenvalues --    4.09348   4.10031   4.11056   4.11967   4.12048
 Alpha virt. eigenvalues --    4.12654   4.13101   4.14388   4.15256   4.15511
 Alpha virt. eigenvalues --    4.16651   4.17740   4.18259   4.20027   4.20178
 Alpha virt. eigenvalues --    4.20807   4.23461   4.24586   4.24912   4.28400
 Alpha virt. eigenvalues --    4.29413   4.30453   4.30905   4.32239   4.32759
 Alpha virt. eigenvalues --    4.33887   4.35589   4.35944   4.36775   4.40102
 Alpha virt. eigenvalues --    4.41661   4.42716   4.44122   4.46967   4.49174
 Alpha virt. eigenvalues --    4.58694   4.60856   4.72312   4.75374   4.83079
 Alpha virt. eigenvalues --    4.85520   4.93309   4.95434   5.00588   5.02274
 Alpha virt. eigenvalues --    5.04771   5.06955   5.07861   5.11520   5.13259
 Alpha virt. eigenvalues --    5.13802   5.15045   5.17256   5.34195   5.39945
 Alpha virt. eigenvalues --    5.42308   5.59468   5.62311   5.67716   5.85468
 Alpha virt. eigenvalues --    5.88827   6.01772   7.02283   7.04508   7.06977
 Alpha virt. eigenvalues --    7.07693   7.10775   7.13158   7.14939   7.18342
 Alpha virt. eigenvalues --    7.27862   7.36350   7.42262   7.46401   7.53678
 Alpha virt. eigenvalues --    7.54842   7.63501  23.96322  23.97393  24.06104
 Alpha virt. eigenvalues --   24.08008  24.11136  24.11542  24.12875  24.15668
 Alpha virt. eigenvalues --   24.18207  24.20050  50.16324  50.20448  50.29082
          Condensed to atoms (all electrons):
               1          2          3          4          5          6
     1  C    9.047965   0.022964   0.032469  -1.218290  -1.383440  -0.169709
     2  C    0.022964   5.460848  -0.001220  -0.088826   0.006577  -0.002125
     3  O    0.032469  -0.001220   8.274433  -0.024547   0.022234  -0.056865
     4  C   -1.218290  -0.088826  -0.024547   6.515178   0.479427   0.006355
     5  C   -1.383440   0.006577   0.022234   0.479427   6.571994   0.012290
     6  O   -0.169709  -0.002125  -0.056865   0.006355   0.012290   8.303598
     7  C    0.155931   0.002561   0.002104  -0.086500  -0.160441  -0.041297
     8  C    0.134729   0.001999   0.020184  -0.009237  -0.028234  -0.047935
     9  C   -1.355345   0.042422   0.119049   0.214326   0.344155   0.399729
    10  C   -0.028887   0.000322  -0.080004  -0.017557   0.010937   0.001627
    11  C    0.102752  -0.002313   0.104834   0.002988  -0.017255  -0.013022
    12  C    0.106947  -0.076511   0.011886  -0.191952  -0.341550   0.007962
    13  O    0.121950   0.079561  -0.001482   0.081556  -0.096810   0.004098
    14  H    0.658406  -0.002674   0.009428  -0.113390  -0.069933  -0.079327
    15  H    0.076924   0.508542   0.000072  -0.065351  -0.033816  -0.000940
    16  H   -0.049454   0.437453   0.000514   0.033224   0.003998   0.001508
    17  H   -0.064202   0.009972   0.000432   0.388023   0.015380   0.007682
    18  H    0.013490   0.010112  -0.000727   0.450210  -0.026007  -0.006199
    19  H    0.076493  -0.032680  -0.004494  -0.048914   0.453759  -0.024978
    20  H   -0.049153  -0.007104  -0.016980   0.021701   0.417740   0.008354
    21  H    0.011917  -0.000387   0.010571  -0.006949  -0.001262   0.001470
    22  H    0.003765   0.000417  -0.004497   0.004148   0.003084   0.007001
    23  H   -0.014478   0.000231   0.001791   0.008378   0.001895  -0.001818
    24  H    0.010069  -0.000001  -0.003097  -0.002291  -0.002736  -0.000321
    25  H    0.066889  -0.006416  -0.074447  -0.070486  -0.031785  -0.029959
    26  H    0.004821  -0.000003   0.009072   0.000129  -0.001816  -0.000219
    27  H   -0.004832  -0.000003  -0.001497  -0.000656   0.001445   0.000586
    28  H    0.004117  -0.000203  -0.072675   0.000580   0.001337   0.000802
    29  H   -0.026572   0.000745  -0.030121   0.000247   0.005549   0.000283
    30  H   -0.065913  -0.075382   0.000155   0.012885   0.009262   0.002546
    31  H    0.018820  -0.024059   0.000562  -0.011323  -0.042533  -0.000932
               7          8          9         10         11         12
     1  C    0.155931   0.134729  -1.355345  -0.028887   0.102752   0.106947
     2  C    0.002561   0.001999   0.042422   0.000322  -0.002313  -0.076511
     3  O    0.002104   0.020184   0.119049  -0.080004   0.104834   0.011886
     4  C   -0.086500  -0.009237   0.214326  -0.017557   0.002988  -0.191952
     5  C   -0.160441  -0.028234   0.344155   0.010937  -0.017255  -0.341550
     6  O   -0.041297  -0.047935   0.399729   0.001627  -0.013022   0.007962
     7  C    7.065253   0.038734  -1.225891  -0.282512   0.172373   0.054190
     8  C    0.038734   5.651392  -0.315264   0.021588  -0.025414   0.001513
     9  C   -1.225891  -0.315264   7.751137   0.467806  -0.491224  -0.041211
    10  C   -0.282512   0.021588   0.467806   5.715465  -0.097867  -0.003812
    11  C    0.172373  -0.025414  -0.491224  -0.097867   5.555526   0.007746
    12  C    0.054190   0.001513  -0.041211  -0.003812   0.007746   6.068709
    13  O    0.010004   0.000550  -0.027069   0.000789   0.000276   0.043584
    14  H   -0.004852   0.010310  -0.087637  -0.001980   0.006516  -0.015827
    15  H    0.001389   0.000099  -0.005198   0.000095  -0.000156  -0.083517
    16  H    0.001943   0.000307   0.004695  -0.000469   0.000774  -0.010732
    17  H   -0.021944  -0.008353   0.056115   0.005453  -0.002562  -0.005446
    18  H    0.001766   0.002227  -0.013008  -0.001136   0.001032  -0.028630
    19  H   -0.025930   0.000046  -0.062705   0.000705   0.013134  -0.025694
    20  H   -0.011768  -0.002732   0.029289  -0.001958  -0.001712  -0.013394
    21  H    0.419266  -0.032045  -0.035720  -0.009547   0.005861  -0.000335
    22  H    0.508040  -0.002726  -0.136300  -0.026952   0.022228   0.000507
    23  H   -0.037074   0.524774  -0.031686  -0.074002   0.003617  -0.000866
    24  H   -0.039378   0.414660   0.005116  -0.016108   0.009346   0.000461
    25  H   -0.077160  -0.021843   0.518637   0.026507  -0.038351   0.009717
    26  H   -0.008350  -0.051953   0.016221   0.442680  -0.038811  -0.000263
    27  H    0.005078  -0.015782  -0.019502   0.485650  -0.085572   0.000289
    28  H   -0.014036   0.010218   0.003896  -0.033317   0.440859   0.001998
    29  H    0.050565  -0.009978  -0.032728  -0.073231   0.482048   0.000846
    30  H   -0.000223   0.000029  -0.002559  -0.000303   0.000962   0.489921
    31  H    0.000532  -0.000067   0.003993   0.000723  -0.001123   0.414952
              13         14         15         16         17         18
     1  C    0.121950   0.658406   0.076924  -0.049454  -0.064202   0.013490
     2  C    0.079561  -0.002674   0.508542   0.437453   0.009972   0.010112
     3  O   -0.001482   0.009428   0.000072   0.000514   0.000432  -0.000727
     4  C    0.081556  -0.113390  -0.065351   0.033224   0.388023   0.450210
     5  C   -0.096810  -0.069933  -0.033816   0.003998   0.015380  -0.026007
     6  O    0.004098  -0.079327  -0.000940   0.001508   0.007682  -0.006199
     7  C    0.010004  -0.004852   0.001389   0.001943  -0.021944   0.001766
     8  C    0.000550   0.010310   0.000099   0.000307  -0.008353   0.002227
     9  C   -0.027069  -0.087637  -0.005198   0.004695   0.056115  -0.013008
    10  C    0.000789  -0.001980   0.000095  -0.000469   0.005453  -0.001136
    11  C    0.000276   0.006516  -0.000156   0.000774  -0.002562   0.001032
    12  C    0.043584  -0.015827  -0.083517  -0.010732  -0.005446  -0.028630
    13  O    8.310762   0.002381  -0.062510  -0.078842  -0.062365  -0.048665
    14  H    0.002381   0.444320   0.001989  -0.000678  -0.003971  -0.000508
    15  H   -0.062510   0.001989   0.519480  -0.025467  -0.003541   0.012193
    16  H   -0.078842  -0.000678  -0.025467   0.503975   0.001866  -0.004593
    17  H   -0.062365  -0.003971  -0.003541   0.001866   0.499338  -0.008959
    18  H   -0.048665  -0.000508   0.012193  -0.004593  -0.008959   0.475191
    19  H   -0.004504   0.013732  -0.005273   0.007128   0.003168  -0.003508
    20  H    0.001631  -0.012690   0.001435  -0.002601   0.000162   0.002676
    21  H    0.000160   0.000606  -0.000019   0.000050  -0.000320  -0.000084
    22  H   -0.000349   0.000730  -0.000010  -0.000075   0.000154  -0.000079
    23  H   -0.000098  -0.001323  -0.000028   0.000043  -0.000560   0.000134
    24  H    0.000037   0.000527   0.000016   0.000005  -0.000446   0.000100
    25  H    0.003146  -0.005639   0.001820  -0.003905  -0.002388  -0.000975
    26  H    0.000004   0.000051  -0.000003  -0.000004   0.000117   0.000001
    27  H    0.000065  -0.000167   0.000005  -0.000003  -0.000204  -0.000015
    28  H   -0.000102   0.000433  -0.000012   0.000047   0.000290  -0.000084
    29  H   -0.000182  -0.003537  -0.000020   0.000024  -0.000459  -0.000253
    30  H    0.001329  -0.002022  -0.019111   0.009512  -0.000108  -0.008607
    31  H    0.011057  -0.000002   0.005665  -0.011834   0.001156  -0.000143
              19         20         21         22         23         24
     1  C    0.076493  -0.049153   0.011917   0.003765  -0.014478   0.010069
     2  C   -0.032680  -0.007104  -0.000387   0.000417   0.000231  -0.000001
     3  O   -0.004494  -0.016980   0.010571  -0.004497   0.001791  -0.003097
     4  C   -0.048914   0.021701  -0.006949   0.004148   0.008378  -0.002291
     5  C    0.453759   0.417740  -0.001262   0.003084   0.001895  -0.002736
     6  O   -0.024978   0.008354   0.001470   0.007001  -0.001818  -0.000321
     7  C   -0.025930  -0.011768   0.419266   0.508040  -0.037074  -0.039378
     8  C    0.000046  -0.002732  -0.032045  -0.002726   0.524774   0.414660
     9  C   -0.062705   0.029289  -0.035720  -0.136300  -0.031686   0.005116
    10  C    0.000705  -0.001958  -0.009547  -0.026952  -0.074002  -0.016108
    11  C    0.013134  -0.001712   0.005861   0.022228   0.003617   0.009346
    12  C   -0.025694  -0.013394  -0.000335   0.000507  -0.000866   0.000461
    13  O   -0.004504   0.001631   0.000160  -0.000349  -0.000098   0.000037
    14  H    0.013732  -0.012690   0.000606   0.000730  -0.001323   0.000527
    15  H   -0.005273   0.001435  -0.000019  -0.000010  -0.000028   0.000016
    16  H    0.007128  -0.002601   0.000050  -0.000075   0.000043   0.000005
    17  H    0.003168   0.000162  -0.000320   0.000154  -0.000560  -0.000446
    18  H   -0.003508   0.002676  -0.000084  -0.000079   0.000134   0.000100
    19  H    0.489834  -0.022476   0.000564   0.000708  -0.000544  -0.000174
    20  H   -0.022476   0.477614   0.000150  -0.000802   0.000230  -0.000046
    21  H    0.000564   0.000150   0.492352  -0.004192  -0.001863  -0.010369
    22  H    0.000708  -0.000802  -0.004192   0.454579   0.002244  -0.002863
    23  H   -0.000544   0.000230  -0.001863   0.002244   0.459313  -0.005183
    24  H   -0.000174  -0.000046  -0.010369  -0.002863  -0.005183   0.467813
    25  H   -0.010958   0.005170  -0.008025  -0.016938  -0.003418   0.001094
    26  H    0.000431   0.000309   0.001526  -0.002642  -0.004145  -0.009032
    27  H   -0.000635  -0.000030  -0.001346  -0.001751   0.001607  -0.000628
    28  H    0.000308  -0.000085   0.001198   0.000230  -0.002026   0.000629
    29  H   -0.000961  -0.002001  -0.000387  -0.000730  -0.001132  -0.000905
    30  H    0.005901  -0.004051   0.000122   0.000008   0.000053  -0.000022
    31  H   -0.001723  -0.011328  -0.000079   0.000027  -0.000039   0.000008
              25         26         27         28         29         30
     1  C    0.066889   0.004821  -0.004832   0.004117  -0.026572  -0.065913
     2  C   -0.006416  -0.000003  -0.000003  -0.000203   0.000745  -0.075382
     3  O   -0.074447   0.009072  -0.001497  -0.072675  -0.030121   0.000155
     4  C   -0.070486   0.000129  -0.000656   0.000580   0.000247   0.012885
     5  C   -0.031785  -0.001816   0.001445   0.001337   0.005549   0.009262
     6  O   -0.029959  -0.000219   0.000586   0.000802   0.000283   0.002546
     7  C   -0.077160  -0.008350   0.005078  -0.014036   0.050565  -0.000223
     8  C   -0.021843  -0.051953  -0.015782   0.010218  -0.009978   0.000029
     9  C    0.518637   0.016221  -0.019502   0.003896  -0.032728  -0.002559
    10  C    0.026507   0.442680   0.485650  -0.033317  -0.073231  -0.000303
    11  C   -0.038351  -0.038811  -0.085572   0.440859   0.482048   0.000962
    12  C    0.009717  -0.000263   0.000289   0.001998   0.000846   0.489921
    13  O    0.003146   0.000004   0.000065  -0.000102  -0.000182   0.001329
    14  H   -0.005639   0.000051  -0.000167   0.000433  -0.003537  -0.002022
    15  H    0.001820  -0.000003   0.000005  -0.000012  -0.000020  -0.019111
    16  H   -0.003905  -0.000004  -0.000003   0.000047   0.000024   0.009512
    17  H   -0.002388   0.000117  -0.000204   0.000290  -0.000459  -0.000108
    18  H   -0.000975   0.000001  -0.000015  -0.000084  -0.000253  -0.008607
    19  H   -0.010958   0.000431  -0.000635   0.000308  -0.000961   0.005901
    20  H    0.005170   0.000309  -0.000030  -0.000085  -0.002001  -0.004051
    21  H   -0.008025   0.001526  -0.001346   0.001198  -0.000387   0.000122
    22  H   -0.016938  -0.002642  -0.001751   0.000230  -0.000730   0.000008
    23  H   -0.003418  -0.004145   0.001607  -0.002026  -0.001132   0.000053
    24  H    0.001094  -0.009032  -0.000628   0.000629  -0.000905  -0.000022
    25  H    0.461298   0.001662   0.001092  -0.000414   0.001442  -0.001039
    26  H    0.001662   0.487155  -0.011010  -0.008979   0.000204   0.000016
    27  H    0.001092  -0.011010   0.483505  -0.005324   0.004329  -0.000015
    28  H   -0.000414  -0.008979  -0.005324   0.482575  -0.011199   0.000081
    29  H    0.001442   0.000204   0.004329  -0.011199   0.490560   0.000067
    30  H   -0.001039   0.000016  -0.000015   0.000081   0.000067   0.476194
    31  H    0.001561  -0.000028   0.000036  -0.000159   0.000092  -0.013098
              31
     1  C    0.018820
     2  C   -0.024059
     3  O    0.000562
     4  C   -0.011323
     5  C   -0.042533
     6  O   -0.000932
     7  C    0.000532
     8  C   -0.000067
     9  C    0.003993
    10  C    0.000723
    11  C   -0.001123
    12  C    0.414952
    13  O    0.011057
    14  H   -0.000002
    15  H    0.005665
    16  H   -0.011834
    17  H    0.001156
    18  H   -0.000143
    19  H   -0.001723
    20  H   -0.011328
    21  H   -0.000079
    22  H    0.000027
    23  H   -0.000039
    24  H    0.000008
    25  H    0.001561
    26  H   -0.000028
    27  H    0.000036
    28  H   -0.000159
    29  H    0.000092
    30  H   -0.013098
    31  H    0.501798
 Mulliken charges:
               1
     1  C   -0.241143
     2  C   -0.264817
     3  O   -0.247141
     4  C   -0.263085
     5  C   -0.123445
     6  O   -0.290246
     7  C   -0.452371
     8  C   -0.261797
     9  C   -0.093540
    10  C   -0.430704
    11  C   -0.117492
    12  C   -0.381485
    13  O   -0.289961
    14  H    0.256726
    15  H    0.175247
    16  H    0.181591
    17  H    0.196521
    18  H    0.183047
    19  H    0.210239
    20  H    0.194449
    21  H    0.167117
    22  H    0.193036
    23  H    0.175973
    24  H    0.183718
    25  H    0.304113
    26  H    0.172860
    27  H    0.165283
    28  H    0.199017
    29  H    0.157393
    30  H    0.183410
    31  H    0.157488
 Sum of Mulliken charges =  -0.00000
 Mulliken charges with hydrogens summed into heavy atoms:
               1
     1  C    0.015582
     2  C    0.092021
     3  O   -0.247141
     4  C    0.116483
     5  C    0.281243
     6  O   -0.290246
     7  C   -0.092218
     8  C    0.097893
     9  C    0.210573
    10  C   -0.092560
    11  C    0.238918
    12  C   -0.040588
    13  O   -0.289961
 Electronic spatial extent (au):  <R**2>=           2925.4897
 Charge=             -0.0000 electrons
 Dipole moment (field-independent basis, Debye):
    X=             -0.4432    Y=              0.5355    Z=              1.5860  Tot=              1.7316
 Quadrupole moment (field-independent basis, Debye-Ang):
   XX=            -69.4817   YY=            -79.5141   ZZ=            -81.9035
   XY=             -4.1376   XZ=             -3.0373   YZ=              0.1161
 Traceless Quadrupole moment (field-independent basis, Debye-Ang):
   XX=              7.4847   YY=             -2.5476   ZZ=             -4.9371
   XY=             -4.1376   XZ=             -3.0373   YZ=              0.1161
 Octapole moment (field-independent basis, Debye-Ang**2):
  XXX=             -5.6622  YYY=              1.6525  ZZZ=              1.0528  XYY=              5.3315
  XXY=             15.1244  XXZ=              6.4664  XZZ=             -5.7126  YZZ=              0.8349
  YYZ=              3.5771  XYZ=             10.7843
 Hexadecapole moment (field-independent basis, Debye-Ang**3):
 XXXX=          -2861.8827 YYYY=           -600.0270 ZZZZ=           -295.2258 XXXY=             -8.5054
 XXXZ=              0.4731 YYYX=              9.7278 YYYZ=             -6.2376 ZZZX=              0.3115
 ZZZY=              1.3581 XXYY=           -597.7635 XXZZ=           -546.0234 YYZZ=           -158.1518
 XXYZ=            -16.8265 YYXZ=             -7.1131 ZZXY=             -3.5081
 N-N= 9.024595377943D+02 E-N=-3.247001968048D+03  KE= 6.153296385523D+02
 D1PCM: PCM CHGder 1st derivatives, ID1Alg=3 FixD1E=F DoIter=F DoCFld=F I1PDM=0.
 Calling FoFJK, ICntrl=      2127 FMM=F ISym2X=0 I1Cent= 0 IOpClX= 0 NMat=1 NMatS=1 NMatT=0.
 ***** Axes restored to original set *****
 -------------------------------------------------------------------
 Center     Atomic                   Forces (Hartrees/Bohr)
 Number     Number              X              Y              Z
 -------------------------------------------------------------------
      1        6          -0.001189638    0.000958817   -0.008131238
      2        6          -0.003894532   -0.001356901    0.004875936
      3        8           0.004446165   -0.005880401   -0.008986541
      4        6           0.003328511   -0.006830679   -0.001324489
      5        6           0.002904151    0.002171287    0.003206827
      6        8          -0.005890478    0.001197452    0.010010666
      7        6          -0.000420923   -0.001102275    0.002328001
      8        6           0.001937713   -0.002281921   -0.002472530
      9        6          -0.004251752   -0.000344850    0.004676499
     10        6           0.001916869    0.000539471    0.001905082
     11        6          -0.000980150    0.006612696   -0.000665434
     12        6          -0.001117420    0.000644817   -0.001497567
     13        8          -0.004322357    0.004222226   -0.008682476
     14        1           0.001141143   -0.001238735    0.005606827
     15        1           0.004823397    0.001249554    0.002424293
     16        1           0.000334059   -0.001614529   -0.004426041
     17        1          -0.004172583    0.003518925   -0.000539764
     18        1           0.003606336    0.001247918    0.005049620
     19        1          -0.002747962    0.001279026   -0.004561489
     20        1          -0.001513930   -0.002123221    0.001361040
     21        1           0.001420672    0.002751833    0.001356497
     22        1          -0.001148220   -0.000208829   -0.003279760
     23        1           0.001901988   -0.000502950    0.003086306
     24        1          -0.001925437    0.001675178   -0.000376015
     25        1           0.006491523    0.001519935   -0.006245887
     26        1          -0.002218353   -0.000650569    0.001686444
     27        1          -0.000601279    0.000174531   -0.003278188
     28        1          -0.001169416   -0.003876060   -0.001832434
     29        1           0.001545474    0.000162463    0.006025125
     30        1           0.000752936    0.000586209    0.003425230
     31        1           0.001013494   -0.002500419   -0.000724539
 -------------------------------------------------------------------
 Cartesian Forces:  Max     0.010010666 RMS     0.003463280

 GradGradGradGradGradGradGradGradGradGradGradGradGradGradGradGradGradGrad
 Berny optimization.
 FormGI is forming the generalized inverse of G from B-inverse, IUseBI=4.
 Internal  Forces:  Max     0.019538028 RMS     0.002372521
 Search for a local minimum.
 Step number   1 out of a maximum of  186
 All quantities printed in internal units (Hartrees-Bohrs-Radians)
 Mixed Optimization -- RFO/linear search
 Second derivative matrix not updated -- first step.
 ITU=  0
     Eigenvalues ---    0.00380   0.00612   0.00626   0.00721   0.01410
     Eigenvalues ---    0.01411   0.01705   0.02703   0.02730   0.03079
     Eigenvalues ---    0.03285   0.03944   0.04094   0.04506   0.04731
     Eigenvalues ---    0.04746   0.04893   0.04922   0.05043   0.05138
     Eigenvalues ---    0.05272   0.05645   0.05691   0.05936   0.06172
     Eigenvalues ---    0.06214   0.06461   0.07013   0.07587   0.07603
     Eigenvalues ---    0.07820   0.07842   0.07951   0.08038   0.08237
     Eigenvalues ---    0.08827   0.09233   0.10256   0.11249   0.11602
     Eigenvalues ---    0.11740   0.11766   0.11787   0.12399   0.12738
     Eigenvalues ---    0.14683   0.15160   0.16470   0.18210   0.19119
     Eigenvalues ---    0.19913   0.21955   0.22655   0.25000   0.26751
     Eigenvalues ---    0.27801   0.28495   0.28627   0.28843   0.28926
     Eigenvalues ---    0.28946   0.30274   0.35090   0.35180   0.35192
     Eigenvalues ---    0.35222   0.35236   0.35257   0.35268   0.35314
     Eigenvalues ---    0.35417   0.35440   0.35441   0.35465   0.35675
     Eigenvalues ---    0.35801   0.35808   0.35840   0.35936   0.36139
     Eigenvalues ---    0.40390   0.40879   0.41677   0.41962   0.43269
     Eigenvalues ---    0.457891000.000001000.000001000.000001000.00000
     Eigenvalues --- 1000.000001000.000001000.000001000.000001000.00000
     Eigenvalues --- 1000.000001000.000001000.000001000.000001000.00000
     Eigenvalues --- 1000.000001000.000001000.000001000.000001000.00000
     Eigenvalues --- 1000.000001000.000001000.000001000.000001000.00000
     Eigenvalues --- 1000.000001000.000001000.000001000.000001000.00000
     Eigenvalues --- 1000.000001000.000001000.000001000.000001000.00000
     Eigenvalues --- 1000.000001000.000001000.000001000.000001000.00000
     Eigenvalues --- 1000.000001000.000001000.000001000.000001000.00000
     Eigenvalues --- 1000.000001000.000001000.000001000.000001000.00000
     Eigenvalues --- 1000.000001000.000001000.000001000.000001000.00000
     Eigenvalues --- 1000.000001000.000001000.000001000.000001000.00000
     Eigenvalues --- 1000.000001000.000001000.000001000.000001000.00000
     Eigenvalues --- 1000.000001000.000001000.000001000.000001000.00000
     Eigenvalues --- 1000.000001000.000001000.000001000.000001000.00000
     Eigenvalues --- 1000.000001000.000001000.000001000.000001000.00000
     Eigenvalues --- 1000.000001000.000001000.000001000.000001000.00000
     Eigenvalues --- 1000.000001000.000001000.000001000.000001000.00000
     Eigenvalues --- 1000.000001000.000001000.000001000.000001000.00000
     Eigenvalues --- 1000.000001000.000001000.000001000.000001000.00000
 RFO step:  Lambda=-4.80965821D-03 EMin= 3.79704566D-03
 Linear search not attempted -- first point.
 Iteration  1 RMS(Cart)=  0.09016130 RMS(Int)=  0.00154769
 Iteration  2 RMS(Cart)=  0.00449063 RMS(Int)=  0.00008958
 Iteration  3 RMS(Cart)=  0.00000542 RMS(Int)=  0.00008953
 Iteration  4 RMS(Cart)=  0.00000000 RMS(Int)=  0.00008953
 Iteration  1 RMS(Cart)=  0.00005464 RMS(Int)=  0.00001274
 Iteration  2 RMS(Cart)=  0.00003042 RMS(Int)=  0.00001423
 Iteration  3 RMS(Cart)=  0.00001694 RMS(Int)=  0.00001611
 Iteration  4 RMS(Cart)=  0.00000943 RMS(Int)=  0.00001738
 Iteration  5 RMS(Cart)=  0.00000525 RMS(Int)=  0.00001814
 Iteration  6 RMS(Cart)=  0.00000292 RMS(Int)=  0.00001858
 Iteration  7 RMS(Cart)=  0.00000163 RMS(Int)=  0.00001882
 Iteration  8 RMS(Cart)=  0.00000091 RMS(Int)=  0.00001896
 Variable       Old X    -DE/DX   Delta X   Delta X   Delta X     New X
                                 (Linear)    (Quad)   (Total)
    R1        2.90984   0.00041   0.00000   0.00220   0.00230   2.91214
    R2        2.89072  -0.00173   0.00000  -0.00631  -0.00619   2.88453
    R3        2.68971  -0.00144   0.00000  -0.00340  -0.00340   2.68631
    R4        2.04383   0.00581   0.00000   0.01601   0.01601   2.05983
    R5        2.89892   0.00081   0.00000   0.00263   0.00254   2.90146
    R6        2.68055   0.00354   0.00000   0.00926   0.00917   2.68972
    R7        2.05242   0.00545   0.00000   0.01524   0.01524   2.06766
    R8        2.04395   0.00470   0.00000   0.01295   0.01295   2.05690
    R9        2.65521   0.00361   0.00000   0.00751   0.00753   2.66274
   R10        2.68595   0.00276   0.00000   0.00635   0.00636   2.69231
   R11        2.66564   0.00337   0.00000   0.00789   0.00785   2.67348
   R12        2.04182   0.00531   0.00000   0.01458   0.01458   2.05640
   R13        2.05260   0.00626   0.00000   0.01752   0.01752   2.07012
   R14        2.88881  -0.00016   0.00000  -0.00246  -0.00246   2.88635
   R15        2.04593   0.00518   0.00000   0.01432   0.01432   2.06025
   R16        2.04967   0.00288   0.00000   0.00802   0.00802   2.05769
   R17        2.64370   0.00255   0.00000   0.00550   0.00550   2.64920
   R18        2.88991  -0.00149   0.00000  -0.00486  -0.00486   2.88504
   R19        2.87725  -0.00051   0.00000  -0.00225  -0.00227   2.87498
   R20        2.04965   0.00336   0.00000   0.00934   0.00934   2.05899
   R21        2.05364   0.00343   0.00000   0.00961   0.00961   2.06324
   R22        2.88840  -0.00076   0.00000  -0.00181  -0.00183   2.88658
   R23        2.05383   0.00346   0.00000   0.00970   0.00970   2.06353
   R24        2.05168   0.00258   0.00000   0.00720   0.00720   2.05888
   R25        2.03865   0.00912   0.00000   0.02491   0.02491   2.06356
   R26        2.87152   0.00022   0.00000   0.00125   0.00127   2.87279
   R27        2.05293   0.00284   0.00000   0.00794   0.00794   2.06087
   R28        2.05529   0.00327   0.00000   0.00919   0.00919   2.06448
   R29        2.04333   0.00444   0.00000   0.01223   0.01223   2.05555
   R30        2.05003   0.00612   0.00000   0.01705   0.01705   2.06707
   R31        2.05317   0.00351   0.00000   0.00983   0.00983   2.06299
   R32        2.04926   0.00277   0.00000   0.00771   0.00771   2.05697
    A1        1.91505   0.00094   0.00000  -0.01083  -0.01124   1.90382
    A2        1.95485  -0.00033   0.00000  -0.00897  -0.00966   1.94519
    A3        1.88305   0.00077   0.00000   0.01745   0.01749   1.90053
    A4        2.00545  -0.00172   0.00000  -0.02431  -0.02462   1.98083
    A5        1.89910  -0.00093   0.00000   0.00867   0.00888   1.90798
    A6        1.79871   0.00138   0.00000   0.02373   0.02390   1.82261
    A7        1.94837   0.00175   0.00000   0.00374   0.00355   1.95192
    A8        1.93957  -0.00096   0.00000  -0.00524  -0.00527   1.93430
    A9        1.93441  -0.00094   0.00000  -0.00540  -0.00531   1.92910
   A10        1.90553   0.00047   0.00000   0.00708   0.00721   1.91275
   A11        1.84158  -0.00090   0.00000  -0.00210  -0.00209   1.83949
   A12        1.89100   0.00059   0.00000   0.00226   0.00222   1.89321
   A13        2.02387  -0.00572   0.00000  -0.03651  -0.03639   1.98748
   A14        1.95538   0.00017   0.00000   0.00019   0.00006   1.95544
   A15        1.92919  -0.00143   0.00000  -0.01869  -0.01874   1.91044
   A16        1.91737  -0.00034   0.00000   0.00455   0.00450   1.92187
   A17        1.86692  -0.00055   0.00000  -0.00542  -0.00555   1.86137
   A18        1.90560   0.00169   0.00000   0.01707   0.01706   1.92266
   A19        1.88754   0.00051   0.00000   0.00248   0.00248   1.89003
   A20        1.88663  -0.00085   0.00000  -0.00300  -0.00303   1.88361
   A21        1.93521  -0.00047   0.00000  -0.01269  -0.01266   1.92255
   A22        1.91957  -0.00029   0.00000  -0.00205  -0.00205   1.91752
   A23        1.90446   0.00128   0.00000   0.00640   0.00638   1.91084
   A24        1.94232   0.00034   0.00000   0.00828   0.00824   1.95057
   A25        1.87608   0.00002   0.00000   0.00304   0.00295   1.87903
   A26        2.09731  -0.01954   0.00000  -0.07668  -0.07668   2.02063
   A27        1.95456  -0.00174   0.00000  -0.01573  -0.01584   1.93872
   A28        1.94697  -0.00021   0.00000  -0.00104  -0.00116   1.94582
   A29        1.90874   0.00114   0.00000   0.00695   0.00703   1.91577
   A30        1.90006   0.00069   0.00000  -0.00093  -0.00092   1.89914
   A31        1.87406   0.00021   0.00000   0.00484   0.00483   1.87889
   A32        1.87641  -0.00000   0.00000   0.00705   0.00702   1.88343
   A33        1.91235   0.00183   0.00000  -0.00150  -0.00150   1.91085
   A34        1.92247  -0.00096   0.00000  -0.00622  -0.00622   1.91625
   A35        1.91660  -0.00051   0.00000   0.00159   0.00158   1.91818
   A36        1.91428  -0.00079   0.00000  -0.00154  -0.00164   1.91265
   A37        1.93098  -0.00025   0.00000   0.00199   0.00205   1.93303
   A38        1.86679   0.00063   0.00000   0.00576   0.00577   1.87256
   A39        1.93768   0.00063   0.00000   0.00196   0.00211   1.93980
   A40        1.93561   0.00334   0.00000   0.01438   0.01421   1.94982
   A41        1.83574  -0.00227   0.00000  -0.01011  -0.01015   1.82559
   A42        1.90343  -0.00301   0.00000  -0.01355  -0.01349   1.88995
   A43        1.92464   0.00104   0.00000   0.00251   0.00250   1.92714
   A44        1.92627   0.00038   0.00000   0.00538   0.00542   1.93169
   A45        1.92200  -0.00097   0.00000  -0.00448  -0.00467   1.91732
   A46        1.93989  -0.00052   0.00000  -0.00224  -0.00221   1.93768
   A47        1.91594   0.00089   0.00000   0.00162   0.00170   1.91764
   A48        1.90325   0.00059   0.00000   0.00322   0.00326   1.90651
   A49        1.90603   0.00006   0.00000  -0.00107  -0.00100   1.90503
   A50        1.87590  -0.00001   0.00000   0.00314   0.00311   1.87901
   A51        1.94591   0.00234   0.00000   0.00652   0.00650   1.95240
   A52        1.84195  -0.00131   0.00000  -0.00221  -0.00223   1.83972
   A53        1.90922   0.00013   0.00000   0.00138   0.00143   1.91065
   A54        1.94576  -0.00029   0.00000  -0.00204  -0.00199   1.94377
   A55        1.93126  -0.00163   0.00000  -0.00753  -0.00757   1.92369
   A56        1.88674   0.00075   0.00000   0.00422   0.00421   1.89095
   A57        1.91176  -0.00048   0.00000  -0.01056  -0.01062   1.90114
   A58        1.92782   0.00074   0.00000   0.00429   0.00429   1.93212
   A59        1.90933  -0.00020   0.00000   0.00322   0.00321   1.91254
   A60        1.91259  -0.00054   0.00000  -0.00168  -0.00172   1.91087
   A61        1.93604   0.00053   0.00000   0.00256   0.00264   1.93868
   A62        1.86601  -0.00001   0.00000   0.00262   0.00260   1.86861
   A63        1.98052  -0.00457   0.00000  -0.02944  -0.02944   1.95108
    D1        0.37089   0.00139   0.00000   0.02182   0.02187   0.39276
    D2        2.45122  -0.00017   0.00000   0.00253   0.00258   2.45380
    D3       -1.75033  -0.00064   0.00000  -0.00319  -0.00317  -1.75350
    D4       -1.87809   0.00318   0.00000   0.07006   0.07008  -1.80801
    D5        0.20224   0.00163   0.00000   0.05078   0.05080   0.25304
    D6        2.28387   0.00116   0.00000   0.04506   0.04505   2.32892
[...]
 93,0.00020102,0.00078800,-0.00027056,0.00074958,-0.00027840,-0.0000742
 4,0.00025061,0.00015294,-0.00010407,0.00001202,0.00001852,-0.00004133,
 -0.00003194,-0.00019640,-0.00039278,-0.00014332,0.00012264,-0.00016444
 ,0.00007581,-0.00008635,0.00058222,0.00035843,0.00014989,-0.00012640,0
 .00017947,0.00025214,0.00003333,0.00000707,0.00015558,-0.00042490,0.00
 061745,-0.00018256,-0.00000808,0.00012509,-0.00016960,0.00005020,0.000
 03570,-0.12582386,-0.04324497,0.18467828,0.00036843,-0.00005343,0.0000
 8875,0.00004114,-0.00001339,-0.00001788,-0.00707241,0.00278479,0.00076
 080,0.00001199,0.00003578,-0.00001681,-0.00010783,-0.00002642,0.000100
 88,-0.00050489,-0.00014604,-0.00057954,0.00109339,-0.00133283,-0.00122
 751,-0.00514039,-0.00255745,0.00328715,0.00137708,0.00191466,0.0008670
 6,-0.18077503,-0.06959865,0.11121527,-0.01562019,-0.01331937,0.0160886
 1,0.00000674,0.00001562,-0.00004292,-0.00009072,-0.00001011,0.00002396
 ,-0.00005424,0.00000602,-0.00003504,-0.00001455,-0.00000483,0.00000112
 ,-0.00000404,0.00000331,0.00000682,0.00001426,0.00001696,0.00000907,-0
 .00003360,-0.00001211,0.00000149,0.00006881,-0.00002427,-0.00008119,0.
 00000365,0.00000678,-0.00000240,-0.00021492,-0.00002778,0.00040043,-0.
 00008113,-0.00003176,0.00021171,0.00007826,0.00017325,-0.00007282,0.00
 042036,-0.00013363,-0.00026389,-0.00003638,-0.00017613,-0.00004384,0.1
 9545837,0.00005745,0.00000624,-0.00002134,0.00000693,-0.00001089,0.000
 00269,0.00656132,-0.00081849,-0.00091220,0.00000703,-0.00000809,-0.000
 01112,0.00002570,-0.00000426,-0.00006359,-0.00011239,0.00032612,0.0001
 8686,-0.00080022,-0.00590805,-0.00355285,-0.02233920,-0.01083337,0.019
 54256,0.00039572,-0.00209664,-0.00047743,-0.07019929,-0.08501061,0.061
 11758,0.01132048,0.00914457,-0.01276479,-0.00000258,0.00001649,0.00003
 696,-0.00001317,0.00001142,0.00000813,-0.00002240,0.00000755,-0.000005
 15,-0.00000135,0.00000234,-0.00000187,-0.00000129,0.00000157,0.0000001
 0,0.00001760,0.00001108,0.00000423,-0.00000812,0.00000078,0.00000102,-
 0.00002377,-0.00000024,0.00003851,-0.00000479,0.00000250,-0.00000612,-
 0.00186444,-0.00053443,0.00097177,0.00032930,0.00010241,-0.00007992,0.
 00037378,0.00141966,-0.00021110,0.00079018,0.00108873,0.00050932,-0.00
 004027,0.00036779,0.00004425,0.07763832,0.09288508,-0.00008203,0.00000
 517,-0.00001840,-0.00000675,0.00000052,0.00000385,0.00053495,0.0001555
 2,0.00161424,0.00000066,-0.00000572,0.00000608,0.00002916,-0.00000112,
 -0.00002839,0.00013684,0.00008125,0.00011755,-0.00035886,-0.00202627,0
 .00005848,-0.00944720,-0.00446192,0.00650293,-0.00024975,-0.00043311,-
 0.00034016,0.11351199,0.06134260,-0.14424798,-0.00220360,-0.00039826,-
 0.00094335,-0.00000300,-0.00000048,0.00000972,0.00001396,0.00000249,-0
 .00000538,0.00001086,-0.00000088,0.00000697,0.00000275,0.00000198,-0.0
 0000070,0.00000077,-0.00000055,-0.00000151,0.00000164,-0.00000259,-0.0
 0000122,0.00000590,0.00000274,-0.00000015,-0.00000513,0.00000068,0.000
 02352,-0.00000054,0.00000185,-0.00000421,-0.00024950,-0.00032213,0.000
 41290,-0.00021030,-0.00016363,0.00029158,0.00002544,0.00073487,0.00068
 950,0.00027880,0.00069270,0.00011947,0.00000927,0.00004062,-0.00005196
 ,-0.12338371,-0.06521220,0.15240214,0.00009232,-0.00002425,0.00004465,
 0.00000249,-0.00000105,-0.00000427,0.00279170,-0.00087533,0.00056276,-
 0.00001246,0.00000767,-0.00001092,0.00000358,0.00001363,-0.00002418,-0
 .00000872,-0.00015240,0.00016359,0.00002853,0.00037958,-0.00072030,-0.
 00317861,0.00013955,-0.00690161,-0.00028365,-0.00003820,-0.00021446,-0
 .08234692,0.00136929,-0.08441560,-0.01196001,0.00287516,-0.02720874,0.
 00000512,0.00000121,0.00001580,-0.00001222,0.00000002,0.00001004,0.000
 00181,0.00000247,-0.00000720,-0.00000221,-0.00000147,0.00000062,-0.000
 00100,0.00000068,0.00000128,0.00000144,0.00000276,-0.00000026,-0.00000
 832,-0.00000450,0.00000030,0.00001154,-0.00000152,0.00000746,-0.000009
 69,-0.00001396,0.00000323,0.00008986,-0.00000888,0.00015349,-0.0001837
 7,-0.00022012,0.00013992,0.00050671,-0.00130017,-0.00047261,0.00040469
 ,-0.00005876,0.00044674,-0.00004175,-0.00001834,-0.00000941,0.00930312
 ,-0.00029221,0.02118959,0.08736352,-0.00010204,0.00001546,0.00003203,-
 0.00000055,0.00000024,0.00000255,-0.00168932,0.00102471,-0.00134786,0.
 00000420,0.00000251,0.00000306,-0.00001947,-0.00001299,0.00000843,0.00
 009019,0.00029286,0.00006144,0.00082741,0.00158189,-0.00066785,-0.0118
 2203,-0.00073431,-0.03099457,-0.00005401,-0.00055373,-0.00010308,0.002
 10948,-0.04741925,0.00814652,0.00822180,-0.00313149,0.02253105,-0.0000
 0296,0.00000841,-0.00000272,0.00000866,-0.00000077,-0.00000431,0.00000
 846,-0.00000385,0.00000592,0.00000194,0.00000137,-0.00000062,0.0000004
 1,-0.00000044,-0.00000097,0.00000023,-0.00000383,0.00000073,0.00000576
 ,0.00000093,0.00000013,-0.00001375,-0.00000045,-0.00000212,0.00000747,
 0.00001152,-0.00000752,0.00039350,0.00001246,0.00024903,-0.00004368,-0
 .00006985,0.00064868,-0.00210309,-0.00562399,-0.00167437,0.00065367,0.
 00138348,0.00049758,-0.00004181,0.00011868,0.00001909,0.00498233,-0.00
 111484,0.01051695,-0.00457896,0.05528752,0.00020190,-0.00004897,0.0000
 6401,0.00001866,-0.00000886,-0.00000669,-0.00086707,-0.00093487,0.0014
 4068,-0.00000061,0.00001986,-0.00001298,-0.00002665,-0.00000821,0.0000
 1088,-0.00030313,-0.00002385,-0.00014683,0.00047216,0.00056466,0.00068
 302,-0.00305932,-0.00080406,-0.01040139,0.00008909,0.00020451,0.000138
 05,-0.08646031,0.00891345,-0.27433384,0.00082557,0.00080419,-0.0015650
 9,0.00000106,0.00001395,-0.00000098,-0.00004146,-0.00000145,0.00001669
 ,-0.00002414,0.00000612,-0.00001699,-0.00000611,-0.00000080,-0.0000002
 9,-0.00000218,0.00000201,0.00000279,0.00000778,0.00000679,0.00000331,-
 0.00001568,-0.00000757,0.00000124,0.00001399,-0.00000946,-0.00001209,-
 0.00000234,0.00000181,-0.00000317,0.00004829,-0.00013567,0.00025146,-0
 .00051687,-0.00012188,0.00035435,-0.00026570,-0.00221503,0.00084410,0.
 00028597,-0.00015565,0.00041121,-0.00009811,0.00000428,-0.00004564,-0.
 00665524,0.00063771,-0.01690468,0.09644004,-0.00751829,0.29726253,0.00
 056794,-0.00009150,0.00013864,0.00005427,-0.00003524,-0.00002040,-0.01
 349628,-0.03217733,-0.00594858,0.00001472,0.00003216,-0.00001233,-0.00
 007673,-0.00004016,0.00005660,-0.00036412,-0.00019888,-0.00053798,-0.0
 0054127,-0.00042698,0.00000311,-0.00525462,0.00250135,-0.00077548,-0.0
 0255278,0.00142067,0.00425603,0.00761914,0.02594957,0.01102236,-0.0569
 0067,-0.04048225,-0.02047737,0.00000668,0.00002997,-0.00000700,-0.0001
 3223,0.00000353,0.00002230,-0.00006862,0.00002155,-0.00004251,-0.00001
 968,0.00000064,-0.00000079,-0.00000591,0.00000531,0.00000835,0.0000143
 4,0.00003531,0.00000536,-0.00004855,-0.00001007,0.00000178,0.00003753,
 -0.00003465,-0.00004499,0.00001259,0.00001639,-0.00001210,0.00029851,-
 0.00009632,-0.00009265,0.00008084,-0.00000083,-0.00006029,-0.00003002,
 -0.00014153,0.00009803,0.00042577,0.00183986,0.00039762,-0.00037996,-0
 .00132874,-0.00023626,0.00075366,-0.00115437,0.00009646,0.00112758,-0.
 00088925,-0.00024604,0.07008093,0.00041513,-0.00005215,0.00005909,0.00
 004215,-0.00002393,-0.00001929,-0.00964140,-0.01538674,-0.00125801,0.0
 0002835,0.00003178,-0.00000684,-0.00008997,-0.00000348,0.00005293,-0.0
 0025020,0.00014403,-0.00069364,-0.00001595,0.00039084,-0.00024097,0.00
 421799,-0.00045985,0.00065845,-0.00029384,0.00294618,0.00340067,-0.003
 01769,-0.01601180,-0.00814368,-0.04623003,-0.26557895,-0.09472799,0.00
 000357,0.00001512,-0.00001536,-0.00010548,-0.00000126,0.00001759,-0.00
 006617,0.00001121,-0.00003333,-0.00001622,-0.00000175,0.00000032,-0.00
 000548,0.00000439,0.00000690,0.00001750,0.00002410,0.00000878,-0.00003
 458,-0.00000864,0.00000045,0.00005403,-0.00002949,-0.00005441,-0.00001
 961,-0.00001607,-0.00000022,-0.00000463,-0.00008319,-0.00003659,-0.000
 01793,-0.00001466,0.00006023,-0.00003189,0.00011095,-0.00009162,-0.000
 43230,-0.00113777,-0.00030586,-0.00025623,-0.00070985,-0.00022277,0.00
 029799,0.00025701,-0.00014900,-0.00053019,0.00069317,0.00046977,0.0549
 3399,0.29017528,0.00008692,-0.00012313,0.00012517,-0.00000299,0.000012
 65,0.00000460,0.01066872,0.02559719,0.00738157,-0.00009579,0.00001753,
 -0.00007294,-0.00003701,0.00000376,-0.00002623,-0.00041604,-0.00056012
 ,0.00138892,0.00031978,0.00010336,-0.00012966,0.00033470,0.00002805,0.
 00096351,0.00209878,0.00038069,-0.00401503,-0.00097844,0.00296555,0.00
 073105,-0.02576844,-0.10378912,-0.09608399,0.00000092,0.00000776,0.000
 01183,0.00003256,-0.00000528,0.00003107,0.00001993,0.00000086,-0.00000
 473,0.00000480,-0.00000507,-0.00000017,-0.00000007,-0.00000069,-0.0000
 0030,-0.00000645,-0.00000264,-0.00000364,-0.00001565,-0.00001756,0.000
 00806,-0.00001395,0.00001528,0.00000639,0.00000569,-0.00001129,0.00000
 782,-0.00014727,0.00003590,0.00006415,0.00000220,-0.00001121,0.0000211
 3,0.00006566,0.00039649,0.00024731,-0.00006796,-0.00023898,0.00024414,
 0.00030018,0.00091238,0.00017132,0.00014645,-0.00019068,0.00003325,0.0
 0068755,0.00015310,0.00060000,0.01778092,0.10092919,0.09823171,0.00018
 416,-0.00015530,0.00006686,0.00002395,-0.00001195,-0.00000585,0.001486
 33,-0.00886835,0.03397929,0.00000187,0.00001240,0.00000075,0.00013658,
 -0.00000232,0.00002993,-0.00149834,-0.00073718,-0.00088665,-0.00023471
 ,-0.00021128,-0.00005176,0.00075522,-0.00138269,-0.00000914,0.00198445
 ,0.00246237,0.00163304,-0.01041654,0.00319595,-0.02626567,-0.08080689,
 0.01006916,-0.08901143,-0.00001070,0.00002978,-0.00000800,-0.00004455,
 0.00000158,0.00000780,-0.00001888,0.00004159,-0.00006540,-0.00000804,0
 .00000113,-0.00000385,-0.00000070,0.00000325,0.00000169,0.00001544,0.0
 0000686,0.00000464,-0.00001349,-0.00000866,-0.00000092,0.00007117,-0.0
 0003744,0.00000561,0.00003038,0.00000453,-0.00002824,0.00016754,-0.000
 07882,-0.00007610,-0.00006463,-0.00001994,0.00003540,0.00028685,0.0003
 9156,0.00045414,0.00001643,-0.00018054,0.00029235,-0.00014861,-0.00006
 911,-0.00025959,0.00079941,-0.00065431,0.00034045,-0.00368207,0.004043
 37,0.00020020,-0.00118124,0.00108791,-0.00500422,0.09218410,-0.0004609
 7,0.00012344,-0.00003054,-0.00002314,0.00000974,0.00000347,-0.00304036
 ,-0.00244570,0.01708838,0.00007196,-0.00002766,0.00006672,0.00003813,0
 .00001185,0.00002887,-0.00030894,-0.00035722,-0.00094428,-0.00014300,-
 0.00038933,-0.00002514,-0.00033756,0.00125944,0.00121600,0.00128148,0.
 00097388,0.00290745,0.00903708,-0.00192302,0.01908338,0.00974063,-0.05
 677184,0.01751846,-0.00000268,-0.00004122,-0.00004418,0.00004223,-0.00
 000361,-0.00005248,0.00002606,-0.00001334,0.00001255,0.00000402,0.0000
 0278,0.00000086,0.00000374,-0.00000255,-0.00000312,-0.00000238,-0.0000
 1484,-0.00000083,0.00003722,0.00002156,-0.00000682,0.00004798,-0.00000
 550,-0.00001904,0.00001188,-0.00000813,0.00000718,0.00001691,-0.000067
 79,-0.00002794,-0.00002363,0.00007979,-0.00007724,-0.00014566,-0.00011
 108,-0.00040046,-0.00009909,0.00016924,-0.00031374,-0.00008107,-0.0001
 0035,-0.00025241,-0.00040852,0.00068759,-0.00040209,0.00332793,-0.0017
 6505,0.00034505,-0.00968394,0.00471319,-0.02660203,-0.00893515,0.05599
 445,0.00011698,-0.00011133,0.00022418,-0.00002512,0.00001650,0.0000034
 8,0.00992404,0.01142814,-0.02443486,-0.00013070,-0.00001690,-0.0000854
 4,0.00006679,0.00004716,-0.00016759,-0.00087536,-0.00119052,0.00269003
 ,0.00032226,0.00038846,0.00036205,0.00050511,0.00008972,0.00056158,-0.
 00236069,-0.00446714,-0.00365035,-0.00158297,-0.00112258,0.00042341,-0
 .08466156,0.02274558,-0.26844431,0.00000515,0.00000234,0.00009669,0.00
 005680,0.00001053,0.00002735,0.00010186,0.00003092,-0.00006070,0.00000
 644,-0.00000505,-0.00000003,0.00000017,-0.00000035,-0.00000145,-0.0000
 0290,0.00000173,-0.00000867,-0.00001834,-0.00001761,0.00000506,-0.0000
 7712,0.00001017,0.00007150,-0.00001623,-0.00005048,-0.00000023,-0.0001
 2158,0.00018202,0.00005612,0.00000681,-0.00006225,0.00000370,-0.000019
 82,0.00058444,-0.00006578,-0.00002188,0.00006949,0.00013169,0.00017917
 ,0.00031917,0.00017682,-0.00078541,0.00040701,0.00025532,0.00012288,-0
 .00055244,0.00136653,-0.00537075,0.00033675,-0.00993851,0.08462649,-0.
 02907401,0.30040184,0.00073025,-0.00080723,-0.00172450,0.00141261,0.00
 073366,0.01273315,-0.00074379,0.00027153,0.00004309,0.00004932,-0.0000
 7583,-0.00034425,-0.01449291,-0.00346708,-0.03300847,0.00056307,-0.000
 10542,0.00042971,0.00000502,-0.00003598,0.00012046,-0.00002569,0.00001
 821,-0.00002668,0.00011399,-0.00048005,-0.00038754,-0.00004166,-0.0000
 3166,0.00005609,0.00015894,0.00019522,-0.00017652,-0.08059888,-0.00951
 104,-0.08688788,0.00027463,0.00013386,0.00002239,-0.00019736,0.0002846
 6,0.00062642,0.00099236,0.00050608,0.00028051,0.00001293,-0.00220801,0
 .00179727,0.00003786,-0.00000779,0.00015019,0.00023271,0.00028372,-0.0
 0006422,-0.00635120,0.00026448,0.00124391,0.00112399,-0.00037514,0.000
 43217,-0.00001023,0.00002283,0.00000310,0.00001324,-0.00001006,0.00000
 008,0.00000012,-0.00000162,0.00000636,-0.00001511,0.00000209,0.0000093
 8,-0.00005680,-0.00006538,0.00011206,-0.00002932,0.00001455,0.00000676
 ,0.00000161,0.00000161,-0.00000444,-0.00001565,-0.00001881,0.00000367,
 -0.00000676,-0.00001135,0.00003150,0.09242721,0.00113760,-0.00008825,0
 .00086182,0.00808998,0.00348511,0.02458146,-0.00013435,-0.00005643,-0.
 00004277,0.00010440,-0.00020147,0.00044535,-0.00004249,-0.00035851,-0.
 00084889,-0.00040333,0.00014768,-0.00021242,-0.00000506,-0.00000283,-0
 .00002085,0.00000098,0.00000468,-0.00000763,0.00013735,-0.00002034,0.0
 0022040,-0.00000277,-0.00000376,0.00000911,0.00004207,0.00002839,-0.00
 003383,-0.01090268,-0.05443931,-0.03196641,-0.00020974,-0.00107882,0.0
 0017969,-0.00015102,0.00016861,-0.00015437,0.00064594,0.00134221,-0.00
 063537,-0.00100473,-0.00253964,0.00261502,-0.00004035,0.00009248,-0.00
 010764,0.00019803,-0.00059091,-0.00014138,-0.00008427,0.00078756,0.000
 48921,0.00009213,-0.00005268,-0.00016860,-0.00000205,-0.00000045,-0.00
 000128,-0.00001468,0.00000712,-0.00000467,0.00000232,-0.00000077,-0.00
 000187,-0.00000679,0.00000038,0.00000142,0.00001530,-0.00000984,-0.000
 01192,-0.00000627,0.00000118,0.00000176,-0.00000085,0.00000073,-0.0000
 0197,-0.00000649,-0.00000461,-0.00000123,-0.00000022,0.00000311,0.0000
 0409,0.01368235,0.05657581,0.00042680,-0.00063278,0.00089684,-0.004556
 99,-0.00418494,-0.01760111,-0.00014771,-0.00007156,-0.00003335,-0.0001
 2700,-0.00078758,-0.00130454,-0.00039191,0.00041621,0.00235247,-0.0004
 0998,0.00020811,0.00014625,0.00000339,0.00000423,0.00000782,0.00000228
 ,0.00000570,-0.00000543,0.00025478,-0.00008701,0.00012661,-0.00000515,
 -0.00000595,0.00000888,0.00005280,0.00003454,-0.00004011,-0.08545735,-
 0.02958127,-0.27233541,-0.00042761,0.00193316,0.00031620,-0.00047490,0
 .00053383,-0.00001308,0.00001875,-0.00005125,0.00148678,0.00095811,0.0
 0322993,-0.00091903,0.00007105,0.00012331,0.00024889,0.00039853,-0.000
 03662,0.00043256,0.00067736,-0.00029874,0.00114551,-0.00063302,0.00002
 205,0.00025289,-0.00000299,0.00000139,-0.00000011,-0.00000750,0.000001
 21,-0.00000489,0.00000154,-0.00000103,-0.00000159,-0.00000683,0.000001
 16,0.00000036,0.00001587,-0.00000718,-0.00000744,-0.00000700,0.0000015
 0,0.00000195,-0.00000101,0.00000085,-0.00000234,-0.00000726,-0.0000062
 5,0.00000003,-0.00000341,0.00000162,0.00000224,0.09359038,0.03101469,0
 .29558108,-0.00506394,-0.00306868,-0.00229690,0.00312069,-0.00793744,-
 0.00398946,-0.00022298,-0.00033178,-0.00016581,-0.00070421,-0.00065553
 ,0.00023651,-0.01143094,0.03032872,0.01382186,-0.00256751,0.00257541,0
 .00058879,-0.00003846,-0.00006712,-0.00014870,0.00001176,0.00003406,-0
 .00002232,0.00065769,0.00015174,0.00123658,-0.00000115,0.00000084,0.00
 002209,0.00014532,0.00005879,-0.00006222,-0.07833802,0.08114568,0.0327
 6036,0.00060717,-0.00133397,0.00050057,0.00007436,-0.00000919,0.000267
 55,-0.00102242,0.00032492,0.00006130,0.00113065,0.00008774,-0.00017033
 ,0.00007092,0.00005456,-0.00007479,0.00025695,0.00005897,-0.00000451,0
 .00141397,-0.00016051,-0.00054365,0.00170048,-0.00051780,0.00018949,0.
 00000556,-0.00001282,0.00000285,-0.00008427,0.00003714,-0.00002943,0.0
 0001427,-0.00000541,-0.00001668,-0.00003325,0.00000013,0.00000214,0.00
 000524,-0.00003182,-0.00007531,-0.00001901,-0.00000419,0.00000410,-0.0
 0000422,0.00000043,-0.00000929,-0.00002615,-0.00002001,-0.00000514,-0.
 00000770,0.00002020,-0.00000203,0.00443550,-0.01113030,-0.00380402,0.0
 8591367,-0.00125931,0.00080011,0.00020005,0.00892433,-0.01752220,-0.00
 958328,0.00014117,0.00004500,0.00002288,-0.00090591,0.00072720,0.00114
 742,-0.00149358,0.00337444,0.00201291,-0.00019410,0.00021189,0.0001662
 9,0.00000899,0.00002320,-0.00000073,0.00000231,-0.00001195,0.00000889,
 -0.00012700,-0.00004669,-0.00008458,0.00000356,0.00000288,-0.00001039,
 -0.00004982,-0.00002691,0.00003589,0.08293166,-0.25250163,-0.08489574,
 -0.00003968,-0.00473314,0.00214720,0.00007852,0.00004530,-0.00001202,-
 0.00092690,-0.00063253,0.00076238,0.00060279,0.00154680,0.00005105,0.0
 0009658,-0.00003762,-0.00003912,0.00009977,0.00000663,-0.00006062,0.00
 038976,-0.00001290,-0.00000059,0.00049570,0.00055254,0.00001223,-0.000
 00223,-0.00000021,-0.00000116,0.00001130,-0.00000498,0.00000286,-0.000
 00136,0.00000158,0.00000035,0.00000962,0.00000005,-0.00000360,-0.00001
 949,0.00000887,-0.00003520,0.00000720,-0.00000020,-0.00000173,0.000001
 22,-0.00000112,0.00000243,0.00000825,0.00000693,-0.00000069,0.00000182
 ,-0.00000182,-0.00000355,0.00079761,-0.00319644,-0.00178133,-0.0895927
 7,0.27137694,0.00048181,0.00032426,0.00080680,-0.00829458,0.01666320,0
 .00602779,0.00009194,0.00003166,0.00003795,0.00047334,-0.00044945,-0.0
 0139500,-0.00008991,0.00019636,-0.00106166,0.00030275,-0.00028815,0.00
 019908,0.00001214,0.00001884,0.00005777,-0.00000568,-0.00000523,0.0000
 0505,-0.00005400,-0.00005936,-0.00025652,0.00000248,0.00000088,-0.0000
 0764,-0.00004014,-0.00002600,0.00002166,0.03449728,-0.08687873,-0.0826
 6161,-0.00051761,0.00570385,-0.00200679,-0.00020725,0.00021500,0.00017
 974,0.00090602,0.00017182,0.00010238,-0.00081367,0.00019516,0.00111406
 ,-0.00001122,0.00003521,0.00024298,0.00020185,0.00009210,0.00030074,0.
 00027324,0.00028131,0.00029264,0.00008352,-0.00010074,-0.00001527,-0.0
 0000170,-0.00000018,-0.00000178,0.00002152,-0.00001335,0.00000504,-0.0
 0000260,0.00000144,0.00000215,0.00000669,-0.00000041,-0.00000161,0.000
 01842,0.00000908,0.00002419,0.00000565,0.00000017,-0.00000135,0.000000
 66,-0.00000041,0.00000215,0.00000521,0.00000470,0.00000217,0.00000158,
 -0.00000363,-0.00000167,0.01092587,-0.02606090,-0.01073894,-0.03827363
 ,0.08994150,0.08872548\\-0.00055932,-0.00189828,0.00189308,0.00003368,
 -0.00001694,0.00000594,0.00001056,0.00001697,0.00000031,-0.00002633,0.
 00000149,0.00002705,0.00028921,0.00081233,-0.00125843,0.00066396,0.002
 72611,-0.00073471,0.00000255,-0.00000198,0.00001435,-0.00000851,0.0000
 0459,0.00000161,-0.00037399,-0.00163851,0.00006951,-0.00000170,-0.0000
 0663,0.00000337,-0.00000306,-0.00001116,0.00001166,-0.00000226,-0.0000
 0102,-0.00000267,-0.00001319,0.00002401,-0.00002288,-0.00000243,0.0000
 0656,0.00000101,-0.00000898,0.00000023,-0.00000461,-0.00000429,0.00000
 096,0.00000366,0.00001100,-0.00000093,-0.00000082,-0.00000901,-0.00000
 152,-0.00000181,-0.00000038,0.00000424,0.00000393,0.00000104,0.0000041
 9,-0.00000436,-0.00000547,-0.00000292,-0.00000898,-0.00000283,-0.00000
 526,-0.00000078,-0.00000118,-0.00000228,-0.00000598,0.00000269,-0.0000
 0495,0.00000106,-0.00000590,-0.00001050,0.00001394,-0.00000217,-0.0000
 0426,-0.00000519,0.00000379,-0.00000350,0.00000174,0.00000381,0.000001
 76,0.00000193,-0.00000009,0.00000087,-0.00000592,-0.00000111,0.0000025
 8,-0.00000193,0.00000994,0.00000375,0.00000491\\\@


 IF YOU GIVE A BOY AND A PIG EVERYTHING THEY WANT,
 YOU'LL GET A BAD BOY AND A GOOD PIG.
 Job cpu time:       0 days 14 hours 31 minutes 29.7 seconds.
 Elapsed time:       0 days  0 hours 54 minutes 29.5 seconds.
 File lengths (MBytes):  RWF=    685 Int=      0 D2E=      0 Chk=     33 Scr=      1
 Normal termination of Gaussian 16 at Sun Nov  4 22:50:45 2018.
