 Entering Gaussian System, Link 0=g16
 Initial command:
 /apps/gaussian/g16a03/g16/l1.exe "/jobfs/local/2011824.r-man2/Gau-19019.inp" -scrdir="/jobfs/local/2011824.r-man2/"
 Entering Link 1 = /apps/gaussian/g16a03/g16/l1.exe PID=     19020.
  
 Copyright (c) 1988,1990,1992,1993,1995,1998,2003,2009,2016,
            Gaussian, Inc.  All Rights Reserved.
  
 This is part of the Gaussian(R) 16 program.  It is based on
 the Gaussian(R) 09 system (copyright 2009, Gaussian, Inc.),
 the Gaussian(R) 03 system (copyright 2003, Gaussian, Inc.),
 the Gaussian(R) 98 system (copyright 1998, Gaussian, Inc.),
 the Gaussian(R) 94 system (copyright 1995, Gaussian, Inc.),
 the Gaussian 92(TM) system (copyright 1992, Gaussian, Inc.),
 the Gaussian 90(TM) system (copyright 1990, Gaussian, Inc.),
 the Gaussian 88(TM) system (copyright 1988, Gaussian, Inc.),
 the Gaussian 86(TM) system (copyright 1986, Carnegie Mellon
 University), and the Gaussian 82(TM) system (copyright 1983,
 Carnegie Mellon University). Gaussian is a federally registered
 trademark of Gaussian, Inc.
  
 This software contains proprietary and confidential information,
 including trade secrets, belonging to Gaussian, Inc.
  
 This software is provided under written license and may be
 used, copied, transmitted, or stored only in accord with that
 written license.
  
 The following legend is applicable only to US Government
 contracts under FAR:
  
                    RESTRICTED RIGHTS LEGEND
  
 Use, reproduction and disclosure by the US Government is
 subject to restrictions as set forth in subparagraphs (a)
 and (c) of the Commercial Computer Software - Restricted
 Rights clause in FAR 52.227-19.
  
 Gaussian, Inc.
 340 Quinnipiac St., Bldg. 40, Wallingford CT 06492
  
  
 ---------------------------------------------------------------
 Warning -- This program may not be used in any manner that
 competes with the business of Gaussian, Inc. or will provide
 assistance to any competitor of Gaussian, Inc.  The licensee
 of this program is prohibited from giving any competitor of
 Gaussian, Inc. access to this program.  By using this program,
 the user acknowledges that Gaussian, Inc. is engaged in the
 business of creating and licensing software in the field of
 computational chemistry and represents and warrants to the
 licensee that it is not a competitor of Gaussian, Inc. and that
 it will not use this program in any manner prohibited above.
 ---------------------------------------------------------------
  

 Cite this work as:
 Gaussian 16, Revision A.03,
 M. J. Frisch, G. W. Trucks, H. B. Schlegel, G. E. Scuseria, 
 M. A. Robb, J. R. Cheeseman, G. Scalmani, V. Barone, 
 G. A. Petersson, H. Nakatsuji, X. Li, M. Caricato, A. V. Marenich, 
 J. Bloino, B. G. Janesko, R. Gomperts, B. Mennucci, H. P. Hratchian, 
 J. V. Ortiz, A. F. Izmaylov, J. L. Sonnenberg, D. Williams-Young, 
 F. Ding, F. Lipparini, F. Egidi, J. Goings, B. Peng, A. Petrone, 
 T. Henderson, D. Ranasinghe, V. G. Zakrzewski, J. Gao, N. Rega, 
 G. Zheng, W. Liang, M. Hada, M. Ehara, K. Toyota, R. Fukuda, 
 J. Hasegawa, M. Ishida, T. Nakajima, Y. Honda, O. Kitao, H. Nakai, 
 T. Vreven, K. Throssell, J. A. Montgomery, Jr., J. E. Peralta, 
 F. Ogliaro, M. J. Bearpark, J. J. Heyd, E. N. Brothers, K. N. Kudin, 
 V. N. Staroverov, T. A. Keith, R. Kobayashi, J. Normand, 
 K. Raghavachari, A. P. Rendell, J. C. Burant, S. S. Iyengar, 
 J. Tomasi, M. Cossi, J. M. Millam, M. Klene, C. Adamo, R. Cammi, 
 J. W. Ochterski, R. L. Martin, K. Morokuma, O. Farkas, 
 J. B. Foresman, and D. J. Fox, Gaussian, Inc., Wallingford CT, 2016.
 
 ******************************************
 Gaussian 16:  ES64L-G16RevA.03 25-Dec-2016
                 4-Nov-2018 
 ******************************************
 %mem=6000mb
 %nproc=24
 Will use up to   24 processors via shared memory.
 %chk=2SO_1_e4_D_PHI.inp_extract_14.chk
 ----------------------------------------------------------------------
 #M062X/6-311++G(2d,2p) opt=ModRedundant freq=noraman SCRF=(Solvent=Wat
 er)
 ----------------------------------------------------------------------
 1/18=120,19=15,26=3,38=1/1,3;
 2/9=110,12=2,17=6,18=5,40=1/2;
 3/5=4,6=6,7=1212,11=2,25=1,30=1,70=2201,71=1,72=1,74=-55/1,2,3;
 4//1;
 5/5=2,38=5,53=1/2;
 6/7=2,8=2,9=2,10=2,28=1/1;
 7//1,2,3,16;
 1/18=20,19=15,26=3/3(2);
 2/9=110/2;
 99//99;
 2/9=110/2;
 3/5=4,6=6,7=1212,11=2,25=1,30=1,70=2205,71=1,72=1,74=-55/1,2,3;
 4/5=5,16=3,69=1/1;
 5/5=2,38=5,53=1/2;
 7//1,2,3,16;
 1/18=20,19=15,26=3/3(-5);
 2/9=110/2;
 6/7=2,8=2,9=2,10=2,19=2,28=1/1;
 99/9=1/99;
 -----------------------------
 2SO_1_e4_D_PHI.inp_extract_14
 -----------------------------
 Symbolic Z-matrix:
 Charge =  0 Multiplicity = 1
 C                     1.04111   0.09496  -0.04557 
 C                    -3.7397    0.05465   0.81459 
 C                    -1.30784  -0.14037  -0.8728 
 C                    -2.86362   1.21418   0.33817 
 C                    -3.10996  -1.2839    0.39034 
 C                     1.82601  -1.08344  -0.61345 
 C                     1.93864   1.32332   0.04408 
 C                     3.89135   0.01455   0.28595 
 O                     3.0831    1.04763   0.821 
 C                     3.1133   -1.2876    0.18984 
 O                    -0.03737   0.47123  -0.87996 
 C                    -1.59461  -1.12263   0.26285 
 O                    -2.26076   0.89048  -0.90413 
 H                     0.6932   -0.13689   0.95101 
 H                    -4.73911   0.14633   0.4018 
 H                    -3.83201   0.10948   1.89546 
 H                    -1.4138   -0.64666  -1.82155 
 H                    -3.44113   2.11115   0.16672 
 H                    -2.09215   1.44976   1.06275 
 H                    -3.51993  -1.60368  -0.56338 
 H                    -3.34192  -2.06233   1.10877 
 H                     1.22207  -1.98459  -0.60433 
 H                     2.07134  -0.86502  -1.65061 
 H                     1.41881   2.1396    0.52623 
 H                     2.23718   1.63961  -0.95259 
 H                     4.25153   0.31902  -0.69421 
 H                     4.7412   -0.07923   0.948 
 H                     3.73585  -2.04519  -0.27668 
 H                     2.87557  -1.63467   1.1924 
 H                    -1.20282  -0.7665    1.20693 
 H                    -1.1117   -2.0672    0.044 
 
 The following ModRedundant input section has been read:
 D      13       3      11       1 F                                           
 

 GradGradGradGradGradGradGradGradGradGradGradGradGradGradGradGradGradGrad
 Berny optimization.
 Initialization pass.
                           ----------------------------
                           !    Initial Parameters    !
                           ! (Angstroms and Degrees)  !
 --------------------------                            --------------------------
 ! Name  Definition              Value          Derivative Info.                !
 --------------------------------------------------------------------------------
 ! R1    R(1,6)                  1.5255         estimate D2E/DX2                !
 ! R2    R(1,7)                  1.524          estimate D2E/DX2                !
 ! R3    R(1,11)                 1.4145         estimate D2E/DX2                !
 ! R4    R(1,14)                 1.0807         estimate D2E/DX2                !
 ! R5    R(2,4)                  1.5294         estimate D2E/DX2                !
 ! R6    R(2,5)                  1.5389         estimate D2E/DX2                !
 ! R7    R(2,15)                 1.0852         estimate D2E/DX2                !
 ! R8    R(2,16)                 1.0862         estimate D2E/DX2                !
 ! R9    R(3,11)                 1.41           estimate D2E/DX2                !
 ! R10   R(3,12)                 1.5287         estimate D2E/DX2                !
 ! R11   R(3,13)                 1.4042         estimate D2E/DX2                !
 ! R12   R(3,17)                 1.0806         estimate D2E/DX2                !
 ! R13   R(4,13)                 1.4183         estimate D2E/DX2                !
 ! R14   R(4,18)                 1.0805         estimate D2E/DX2                !
 ! R15   R(4,19)                 1.0843         estimate D2E/DX2                !
 ! R16   R(5,12)                 1.5292         estimate D2E/DX2                !
 ! R17   R(5,20)                 1.0862         estimate D2E/DX2                !
 ! R18   R(5,21)                 1.0844         estimate D2E/DX2                !
 ! R19   R(6,10)                 1.531          estimate D2E/DX2                !
 ! R20   R(6,22)                 1.0848         estimate D2E/DX2                !
 ! R21   R(6,23)                 1.0879         estimate D2E/DX2                !
 ! R22   R(7,9)                  1.4105         estimate D2E/DX2                !
 ! R23   R(7,24)                 1.0812         estimate D2E/DX2                !
 ! R24   R(7,25)                 1.0874         estimate D2E/DX2                !
 ! R25   R(8,9)                  1.4166         estimate D2E/DX2                !
 ! R26   R(8,10)                 1.5199         estimate D2E/DX2                !
 ! R27   R(8,26)                 1.0877         estimate D2E/DX2                !
 ! R28   R(8,27)                 1.0814         estimate D2E/DX2                !
 ! R29   R(10,28)                1.0859         estimate D2E/DX2                !
 ! R30   R(10,29)                1.0872         estimate D2E/DX2                !
 ! R31   R(12,30)                1.0824         estimate D2E/DX2                !
 ! R32   R(12,31)                1.0832         estimate D2E/DX2                !
 ! A1    A(6,1,7)              109.9687         estimate D2E/DX2                !
 ! A2    A(6,1,11)             112.2205         estimate D2E/DX2                !
 ! A3    A(6,1,14)             110.0711         estimate D2E/DX2                !
 ! A4    A(7,1,11)             105.6241         estimate D2E/DX2                !
 ! A5    A(7,1,14)             107.9551         estimate D2E/DX2                !
 ! A6    A(11,1,14)            110.828          estimate D2E/DX2                !
 ! A7    A(4,2,5)              109.826          estimate D2E/DX2                !
 ! A8    A(4,2,15)             110.1823         estimate D2E/DX2                !
 ! A9    A(4,2,16)             108.6869         estimate D2E/DX2                !
 ! A10   A(5,2,15)             110.2113         estimate D2E/DX2                !
 ! A11   A(5,2,16)             110.6718         estimate D2E/DX2                !
 ! A12   A(15,2,16)            107.2172         estimate D2E/DX2                !
 ! A13   A(11,3,12)            116.8408         estimate D2E/DX2                !
 ! A14   A(11,3,13)            107.0332         estimate D2E/DX2                !
 ! A15   A(11,3,17)            106.6851         estimate D2E/DX2                !
 ! A16   A(12,3,13)            111.1617         estimate D2E/DX2                !
 ! A17   A(12,3,17)            109.4393         estimate D2E/DX2                !
 ! A18   A(13,3,17)            104.9412         estimate D2E/DX2                !
 ! A19   A(2,4,13)             110.0787         estimate D2E/DX2                !
 ! A20   A(2,4,18)             111.8792         estimate D2E/DX2                !
 ! A21   A(2,4,19)             111.3538         estimate D2E/DX2                !
 ! A22   A(13,4,18)            106.1211         estimate D2E/DX2                !
 ! A23   A(13,4,19)            109.4201         estimate D2E/DX2                !
 ! A24   A(18,4,19)            107.816          estimate D2E/DX2                !
 ! A25   A(2,5,12)             109.6792         estimate D2E/DX2                !
 ! A26   A(2,5,20)             110.1006         estimate D2E/DX2                !
 ! A27   A(2,5,21)             110.7448         estimate D2E/DX2                !
 ! A28   A(12,5,20)            109.3812         estimate D2E/DX2                !
 ! A29   A(12,5,21)            110.0537         estimate D2E/DX2                !
 ! A30   A(20,5,21)            106.8351         estimate D2E/DX2                !
 ! A31   A(1,6,10)             109.8946         estimate D2E/DX2                !
 ! A32   A(1,6,22)             110.6157         estimate D2E/DX2                !
 ! A33   A(1,6,23)             108.4104         estimate D2E/DX2                !
 ! A34   A(10,6,22)            110.6648         estimate D2E/DX2                !
 ! A35   A(10,6,23)            109.7161         estimate D2E/DX2                !
 ! A36   A(22,6,23)            107.477          estimate D2E/DX2                !
 ! A37   A(1,7,9)              110.6543         estimate D2E/DX2                !
 ! A38   A(1,7,24)             110.5855         estimate D2E/DX2                !
 ! A39   A(1,7,25)             110.012          estimate D2E/DX2                !
 ! A40   A(9,7,24)             106.9804         estimate D2E/DX2                !
 ! A41   A(9,7,25)             109.8128         estimate D2E/DX2                !
 ! A42   A(24,7,25)            108.7304         estimate D2E/DX2                !
 ! A43   A(9,8,10)             110.8906         estimate D2E/DX2                !
 ! A44   A(9,8,26)             108.9746         estimate D2E/DX2                !
 ! A45   A(9,8,27)             106.2837         estimate D2E/DX2                !
 ! A46   A(10,8,26)            110.6307         estimate D2E/DX2                !
 ! A47   A(10,8,27)            111.5135         estimate D2E/DX2                !
 ! A48   A(26,8,27)            108.4045         estimate D2E/DX2                !
 ! A49   A(7,9,8)              113.4181         estimate D2E/DX2                !
 ! A50   A(6,10,8)             110.4467         estimate D2E/DX2                !
 ! A51   A(6,10,28)            110.4661         estimate D2E/DX2                !
 ! A52   A(6,10,29)            110.0311         estimate D2E/DX2                !
 ! A53   A(8,10,28)            109.3534         estimate D2E/DX2                !
 ! A54   A(8,10,29)            109.0933         estimate D2E/DX2                !
 ! A55   A(28,10,29)           107.3859         estimate D2E/DX2                !
 ! A56   A(1,11,3)             124.6523         estimate D2E/DX2                !
 ! A57   A(3,12,5)             108.3963         estimate D2E/DX2                !
 ! A58   A(3,12,30)            111.6323         estimate D2E/DX2                !
 ! A59   A(3,12,31)            109.0626         estimate D2E/DX2                !
 ! A60   A(5,12,30)            108.7031         estimate D2E/DX2                !
 ! A61   A(5,12,31)            111.5095         estimate D2E/DX2                !
 ! A62   A(30,12,31)           107.5633         estimate D2E/DX2                !
 ! A63   A(3,13,4)             115.8788         estimate D2E/DX2                !
 ! D1    D(7,1,6,10)            52.7642         estimate D2E/DX2                !
 ! D2    D(7,1,6,22)           175.2516         estimate D2E/DX2                !
 ! D3    D(7,1,6,23)           -67.142          estimate D2E/DX2                !
 ! D4    D(11,1,6,10)          170.0207         estimate D2E/DX2                !
 ! D5    D(11,1,6,22)          -67.492          estimate D2E/DX2                !
 ! D6    D(11,1,6,23)           50.1145         estimate D2E/DX2                !
 ! D7    D(14,1,6,10)          -66.0492         estimate D2E/DX2                !
 ! D8    D(14,1,6,22)           56.4381         estimate D2E/DX2                !
 ! D9    D(14,1,6,23)          174.0446         estimate D2E/DX2                !
 ! D10   D(6,1,7,9)            -56.6202         estimate D2E/DX2                !
 ! D11   D(6,1,7,24)          -174.9777         estimate D2E/DX2                !
 ! D12   D(6,1,7,25)            64.8999         estimate D2E/DX2                !
 ! D13   D(11,1,7,9)          -177.9131         estimate D2E/DX2                !
 ! D14   D(11,1,7,24)           63.7294         estimate D2E/DX2                !
 ! D15   D(11,1,7,25)          -56.3931         estimate D2E/DX2                !
 ! D16   D(14,1,7,9)            63.4842         estimate D2E/DX2                !
 ! D17   D(14,1,7,24)          -54.8733         estimate D2E/DX2                !
 ! D18   D(14,1,7,25)         -174.9957         estimate D2E/DX2                !
 ! D19   D(6,1,11,3)            83.6218         estimate D2E/DX2                !
 ! D20   D(7,1,11,3)          -156.5566         estimate D2E/DX2                !
 ! D21   D(14,1,11,3)          -39.8854         estimate D2E/DX2                !
 ! D22   D(5,2,4,13)            34.2459         estimate D2E/DX2                !
 ! D23   D(5,2,4,18)           151.9801         estimate D2E/DX2                !
 ! D24   D(5,2,4,19)           -87.2885         estimate D2E/DX2                !
 ! D25   D(15,2,4,13)          -87.3417         estimate D2E/DX2                !
 ! D26   D(15,2,4,18)           30.3925         estimate D2E/DX2                !
 ! D27   D(15,2,4,19)          151.124          estimate D2E/DX2                !
 ! D28   D(16,2,4,13)          155.4497         estimate D2E/DX2                !
 ! D29   D(16,2,4,18)          -86.8162         estimate D2E/DX2                !
 ! D30   D(16,2,4,19)           33.9153         estimate D2E/DX2                !
 ! D31   D(4,2,5,12)            27.2081         estimate D2E/DX2                !
 ! D32   D(4,2,5,20)           -93.2015         estimate D2E/DX2                !
 ! D33   D(4,2,5,21)           148.8682         estimate D2E/DX2                !
 ! D34   D(15,2,5,12)          148.7783         estimate D2E/DX2                !
 ! D35   D(15,2,5,20)           28.3687         estimate D2E/DX2                !
 ! D36   D(15,2,5,21)          -89.5616         estimate D2E/DX2                !
 ! D37   D(16,2,5,12)          -92.7954         estimate D2E/DX2                !
 ! D38   D(16,2,5,20)          146.795          estimate D2E/DX2                !
 ! D39   D(16,2,5,21)           28.8647         estimate D2E/DX2                !
 ! D40   D(12,3,11,1)           10.0012         estimate D2E/DX2                !
 ! D41   D(13,3,11,1)          135.3239         Frozen                          !
 ! D42   D(17,3,11,1)         -112.7546         estimate D2E/DX2                !
 ! D43   D(11,3,12,5)          160.1808         estimate D2E/DX2                !
 ! D44   D(11,3,12,30)          40.4824         estimate D2E/DX2                !
 ! D45   D(11,3,12,31)         -78.2354         estimate D2E/DX2                !
 ! D46   D(13,3,12,5)           36.9563         estimate D2E/DX2                !
 ! D47   D(13,3,12,30)         -82.7421         estimate D2E/DX2                !
 ! D48   D(13,3,12,31)         158.5401         estimate D2E/DX2                !
 ! D49   D(17,3,12,5)          -78.4989         estimate D2E/DX2                !
 ! D50   D(17,3,12,30)         161.8027         estimate D2E/DX2                !
 ! D51   D(17,3,12,31)          43.0849         estimate D2E/DX2                !
 ! D52   D(11,3,13,4)         -100.7591         estimate D2E/DX2                !
 ! D53   D(12,3,13,4)           27.9208         estimate D2E/DX2                !
 ! D54   D(17,3,13,4)          146.1279         estimate D2E/DX2                !
 ! D55   D(2,4,13,3)           -67.4069         estimate D2E/DX2                !
 ! D56   D(18,4,13,3)          171.351          estimate D2E/DX2                !
 ! D57   D(19,4,13,3)           55.2728         estimate D2E/DX2                !
 ! D58   D(2,5,12,3)           -64.5743         estimate D2E/DX2                !
 ! D59   D(2,5,12,30)           56.9429         estimate D2E/DX2                !
 ! D60   D(2,5,12,31)          175.3577         estimate D2E/DX2                !
 ! D61   D(20,5,12,3)           56.2713         estimate D2E/DX2                !
 ! D62   D(20,5,12,30)         177.7886         estimate D2E/DX2                !
 ! D63   D(20,5,12,31)         -63.7967         estimate D2E/DX2                !
 ! D64   D(21,5,12,3)          173.3521         estimate D2E/DX2                !
 ! D65   D(21,5,12,30)         -65.1306         estimate D2E/DX2                !
 ! D66   D(21,5,12,31)          53.2841         estimate D2E/DX2                !
 ! D67   D(1,6,10,8)           -52.1342         estimate D2E/DX2                !
 ! D68   D(1,6,10,28)         -173.2418         estimate D2E/DX2                !
 ! D69   D(1,6,10,29)           68.3636         estimate D2E/DX2                !
 ! D70   D(22,6,10,8)         -174.5925         estimate D2E/DX2                !
 ! D71   D(22,6,10,28)          64.2999         estimate D2E/DX2                !
 ! D72   D(22,6,10,29)         -54.0946         estimate D2E/DX2                !
 ! D73   D(23,6,10,8)           66.9747         estimate D2E/DX2                !
 ! D74   D(23,6,10,28)         -54.1329         estimate D2E/DX2                !
 ! D75   D(23,6,10,29)        -172.5274         estimate D2E/DX2                !
 ! D76   D(1,7,9,8)             61.1598         estimate D2E/DX2                !
 ! D77   D(24,7,9,8)          -178.3102         estimate D2E/DX2                !
 ! D78   D(25,7,9,8)           -60.4777         estimate D2E/DX2                !
 ! D79   D(10,8,9,7)           -60.3238         estimate D2E/DX2                !
 ! D80   D(26,8,9,7)            61.6841         estimate D2E/DX2                !
 ! D81   D(27,8,9,7)           178.3158         estimate D2E/DX2                !
 ! D82   D(9,8,10,6)            54.9004         estimate D2E/DX2                !
 ! D83   D(9,8,10,28)          176.6673         estimate D2E/DX2                !
 ! D84   D(9,8,10,29)          -66.157          estimate D2E/DX2                !
 ! D85   D(26,8,10,6)          -66.1351         estimate D2E/DX2                !
 ! D86   D(26,8,10,28)          55.6317         estimate D2E/DX2                !
 ! D87   D(26,8,10,29)         172.8075         estimate D2E/DX2                !
 ! D88   D(27,8,10,6)          173.1327         estimate D2E/DX2                !
 ! D89   D(27,8,10,28)         -65.1005         estimate D2E/DX2                !
 ! D90   D(27,8,10,29)          52.0753         estimate D2E/DX2                !
 --------------------------------------------------------------------------------
 Trust Radius=3.00D-01 FncErr=1.00D-07 GrdErr=1.00D-06 EigMax=2.50D+02 EigMin=1.00D-04
 Number of steps in this run=    186 maximum allowed number of steps=    186.
 GradGradGradGradGradGradGradGradGradGradGradGradGradGradGradGradGradGrad

                          Input orientation:                          
 ---------------------------------------------------------------------
 Center     Atomic      Atomic             Coordinates (Angstroms)
 Number     Number       Type             X           Y           Z
 ---------------------------------------------------------------------
      1          6           0        1.041113    0.094963   -0.045569
      2          6           0       -3.739700    0.054648    0.814589
      3          6           0       -1.307840   -0.140368   -0.872795
      4          6           0       -2.863619    1.214180    0.338168
      5          6           0       -3.109959   -1.283895    0.390336
      6          6           0        1.826012   -1.083443   -0.613453
      7          6           0        1.938639    1.323317    0.044076
      8          6           0        3.891347    0.014549    0.285945
      9          8           0        3.083095    1.047629    0.821004
     10          6           0        3.113300   -1.287599    0.189843
     11          8           0       -0.037369    0.471225   -0.879958
     12          6           0       -1.594610   -1.122629    0.262854
     13          8           0       -2.260761    0.890483   -0.904131
     14          1           0        0.693202   -0.136891    0.951013
     15          1           0       -4.739111    0.146328    0.401798
     16          1           0       -3.832007    0.109476    1.895455
     17          1           0       -1.413798   -0.646663   -1.821550
     18          1           0       -3.441126    2.111145    0.166719
     19          1           0       -2.092148    1.449759    1.062750
     20          1           0       -3.519931   -1.603681   -0.563376
     21          1           0       -3.341922   -2.062331    1.108766
     22          1           0        1.222073   -1.984587   -0.604334
     23          1           0        2.071340   -0.865022   -1.650605
     24          1           0        1.418805    2.139602    0.526228
     25          1           0        2.237178    1.639611   -0.952590
     26          1           0        4.251533    0.319021   -0.694210
     27          1           0        4.741202   -0.079225    0.948003
     28          1           0        3.735853   -2.045194   -0.276683
     29          1           0        2.875570   -1.634668    1.192395
     30          1           0       -1.202819   -0.766501    1.206931
     31          1           0       -1.111700   -2.067202    0.044003
 ---------------------------------------------------------------------
                    Distance matrix (angstroms):
                    1          2          3          4          5
     1  C    0.000000
     2  C    4.857743   0.000000
     3  C    2.501452   2.966351   0.000000
     4  C    4.080053   1.529382   2.392003   0.000000
     5  C    4.395755   1.538916   2.480078   2.510734   0.000000
     6  C    1.525516   5.857619   3.282937   5.308229   5.040990
     7  C    1.523956   5.869135   3.677316   4.812492   5.692609
     8  C    2.870575   7.649441   5.328998   6.860861   7.121456
     9  O    2.414169   6.894678   4.853926   5.968608   6.631395
    10  C    2.502170   7.011101   4.689543   6.481085   6.226489
    11  O    1.414532   4.092955   1.410033   3.165991   3.759641
    12  C    2.919707   2.508347   1.528651   2.660213   1.529229
    13  O    3.503192   2.416584   1.404170   1.418282   2.669214
    14  H    1.080728   4.439135   2.707482   3.853822   4.011734
    15  H    5.797738   1.085184   3.671567   2.159126   2.167903
    16  H    5.245482   1.086185   3.754604   2.140862   2.174447
    17  H    3.119408   3.584813   1.080601   3.198296   2.859277
    18  H    4.919403   2.176709   3.271209   1.080488   3.418475
    19  H    3.589034   2.173096   2.624877   1.084290   2.993484
    20  H    4.894552   2.167289   2.670276   3.030490   1.086235
    21  H    5.019701   2.174021   3.428996   3.399723   1.084394
    22  H    2.160901   5.548965   3.142240   5.273832   4.499649
    23  H    2.135200   6.378962   3.542452   5.712453   5.584510
    24  H    2.156421   5.571388   3.819702   4.385308   5.678776
    25  H    2.153879   6.431026   3.967599   5.278748   6.240370
    26  H    3.282946   8.136718   5.581179   7.245171   7.611645
    27  H    3.835125   8.483008   6.317432   7.738094   7.962597
    28  H    3.448958   7.841180   5.424256   7.386108   6.920234
    29  H    2.808809   6.838006   4.898863   6.464049   6.049206
    30  H    2.710370   2.695178   2.174473   2.726922   2.138155
    31  H    3.052472   3.464453   2.142820   3.731383   2.174064
                    6          7          8          9         10
     6  C    0.000000
     7  C    2.497503   0.000000
     8  C    2.506015   2.363143   0.000000
     9  O    2.859964   1.410461   1.416621   0.000000
    10  C    1.531037   2.866698   1.519928   2.419208   0.000000
    11  O    2.441353   2.341902   4.123432   3.600390   3.763596
    12  C    3.531303   4.302832   5.602627   5.186760   4.711365
    13  O    4.547812   4.326824   6.327083   5.617614   5.900962
    14  H    2.150994   2.122700   3.270074   2.670502   2.785746
    15  H    6.756028   6.790111   8.632241   7.885112   7.985075
    16  H    6.303242   6.180726   7.889850   7.060681   7.286853
    17  H    3.485204   4.312797   5.746590   5.484137   4.995109
    18  H    6.209412   5.438528   7.627260   6.642636   7.383258
    19  H    4.957696   4.159438   6.202053   5.196469   5.945737
    20  H    5.371430   6.223528   7.633286   7.248855   6.683338
    21  H    5.534600   6.362429   7.570379   7.143914   6.566165
    22  H    1.084844   3.446176   3.451690   3.832666   2.166391
    23  H    1.087924   2.770989   2.799339   3.284925   2.156734
    24  H    3.442776   1.081212   3.269105   2.012252   3.837991
    25  H    2.774724   1.087433   2.628892   2.052231   3.262101
    26  H    2.802959   2.627386   1.087723   2.047435   2.158322
    27  H    3.456144   3.261682   1.081373   2.008793   2.164495
    28  H    2.164687   3.831414   2.140857   3.346127   1.085895
    29  H    2.160210   3.308497   2.138544   2.715827   1.087236
    30  H    3.547967   3.948206   5.235340   4.670018   4.464851
    31  H    3.167046   4.560722   5.424270   5.282254   4.298799
                   11         12         13         14         15
    11  O    0.000000
    12  C    2.504274   0.000000
    13  O    2.262705   2.420378   0.000000
    14  H    2.063006   2.584439   3.636338   0.000000
    15  H    4.884141   3.393736   2.898523   5.467346   0.000000
    16  H    4.715194   3.031405   3.304008   4.629275   1.747915
    17  H    2.007692   2.145688   1.980359   3.519435   4.077967
    18  H    3.920514   3.725071   2.007485   4.770896   2.366545
    19  H    2.992283   2.739445   2.051790   3.207510   3.023608
    20  H    4.066165   2.149634   2.814690   4.711193   2.341045
    21  H    4.614542   2.156781   3.733601   4.473749   2.707419
    22  H    2.773657   3.070617   4.526151   2.472406   6.410056
    23  H    2.612682   4.143293   4.733510   3.032797   7.184527
    24  H    2.623220   4.448841   4.140704   2.426801   6.473682
    25  H    2.558118   4.877486   4.560153   3.027132   7.261740
    26  H    4.295620   6.096861   6.540689   3.946686   9.058848
    27  H    5.145792   6.457603   7.307409   4.048412   9.498713
    28  H    4.575315   5.436549   6.706062   3.795600   8.779984
    29  H    4.149054   4.594425   6.095384   2.657881   7.860048
    30  H    2.691718   1.082409   2.884687   2.014150   3.739901
    31  H    2.907147   1.083197   3.311676   2.794001   4.264486
                   16         17         18         19         20
    16  H    0.000000
    17  H    4.498401   0.000000
    18  H    2.673573   3.958381   0.000000
    19  H    2.348801   3.629646   1.749298   0.000000
    20  H    3.012997   2.633378   3.786711   3.742505   0.000000
    21  H    2.361315   3.782662   4.279626   3.728113   1.743016
    22  H    6.014796   3.196791   6.254196   5.055488   4.757454
    23  H    6.955120   3.496154   6.522846   5.482257   5.743692
    24  H    5.793723   4.615081   4.873293   3.618084   6.292100
    25  H    6.876604   4.394515   5.806749   4.779195   6.619270
    26  H    8.490812   5.856570   7.945433   6.678905   8.006844
    27  H    8.627467   6.773215   8.506387   7.003259   8.535488
    28  H    8.162922   5.555305   8.305467   6.926354   7.274856
    29  H    6.966198   5.334669   7.415104   5.848822   6.632204
    30  H    2.855526   3.038185   3.791162   2.392384   3.033787
    31  H    3.945361   2.364209   4.785381   3.790533   2.526527
                   21         22         23         24         25
    21  H    0.000000
    22  H    4.875531   0.000000
    23  H    6.192825   1.751960   0.000000
    24  H    6.376528   4.280865   3.767250   0.000000
    25  H    7.005706   3.779753   2.605362   1.762563   0.000000
    26  H    8.159787   3.806877   2.658927   3.581666   2.422467
    27  H    8.324389   4.292368   3.807677   4.017388   3.582846
    28  H    7.212119   2.535768   2.459893   4.850350   4.034931
    29  H    6.232744   2.466725   3.053161   4.100129   3.966032
    30  H    2.502913   3.262593   4.346877   3.972619   4.720856
    31  H    2.471363   2.423564   3.801141   4.932869   5.093981
                   26         27         28         29         30
    26  H    0.000000
    27  H    1.759329   0.000000
    28  H    2.455558   2.524998   0.000000
    29  H    3.044578   2.441252   1.751231   0.000000
    30  H    5.877300   5.989222   5.312876   4.169794   0.000000
    31  H    5.916358   6.247058   4.858199   4.171836   1.747148
                   31
    31  H    0.000000
 Stoichiometry    C10H18O3
 Framework group  C1[X(C10H18O3)]
 Deg. of freedom    87
 Full point group                 C1      NOp   1
 Largest Abelian subgroup         C1      NOp   1
 Largest concise Abelian subgroup C1      NOp   1
                         Standard orientation:                         
 ---------------------------------------------------------------------
 Center     Atomic      Atomic             Coordinates (Angstroms)
 Number     Number       Type             X           Y           Z
 ---------------------------------------------------------------------
      1          6           0        1.041113   -0.094963    0.045569
      2          6           0       -3.739700   -0.054648   -0.814589
      3          6           0       -1.307840    0.140368    0.872795
      4          6           0       -2.863619   -1.214180   -0.338168
      5          6           0       -3.109959    1.283895   -0.390336
      6          6           0        1.826012    1.083443    0.613453
      7          6           0        1.938639   -1.323317   -0.044076
      8          6           0        3.891347   -0.014549   -0.285945
      9          8           0        3.083095   -1.047629   -0.821004
     10          6           0        3.113300    1.287599   -0.189843
     11          8           0       -0.037369   -0.471225    0.879958
     12          6           0       -1.594610    1.122629   -0.262854
     13          8           0       -2.260761   -0.890483    0.904131
     14          1           0        0.693202    0.136891   -0.951013
     15          1           0       -4.739111   -0.146328   -0.401798
     16          1           0       -3.832007   -0.109476   -1.895455
     17          1           0       -1.413798    0.646663    1.821550
     18          1           0       -3.441126   -2.111145   -0.166719
     19          1           0       -2.092148   -1.449759   -1.062750
     20          1           0       -3.519931    1.603681    0.563376
     21          1           0       -3.341922    2.062331   -1.108766
     22          1           0        1.222073    1.984587    0.604334
     23          1           0        2.071340    0.865022    1.650605
     24          1           0        1.418805   -2.139602   -0.526228
     25          1           0        2.237178   -1.639611    0.952590
     26          1           0        4.251533   -0.319021    0.694210
     27          1           0        4.741202    0.079225   -0.948003
     28          1           0        3.735853    2.045194    0.276683
     29          1           0        2.875570    1.634668   -1.192395
     30          1           0       -1.202819    0.766501   -1.206931
     31          1           0       -1.111700    2.067202   -0.044003
 ---------------------------------------------------------------------
 Rotational constants (GHZ):           1.9283395           0.3872884           0.3605100
 Standard basis: 6-311++G(2d,2p) (5D, 7F)
 There are   557 symmetry adapted cartesian basis functions of A   symmetry.
 There are   531 symmetry adapted basis functions of A   symmetry.
   531 basis functions,   762 primitive gaussians,   557 cartesian basis functions
    51 alpha electrons       51 beta electrons
       nuclear repulsion energy       884.9779492900 Hartrees.
 NAtoms=   31 NActive=   31 NUniq=   31 SFac= 1.00D+00 NAtFMM=   60 NAOKFM=F Big=F
 Integral buffers will be    131072 words long.
 Raffenetti 2 integral format.
 Two-electron integral symmetry is turned on.
 ------------------------------------------------------------------------------
 Polarizable Continuum Model (PCM)
 =================================
 Model                : PCM.
 Atomic radii         : UFF (Universal Force Field).
 Polarization charges : Total charges.
 Charge compensation  : None.
 Solution method      : On-the-fly selection.
 Cavity type          : Scaled VdW (van der Waals Surface) (Alpha=1.100).
 Cavity algorithm     : GePol (No added spheres)
                        Default sphere list used, NSphG=   31.
                        Lebedev-Laikov grids with approx.  5.0 points / Ang**2.
                        Smoothing algorithm: York/Karplus (Gamma=1.0000).
                        Polarization charges: spherical gaussians, with
                                              point-specific exponents (IZeta= 3).
                        Self-potential: point-specific (ISelfS= 7).
                        Self-field    : sphere-specific E.n sum rule (ISelfD= 2).
 1st derivatives      : Analytical E(r).r(x)/FMM algorithm (CHGder, D1EAlg=3).
                        Cavity 1st derivative terms included.
 Solvent              : Water, Eps=  78.355300 Eps(inf)=   1.777849
 ------------------------------------------------------------------------------
 One-electron integrals computed using PRISM.
 NBasis=   531 RedAO= T EigKep=  4.65D-06  NBF=   531
 NBsUse=   531 1.00D-06 EigRej= -1.00D+00 NBFU=   531
 ExpMin= 3.60D-02 ExpMax= 8.59D+03 ExpMxC= 1.30D+03 IAcc=3 IRadAn=         5 AccDes= 0.00D+00
 Harris functional with IExCor= 1009 and IRadAn=       5 diagonalized for initial guess.
 HarFok:  IExCor= 1009 AccDes= 0.00D+00 IRadAn=         5 IDoV= 1 UseB2=F ITyADJ=14
 ICtDFT=  3500011 ScaDFX=  1.000000  1.000000  1.000000  1.000000
 FoFCou: FMM=F IPFlag=           0 FMFlag=      100000 FMFlg1=           0
         NFxFlg=           0 DoJE=T BraDBF=F KetDBF=T FulRan=T
         wScrn=  0.000000 ICntrl=       500 IOpCl=  0 I1Cent=   200000004 NGrid=           0
         NMat0=    1 NMatS0=      1 NMatT0=    0 NMatD0=    1 NMtDS0=    0 NMtDT0=    0
 Petite list used in FoFCou.
 Requested convergence on RMS density matrix=1.00D-08 within 128 cycles.
 Requested convergence on MAX density matrix=1.00D-06.
 Requested convergence on             energy=1.00D-06.
 No special actions if energy rises.
 Inv3:  Mode=1 IEnd=    12767907.
 Iteration    1 A*A^-1 deviation from unit magnitude is 6.44D-15 for   2036.
 Iteration    1 A*A^-1 deviation from orthogonality  is 4.37D-15 for   2050    854.
 Iteration    1 A^-1*A deviation from unit magnitude is 6.66D-15 for   2036.
 Iteration    1 A^-1*A deviation from orthogonality  is 2.52D-15 for   2033   1012.
 Error on total polarization charges =  0.01506
 SCF Done:  E(RM062X) =  -617.486260851     A.U. after   12 cycles
            NFock= 12  Conv=0.46D-08     -V/T= 2.0035

 **********************************************************************

            Population analysis using the SCF density.

 **********************************************************************

 Orbital symmetries:
       Occupied  (A) (A) (A) (A) (A) (A) (A) (A) (A) (A) (A) (A)
                 (A) (A) (A) (A) (A) (A) (A) (A) (A) (A) (A) (A)
                 (A) (A) (A) (A) (A) (A) (A) (A) (A) (A) (A) (A)
                 (A) (A) (A) (A) (A) (A) (A) (A) (A) (A) (A) (A)
                 (A) (A) (A)
       Virtual   (A) (A) (A) (A) (A) (A) (A) (A) (A) (A) (A) (A)
                 (A) (A) (A) (A) (A) (A) (A) (A) (A) (A) (A) (A)
                 (A) (A) (A) (A) (A) (A) (A) (A) (A) (A) (A) (A)
                 (A) (A) (A) (A) (A) (A) (A) (A) (A) (A) (A) (A)
                 (A) (A) (A) (A) (A) (A) (A) (A) (A) (A) (A) (A)
                 (A) (A) (A) (A) (A) (A) (A) (A) (A) (A) (A) (A)
                 (A) (A) (A) (A) (A) (A) (A) (A) (A) (A) (A) (A)
                 (A) (A) (A) (A) (A) (A) (A) (A) (A) (A) (A) (A)
                 (A) (A) (A) (A) (A) (A) (A) (A) (A) (A) (A) (A)
                 (A) (A) (A) (A) (A) (A) (A) (A) (A) (A) (A) (A)
                 (A) (A) (A) (A) (A) (A) (A) (A) (A) (A) (A) (A)
                 (A) (A) (A) (A) (A) (A) (A) (A) (A) (A) (A) (A)
                 (A) (A) (A) (A) (A) (A) (A) (A) (A) (A) (A) (A)
                 (A) (A) (A) (A) (A) (A) (A) (A) (A) (A) (A) (A)
                 (A) (A) (A) (A) (A) (A) (A) (A) (A) (A) (A) (A)
                 (A) (A) (A) (A) (A) (A) (A) (A) (A) (A) (A) (A)
                 (A) (A) (A) (A) (A) (A) (A) (A) (A) (A) (A) (A)
                 (A) (A) (A) (A) (A) (A) (A) (A) (A) (A) (A) (A)
                 (A) (A) (A) (A) (A) (A) (A) (A) (A) (A) (A) (A)
                 (A) (A) (A) (A) (A) (A) (A) (A) (A) (A) (A) (A)
                 (A) (A) (A) (A) (A) (A) (A) (A) (A) (A) (A) (A)
                 (A) (A) (A) (A) (A) (A) (A) (A) (A) (A) (A) (A)
                 (A) (A) (A) (A) (A) (A) (A) (A) (A) (A) (A) (A)
                 (A) (A) (A) (A) (A) (A) (A) (A) (A) (A) (A) (A)
                 (A) (A) (A) (A) (A) (A) (A) (A) (A) (A) (A) (A)
                 (A) (A) (A) (A) (A) (A) (A) (A) (A) (A) (A) (A)
                 (A) (A) (A) (A) (A) (A) (A) (A) (A) (A) (A) (A)
                 (A) (A) (A) (A) (A) (A) (A) (A) (A) (A) (A) (A)
                 (A) (A) (A) (A) (A) (A) (A) (A) (A) (A) (A) (A)
                 (A) (A) (A) (A) (A) (A) (A) (A) (A) (A) (A) (A)
                 (A) (A) (A) (A) (A) (A) (A) (A) (A) (A) (A) (A)
                 (A) (A) (A) (A) (A) (A) (A) (A) (A) (A) (A) (A)
                 (A) (A) (A) (A) (A) (A) (A) (A) (A) (A) (A) (A)
                 (A) (A) (A) (A) (A) (A) (A) (A) (A) (A) (A) (A)
                 (A) (A) (A) (A) (A) (A) (A) (A) (A) (A) (A) (A)
                 (A) (A) (A) (A) (A) (A) (A) (A) (A) (A) (A) (A)
                 (A) (A) (A) (A) (A) (A) (A) (A) (A) (A) (A) (A)
                 (A) (A) (A) (A) (A) (A) (A) (A) (A) (A) (A) (A)
                 (A) (A) (A) (A) (A) (A) (A) (A) (A) (A) (A) (A)
                 (A) (A) (A) (A) (A) (A) (A) (A) (A) (A) (A) (A)
 The electronic state is 1-A.
 Alpha  occ. eigenvalues --  -19.62918 -19.62746 -19.62739 -10.63844 -10.58812
 Alpha  occ. eigenvalues --  -10.57901 -10.57865 -10.57844 -10.53578 -10.53382
 Alpha  occ. eigenvalues --  -10.53144 -10.53047 -10.52876  -1.19803  -1.16800
 Alpha  occ. eigenvalues --   -1.13647  -0.90461  -0.90302  -0.87724  -0.84618
 Alpha  occ. eigenvalues --   -0.75380  -0.74886  -0.73623  -0.70174  -0.66021
 Alpha  occ. eigenvalues --   -0.62563  -0.60817  -0.59240  -0.58130  -0.57075
 Alpha  occ. eigenvalues --   -0.54784  -0.53191  -0.52540  -0.50982  -0.49843
 Alpha  occ. eigenvalues --   -0.48354  -0.47435  -0.45888  -0.45363  -0.45145
 Alpha  occ. eigenvalues --   -0.44238  -0.41722  -0.41010  -0.40606  -0.40012
 Alpha  occ. eigenvalues --   -0.38869  -0.37486  -0.35624  -0.34907  -0.33545
 Alpha  occ. eigenvalues --   -0.31920
 Alpha virt. eigenvalues --   -0.00173   0.00783   0.00839   0.01085   0.02123
 Alpha virt. eigenvalues --    0.02547   0.02597   0.03543   0.03815   0.04378
 Alpha virt. eigenvalues --    0.04617   0.04631   0.05599   0.06023   0.06821
 Alpha virt. eigenvalues --    0.07335   0.07901   0.08081   0.08595   0.09178
 Alpha virt. eigenvalues --    0.09570   0.10766   0.10866   0.11368   0.11850
 Alpha virt. eigenvalues --    0.12248   0.12345   0.12863   0.13208   0.13591
 Alpha virt. eigenvalues --    0.13791   0.14283   0.14420   0.14642   0.15054
 Alpha virt. eigenvalues --    0.15347   0.15490   0.15791   0.15898   0.16219
 Alpha virt. eigenvalues --    0.16652   0.16775   0.17039   0.17361   0.17451
 Alpha virt. eigenvalues --    0.18007   0.18330   0.18841   0.18878   0.19468
 Alpha virt. eigenvalues --    0.19996   0.20435   0.20896   0.21172   0.21650
 Alpha virt. eigenvalues --    0.22016   0.22395   0.22916   0.23612   0.23995
 Alpha virt. eigenvalues --    0.24730   0.25268   0.25633   0.25976   0.26880
 Alpha virt. eigenvalues --    0.27067   0.27486   0.27745   0.28564   0.29514
 Alpha virt. eigenvalues --    0.30141   0.30653   0.31065   0.31343   0.31579
 Alpha virt. eigenvalues --    0.31945   0.32543   0.33433   0.34082   0.34226
 Alpha virt. eigenvalues --    0.34379   0.35280   0.35486   0.35697   0.36170
 Alpha virt. eigenvalues --    0.36291   0.37087   0.37465   0.37993   0.38873
 Alpha virt. eigenvalues --    0.39046   0.39520   0.39545   0.40524   0.41058
 Alpha virt. eigenvalues --    0.41823   0.42959   0.43185   0.43690   0.45101
 Alpha virt. eigenvalues --    0.46593   0.47747   0.49040   0.49988   0.50729
 Alpha virt. eigenvalues --    0.52046   0.52306   0.52757   0.53734   0.54064
 Alpha virt. eigenvalues --    0.54777   0.56003   0.57774   0.58333   0.58977
 Alpha virt. eigenvalues --    0.59330   0.59819   0.60416   0.60883   0.61239
 Alpha virt. eigenvalues --    0.61487   0.62240   0.63034   0.63522   0.63976
 Alpha virt. eigenvalues --    0.64880   0.65513   0.65989   0.66769   0.66940
 Alpha virt. eigenvalues --    0.67942   0.68472   0.68930   0.69815   0.70082
 Alpha virt. eigenvalues --    0.70864   0.71574   0.71985   0.72611   0.72907
 Alpha virt. eigenvalues --    0.73327   0.74133   0.75151   0.75798   0.76247
 Alpha virt. eigenvalues --    0.76644   0.77016   0.77579   0.77964   0.79667
 Alpha virt. eigenvalues --    0.80153   0.80764   0.82757   0.84074   0.84438
 Alpha virt. eigenvalues --    0.86069   0.87850   0.88619   0.88917   0.89841
 Alpha virt. eigenvalues --    0.90092   0.91123   0.92906   0.93123   0.94647
 Alpha virt. eigenvalues --    0.96677   0.97470   0.99666   0.99959   1.02365
 Alpha virt. eigenvalues --    1.02586   1.02917   1.04912   1.05261   1.07337
 Alpha virt. eigenvalues --    1.07993   1.08238   1.09325   1.10765   1.11198
 Alpha virt. eigenvalues --    1.11619   1.13230   1.13818   1.15161   1.16070
 Alpha virt. eigenvalues --    1.17378   1.17906   1.18340   1.19365   1.20210
 Alpha virt. eigenvalues --    1.21487   1.21989   1.23144   1.23601   1.24024
 Alpha virt. eigenvalues --    1.26121   1.26242   1.26768   1.26969   1.27706
 Alpha virt. eigenvalues --    1.28490   1.29578   1.29807   1.30490   1.31537
 Alpha virt. eigenvalues --    1.32154   1.33054   1.33539   1.33767   1.34179
 Alpha virt. eigenvalues --    1.35114   1.35355   1.35991   1.36360   1.38185
 Alpha virt. eigenvalues --    1.38506   1.38602   1.40400   1.40787   1.41917
 Alpha virt. eigenvalues --    1.42738   1.43208   1.43712   1.44530   1.45985
 Alpha virt. eigenvalues --    1.46555   1.46848   1.47821   1.48082   1.48957
 Alpha virt. eigenvalues --    1.49323   1.50249   1.50499   1.51054   1.51625
 Alpha virt. eigenvalues --    1.52441   1.52932   1.53468   1.53924   1.54832
 Alpha virt. eigenvalues --    1.55907   1.56721   1.57322   1.57505   1.58565
 Alpha virt. eigenvalues --    1.58956   1.59753   1.60482   1.61844   1.62606
 Alpha virt. eigenvalues --    1.62874   1.63524   1.65168   1.65856   1.65987
 Alpha virt. eigenvalues --    1.68422   1.68643   1.69371   1.69884   1.70628
 Alpha virt. eigenvalues --    1.72341   1.73485   1.75074   1.76333   1.77270
 Alpha virt. eigenvalues --    1.77754   1.79111   1.80417   1.81533   1.82750
 Alpha virt. eigenvalues --    1.84498   1.86885   1.89780   1.93420   1.95715
 Alpha virt. eigenvalues --    1.99912   2.04144   2.11049   2.15929   2.19026
 Alpha virt. eigenvalues --    2.24702   2.25749   2.27343   2.35879   2.37032
 Alpha virt. eigenvalues --    2.41831   2.42835   2.45142   2.48257   2.50672
 Alpha virt. eigenvalues --    2.60559   2.75443   2.77170   2.80002   2.80743
 Alpha virt. eigenvalues --    2.85802   2.88282   2.89694   2.92098   2.94767
 Alpha virt. eigenvalues --    2.95796   2.96919   2.99080   3.02157   3.03763
 Alpha virt. eigenvalues --    3.06529   3.07059   3.08082   3.09396   3.11224
 Alpha virt. eigenvalues --    3.13914   3.16075   3.17367   3.17972   3.20763
 Alpha virt. eigenvalues --    3.25084   3.29513   3.30721   3.31741   3.33463
 Alpha virt. eigenvalues --    3.34605   3.36438   3.37581   3.38752   3.41242
 Alpha virt. eigenvalues --    3.41669   3.42831   3.43029   3.44785   3.46031
 Alpha virt. eigenvalues --    3.47449   3.48548   3.48870   3.50613   3.51283
 Alpha virt. eigenvalues --    3.51738   3.52593   3.53797   3.54664   3.55488
 Alpha virt. eigenvalues --    3.56295   3.56651   3.57311   3.58816   3.59807
 Alpha virt. eigenvalues --    3.61078   3.61496   3.62907   3.64274   3.65929
 Alpha virt. eigenvalues --    3.66010   3.67216   3.67550   3.69526   3.69848
 Alpha virt. eigenvalues --    3.70356   3.70977   3.72029   3.72795   3.74676
 Alpha virt. eigenvalues --    3.75697   3.76319   3.77054   3.78105   3.78670
 Alpha virt. eigenvalues --    3.79493   3.81928   3.83752   3.84435   3.85957
 Alpha virt. eigenvalues --    3.86249   3.88342   3.89179   3.89925   3.91113
 Alpha virt. eigenvalues --    3.92650   3.93509   3.95322   3.97291   3.99226
 Alpha virt. eigenvalues --    4.00598   4.02432   4.02744   4.03488   4.04471
 Alpha virt. eigenvalues --    4.05362   4.05760   4.06708   4.07050   4.07593
 Alpha virt. eigenvalues --    4.08066   4.08539   4.09652   4.09996   4.10257
 Alpha virt. eigenvalues --    4.11924   4.14464   4.15631   4.16479   4.16881
 Alpha virt. eigenvalues --    4.17363   4.17585   4.19138   4.20429   4.21827
 Alpha virt. eigenvalues --    4.22117   4.23096   4.23264   4.25039   4.25136
 Alpha virt. eigenvalues --    4.27221   4.29357   4.30172   4.31323   4.33084
 Alpha virt. eigenvalues --    4.33881   4.34708   4.35079   4.38180   4.39514
 Alpha virt. eigenvalues --    4.42813   4.43079   4.46299   4.48115   4.55495
 Alpha virt. eigenvalues --    4.58606   4.61619   4.74863   4.76661   4.82892
 Alpha virt. eigenvalues --    4.83625   4.92563   4.95393   4.99898   5.01439
 Alpha virt. eigenvalues --    5.03074   5.06673   5.08539   5.12059   5.13233
 Alpha virt. eigenvalues --    5.13779   5.14582   5.18156   5.30594   5.36310
 Alpha virt. eigenvalues --    5.40341   5.55400   5.59154   5.62930   5.85888
 Alpha virt. eigenvalues --    5.88758   6.00094   7.00377   7.05896   7.07445
 Alpha virt. eigenvalues --    7.08769   7.10910   7.11615   7.13375   7.16383
 Alpha virt. eigenvalues --    7.29064   7.36636   7.37576   7.46630   7.53826
 Alpha virt. eigenvalues --    7.54919   7.58569  23.95671  23.98121  24.04406
 Alpha virt. eigenvalues --   24.07387  24.10821  24.11641  24.14285  24.14671
 Alpha virt. eigenvalues --   24.15867  24.21611  50.17533  50.18773  50.22580
          Condensed to atoms (all electrons):
               1          2          3          4          5          6
     1  C    7.700701   0.040404  -0.639173   0.084295  -0.057505  -1.473540
     2  C    0.040404   6.012825   0.042146  -0.241501  -0.336958   0.014150
     3  C   -0.639173   0.042146   6.457149  -0.264531  -0.125230   0.204979
     4  C    0.084295  -0.241501  -0.264531   5.620128   0.325716  -0.048417
     5  C   -0.057505  -0.336958  -0.125230   0.325716   6.532324  -0.057499
     6  C   -1.473540   0.014150   0.204979  -0.048417  -0.057499   6.891591
     7  C   -0.392068   0.002139  -0.014158  -0.013732  -0.052774   0.150948
     8  C    0.311558  -0.001211  -0.028469   0.004428   0.007487  -0.250590
     9  O    0.083610   0.000318  -0.007653  -0.000371   0.000220  -0.029199
    10  C   -0.091193   0.005633  -0.110512  -0.002628   0.014832  -0.039137
    11  O    0.332461   0.005490   0.245455  -0.004339   0.015471  -0.162450
    12  C    0.049860   0.067431  -0.265866  -0.152172  -0.493708   0.055802
    13  O    0.010644   0.005762   0.061425   0.101331  -0.086357  -0.009893
    14  H    0.434525   0.006318  -0.012927  -0.020171  -0.030230  -0.013636
    15  H    0.000017   0.456825   0.006152  -0.053959  -0.042232  -0.001238
    16  H   -0.006667   0.497358   0.014133  -0.073727  -0.068310   0.003822
    17  H   -0.061856   0.021632   0.575221  -0.041519  -0.059434   0.039500
    18  H    0.008916  -0.009473  -0.017193   0.422211   0.002202  -0.000749
    19  H   -0.015282  -0.085229   0.053844   0.464778  -0.011794  -0.002888
    20  H   -0.004110  -0.063104  -0.014086  -0.007105   0.469479   0.001075
    21  H   -0.000796  -0.032286  -0.004017   0.013218   0.440712   0.003028
    22  H   -0.096223   0.004723   0.013400  -0.001012  -0.009726   0.453159
    23  H   -0.085630  -0.000333   0.024442  -0.001623  -0.001619   0.527790
    24  H   -0.108611   0.000956   0.004084   0.000676  -0.003339   0.059565
    25  H    0.052751  -0.001172  -0.005635   0.002975   0.003179  -0.035212
    26  H    0.040473  -0.000230   0.002775   0.000263   0.000018  -0.011888
    27  H   -0.002718   0.000069  -0.002980   0.000059   0.000313   0.005976
    28  H   -0.021951   0.000369  -0.002007  -0.000554  -0.000943  -0.004033
    29  H   -0.041985  -0.000763  -0.001347   0.000877   0.000306  -0.015625
    30  H    0.006630   0.021232  -0.020259  -0.009317  -0.067047  -0.015223
    31  H    0.003587  -0.024367  -0.007818   0.008246   0.071502  -0.024126
               7          8          9         10         11         12
     1  C   -0.392068   0.311558   0.083610  -0.091193   0.332461   0.049860
     2  C    0.002139  -0.001211   0.000318   0.005633   0.005490   0.067431
     3  C   -0.014158  -0.028469  -0.007653  -0.110512   0.245455  -0.265866
     4  C   -0.013732   0.004428  -0.000371  -0.002628  -0.004339  -0.152172
     5  C   -0.052774   0.007487   0.000220   0.014832   0.015471  -0.493708
     6  C    0.150948  -0.250590  -0.029199  -0.039137  -0.162450   0.055802
     7  C    6.165174  -0.255111   0.121444   0.086221  -0.230059  -0.078112
     8  C   -0.255111   5.488589   0.114293   0.064024   0.015918   0.006953
     9  O    0.121444   0.114293   8.291674  -0.010619   0.000385   0.006926
    10  C    0.086221   0.064024  -0.010619   5.669437  -0.002216   0.063990
    11  O   -0.230059   0.015918   0.000385  -0.002216   8.286982  -0.031221
    12  C   -0.078112   0.006953   0.006926   0.063990  -0.031221   6.253830
    13  O   -0.003341   0.002326   0.000161   0.001155  -0.018449   0.064638
    14  H   -0.050873   0.029513  -0.034814  -0.040927  -0.011211   0.029244
    15  H   -0.000116   0.000024   0.000001  -0.000068   0.000610   0.022606
    16  H   -0.000788  -0.000142  -0.000039   0.000081   0.001171  -0.003506
    17  H    0.018045  -0.003239   0.000003  -0.008677  -0.082905  -0.036369
    18  H   -0.001311   0.000182   0.000007   0.000183  -0.002686  -0.001980
    19  H   -0.009930  -0.000378   0.000594  -0.001189   0.004762   0.001489
    20  H   -0.001234   0.000087  -0.000006  -0.000684   0.000725  -0.028086
    21  H   -0.000642  -0.000110   0.000067  -0.000167  -0.001277  -0.043935
    22  H    0.007392  -0.024148  -0.004586   0.015548  -0.008685   0.007536
    23  H    0.001803  -0.019057   0.001203  -0.066530   0.001416  -0.013807
    24  H    0.449363  -0.001080  -0.071279   0.004940   0.008946  -0.004547
    25  H    0.335671   0.002113  -0.042457   0.010125   0.006418   0.010282
    26  H   -0.046561   0.445660  -0.048397  -0.033253  -0.000449   0.001239
    27  H    0.017171   0.440037  -0.068680  -0.049367   0.001126   0.000540
    28  H    0.002760  -0.033982   0.008354   0.416326  -0.001672  -0.000830
    29  H    0.013282  -0.096820  -0.000454   0.516798   0.000538   0.003685
    30  H    0.036324  -0.002984   0.003069   0.007941  -0.025464   0.429584
    31  H   -0.012886   0.005013  -0.000385  -0.003232   0.003538   0.375674
              13         14         15         16         17         18
     1  C    0.010644   0.434525   0.000017  -0.006667  -0.061856   0.008916
     2  C    0.005762   0.006318   0.456825   0.497358   0.021632  -0.009473
     3  C    0.061425  -0.012927   0.006152   0.014133   0.575221  -0.017193
     4  C    0.101331  -0.020171  -0.053959  -0.073727  -0.041519   0.422211
     5  C   -0.086357  -0.030230  -0.042232  -0.068310  -0.059434   0.002202
     6  C   -0.009893  -0.013636  -0.001238   0.003822   0.039500  -0.000749
     7  C   -0.003341  -0.050873  -0.000116  -0.000788   0.018045  -0.001311
     8  C    0.002326   0.029513   0.000024  -0.000142  -0.003239   0.000182
     9  O    0.000161  -0.034814   0.000001  -0.000039   0.000003   0.000007
    10  C    0.001155  -0.040927  -0.000068   0.000081  -0.008677   0.000183
    11  O   -0.018449  -0.011211   0.000610   0.001171  -0.082905  -0.002686
    12  C    0.064638   0.029244   0.022606  -0.003506  -0.036369  -0.001980
    13  O    8.298790  -0.000157  -0.015800   0.011165  -0.091762  -0.049593
    14  H   -0.000157   0.513950   0.000969   0.001387  -0.003208  -0.000667
    15  H   -0.015800   0.000969   0.499135  -0.015878   0.001362  -0.008646
    16  H    0.011165   0.001387  -0.015878   0.494943   0.000397  -0.002091
    17  H   -0.091762  -0.003208   0.001362   0.000397   0.478509  -0.002457
    18  H   -0.049593  -0.000667  -0.008646  -0.002091  -0.002457   0.467098
    19  H   -0.036068  -0.002101   0.003289   0.001045   0.000522  -0.010830
    20  H    0.007133   0.003112  -0.009169   0.005082  -0.002936  -0.001588
    21  H   -0.000312   0.000636  -0.004601  -0.003775  -0.000270   0.001586
    22  H    0.001187  -0.009071  -0.000189  -0.000167   0.003590   0.000091
    23  H   -0.001731   0.006285   0.000015   0.000088   0.001323  -0.000191
    24  H   -0.004544   0.003898  -0.000039   0.000451  -0.000336   0.000389
    25  H    0.003004  -0.018311  -0.000041  -0.000116  -0.000358   0.000090
    26  H   -0.000022  -0.008667  -0.000003  -0.000011  -0.000018   0.000017
    27  H    0.000091   0.003532   0.000001  -0.000003  -0.000235   0.000001
    28  H   -0.000048  -0.000506  -0.000000   0.000023   0.000684  -0.000013
    29  H   -0.000056  -0.018531  -0.000031   0.000021   0.000067   0.000028
    30  H    0.003553  -0.030084  -0.004567  -0.007858   0.004943  -0.002655
    31  H    0.003630   0.002993   0.001904  -0.000536  -0.018194   0.000660
              19         20         21         22         23         24
     1  C   -0.015282  -0.004110  -0.000796  -0.096223  -0.085630  -0.108611
     2  C   -0.085229  -0.063104  -0.032286   0.004723  -0.000333   0.000956
     3  C    0.053844  -0.014086  -0.004017   0.013400   0.024442   0.004084
     4  C    0.464778  -0.007105   0.013218  -0.001012  -0.001623   0.000676
     5  C   -0.011794   0.469479   0.440712  -0.009726  -0.001619  -0.003339
     6  C   -0.002888   0.001075   0.003028   0.453159   0.527790   0.059565
     7  C   -0.009930  -0.001234  -0.000642   0.007392   0.001803   0.449363
     8  C   -0.000378   0.000087  -0.000110  -0.024148  -0.019057  -0.001080
     9  O    0.000594  -0.000006   0.000067  -0.004586   0.001203  -0.071279
    10  C   -0.001189  -0.000684  -0.000167   0.015548  -0.066530   0.004940
    11  O    0.004762   0.000725  -0.001277  -0.008685   0.001416   0.008946
    12  C    0.001489  -0.028086  -0.043935   0.007536  -0.013807  -0.004547
    13  O   -0.036068   0.007133  -0.000312   0.001187  -0.001731  -0.004544
    14  H   -0.002101   0.003112   0.000636  -0.009071   0.006285   0.003898
    15  H    0.003289  -0.009169  -0.004601  -0.000189   0.000015  -0.000039
    16  H    0.001045   0.005082  -0.003775  -0.000167   0.000088   0.000451
    17  H    0.000522  -0.002936  -0.000270   0.003590   0.001323  -0.000336
    18  H   -0.010830  -0.001588   0.001586   0.000091  -0.000191   0.000389
    19  H    0.509209   0.001777  -0.002628  -0.001533   0.000697  -0.003108
    20  H    0.001777   0.488142  -0.009814  -0.000292   0.000096   0.000068
    21  H   -0.002628  -0.009814   0.490691   0.000456  -0.000125  -0.000041
    22  H   -0.001533  -0.000292   0.000456   0.495067  -0.004520   0.000436
    23  H    0.000697   0.000096  -0.000125  -0.004520   0.428952  -0.001048
    24  H   -0.003108   0.000068  -0.000041   0.000436  -0.001048   0.503975
    25  H    0.000872  -0.000065   0.000047  -0.002881  -0.002821  -0.026997
    26  H    0.000132   0.000005   0.000009   0.001357  -0.006170  -0.003657
    27  H    0.000005  -0.000002   0.000002   0.000390  -0.000788   0.001861
    28  H   -0.000102  -0.000028   0.000039  -0.010039  -0.004373   0.002858
    29  H    0.000323  -0.000006   0.000035   0.002406   0.000549  -0.002100
    30  H   -0.006901  -0.005834  -0.000267   0.009231  -0.001835  -0.004624
    31  H    0.003365   0.000014  -0.015791  -0.014296   0.002045  -0.000416
              25         26         27         28         29         30
     1  C    0.052751   0.040473  -0.002718  -0.021951  -0.041985   0.006630
     2  C   -0.001172  -0.000230   0.000069   0.000369  -0.000763   0.021232
     3  C   -0.005635   0.002775  -0.002980  -0.002007  -0.001347  -0.020259
     4  C    0.002975   0.000263   0.000059  -0.000554   0.000877  -0.009317
     5  C    0.003179   0.000018   0.000313  -0.000943   0.000306  -0.067047
     6  C   -0.035212  -0.011888   0.005976  -0.004033  -0.015625  -0.015223
     7  C    0.335671  -0.046561   0.017171   0.002760   0.013282   0.036324
     8  C    0.002113   0.445660   0.440037  -0.033982  -0.096820  -0.002984
     9  O   -0.042457  -0.048397  -0.068680   0.008354  -0.000454   0.003069
    10  C    0.010125  -0.033253  -0.049367   0.416326   0.516798   0.007941
    11  O    0.006418  -0.000449   0.001126  -0.001672   0.000538  -0.025464
    12  C    0.010282   0.001239   0.000540  -0.000830   0.003685   0.429584
    13  O    0.003004  -0.000022   0.000091  -0.000048  -0.000056   0.003553
    14  H   -0.018311  -0.008667   0.003532  -0.000506  -0.018531  -0.030084
    15  H   -0.000041  -0.000003   0.000001  -0.000000  -0.000031  -0.004567
    16  H   -0.000116  -0.000011  -0.000003   0.000023   0.000021  -0.007858
    17  H   -0.000358  -0.000018  -0.000235   0.000684   0.000067   0.004943
    18  H    0.000090   0.000017   0.000001  -0.000013   0.000028  -0.002655
    19  H    0.000872   0.000132   0.000005  -0.000102   0.000323  -0.006901
    20  H   -0.000065   0.000005  -0.000002  -0.000028  -0.000006  -0.005834
    21  H    0.000047   0.000009   0.000002   0.000039   0.000035  -0.000267
    22  H   -0.002881   0.001357   0.000390  -0.010039   0.002406   0.009231
    23  H   -0.002821  -0.006170  -0.000788  -0.004373   0.000549  -0.001835
    24  H   -0.026997  -0.003657   0.001861   0.002858  -0.002100  -0.004624
    25  H    0.496568   0.012082  -0.002233  -0.002872   0.003389   0.003912
    26  H    0.012082   0.505305  -0.009577   0.003212   0.004937   0.000902
    27  H   -0.002233  -0.009577   0.473762  -0.008960  -0.005849  -0.000584
    28  H   -0.002872   0.003212  -0.008960   0.495411  -0.010633  -0.000228
    29  H    0.003389   0.004937  -0.005849  -0.010633   0.477192   0.002652
    30  H    0.003912   0.000902  -0.000584  -0.000228   0.002652   0.468359
    31  H   -0.000355  -0.000083   0.000069  -0.000625  -0.000835  -0.027291
              31
     1  C    0.003587
     2  C   -0.024367
     3  C   -0.007818
     4  C    0.008246
     5  C    0.071502
     6  C   -0.024126
     7  C   -0.012886
     8  C    0.005013
     9  O   -0.000385
    10  C   -0.003232
    11  O    0.003538
    12  C    0.375674
    13  O    0.003630
    14  H    0.002993
    15  H    0.001904
    16  H   -0.000536
    17  H   -0.018194
    18  H    0.000660
    19  H    0.003365
    20  H    0.000014
    21  H   -0.015791
    22  H   -0.014296
    23  H    0.002045
    24  H   -0.000416
    25  H   -0.000355
    26  H   -0.000083
    27  H    0.000069
    28  H   -0.000625
    29  H   -0.000835
    30  H   -0.027291
    31  H    0.491288
 Mulliken charges:
               1
     1  C   -0.061124
     2  C   -0.409154
     3  C   -0.161344
     4  C   -0.112524
     5  C   -0.379057
     6  C   -0.216041
     7  C   -0.244039
     8  C   -0.220884
     9  O   -0.313391
    10  C   -0.416835
    11  O   -0.348332
    12  C   -0.297170
    13  O   -0.257862
    14  H    0.269730
    15  H    0.163668
    16  H    0.152444
    17  H    0.267974
    18  H    0.208465
    19  H    0.143257
    20  H    0.171356
    21  H    0.170330
    22  H    0.171399
    23  H    0.215500
    24  H    0.193301
    25  H    0.198046
    26  H    0.150602
    27  H    0.206970
    28  H    0.174363
    29  H    0.167954
    30  H    0.234692
    31  H    0.177706
 Sum of Mulliken charges =  -0.00000
 Mulliken charges with hydrogens summed into heavy atoms:
               1
     1  C    0.208605
     2  C   -0.093041
     3  C    0.106631
     4  C    0.239198
     5  C   -0.037372
     6  C    0.170858
     7  C    0.147308
     8  C    0.136688
     9  O   -0.313391
    10  C   -0.074518
    11  O   -0.348332
    12  C    0.115228
    13  O   -0.257862
 Electronic spatial extent (au):  <R**2>=           3208.5825
 Charge=             -0.0000 electrons
 Dipole moment (field-independent basis, Debye):
    X=             -0.4959    Y=              3.6096    Z=             -1.5639  Tot=              3.9649
 Quadrupole moment (field-independent basis, Debye-Ang):
   XX=            -74.9462   YY=            -80.1623   ZZ=            -83.4164
   XY=              3.5182   XZ=              8.9684   YZ=              1.8188
 Traceless Quadrupole moment (field-independent basis, Debye-Ang):
   XX=              4.5621   YY=             -0.6540   ZZ=             -3.9081
   XY=              3.5182   XZ=              8.9684   YZ=              1.8188
 Octapole moment (field-independent basis, Debye-Ang**2):
  XXX=              2.7767  YYY=             -4.2606  ZZZ=              0.6499  XYY=             -6.0103
  XXY=             17.7904  XXZ=              2.2300  XZZ=             -1.2223  YZZ=              4.9705
  YYZ=             -0.5037  XYZ=            -12.2466
 Hexadecapole moment (field-independent basis, Debye-Ang**3):
 XXXX=          -3207.6771 YYYY=           -585.7527 ZZZZ=           -315.4122 XXXY=             81.7068
 XXXZ=             42.3838 YYYX=             11.1854 YYYZ=              2.1197 ZZZX=              1.5492
 ZZZY=              1.3907 XXYY=           -664.5331 XXZZ=           -628.3217 YYZZ=           -156.8007
 XXYZ=            -12.5562 YYXZ=             12.1556 ZZXY=             -2.8554
 N-N= 8.849779492900D+02 E-N=-3.211585498699D+03  KE= 6.153332809757D+02
 D1PCM: PCM CHGder 1st derivatives, ID1Alg=3 FixD1E=F DoIter=F DoCFld=F I1PDM=0.
 Calling FoFJK, ICntrl=      2127 FMM=F ISym2X=0 I1Cent= 0 IOpClX= 0 NMat=1 NMatS=1 NMatT=0.
 ***** Axes restored to original set *****
 -------------------------------------------------------------------
 Center     Atomic                   Forces (Hartrees/Bohr)
 Number     Number              X              Y              Z
 -------------------------------------------------------------------
      1        6          -0.000796214   -0.002297551   -0.007204056
      2        6           0.001627791   -0.000455086   -0.000556185
      3        6          -0.001339278   -0.000786028    0.011419124
      4        6           0.001083704   -0.006012921   -0.001048489
      5        6           0.001757773    0.002519162    0.001157414
      6        6           0.002332679    0.002386383    0.004161710
      7        6           0.002271096   -0.006462021    0.002215715
      8        6          -0.006622146   -0.001889559   -0.000280385
      9        8           0.001727650    0.004203450    0.007718270
     10        6          -0.000079333    0.001181082   -0.002255120
     11        8           0.003404048    0.008306985   -0.002068292
     12        6          -0.001623332    0.000780334   -0.003571824
     13        8          -0.003770810    0.002611763   -0.009805403
     14        1          -0.000918152   -0.001874094    0.007206954
     15        1          -0.002275515    0.000171221   -0.001254470
     16        1          -0.000099400   -0.000288377    0.003044093
     17        1          -0.001711095   -0.003865380   -0.006374391
     18        1          -0.002321988    0.003551958   -0.000404085
     19        1           0.004036918    0.001010596    0.004765636
     20        1          -0.000578103   -0.000303758   -0.003175898
     21        1          -0.000647440   -0.001735036    0.001749347
     22        1          -0.002464816   -0.002856525    0.000117642
     23        1           0.000390586    0.001762668   -0.003307167
     24        1          -0.003006982    0.003231826    0.001880922
     25        1           0.000171457    0.000583921   -0.006594417
     26        1           0.001650550    0.000632525   -0.005927549
     27        1           0.003341255   -0.000519625    0.002749056
     28        1           0.001460984   -0.002352373   -0.001197123
     29        1          -0.000815258   -0.000395321    0.003076893
     30        1           0.001902038    0.002453954    0.004095678
     31        1           0.001911335   -0.003294172   -0.000333603
 -------------------------------------------------------------------
 Cartesian Forces:  Max     0.011419124 RMS     0.003430859

 GradGradGradGradGradGradGradGradGradGradGradGradGradGradGradGradGradGrad
 Berny optimization.
 FormGI is forming the generalized inverse of G from B-inverse, IUseBI=4.
 Internal  Forces:  Max     0.013463031 RMS     0.002110103
 Search for a local minimum.
 Step number   1 out of a maximum of  186
 All quantities printed in internal units (Hartrees-Bohrs-Radians)
 Mixed Optimization -- RFO/linear search
 Second derivative matrix not updated -- first step.
 ITU=  0
     Eigenvalues ---    0.00396   0.00636   0.00683   0.00738   0.01408
     Eigenvalues ---    0.01449   0.01500   0.02701   0.02775   0.03162
     Eigenvalues ---    0.03220   0.04152   0.04337   0.04367   0.04782
     Eigenvalues ---    0.04868   0.04921   0.04992   0.05143   0.05149
     Eigenvalues ---    0.05191   0.05400   0.05745   0.05846   0.06153
     Eigenvalues ---    0.06286   0.06399   0.06805   0.07572   0.07633
     Eigenvalues ---    0.07833   0.07841   0.07866   0.07990   0.08137
     Eigenvalues ---    0.09089   0.09325   0.09389   0.10858   0.11558
     Eigenvalues ---    0.11606   0.11660   0.11706   0.12488   0.12617
     Eigenvalues ---    0.14515   0.15895   0.16501   0.17565   0.18656
     Eigenvalues ---    0.20670   0.21778   0.22411   0.25000   0.27234
     Eigenvalues ---    0.27372   0.28424   0.28577   0.28698   0.29108
     Eigenvalues ---    0.29444   0.30203   0.35054   0.35077   0.35111
     Eigenvalues ---    0.35134   0.35251   0.35257   0.35291   0.35375
     Eigenvalues ---    0.35415   0.35469   0.35481   0.35611   0.35705
     Eigenvalues ---    0.35829   0.35848   0.35906   0.35922   0.35935
     Eigenvalues ---    0.40099   0.41450   0.42393   0.42950   0.43295
     Eigenvalues ---    0.439971000.000001000.000001000.000001000.00000
     Eigenvalues --- 1000.000001000.000001000.000001000.000001000.00000
     Eigenvalues --- 1000.000001000.000001000.000001000.000001000.00000
     Eigenvalues --- 1000.000001000.000001000.000001000.000001000.00000
     Eigenvalues --- 1000.000001000.000001000.000001000.000001000.00000
     Eigenvalues --- 1000.000001000.000001000.000001000.000001000.00000
     Eigenvalues --- 1000.000001000.000001000.000001000.000001000.00000
     Eigenvalues --- 1000.000001000.000001000.000001000.000001000.00000
     Eigenvalues --- 1000.000001000.000001000.000001000.000001000.00000
     Eigenvalues --- 1000.000001000.000001000.000001000.000001000.00000
     Eigenvalues --- 1000.000001000.000001000.000001000.000001000.00000
     Eigenvalues --- 1000.000001000.000001000.000001000.000001000.00000
     Eigenvalues --- 1000.000001000.000001000.000001000.000001000.00000
     Eigenvalues --- 1000.000001000.000001000.000001000.000001000.00000
     Eigenvalues --- 1000.000001000.000001000.000001000.000001000.00000
     Eigenvalues --- 1000.000001000.000001000.000001000.000001000.00000
     Eigenvalues --- 1000.000001000.000001000.000001000.000001000.00000
     Eigenvalues --- 1000.000001000.000001000.000001000.000001000.00000
     Eigenvalues --- 1000.000001000.000001000.000001000.000001000.00000
     Eigenvalues --- 1000.000001000.000001000.000001000.000001000.00000
 RFO step:  Lambda=-3.26565457D-03 EMin= 3.95665336D-03
 Linear search not attempted -- first point.
 Iteration  1 RMS(Cart)=  0.06343772 RMS(Int)=  0.00083031
 Iteration  2 RMS(Cart)=  0.00192533 RMS(Int)=  0.00004619
 Iteration  3 RMS(Cart)=  0.00000109 RMS(Int)=  0.00004618
 Iteration  4 RMS(Cart)=  0.00000000 RMS(Int)=  0.00004618
 Iteration  1 RMS(Cart)=  0.00003003 RMS(Int)=  0.00000660
 Iteration  2 RMS(Cart)=  0.00001610 RMS(Int)=  0.00000738
 Iteration  3 RMS(Cart)=  0.00000863 RMS(Int)=  0.00000832
 Iteration  4 RMS(Cart)=  0.00000462 RMS(Int)=  0.00000893
 Iteration  5 RMS(Cart)=  0.00000248 RMS(Int)=  0.00000927
 Iteration  6 RMS(Cart)=  0.00000133 RMS(Int)=  0.00000947
 Iteration  7 RMS(Cart)=  0.00000071 RMS(Int)=  0.00000957
 Variable       Old X    -DE/DX   Delta X   Delta X   Delta X     New X
                                 (Linear)    (Quad)   (Total)
    R1        2.88281  -0.00142   0.00000  -0.00449  -0.00451   2.87830
    R2        2.87986  -0.00047   0.00000  -0.00120  -0.00119   2.87867
    R3        2.67308   0.00161   0.00000   0.00368   0.00368   2.67676
    R4        2.04228   0.00734   0.00000   0.02027   0.02027   2.06255
    R5        2.89011   0.00105   0.00000   0.00343   0.00346   2.89358
    R6        2.90813  -0.00062   0.00000  -0.00276  -0.00273   2.90540
    R7        2.05070   0.00259   0.00000   0.00725   0.00725   2.05795
    R8        2.05259   0.00302   0.00000   0.00849   0.00849   2.06109
    R9        2.66458   0.00342   0.00000   0.00771   0.00771   2.67229
   R10        2.88873  -0.00100   0.00000  -0.00167  -0.00170   2.88703
   R11        2.65350   0.00207   0.00000   0.00568   0.00565   2.65915
   R12        2.04204   0.00758   0.00000   0.02090   0.02090   2.06294
   R13        2.68016   0.00333   0.00000   0.00700   0.00700   2.68716
   R14        2.04183   0.00426   0.00000   0.01173   0.01173   2.05356
   R15        2.04901   0.00627   0.00000   0.01752   0.01752   2.06653
   R16        2.88982  -0.00058   0.00000  -0.00348  -0.00349   2.88634
   R17        2.05269   0.00309   0.00000   0.00870   0.00870   2.06138
   R18        2.04921   0.00254   0.00000   0.00710   0.00710   2.05631
   R19        2.89324  -0.00064   0.00000  -0.00229  -0.00230   2.89094
   R20        2.05006   0.00375   0.00000   0.01049   0.01049   2.06054
   R21        2.05588   0.00359   0.00000   0.01015   0.01015   2.06603
   R22        2.66539   0.00311   0.00000   0.00708   0.00710   2.67248
   R23        2.04319   0.00472   0.00000   0.01305   0.01305   2.05625
   R24        2.05495   0.00626   0.00000   0.01767   0.01767   2.07262
   R25        2.67702   0.00354   0.00000   0.00804   0.00806   2.68508
   R26        2.87225   0.00030   0.00000   0.00060   0.00059   2.87284
   R27        2.05550   0.00606   0.00000   0.01713   0.01713   2.07263
   R28        2.04350   0.00435   0.00000   0.01204   0.01204   2.05554
   R29        2.05205   0.00299   0.00000   0.00840   0.00840   2.06045
   R30        2.05458   0.00314   0.00000   0.00887   0.00887   2.06345
   R31        2.04546   0.00507   0.00000   0.01407   0.01407   2.05953
   R32        2.04695   0.00379   0.00000   0.01055   0.01055   2.05749
    A1        1.91932  -0.00016   0.00000  -0.00263  -0.00267   1.91664
    A2        1.95862  -0.00076   0.00000  -0.00225  -0.00224   1.95638
    A3        1.92110   0.00002   0.00000  -0.00643  -0.00643   1.91467
    A4        1.84349   0.00061   0.00000   0.00396   0.00397   1.84746
    A5        1.88417  -0.00025   0.00000  -0.00272  -0.00275   1.88142
    A6        1.93431   0.00058   0.00000   0.01038   0.01038   1.94469
    A7        1.91683  -0.00016   0.00000  -0.00767  -0.00781   1.90901
    A8        1.92304  -0.00057   0.00000   0.00013   0.00015   1.92319
    A9        1.89694   0.00085   0.00000   0.00512   0.00516   1.90210
   A10        1.92355   0.00086   0.00000   0.00178   0.00183   1.92538
   A11        1.93159  -0.00109   0.00000  -0.00258  -0.00255   1.92904
   A12        1.87129   0.00011   0.00000   0.00356   0.00353   1.87482
   A13        2.03926  -0.00514   0.00000  -0.02738  -0.02737   2.01189
   A14        1.86808   0.00169   0.00000   0.01078   0.01091   1.87899
   A15        1.86201   0.00225   0.00000   0.01366   0.01352   1.87553
   A16        1.94014   0.00330   0.00000   0.00945   0.00940   1.94954
   A17        1.91008  -0.00004   0.00000  -0.00186  -0.00179   1.90829
   A18        1.83157  -0.00180   0.00000  -0.00203  -0.00212   1.82945
   A19        1.92124   0.00173   0.00000   0.00293   0.00274   1.92398
   A20        1.95266  -0.00038   0.00000  -0.00432  -0.00426   1.94840
   A21        1.94349  -0.00116   0.00000  -0.00356  -0.00356   1.93993
   A22        1.85216  -0.00125   0.00000  -0.00096  -0.00091   1.85125
   A23        1.90974   0.00074   0.00000   0.00688   0.00696   1.91670
   A24        1.88174   0.00032   0.00000  -0.00066  -0.00069   1.88105
   A25        1.91426  -0.00095   0.00000  -0.00921  -0.00942   1.90485
   A26        1.92162   0.00062   0.00000   0.00219   0.00219   1.92381
   A27        1.93286  -0.00009   0.00000   0.00094   0.00102   1.93388
   A28        1.90906   0.00025   0.00000  -0.00331  -0.00325   1.90581
   A29        1.92080   0.00010   0.00000   0.00379   0.00383   1.92463
   A30        1.86462   0.00010   0.00000   0.00599   0.00595   1.87058
   A31        1.91802   0.00149   0.00000   0.00010   0.00007   1.91809
   A32        1.93061  -0.00054   0.00000  -0.00292  -0.00290   1.92771
   A33        1.89212  -0.00123   0.00000  -0.00843  -0.00843   1.88369
   A34        1.93146  -0.00016   0.00000   0.00339   0.00340   1.93486
   A35        1.91491  -0.00006   0.00000   0.00407   0.00406   1.91897
   A36        1.87583   0.00045   0.00000   0.00367   0.00363   1.87946
   A37        1.93128   0.00170   0.00000   0.00865   0.00869   1.93997
   A38        1.93008  -0.00073   0.00000  -0.00713  -0.00719   1.92289
   A39        1.92007  -0.00254   0.00000  -0.01782  -0.01789   1.90219
   A40        1.86716  -0.00050   0.00000   0.00349   0.00350   1.87066
   A41        1.91659   0.00130   0.00000   0.01174   0.01179   1.92839
   A42        1.89770   0.00084   0.00000   0.00177   0.00160   1.89931
   A43        1.93541   0.00193   0.00000   0.00830   0.00828   1.94368
   A44        1.90196   0.00065   0.00000   0.00725   0.00729   1.90926
   A45        1.85500  -0.00114   0.00000  -0.00351  -0.00349   1.85151
   A46        1.93087  -0.00155   0.00000  -0.00932  -0.00934   1.92153
   A47        1.94628  -0.00047   0.00000  -0.00387  -0.00387   1.94241
   A48        1.89202   0.00061   0.00000   0.00157   0.00154   1.89355
   A49        1.97952  -0.00425   0.00000  -0.02511  -0.02505   1.95447
   A50        1.92766  -0.00113   0.00000  -0.00801  -0.00806   1.91960
   A51        1.92800  -0.00026   0.00000   0.00059   0.00061   1.92860
   A52        1.92040   0.00083   0.00000   0.00172   0.00172   1.92212
   A53        1.90858   0.00082   0.00000   0.00539   0.00542   1.91399
   A54        1.90404  -0.00014   0.00000  -0.00233  -0.00234   1.90169
   A55        1.87424  -0.00008   0.00000   0.00295   0.00294   1.87718
   A56        2.17559  -0.01346   0.00000  -0.05316  -0.05316   2.12244
   A57        1.89187   0.00014   0.00000  -0.00463  -0.00473   1.88714
   A58        1.94835  -0.00035   0.00000  -0.00631  -0.00631   1.94204
   A59        1.90350  -0.00004   0.00000   0.00428   0.00433   1.90784
   A60        1.89723   0.00008   0.00000   0.00025   0.00019   1.89742
   A61        1.94621   0.00011   0.00000   0.00504   0.00512   1.95133
   A62        1.87733   0.00006   0.00000   0.00140   0.00139   1.87872
   A63        2.02247  -0.00595   0.00000  -0.03471  -0.03482   1.98765
    D1        0.92091  -0.00035   0.00000   0.00180   0.00180   0.92271
    D2        3.05872   0.00009   0.00000   0.00419   0.00419   3.06290
    D3       -1.17185  -0.00041   0.00000   0.00192   0.00193  -1.16992
    D4        2.96742  -0.00017   0.00000   0.00364   0.00363   2.97105
    D5       -1.17796   0.00027   0.00000   0.00602   0.00602  -1.17194
    D6        0.87466  -0.00023   0.00000   0.00376   0.00376   0.87842
    D7       -1.15278   0.00004   0.00000   0.01073   0.01072  -1.14206
[...]
 7079,0.00011711,0.00054682,-0.00051400,0.00129109,-0.00020753,-0.00009
 054,0.00000639,0.00009352,-0.00004503,-0.00001512,-0.00031961,0.000327
 88,0.00059660,0.00000399,-0.00000047,-0.00000054,-0.00000002,0.0000010
 7,-0.00000246,0.00007319,0.00004342,0.00000808,0.00000790,-0.00000214,
 -0.00000231,-0.00000953,0.00000596,0.00000041,0.00000322,-0.00000240,0
 .00000115,-0.00000498,-0.00000025,-0.00000372,0.00004619,0.00003463,0.
 00019034,-0.00040812,0.00045685,0.00024668,0.00488545,0.00232970,-0.00
 955842,-0.07329067,-0.05212618,0.29047665,-0.00025177,0.00011369,-0.00
 024953,0.00000193,0.00000098,0.00000034,0.00006311,0.00002175,-0.00004
 897,0.00000377,-0.00000063,-0.00000761,0.00000160,-0.00000773,0.000000
 26,0.00073618,0.00067862,0.00124462,0.00179696,-0.00139620,0.00428924,
 -0.07644932,-0.01975161,0.06349593,-0.01210513,0.00823269,0.02103372,-
 0.00528442,-0.00667669,0.01699256,-0.00027050,-0.00008837,-0.00013172,
 0.00000716,0.00001360,0.00000110,-0.00003137,0.00001187,0.00000630,0.0
 0011517,0.00006600,-0.00007238,-0.00000062,-0.00000043,-0.00000029,-0.
 00000021,-0.00000047,0.00000043,-0.00002165,-0.00001223,-0.00000394,-0
 .00000146,0.00000046,0.00000088,0.00000168,-0.00000119,0.00000055,-0.0
 0000045,0.00000045,-0.00000012,-0.00000172,-0.00000012,0.00000072,0.00
 024697,0.00004294,-0.00026090,-0.00016496,-0.00000829,-0.00039720,0.00
 012474,0.00007068,-0.00033789,0.00016230,-0.00001076,-0.00084337,0.082
 04491,0.00012335,-0.00050439,0.00031047,-0.00000066,-0.00000011,0.0000
 0018,-0.00003710,0.00000296,0.00004994,-0.00000496,0.00000029,0.000005
 85,-0.00000065,0.00000178,-0.00000342,0.00127095,0.00098908,0.00056031
 ,-0.00293690,0.00182899,-0.00418577,-0.01967690,-0.06258888,0.05905352
 ,0.01995447,-0.00409383,-0.03148156,-0.00977018,-0.00741210,0.02763643
 ,0.00018166,0.00029384,0.00006615,0.00000824,-0.00000003,0.00000495,0.
 00001601,-0.00001287,-0.00000518,0.00002340,-0.00011729,0.00002500,0.0
 0000059,0.00000010,-0.00000019,0.00000044,0.00000008,-0.00000059,0.000
 01896,0.00001300,0.00000560,0.00000133,-0.00000038,-0.00000087,-0.0000
 0068,0.00000129,-0.00000062,-0.00000045,-0.00000037,0.00000043,0.00000
 222,0.00000060,-0.00000099,0.00030720,-0.00002923,-0.00030914,-0.00022
 311,0.00025854,-0.00067854,-0.00018266,-0.00006756,0.00013602,-0.00073
 677,0.00012663,0.00111780,0.01620464,0.07429555,-0.00030551,-0.0003445
 7,0.00005616,0.00000167,0.00000035,-0.00000111,-0.00032702,-0.00006911
 ,-0.00000194,-0.00001890,0.00001016,0.00003844,-0.00001311,0.00000749,
 -0.00000048,-0.00004870,-0.00049665,0.00084830,-0.00282269,0.00100229,
 0.00116553,0.06680869,0.05639463,-0.25816129,0.01186347,-0.00995233,-0
 .01351522,-0.00128886,0.00082449,-0.00021432,0.00062200,0.00013897,0.0
 0013015,0.00005856,0.00000292,-0.00000653,0.00013446,-0.00005560,-0.00
 001544,-0.00003973,0.00005800,-0.00015868,0.00000583,-0.00000288,-0.00
 000137,0.00000154,0.00000181,-0.00000400,0.00004673,0.00002999,0.00001
 875,0.00000669,-0.00000424,-0.00000401,-0.00000580,0.00000541,-0.00000
 078,0.00000851,-0.00000027,0.00000252,0.00001110,0.00000359,-0.0000045
 3,0.00006760,0.00007288,0.00017333,0.00060893,-0.00007784,0.00017198,0
 .00005318,-0.00022411,0.00044737,0.00121718,-0.00021523,0.00075169,-0.
 08219943,-0.05317338,0.28340049,0.00084638,0.00011228,-0.00000936,-0.0
 0000843,-0.00000320,-0.00000121,0.00045881,0.00002463,-0.00000333,0.00
 002390,-0.00001440,-0.00005377,0.00002652,0.00000929,0.00000602,-0.000
 50559,-0.00328622,0.00075505,0.00077977,0.00182487,0.00363681,-0.21125
 701,0.01456690,-0.12735810,-0.02020317,0.00947658,-0.01059713,-0.01255
 400,0.00032167,-0.01112018,-0.00061781,-0.00016624,-0.00020751,-0.0000
 9560,-0.00003589,-0.00000307,-0.00017351,0.00008476,0.00002921,-0.0000
 5610,0.00003991,0.00002197,-0.00000933,0.00000656,0.00000358,-0.000002
 86,-0.00000152,0.00000709,-0.00006417,-0.00003534,-0.00001503,-0.00000
 929,0.00000629,0.00000541,0.00000962,-0.00000747,0.00000074,-0.0000124
 2,-0.00000010,-0.00000412,-0.00001667,-0.00000590,0.00000728,-0.000812
 28,0.00025537,-0.00059983,0.00004609,0.00007250,-0.00016069,-0.0008331
 0,0.00016728,-0.00060428,0.00003297,0.00001053,-0.00033469,0.00982394,
 -0.00124012,0.00554876,0.23444349,0.00040261,-0.00136699,-0.00003185,-
 0.00001682,-0.00000622,-0.00000301,0.00006756,-0.00003798,0.00008823,-
 0.00000270,-0.00000587,-0.00000325,0.00001263,0.00004909,0.00000939,-0
 .00257783,-0.00528544,0.00124872,0.00135614,-0.00335753,-0.00369748,0.
 00910101,-0.04884579,0.00913738,0.03006707,-0.00963334,0.01772236,-0.0
 2289836,0.00427451,-0.01839828,0.00013648,0.00061083,0.00005268,-0.000
 04655,-0.00007697,-0.00002058,-0.00001445,0.00001198,-0.00000482,-0.00
 003040,0.00010004,0.00004039,-0.00000452,0.00000772,0.00000337,-0.0000
 0058,0.00000110,0.00000249,0.00003218,0.00001103,0.00000778,-0.0000008
 2,0.00000199,-0.00000011,-0.00000172,-0.00000116,0.,-0.00000541,-0.000
 00106,-0.00000236,-0.00000084,-0.00000247,0.00000155,-0.00177471,0.000
 32945,-0.00086327,0.00027260,-0.00001387,0.00000914,0.00147086,-0.0001
 7788,0.00060737,-0.00020568,0.00002828,-0.00000746,0.00537596,0.000413
 48,0.00541160,-0.02263509,0.06099196,0.00016401,-0.00036544,-0.0000578
 8,-0.00000503,-0.00000234,-0.00000093,0.00007874,0.00002707,0.00004283
 ,0.00000364,-0.00000345,-0.00000595,0.00000581,0.00001156,0.00000109,0
 .00015097,-0.00053921,0.00105118,0.00162479,-0.00140353,-0.00015682,-0
 .13620383,0.01565318,-0.16057187,0.01333980,-0.00308081,0.00983014,0.0
 0217459,0.00080361,0.00071054,-0.00003147,0.00016655,0.00002826,-0.000
 00995,-0.00002626,-0.00000675,-0.00002102,0.00000763,-0.00000030,-0.00
 000912,-0.00000188,0.00001280,-0.00000238,0.00000248,0.00000113,0.0000
 0004,-0.00000034,0.00000115,0.00000724,0.00000041,-0.00000531,-0.00000
 162,0.00000089,0.00000054,-0.00000064,-0.00000146,-0.00000055,-0.00000
 326,-0.00000011,-0.00000098,-0.00000148,-0.00000119,0.00000087,-0.0003
 1606,0.00014725,0.00012251,0.00032844,-0.00001538,0.00036763,0.0002407
 9,-0.00018579,0.00044646,0.00015084,-0.00016930,0.00049265,-0.02230792
 ,0.00165966,-0.01652552,0.14081371,-0.01184472,0.16345295,-0.00190840,
 -0.00276537,-0.00436397,-0.00000160,-0.00000022,0.00000666,0.00128933,
 0.00049931,0.00014190,0.00005417,-0.00004026,-0.00014996,0.00003799,-0
 .00002541,0.00000916,-0.01574131,0.02167826,0.01104333,-0.00118448,-0.
 00045723,-0.00054913,0.01155585,-0.01133157,-0.00735086,-0.00017291,-0
 .00599054,-0.00053567,-0.12564519,0.10827308,0.05697436,-0.00250561,0.
 00208403,-0.00051309,-0.00012260,-0.00001146,0.00000281,-0.00054988,0.
 00012788,0.00007327,0.00011993,-0.00025005,0.00014106,-0.00001579,0.00
 000671,0.00000395,-0.00000698,-0.00000735,0.00001373,-0.00009709,-0.00
 006217,-0.00005419,-0.00001986,0.00001225,0.00001585,0.00002088,-0.000
 01255,0.00000239,-0.00002035,0.00000085,-0.00000636,-0.00003301,-0.000
 01042,0.00001374,0.00085498,-0.00054930,0.00076540,0.00127795,-0.00031
 199,-0.00001909,0.00019602,0.00010307,0.00015738,0.00019770,0.00003702
 ,0.00005039,0.00054374,0.00075510,0.00037622,0.00025959,0.00110482,-0.
 00025839,0.13629087,-0.00047210,0.00166833,0.00064530,0.00000358,0.000
 00068,0.00000048,-0.00037694,-0.00007753,-0.00003289,-0.00002202,0.000
 01134,0.00004524,-0.00001484,0.00000255,-0.00000451,0.00168666,-0.0022
 1626,-0.00018230,-0.00170788,0.00088915,-0.00109452,0.01820197,-0.0164
 1532,-0.01036801,-0.00219049,-0.00813055,-0.00041113,0.10708122,-0.199
 21386,-0.07569002,0.00050577,-0.00005485,-0.00006559,0.00005995,0.0000
 1058,0.00000585,0.00015445,-0.00005361,-0.00001671,0.00005506,-0.00016
 129,-0.00014182,0.00000650,-0.00000378,-0.00000193,0.00000176,0.000001
 89,-0.00000488,0.00004283,0.00002355,0.00001794,0.00000764,-0.00000449
 ,-0.00000489,-0.00000715,0.00000565,-0.00000075,0.00000808,-0.00000011
 ,0.00000259,0.00001182,0.00000433,-0.00000467,0.00016358,0.00041486,0.
 00034280,-0.00001482,0.00005628,0.00006909,0.00020081,-0.00005078,0.00
 007864,0.00015069,-0.00003284,0.00018447,0.00008175,0.00088534,0.00072
 268,-0.00030323,0.00075511,-0.00028455,-0.11833185,0.21494184,-0.00209
 030,-0.00136146,-0.00202002,0.00000215,0.00000138,0.00000485,0.0005112
 0,0.00028180,0.00004268,0.00001875,-0.00001645,-0.00006522,0.00001126,
 -0.00001703,0.00000669,-0.01159085,0.01678734,0.00699763,-0.00031794,-
 0.00011866,-0.00036994,0.00013266,0.00137443,-0.00186154,-0.00018202,-
 0.00076652,0.00155002,0.05739176,-0.07756780,-0.08583143,-0.00160797,0
 .00104033,-0.00019148,-0.00003770,0.00000683,-0.00001200,-0.00026360,0
 .00004737,0.00002873,-0.00013408,0.00029771,0.00035616,-0.00000473,0.0
 0000126,0.00000076,-0.00000302,-0.00000357,0.00000517,-0.00004202,-0.0
 0002343,-0.00002187,-0.00000732,0.00000478,0.00000795,0.00000967,-0.00
 000304,0.00000047,-0.00000392,0.00000076,-0.00000150,-0.00001208,-0.00
 000343,0.00000437,0.00089905,-0.00043151,0.00050395,0.00087812,0.00005
 249,0.00079323,0.00004562,0.00001228,0.00001019,0.00014060,-0.00002086
 ,0.00003296,-0.00028714,-0.00029835,0.00016478,-0.00006329,0.00006999,
 0.00001107,-0.05880532,0.08362984,0.09065719,0.00134100,-0.00041540,-0
 .00076008,0.00000119,0.00000246,-0.00000042,0.00008662,0.00002188,0.00
 003234,0.00000502,-0.00000055,-0.00001170,-0.00000125,-0.00000390,0.00
 001863,0.00672273,0.00677791,-0.02809519,-0.00047514,0.00010184,-0.000
 38986,-0.00771514,-0.00460118,0.02030161,0.00158650,0.00118398,-0.0013
 1227,-0.06416650,-0.01462881,0.06104975,-0.00033999,-0.00007591,0.0004
 8216,0.00000602,-0.00000996,-0.00003338,-0.00002969,0.00001139,-0.0000
 0464,-0.00020025,0.00008032,0.00034908,0.00000044,-0.00000109,0.000000
 20,-0.00000045,-0.00000068,0.00000082,0.00001057,-0.00000833,-0.000004
 09,-0.00000109,0.00000039,0.00000132,0.00000075,0.00000123,-0.00000029
 ,0.00000627,0.00000039,-0.00000077,-0.00000283,-0.00000024,-0.00000055
 ,0.00127477,-0.00046292,0.00077724,-0.00447943,0.00138729,-0.00299311,
 0.00009608,0.00004645,0.00001848,-0.00016666,0.00001843,0.00013935,-0.
 00109598,-0.00406619,-0.00035752,0.00044843,0.00078940,0.00008101,-0.0
 0472291,-0.00496140,0.01540112,0.07180162,-0.00033586,-0.00004196,0.00
 081589,0.00000265,-0.00000058,-0.00000019,0.00004570,0.00001330,-0.000
 00504,0.00000252,0.00000058,-0.00000143,0.00000065,-0.00001085,-0.0000
 0549,-0.00099578,-0.00153717,0.00317757,0.00006989,-0.00018587,0.00006
 988,-0.00927506,-0.00922061,0.02807393,0.00062065,0.00305845,-0.000471
 71,-0.01302686,-0.06311307,0.05646649,0.00010398,0.00001282,-0.0001940
 3,0.00000598,0.00000914,0.00002642,-0.00001123,0.00000335,0.00000464,0
 .00021429,-0.00005123,0.00003971,-0.00000055,-0.00000031,-0.00000054,0
 .00000011,-0.00000007,0.00000030,-0.00000959,-0.00000128,-0.00000067,-
 0.00000113,0.00000047,0.00000018,0.00000142,-0.00000290,-0.00000060,-0
 .00000359,0.00000016,-0.00000023,-0.00000211,-0.00000050,0.00000084,0.
 00019710,0.00026987,-0.00032776,0.00037439,0.00074906,0.00033876,0.000
 02278,-0.00000226,-0.00001970,-0.00005035,0.00008704,-0.00007968,-0.00
 295433,-0.00428169,-0.00006676,0.00071867,0.00115941,-0.00057718,0.005
 46207,0.00676030,-0.02297453,0.01881285,0.06633428,0.00119674,-0.00074
 967,-0.00005996,-0.00000767,-0.00000190,-0.00000147,0.00027723,0.00003
 109,-0.00000067,0.00001301,-0.00000808,-0.00003816,0.00001486,0.000013
 42,0.00001533,0.00313332,0.00391591,-0.01773239,-0.00000046,0.00000578
 ,0.00009648,0.00038897,-0.00116145,0.00035988,-0.00118288,0.00077139,0
 .00092854,0.06199027,0.05809009,-0.27833925,-0.00055673,0.00000402,0.0
 0034854,-0.00005828,-0.00003442,-0.00004320,-0.00012258,0.00004935,0.0
 0001681,-0.00032329,0.00056103,0.00045659,-0.00000455,0.00000419,0.000
 00239,-0.00000187,-0.00000130,0.00000466,-0.00001636,-0.00001678,-0.00
 000481,-0.00000491,0.00000332,0.00000431,0.00000510,-0.00000240,0.0000
 0088,-0.00000222,0.00000040,-0.00000195,-0.00000898,-0.00000396,0.0000
 0395,0.00006498,-0.00032286,0.00061680,-0.00341787,0.00058047,-0.00068
 447,0.00002971,0.00009519,-0.00000942,0.00005516,-0.00010973,-0.000110
 84,0.00008114,-0.00049196,0.00122451,0.00032190,0.00045668,0.00075950,
 0.00285245,0.00254553,-0.01079657,-0.06470397,-0.06427176,0.30300018,-
 0.00214305,-0.00173863,0.00081311,0.00138634,-0.00073283,-0.00072099,0
 .00172245,0.00317972,0.00734249,0.00022576,0.00031900,-0.00060315,-0.0
 1813270,-0.00921254,-0.02972016,0.00015381,0.00005741,-0.00030506,-0.0
 0002654,-0.00018882,0.00008903,-0.00001860,-0.00002145,0.00002485,0.00
 014036,0.00004406,0.00004789,0.00000677,0.00000710,-0.00007042,-0.0004
 3893,0.00098559,-0.00149786,-0.08731457,-0.02780534,-0.09638418,0.0001
 6387,0.00041391,-0.00036821,-0.00464295,-0.00269676,0.00099422,0.00037
 143,-0.00022230,0.00015884,-0.00007587,0.00022067,0.00041046,0.0000021
 7,-0.00165651,0.00132460,0.00010664,-0.00004711,0.00017592,0.00016582,
 0.00065973,-0.00014286,-0.00633600,-0.00060292,0.00139391,0.00143200,-
 0.00008589,0.00033029,0.00020654,0.00022793,0.00001590,0.00016736,0.00
 001115,-0.00005619,0.00001618,0.00001488,0.00001625,-0.00002568,-0.000
 01779,-0.00004493,0.00000320,0.00000094,-0.00000537,0.00001702,0.00001
 363,0.00000826,0.00003433,-0.00000803,0.00000573,0.00000202,0.00001015
 ,-0.00001254,0.10717812,-0.00167792,-0.00050015,-0.00013448,0.00062356
 ,0.00001344,0.00066338,0.01050255,0.00955772,0.02070027,0.00073046,-0.
 00040122,0.00063566,-0.00197775,-0.00126468,-0.00333221,0.00011318,0.0
 0011061,-0.00011361,-0.00001818,-0.00004038,-0.00001199,-0.00001601,0.
 00001966,-0.00000222,0.00005436,-0.00001868,0.00003561,0.00000733,-0.0
 0004551,0.00000746,0.00106234,0.00174725,-0.00242170,-0.02863852,-0.07
 041681,-0.06387473,-0.00012188,-0.00134402,-0.00086454,-0.00303551,-0.
 00042938,0.00061225,-0.00007794,-0.00001658,-0.00005184,-0.00017687,0.
 00022050,-0.00016089,-0.00073877,-0.00226505,0.00281499,0.00000306,0.0
 0008994,0.00000407,0.00068632,-0.00120562,-0.00003472,-0.00066176,0.00
 080205,0.00067220,0.00011503,-0.00010813,-0.00014402,-0.00013466,-0.00
 011464,-0.00004061,0.00004746,-0.00002664,-0.00001647,0.00000605,-0.00
 001266,-0.00000005,-0.00000694,-0.00001820,-0.00000310,0.00000092,-0.0
 0000243,0.00000070,0.00000049,-0.00000559,0.00000259,0.00000214,-0.000
 00305,0.00000514,0.00000413,0.00000406,0.00000852,0.03590156,0.0729014
 8,-0.00082090,-0.00048571,-0.00118686,-0.00037738,-0.00008831,0.001266
 58,-0.00824596,-0.00984502,-0.02229824,-0.00011950,-0.00116010,-0.0009
 7951,0.00176412,0.00135771,0.00553840,0.00020527,-0.00028457,0.0000411
 9,0.00021484,0.00004050,0.00087677,0.00009500,-0.00003190,-0.00006963,
 -0.00010618,0.00007448,-0.00005637,0.00005017,-0.00000384,0.00007795,-
 0.00062279,-0.00054402,0.00167604,-0.09438388,-0.06182169,-0.25207179,
 -0.00035502,0.00187569,0.00079802,-0.00042414,-0.00013428,0.00212846,-
 0.00001262,0.00012595,0.00001598,-0.00059580,0.00038647,-0.00026854,0.
 00056756,0.00377269,-0.00194409,0.00020820,0.00014020,0.00034424,0.000
 57341,0.00000646,0.00050921,0.00171695,-0.00014104,0.00094113,-0.00063
 167,-0.00002853,0.00040040,0.00005560,-0.00001623,-0.00014368,-0.00008
 836,0.00010801,0.00009218,0.00000278,-0.00004052,-0.00001963,-0.000269
 10,-0.00025006,-0.00000655,0.00000165,-0.00000158,0.00002151,-0.000026
 37,-0.00000339,-0.00000511,-0.00004519,0.00002064,-0.00000963,0.000023
 21,-0.00000907,-0.00001250,0.10475366,0.06933546,0.27167776,0.00043438
 ,0.00017666,0.00002735,-0.00629659,-0.00184104,-0.00047823,0.00126946,
 -0.00528937,-0.00344802,-0.00064591,-0.00123206,0.00003899,-0.01201315
 ,0.02895800,0.01045246,-0.00088788,0.00006435,0.00029117,-0.00014191,0
 .00005941,-0.00002104,-0.00000567,-0.00006692,0.00001973,0.00001021,0.
 00000315,0.00001650,-0.00001458,0.00006540,-0.00001012,-0.00057666,0.0
 0043807,0.00043504,-0.08991662,0.09580177,0.03054386,0.00139761,-0.000
 33174,0.00040171,0.00021894,0.00006213,-0.00007866,-0.00074947,0.00166
 175,0.00080450,-0.00010766,0.00014984,0.00025056,0.00027042,0.00016521
 ,-0.00017412,0.00013867,0.00009811,0.00003328,0.00036679,-0.00002743,0
 .00012625,0.00124701,-0.00005865,-0.00068281,0.00160535,-0.00032688,0.
 00007326,-0.00249614,-0.00055199,0.00043731,-0.00006340,0.00001496,0.0
 0001652,0.00002556,0.00003997,0.00000819,0.00001436,0.00002010,0.00000
 627,0.00000221,0.00000783,-0.00000849,0.00001481,0.00001353,-0.0000005
 2,0.00001462,-0.00001335,0.00000562,0.00000727,0.00000061,0.00000034,0
 .00565271,-0.01257821,-0.00310754,0.10122527,0.00029774,-0.00090754,0.
 00014425,-0.00156876,0.00059673,0.00029890,0.01011467,-0.01708657,-0.0
 0978941,-0.00076160,0.00055333,0.00099194,-0.00240924,0.00609218,0.002
 40690,0.00020752,-0.00078684,-0.00002011,-0.00007288,0.00011133,-0.000
 00113,0.00014780,-0.00015604,0.00010575,-0.00009434,0.00000988,-0.0000
 2804,0.00006331,0.00038629,-0.00018571,-0.00166467,-0.00010856,0.00105
 476,0.09607512,-0.25641066,-0.06681335,0.00067085,-0.00346375,0.002969
 42,0.00007137,-0.00006568,0.00001765,-0.00022742,0.00022897,0.00005531
 ,0.00002571,0.00008466,0.00000885,-0.00008866,0.00123349,0.00002976,0.
 00013034,-0.00003007,-0.00000239,0.00015727,0.00010402,0.00000604,0.00
 053921,0.00008858,-0.00007796,0.00057038,0.00052922,-0.00008704,0.0000
 9228,0.00107054,0.00004227,0.00018392,0.00020283,-0.00006570,0.0000251
 9,0.00004059,0.00000979,-0.00000694,-0.00000430,-0.00000197,-0.0000079
 7,-0.00000041,-0.00000496,0.00003612,0.00007217,0.00002006,0.00001114,
 -0.00001346,-0.00000710,-0.00000377,-0.00001196,0.00003992,0.00296950,
 -0.00722728,-0.00235440,-0.10548318,0.27486832,0.00008189,0.00001644,-
 0.00005180,0.00157152,0.00023860,0.00119865,-0.01122725,0.02036176,0.0
 0674410,0.00060626,-0.00039626,-0.00161531,0.00102837,-0.00333016,-0.0
 0239860,0.00021853,-0.00010135,0.00005281,0.00004211,-0.00002354,0.000
 02208,0.00002421,-0.00001349,0.00001824,0.00000904,0.00001575,0.000005
 17,0.00004104,0.00005083,-0.00005028,0.00058736,-0.00032893,-0.0004909
 4,0.03164243,-0.06985727,-0.07029569,-0.00132440,0.00604748,-0.0032242
 4,0.00023066,0.00008472,0.00002900,0.00028657,-0.00047173,-0.00006366,
 -0.00024708,0.00014660,0.00001238,-0.00043183,-0.00012204,0.00104002,0
 .00007046,0.00001280,0.00028727,0.00019281,0.00017527,0.00024803,0.000
 13056,0.00034155,0.00032163,-0.00005827,-0.00011901,-0.00003858,0.0004
 8164,0.00025868,0.00036602,0.00001795,0.00007484,-0.00000862,-0.000003
 63,0.00000048,0.00000417,-0.00002020,-0.00000973,0.00000152,-0.0000010
 4,-0.00000018,-0.00000029,0.00000446,0.00001146,0.00000469,0.00000718,
 -0.00000192,0.00000235,-0.00000849,-0.00000821,-0.00000369,0.01202651,
 -0.02429112,-0.00733369,-0.03597935,0.07123770,0.07521725\\-0.00058509
 ,0.00098267,0.00116391,-0.00000424,0.00000833,-0.00000981,-0.00031979,
 0.00058494,-0.00121434,0.00000040,0.00000961,0.00001802,-0.00000349,-0
 .00001524,-0.00000907,0.00000970,0.00000921,0.00000153,-0.00000315,-0.
 00000416,-0.00001176,0.00000538,-0.00000255,-0.00001277,-0.00000589,0.
 00001143,0.00001267,0.00000266,-0.00000101,-0.00000528,0.00092189,-0.0
 0150612,-0.00136424,0.00000442,0.00000035,-0.00000180,-0.00003716,-0.0
 0007519,0.00140847,0.00001329,0.00000396,-0.00000730,-0.00000059,-0.00
 000410,0.00000679,0.00000651,-0.00000390,0.00000116,0.00000667,0.00000
 452,0.00000797,-0.00000499,-0.00000655,-0.00001245,-0.00000243,-0.0000
 0658,-0.00000149,0.00000758,-0.00000570,0.00000082,0.00000443,-0.00000
 255,0.00000381,-0.00000819,-0.00000069,0.00000224,0.00000145,0.0000002
 2,0.00000201,-0.00000324,0.00000173,0.00000060,-0.00000529,0.00000173,
 0.00000087,-0.00000198,0.00000409,0.00000388,-0.00000429,0.00000960,0.
 00000344,0.00000246,-0.00000038,0.00000641,0.00000395,0.00000718,0.000
 00488,-0.00001025,0.00000334,-0.00000456,0.00000928,-0.00000820,0.0000
 0541\\\@


 CONFIDENCE: THAT QUIET ASSURED FEELING YOU HAVE
 JUST BEFORE YOU FALL FLAT ON YOUR FACE.
 Job cpu time:       0 days 17 hours 58 minutes 51.4 seconds.
 Elapsed time:       0 days  1 hours  7 minutes 28.1 seconds.
 File lengths (MBytes):  RWF=    686 Int=      0 D2E=      0 Chk=     33 Scr=      1
 Normal termination of Gaussian 16 at Mon Nov  5 01:23:58 2018.
