 Entering Gaussian System, Link 0=g16
 Initial command:
 /apps/gaussian/g16a03/g16/l1.exe "/jobfs/local/2011835.r-man2/Gau-20771.inp" -scrdir="/jobfs/local/2011835.r-man2/"
 Entering Link 1 = /apps/gaussian/g16a03/g16/l1.exe PID=     20772.
  
 Copyright (c) 1988,1990,1992,1993,1995,1998,2003,2009,2016,
            Gaussian, Inc.  All Rights Reserved.
  
 This is part of the Gaussian(R) 16 program.  It is based on
 the Gaussian(R) 09 system (copyright 2009, Gaussian, Inc.),
 the Gaussian(R) 03 system (copyright 2003, Gaussian, Inc.),
 the Gaussian(R) 98 system (copyright 1998, Gaussian, Inc.),
 the Gaussian(R) 94 system (copyright 1995, Gaussian, Inc.),
 the Gaussian 92(TM) system (copyright 1992, Gaussian, Inc.),
 the Gaussian 90(TM) system (copyright 1990, Gaussian, Inc.),
 the Gaussian 88(TM) system (copyright 1988, Gaussian, Inc.),
 the Gaussian 86(TM) system (copyright 1986, Carnegie Mellon
 University), and the Gaussian 82(TM) system (copyright 1983,
 Carnegie Mellon University). Gaussian is a federally registered
 trademark of Gaussian, Inc.
  
 This software contains proprietary and confidential information,
 including trade secrets, belonging to Gaussian, Inc.
  
 This software is provided under written license and may be
 used, copied, transmitted, or stored only in accord with that
 written license.
  
 The following legend is applicable only to US Government
 contracts under FAR:
  
                    RESTRICTED RIGHTS LEGEND
  
 Use, reproduction and disclosure by the US Government is
 subject to restrictions as set forth in subparagraphs (a)
 and (c) of the Commercial Computer Software - Restricted
 Rights clause in FAR 52.227-19.
  
 Gaussian, Inc.
 340 Quinnipiac St., Bldg. 40, Wallingford CT 06492
  
  
 ---------------------------------------------------------------
 Warning -- This program may not be used in any manner that
 competes with the business of Gaussian, Inc. or will provide
 assistance to any competitor of Gaussian, Inc.  The licensee
 of this program is prohibited from giving any competitor of
 Gaussian, Inc. access to this program.  By using this program,
 the user acknowledges that Gaussian, Inc. is engaged in the
 business of creating and licensing software in the field of
 computational chemistry and represents and warrants to the
 licensee that it is not a competitor of Gaussian, Inc. and that
 it will not use this program in any manner prohibited above.
 ---------------------------------------------------------------
  

 Cite this work as:
 Gaussian 16, Revision A.03,
 M. J. Frisch, G. W. Trucks, H. B. Schlegel, G. E. Scuseria, 
 M. A. Robb, J. R. Cheeseman, G. Scalmani, V. Barone, 
 G. A. Petersson, H. Nakatsuji, X. Li, M. Caricato, A. V. Marenich, 
 J. Bloino, B. G. Janesko, R. Gomperts, B. Mennucci, H. P. Hratchian, 
 J. V. Ortiz, A. F. Izmaylov, J. L. Sonnenberg, D. Williams-Young, 
 F. Ding, F. Lipparini, F. Egidi, J. Goings, B. Peng, A. Petrone, 
 T. Henderson, D. Ranasinghe, V. G. Zakrzewski, J. Gao, N. Rega, 
 G. Zheng, W. Liang, M. Hada, M. Ehara, K. Toyota, R. Fukuda, 
 J. Hasegawa, M. Ishida, T. Nakajima, Y. Honda, O. Kitao, H. Nakai, 
 T. Vreven, K. Throssell, J. A. Montgomery, Jr., J. E. Peralta, 
 F. Ogliaro, M. J. Bearpark, J. J. Heyd, E. N. Brothers, K. N. Kudin, 
 V. N. Staroverov, T. A. Keith, R. Kobayashi, J. Normand, 
 K. Raghavachari, A. P. Rendell, J. C. Burant, S. S. Iyengar, 
 J. Tomasi, M. Cossi, J. M. Millam, M. Klene, C. Adamo, R. Cammi, 
 J. W. Ochterski, R. L. Martin, K. Morokuma, O. Farkas, 
 J. B. Foresman, and D. J. Fox, Gaussian, Inc., Wallingford CT, 2016.
 
 ******************************************
 Gaussian 16:  ES64L-G16RevA.03 25-Dec-2016
                 4-Nov-2018 
 ******************************************
 %mem=6000mb
 %nproc=24
 Will use up to   24 processors via shared memory.
 %chk=2SO_1_e4_D_PHI.inp_extract_24.chk
 ----------------------------------------------------------------------
 #M062X/6-311++G(2d,2p) opt=ModRedundant freq=noraman SCRF=(Solvent=Wat
 er)
 ----------------------------------------------------------------------
 1/18=120,19=15,26=3,38=1/1,3;
 2/9=110,12=2,17=6,18=5,40=1/2;
 3/5=4,6=6,7=1212,11=2,25=1,30=1,70=2201,71=1,72=1,74=-55/1,2,3;
 4//1;
 5/5=2,38=5,53=1/2;
 6/7=2,8=2,9=2,10=2,28=1/1;
 7//1,2,3,16;
 1/18=20,19=15,26=3/3(2);
 2/9=110/2;
 99//99;
 2/9=110/2;
 3/5=4,6=6,7=1212,11=2,25=1,30=1,70=2205,71=1,72=1,74=-55/1,2,3;
 4/5=5,16=3,69=1/1;
 5/5=2,38=5,53=1/2;
 7//1,2,3,16;
 1/18=20,19=15,26=3/3(-5);
 2/9=110/2;
 6/7=2,8=2,9=2,10=2,19=2,28=1/1;
 99/9=1/99;
 -----------------------------
 2SO_1_e4_D_PHI.inp_extract_24
 -----------------------------
 Symbolic Z-matrix:
 Charge =  0 Multiplicity = 1
 C                     1.13905  -0.04094   0.07114 
 C                    -3.95573  -0.57249   0.08005 
 C                    -1.19314   0.49131   0.2086 
 C                    -2.66107  -1.38418   0.15601 
 C                    -3.63896   0.93054  -0.02474 
 C                     1.90905  -1.1358   -0.65175 
 C                     1.94906   1.25104   0.08641 
 C                     4.00239   0.09043  -0.01506 
 O                     3.21229   1.03971   0.67869 
 C                     3.31384  -1.26453  -0.05711 
 O                    -0.08954   0.19024  -0.59634 
 C                    -2.26579   1.13423  -0.66184 
 O                    -1.66401  -0.6605    0.86062 
 H                     0.94496  -0.35091   1.09171 
 H                    -4.5683   -0.76387   0.95517 
 H                    -4.52111  -0.90592  -0.78542 
 H                    -0.88891   1.15783   1.00348 
 H                    -2.79972  -2.31031   0.69522 
 H                    -2.29337  -1.62875  -0.83418 
 H                    -3.64028   1.37837   0.96502 
 H                    -4.40131   1.4433   -0.60104 
 H                     1.37066  -2.07564  -0.58097 
 H                     1.97813  -0.87576  -1.70575 
 H                     1.45292   2.01632   0.66745 
 H                     2.07525   1.61482  -0.93087 
 H                     4.19023   0.45587  -1.02215 
 H                     4.94578   0.03789   0.51086 
 H                     3.91295  -1.95392  -0.6444 
 H                     3.25416  -1.66392   0.9522 
 H                    -2.24308   0.68524  -1.65028 
 H                    -2.03113   2.18617  -0.78006 
 
 The following ModRedundant input section has been read:
 D      13       3      11       1 F                                           
 

 GradGradGradGradGradGradGradGradGradGradGradGradGradGradGradGradGradGrad
 Berny optimization.
 Initialization pass.
                           ----------------------------
                           !    Initial Parameters    !
                           ! (Angstroms and Degrees)  !
 --------------------------                            --------------------------
 ! Name  Definition              Value          Derivative Info.                !
 --------------------------------------------------------------------------------
 ! R1    R(1,6)                  1.5212         estimate D2E/DX2                !
 ! R2    R(1,7)                  1.525          estimate D2E/DX2                !
 ! R3    R(1,11)                 1.4172         estimate D2E/DX2                !
 ! R4    R(1,14)                 1.0841         estimate D2E/DX2                !
 ! R5    R(2,4)                  1.53           estimate D2E/DX2                !
 ! R6    R(2,5)                  1.5396         estimate D2E/DX2                !
 ! R7    R(2,15)                 1.0852         estimate D2E/DX2                !
 ! R8    R(2,16)                 1.0862         estimate D2E/DX2                !
 ! R9    R(3,11)                 1.3988         estimate D2E/DX2                !
 ! R10   R(3,12)                 1.5237         estimate D2E/DX2                !
 ! R11   R(3,13)                 1.4048         estimate D2E/DX2                !
 ! R12   R(3,17)                 1.081          estimate D2E/DX2                !
 ! R13   R(4,13)                 1.4193         estimate D2E/DX2                !
 ! R14   R(4,18)                 1.0806         estimate D2E/DX2                !
 ! R15   R(4,19)                 1.0842         estimate D2E/DX2                !
 ! R16   R(5,12)                 1.5274         estimate D2E/DX2                !
 ! R17   R(5,20)                 1.0864         estimate D2E/DX2                !
 ! R18   R(5,21)                 1.0845         estimate D2E/DX2                !
 ! R19   R(6,10)                 1.5309         estimate D2E/DX2                !
 ! R20   R(6,22)                 1.0854         estimate D2E/DX2                !
 ! R21   R(6,23)                 1.0878         estimate D2E/DX2                !
 ! R22   R(7,9)                  1.4111         estimate D2E/DX2                !
 ! R23   R(7,24)                 1.0814         estimate D2E/DX2                !
 ! R24   R(7,25)                 1.0877         estimate D2E/DX2                !
 ! R25   R(8,9)                  1.4166         estimate D2E/DX2                !
 ! R26   R(8,10)                 1.5205         estimate D2E/DX2                !
 ! R27   R(8,26)                 1.0877         estimate D2E/DX2                !
 ! R28   R(8,27)                 1.0814         estimate D2E/DX2                !
 ! R29   R(10,28)                1.0859         estimate D2E/DX2                !
 ! R30   R(10,29)                1.0871         estimate D2E/DX2                !
 ! R31   R(12,30)                1.0859         estimate D2E/DX2                !
 ! R32   R(12,31)                1.0843         estimate D2E/DX2                !
 ! A1    A(6,1,7)              110.2221         estimate D2E/DX2                !
 ! A2    A(6,1,11)             109.4144         estimate D2E/DX2                !
 ! A3    A(6,1,14)             109.4011         estimate D2E/DX2                !
 ! A4    A(7,1,11)             109.0863         estimate D2E/DX2                !
 ! A5    A(7,1,14)             109.141          estimate D2E/DX2                !
 ! A6    A(11,1,14)            109.5612         estimate D2E/DX2                !
 ! A7    A(4,2,5)              110.3162         estimate D2E/DX2                !
 ! A8    A(4,2,15)             110.1241         estimate D2E/DX2                !
 ! A9    A(4,2,16)             108.4913         estimate D2E/DX2                !
 ! A10   A(5,2,15)             110.0706         estimate D2E/DX2                !
 ! A11   A(5,2,16)             110.6426         estimate D2E/DX2                !
 ! A12   A(15,2,16)            107.1322         estimate D2E/DX2                !
 ! A13   A(11,3,12)            108.5122         estimate D2E/DX2                !
 ! A14   A(11,3,13)            110.7979         estimate D2E/DX2                !
 ! A15   A(11,3,17)            109.5003         estimate D2E/DX2                !
 ! A16   A(12,3,13)            112.0333         estimate D2E/DX2                !
 ! A17   A(12,3,17)            110.978          estimate D2E/DX2                !
 ! A18   A(13,3,17)            104.9854         estimate D2E/DX2                !
 ! A19   A(2,4,13)             110.4024         estimate D2E/DX2                !
 ! A20   A(2,4,18)             111.771          estimate D2E/DX2                !
 ! A21   A(2,4,19)             111.181          estimate D2E/DX2                !
 ! A22   A(13,4,18)            106.2252         estimate D2E/DX2                !
 ! A23   A(13,4,19)            109.2796         estimate D2E/DX2                !
 ! A24   A(18,4,19)            107.8129         estimate D2E/DX2                !
 ! A25   A(2,5,12)             110.093          estimate D2E/DX2                !
 ! A26   A(2,5,20)             109.8881         estimate D2E/DX2                !
 ! A27   A(2,5,21)             110.6774         estimate D2E/DX2                !
 ! A28   A(12,5,20)            109.0341         estimate D2E/DX2                !
 ! A29   A(12,5,21)            110.3188         estimate D2E/DX2                !
 ! A30   A(20,5,21)            106.7606         estimate D2E/DX2                !
 ! A31   A(1,6,10)             109.9021         estimate D2E/DX2                !
 ! A32   A(1,6,22)             109.9455         estimate D2E/DX2                !
 ! A33   A(1,6,23)             108.6945         estimate D2E/DX2                !
 ! A34   A(10,6,22)            110.9176         estimate D2E/DX2                !
 ! A35   A(10,6,23)            109.7664         estimate D2E/DX2                !
 ! A36   A(22,6,23)            107.5573         estimate D2E/DX2                !
 ! A37   A(1,7,9)              110.6597         estimate D2E/DX2                !
 ! A38   A(1,7,24)             111.1762         estimate D2E/DX2                !
 ! A39   A(1,7,25)             109.609          estimate D2E/DX2                !
 ! A40   A(9,7,24)             106.929          estimate D2E/DX2                !
 ! A41   A(9,7,25)             109.8024         estimate D2E/DX2                !
 ! A42   A(24,7,25)            108.6066         estimate D2E/DX2                !
 ! A43   A(9,8,10)             110.986          estimate D2E/DX2                !
 ! A44   A(9,8,26)             108.9428         estimate D2E/DX2                !
 ! A45   A(9,8,27)             106.3185         estimate D2E/DX2                !
 ! A46   A(10,8,26)            110.6099         estimate D2E/DX2                !
 ! A47   A(10,8,27)            111.4216         estimate D2E/DX2                !
 ! A48   A(26,8,27)            108.4199         estimate D2E/DX2                !
 ! A49   A(7,9,8)              113.211          estimate D2E/DX2                !
 ! A50   A(6,10,8)             110.5709         estimate D2E/DX2                !
 ! A51   A(6,10,28)            110.4628         estimate D2E/DX2                !
 ! A52   A(6,10,29)            109.9471         estimate D2E/DX2                !
 ! A53   A(8,10,28)            109.3217         estimate D2E/DX2                !
 ! A54   A(8,10,29)            109.0615         estimate D2E/DX2                !
 ! A55   A(28,10,29)           107.4089         estimate D2E/DX2                !
 ! A56   A(1,11,3)             116.6197         estimate D2E/DX2                !
 ! A57   A(3,12,5)             109.7758         estimate D2E/DX2                !
 ! A58   A(3,12,30)            109.3191         estimate D2E/DX2                !
 ! A59   A(3,12,31)            108.6211         estimate D2E/DX2                !
 ! A60   A(5,12,30)            110.0805         estimate D2E/DX2                !
 ! A61   A(5,12,31)            111.6804         estimate D2E/DX2                !
 ! A62   A(30,12,31)           107.3003         estimate D2E/DX2                !
 ! A63   A(3,13,4)             115.031          estimate D2E/DX2                !
 ! D1    D(7,1,6,10)            52.4504         estimate D2E/DX2                !
 ! D2    D(7,1,6,22)           174.8156         estimate D2E/DX2                !
 ! D3    D(7,1,6,23)           -67.6955         estimate D2E/DX2                !
 ! D4    D(11,1,6,10)          172.4046         estimate D2E/DX2                !
 ! D5    D(11,1,6,22)          -65.2303         estimate D2E/DX2                !
 ! D6    D(11,1,6,23)           52.2587         estimate D2E/DX2                !
 ! D7    D(14,1,6,10)          -67.5629         estimate D2E/DX2                !
 ! D8    D(14,1,6,22)           54.8023         estimate D2E/DX2                !
 ! D9    D(14,1,6,23)          172.2912         estimate D2E/DX2                !
 ! D10   D(6,1,7,9)            -56.5934         estimate D2E/DX2                !
 ! D11   D(6,1,7,24)          -175.2663         estimate D2E/DX2                !
 ! D12   D(6,1,7,25)            64.6507         estimate D2E/DX2                !
 ! D13   D(11,1,7,9)          -176.7456         estimate D2E/DX2                !
 ! D14   D(11,1,7,24)           64.5815         estimate D2E/DX2                !
 ! D15   D(11,1,7,25)          -55.5015         estimate D2E/DX2                !
 ! D16   D(14,1,7,9)            63.5768         estimate D2E/DX2                !
 ! D17   D(14,1,7,24)          -55.0961         estimate D2E/DX2                !
 ! D18   D(14,1,7,25)         -175.1791         estimate D2E/DX2                !
 ! D19   D(6,1,11,3)           143.6153         estimate D2E/DX2                !
 ! D20   D(7,1,11,3)           -95.7363         estimate D2E/DX2                !
 ! D21   D(14,1,11,3)           23.681          estimate D2E/DX2                !
 ! D22   D(5,2,4,13)            33.8978         estimate D2E/DX2                !
 ! D23   D(5,2,4,18)           151.9036         estimate D2E/DX2                !
 ! D24   D(5,2,4,19)           -87.5638         estimate D2E/DX2                !
 ! D25   D(15,2,4,13)          -87.7974         estimate D2E/DX2                !
 ! D26   D(15,2,4,18)           30.2084         estimate D2E/DX2                !
 ! D27   D(15,2,4,19)          150.7411         estimate D2E/DX2                !
 ! D28   D(16,2,4,13)          155.2436         estimate D2E/DX2                !
 ! D29   D(16,2,4,18)          -86.7506         estimate D2E/DX2                !
 ! D30   D(16,2,4,19)           33.7821         estimate D2E/DX2                !
 ! D31   D(4,2,5,12)            26.4422         estimate D2E/DX2                !
 ! D32   D(4,2,5,20)           -93.6655         estimate D2E/DX2                !
 ! D33   D(4,2,5,21)           148.6688         estimate D2E/DX2                !
 ! D34   D(15,2,5,12)          148.169          estimate D2E/DX2                !
 ! D35   D(15,2,5,20)           28.0613         estimate D2E/DX2                !
 ! D36   D(15,2,5,21)          -89.6044         estimate D2E/DX2                !
 ! D37   D(16,2,5,12)          -93.6158         estimate D2E/DX2                !
 ! D38   D(16,2,5,20)          146.2765         estimate D2E/DX2                !
 ! D39   D(16,2,5,21)           28.6108         estimate D2E/DX2                !
 ! D40   D(12,3,11,1)          161.9314         estimate D2E/DX2                !
 ! D41   D(13,3,11,1)          -74.6762         Frozen                          !
 ! D42   D(17,3,11,1)           40.6601         estimate D2E/DX2                !
 ! D43   D(11,3,12,5)          155.6919         estimate D2E/DX2                !
 ! D44   D(11,3,12,30)          34.8498         estimate D2E/DX2                !
 ! D45   D(11,3,12,31)         -81.9359         estimate D2E/DX2                !
 ! D46   D(13,3,12,5)           33.0451         estimate D2E/DX2                !
 ! D47   D(13,3,12,30)         -87.797          estimate D2E/DX2                !
 ! D48   D(13,3,12,31)         155.4173         estimate D2E/DX2                !
 ! D49   D(17,3,12,5)          -83.9503         estimate D2E/DX2                !
 ! D50   D(17,3,12,30)         155.2077         estimate D2E/DX2                !
 ! D51   D(17,3,12,31)          38.4219         estimate D2E/DX2                !
 ! D52   D(11,3,13,4)          -90.5814         estimate D2E/DX2                !
 ! D53   D(12,3,13,4)           30.7585         estimate D2E/DX2                !
 ! D54   D(17,3,13,4)          151.2987         estimate D2E/DX2                !
 ! D55   D(2,4,13,3)           -67.7259         estimate D2E/DX2                !
 ! D56   D(18,4,13,3)          170.9167         estimate D2E/DX2                !
 ! D57   D(19,4,13,3)           54.8562         estimate D2E/DX2                !
 ! D58   D(2,5,12,3)           -61.4622         estimate D2E/DX2                !
 ! D59   D(2,5,12,30)           58.919          estimate D2E/DX2                !
 ! D60   D(2,5,12,31)          178.0011         estimate D2E/DX2                !
 ! D61   D(20,5,12,3)           59.1605         estimate D2E/DX2                !
 ! D62   D(20,5,12,30)         179.5418         estimate D2E/DX2                !
 ! D63   D(20,5,12,31)         -61.3761         estimate D2E/DX2                !
 ! D64   D(21,5,12,3)          176.0994         estimate D2E/DX2                !
 ! D65   D(21,5,12,30)         -63.5193         estimate D2E/DX2                !
 ! D66   D(21,5,12,31)          55.5627         estimate D2E/DX2                !
 ! D67   D(1,6,10,8)           -51.7577         estimate D2E/DX2                !
 ! D68   D(1,6,10,28)         -172.9055         estimate D2E/DX2                !
 ! D69   D(1,6,10,29)           68.7258         estimate D2E/DX2                !
 ! D70   D(22,6,10,8)         -173.545          estimate D2E/DX2                !
 ! D71   D(22,6,10,28)          65.3072         estimate D2E/DX2                !
 ! D72   D(22,6,10,29)         -53.0614         estimate D2E/DX2                !
 ! D73   D(23,6,10,8)           67.7359         estimate D2E/DX2                !
 ! D74   D(23,6,10,28)         -53.4119         estimate D2E/DX2                !
 ! D75   D(23,6,10,29)        -171.7806         estimate D2E/DX2                !
 ! D76   D(1,7,9,8)             61.1126         estimate D2E/DX2                !
 ! D77   D(24,7,9,8)          -177.6677         estimate D2E/DX2                !
 ! D78   D(25,7,9,8)           -60.0171         estimate D2E/DX2                !
 ! D79   D(10,8,9,7)           -60.3349         estimate D2E/DX2                !
 ! D80   D(26,8,9,7)            61.6873         estimate D2E/DX2                !
 ! D81   D(27,8,9,7)           178.3396         estimate D2E/DX2                !
 ! D82   D(9,8,10,6)            54.808          estimate D2E/DX2                !
 ! D83   D(9,8,10,28)          176.63           estimate D2E/DX2                !
 ! D84   D(9,8,10,29)          -66.2029         estimate D2E/DX2                !
 ! D85   D(26,8,10,6)          -66.2374         estimate D2E/DX2                !
 ! D86   D(26,8,10,28)          55.5846         estimate D2E/DX2                !
 ! D87   D(26,8,10,29)         172.7518         estimate D2E/DX2                !
 ! D88   D(27,8,10,6)          173.0868         estimate D2E/DX2                !
 ! D89   D(27,8,10,28)         -65.0912         estimate D2E/DX2                !
 ! D90   D(27,8,10,29)          52.076          estimate D2E/DX2                !
 --------------------------------------------------------------------------------
 Trust Radius=3.00D-01 FncErr=1.00D-07 GrdErr=1.00D-06 EigMax=2.50D+02 EigMin=1.00D-04
 Number of steps in this run=    186 maximum allowed number of steps=    186.
 GradGradGradGradGradGradGradGradGradGradGradGradGradGradGradGradGradGrad

                          Input orientation:                          
 ---------------------------------------------------------------------
 Center     Atomic      Atomic             Coordinates (Angstroms)
 Number     Number       Type             X           Y           Z
 ---------------------------------------------------------------------
      1          6           0        1.139055   -0.040941    0.071136
      2          6           0       -3.955732   -0.572487    0.080046
      3          6           0       -1.193139    0.491306    0.208599
      4          6           0       -2.661069   -1.384178    0.156009
      5          6           0       -3.638964    0.930536   -0.024737
      6          6           0        1.909051   -1.135802   -0.651745
      7          6           0        1.949061    1.251044    0.086411
      8          6           0        4.002391    0.090433   -0.015056
      9          8           0        3.212285    1.039709    0.678686
     10          6           0        3.313836   -1.264532   -0.057108
     11          8           0       -0.089538    0.190235   -0.596342
     12          6           0       -2.265785    1.134228   -0.661841
     13          8           0       -1.664008   -0.660501    0.860622
     14          1           0        0.944964   -0.350907    1.091709
     15          1           0       -4.568297   -0.763867    0.955167
     16          1           0       -4.521114   -0.905920   -0.785422
     17          1           0       -0.888913    1.157834    1.003477
     18          1           0       -2.799715   -2.310306    0.695217
     19          1           0       -2.293367   -1.628746   -0.834184
     20          1           0       -3.640275    1.378373    0.965022
     21          1           0       -4.401306    1.443303   -0.601035
     22          1           0        1.370658   -2.075638   -0.580973
     23          1           0        1.978133   -0.875762   -1.705749
     24          1           0        1.452918    2.016315    0.667450
     25          1           0        2.075255    1.614823   -0.930873
     26          1           0        4.190228    0.455868   -1.022149
     27          1           0        4.945782    0.037888    0.510863
     28          1           0        3.912950   -1.953924   -0.644395
     29          1           0        3.254156   -1.663921    0.952204
     30          1           0       -2.243083    0.685238   -1.650282
     31          1           0       -2.031127    2.186168   -0.780064
 ---------------------------------------------------------------------
                    Distance matrix (angstroms):
                    1          2          3          4          5
     1  C    0.000000
     2  C    5.122448   0.000000
     3  C    2.396103   2.963124   0.000000
     4  C    4.031430   1.529956   2.382231   0.000000
     5  C    4.876723   1.539610   2.495882   2.519295   0.000000
     6  C    1.521240   5.937047   3.607112   4.647597   5.953433
     7  C    1.524981   6.179958   3.235051   5.310606   5.598312
     8  C    2.867644   7.986253   5.215770   6.826818   7.687404
     9  O    2.415617   7.371432   4.464246   6.375320   6.888130
    10  C    2.498658   7.303722   4.844212   5.979902   7.291145
    11  O    1.417184   3.998337   1.398753   3.107665   3.670586
    12  C    3.675760   2.513801   1.523674   2.677218   1.527420
    13  O    2.977298   2.422611   1.404817   1.419267   2.686207
    14  H    1.084122   5.008930   2.461847   3.866091   4.888859
    15  H    5.820481   1.085218   3.677569   2.158925   2.166766
    16  H    5.789594   1.086218   3.743760   2.138876   2.174719
    17  H    2.533570   3.640345   1.081038   3.212563   2.944770
    18  H    4.588399   2.175965   3.266024   1.080593   3.424285
    19  H    3.888734   2.171395   2.606246   1.084205   3.002626
    20  H    5.065124   2.165306   2.710634   3.040565   1.086362
    21  H    5.774980   2.173894   3.442984   3.405318   1.084534
    22  H    2.149158   5.573763   3.712907   4.156451   5.868798
    23  H    2.135017   6.204175   3.948489   5.024622   6.135168
    24  H    2.164810   6.024984   3.088335   5.361885   5.252171
    25  H    2.149895   6.494543   3.639105   5.710349   5.825945
    26  H    3.278986   8.284263   5.522376   7.191251   7.906731
    27  H    3.832851   8.932811   6.163060   7.746765   8.647633
    28  H    3.444703   8.021804   5.725285   6.647028   8.107743
    29  H    2.807846   7.344003   4.997638   5.975121   7.429719
    30  H    3.863868   2.740269   2.143696   2.778468   2.156630
    31  H    3.966688   3.471897   2.133597   3.744386   2.175378
                    6          7          8          9         10
     6  C    0.000000
     7  C    2.498701   0.000000
     8  C    2.508206   2.360821   0.000000
     9  O    2.863794   1.411094   1.416570   0.000000
    10  C    1.530877   2.865542   1.520463   2.420998   0.000000
    11  O    2.399125   2.397364   4.134215   3.639964   3.740331
    12  C    4.752094   4.282342   6.387321   5.640496   6.103435
    13  O    3.908953   4.160249   5.782628   5.167402   5.097648
    14  H    2.141298   2.141280   3.281398   2.691681   2.786763
    15  H    6.684051   6.876813   8.667633   7.991670   7.962624
    16  H    6.435661   6.875736   8.616050   8.107684   7.876896
    17  H    3.978584   2.983923   5.108973   4.115734   4.965460
    18  H    5.036491   5.966970   7.248219   6.882370   6.247811
    19  H    4.235162   5.209499   6.577470   6.302510   5.672497
    20  H    6.303176   5.659403   7.812150   6.866896   7.509285
    21  H    6.817255   6.390360   8.532043   7.730934   8.194611
    22  H    1.085434   3.441913   3.455162   3.831934   2.169854
    23  H    1.087804   2.781364   2.808842   3.298134   2.157142
    24  H    3.447343   1.081390   3.267208   2.012277   3.840828
    25  H    2.769743   1.087716   2.622277   2.052870   3.253957
    26  H    2.806133   2.623745   1.087686   2.046969   2.158505
    27  H    3.457013   3.260712   1.081359   2.009184   2.163825
    28  H    2.164484   3.829198   2.140902   3.347135   1.085866
    29  H    2.158905   3.309062   2.138505   2.717753   1.087099
    30  H    4.642573   4.572779   6.483340   5.942288   6.100750
    31  H    5.155284   4.179370   6.432782   5.561986   6.403017
                   11         12         13         14         15
    11  O    0.000000
    12  C    2.373071   0.000000
    13  O    2.307694   2.429214   0.000000
    14  H    2.052449   3.948351   2.637420   0.000000
    15  H    4.834953   3.393971   2.907665   5.530391   0.000000
    16  H    4.569045   3.043680   3.306470   5.806003   1.747013
    17  H    2.033389   2.160930   1.981798   2.376382   4.151281
    18  H    3.907159   3.740522   2.009738   4.244888   2.363669
    19  H    2.867424   2.768481   2.050843   3.978533   3.020778
    20  H    4.056755   2.143715   2.841397   4.902130   2.334634
    21  H    4.490161   2.158628   3.749031   5.887884   2.705781
    22  H    2.695661   4.851134   3.645546   2.440036   6.273090
    23  H    2.577285   4.810472   4.460694   3.027983   7.067442
    24  H    2.703869   4.046461   4.113136   2.457998   6.638315
    25  H    2.612985   4.375840   4.729550   3.038501   7.304252
    26  H    4.309091   6.501546   6.250055   3.956137   9.061418
    27  H    5.157864   7.388091   6.655780   4.061415   9.558134
    28  H    4.540885   6.907514   5.919500   3.793766   8.712427
    29  H    4.125067   6.395665   5.020316   2.660044   7.874064
    30  H    2.448178   1.085874   2.907057   4.330791   3.780858
    31  H    2.790568   1.084260   3.306078   4.335597   4.260395
                   16         17         18         19         20
    16  H    0.000000
    17  H    4.544461   0.000000
    18  H    2.669795   3.971673   0.000000
    19  H    2.342587   3.621397   1.749280   0.000000
    20  H    3.009639   2.760455   3.792847   3.754207   0.000000
    21  H    2.359492   3.872061   4.281932   3.732995   1.742389
    22  H    6.010243   4.251057   4.367578   3.699852   6.279311
    23  H    6.564154   4.437947   5.536279   4.424062   6.616695
    24  H    6.807301   2.516759   6.066738   5.438384   5.141608
    25  H    7.063100   3.568871   6.466540   5.441962   6.026409
    26  H    8.820317   5.513038   7.711055   6.813072   8.131214
    27  H    9.601732   5.961595   8.095723   7.549311   8.701927
    28  H    8.500096   5.954528   6.854301   6.217727   8.411042
    29  H    8.003045   5.012978   6.093702   5.828158   7.535841
    30  H    2.910188   3.016548   3.845060   2.454194   3.045061
    31  H    3.970022   2.354388   4.794315   3.824300   2.507432
                   21         22         23         24         25
    21  H    0.000000
    22  H    6.760097   0.000000
    23  H    6.877187   1.753240   0.000000
    24  H    6.017419   4.278949   3.777835   0.000000
    25  H    6.487222   3.773379   2.610149   1.761572   0.000000
    26  H    8.658338   3.814857   2.670938   3.575277   2.413425
    27  H    9.517330   4.294253   3.815110   4.017312   3.578443
    28  H    8.981642   2.545994   2.456099   4.851339   4.024320
    29  H    8.406753   2.463272   3.051908   4.107272   3.960549
    30  H    2.516646   4.671722   4.500940   4.561148   4.475458
    31  H    2.490311   5.456626   5.128984   3.776601   4.148681
                   26         27         28         29         30
    26  H    0.000000
    27  H    1.759459   0.000000
    28  H    2.454929   2.523624   0.000000
    29  H    3.044307   2.439782   1.751354   0.000000
    30  H    6.467971   7.534546   6.773015   6.520055   0.000000
    31  H    6.462028   7.413424   7.245055   6.764477   1.747855
                   31
    31  H    0.000000
 Stoichiometry    C10H18O3
 Framework group  C1[X(C10H18O3)]
 Deg. of freedom    87
 Full point group                 C1      NOp   1
 Largest Abelian subgroup         C1      NOp   1
 Largest concise Abelian subgroup C1      NOp   1
                         Standard orientation:                         
 ---------------------------------------------------------------------
 Center     Atomic      Atomic             Coordinates (Angstroms)
 Number     Number       Type             X           Y           Z
 ---------------------------------------------------------------------
      1          6           0        1.139055    0.040941   -0.071136
      2          6           0       -3.955732    0.572487   -0.080046
      3          6           0       -1.193139   -0.491306   -0.208599
      4          6           0       -2.661069    1.384178   -0.156009
      5          6           0       -3.638964   -0.930536    0.024737
      6          6           0        1.909051    1.135802    0.651745
      7          6           0        1.949061   -1.251044   -0.086411
      8          6           0        4.002391   -0.090433    0.015056
      9          8           0        3.212285   -1.039709   -0.678686
     10          6           0        3.313836    1.264532    0.057108
     11          8           0       -0.089538   -0.190235    0.596342
     12          6           0       -2.265785   -1.134228    0.661841
     13          8           0       -1.664008    0.660501   -0.860622
     14          1           0        0.944964    0.350907   -1.091709
     15          1           0       -4.568297    0.763867   -0.955167
     16          1           0       -4.521114    0.905920    0.785422
     17          1           0       -0.888913   -1.157834   -1.003477
     18          1           0       -2.799715    2.310306   -0.695217
     19          1           0       -2.293367    1.628746    0.834184
     20          1           0       -3.640275   -1.378373   -0.965022
     21          1           0       -4.401306   -1.443303    0.601035
     22          1           0        1.370658    2.075638    0.580973
     23          1           0        1.978133    0.875762    1.705749
     24          1           0        1.452918   -2.016315   -0.667450
     25          1           0        2.075255   -1.614823    0.930873
     26          1           0        4.190228   -0.455868    1.022149
     27          1           0        4.945782   -0.037888   -0.510863
     28          1           0        3.912950    1.953924    0.644395
     29          1           0        3.254156    1.663921   -0.952204
     30          1           0       -2.243083   -0.685238    1.650282
     31          1           0       -2.031127   -2.186168    0.780064
 ---------------------------------------------------------------------
 Rotational constants (GHZ):           2.2356505           0.3658757           0.3366871
 Standard basis: 6-311++G(2d,2p) (5D, 7F)
 There are   557 symmetry adapted cartesian basis functions of A   symmetry.
 There are   531 symmetry adapted basis functions of A   symmetry.
   531 basis functions,   762 primitive gaussians,   557 cartesian basis functions
    51 alpha electrons       51 beta electrons
       nuclear repulsion energy       880.3437554526 Hartrees.
 NAtoms=   31 NActive=   31 NUniq=   31 SFac= 1.00D+00 NAtFMM=   60 NAOKFM=F Big=F
 Integral buffers will be    131072 words long.
 Raffenetti 2 integral format.
 Two-electron integral symmetry is turned on.
 ------------------------------------------------------------------------------
 Polarizable Continuum Model (PCM)
 =================================
 Model                : PCM.
 Atomic radii         : UFF (Universal Force Field).
 Polarization charges : Total charges.
 Charge compensation  : None.
 Solution method      : On-the-fly selection.
 Cavity type          : Scaled VdW (van der Waals Surface) (Alpha=1.100).
 Cavity algorithm     : GePol (No added spheres)
                        Default sphere list used, NSphG=   31.
                        Lebedev-Laikov grids with approx.  5.0 points / Ang**2.
                        Smoothing algorithm: York/Karplus (Gamma=1.0000).
                        Polarization charges: spherical gaussians, with
                                              point-specific exponents (IZeta= 3).
                        Self-potential: point-specific (ISelfS= 7).
                        Self-field    : sphere-specific E.n sum rule (ISelfD= 2).
 1st derivatives      : Analytical E(r).r(x)/FMM algorithm (CHGder, D1EAlg=3).
                        Cavity 1st derivative terms included.
 Solvent              : Water, Eps=  78.355300 Eps(inf)=   1.777849
 ------------------------------------------------------------------------------
 One-electron integrals computed using PRISM.
 NBasis=   531 RedAO= T EigKep=  5.45D-06  NBF=   531
 NBsUse=   531 1.00D-06 EigRej= -1.00D+00 NBFU=   531
 ExpMin= 3.60D-02 ExpMax= 8.59D+03 ExpMxC= 1.30D+03 IAcc=3 IRadAn=         5 AccDes= 0.00D+00
 Harris functional with IExCor= 1009 and IRadAn=       5 diagonalized for initial guess.
 HarFok:  IExCor= 1009 AccDes= 0.00D+00 IRadAn=         5 IDoV= 1 UseB2=F ITyADJ=14
 ICtDFT=  3500011 ScaDFX=  1.000000  1.000000  1.000000  1.000000
 FoFCou: FMM=F IPFlag=           0 FMFlag=      100000 FMFlg1=           0
         NFxFlg=           0 DoJE=T BraDBF=F KetDBF=T FulRan=T
         wScrn=  0.000000 ICntrl=       500 IOpCl=  0 I1Cent=   200000004 NGrid=           0
         NMat0=    1 NMatS0=      1 NMatT0=    0 NMatD0=    1 NMtDS0=    0 NMtDT0=    0
 Petite list used in FoFCou.
 Requested convergence on RMS density matrix=1.00D-08 within 128 cycles.
 Requested convergence on MAX density matrix=1.00D-06.
 Requested convergence on             energy=1.00D-06.
 No special actions if energy rises.
 Inv3:  Mode=1 IEnd=    13280448.
 Iteration    1 A*A^-1 deviation from unit magnitude is 3.33D-15 for   2090.
 Iteration    1 A*A^-1 deviation from orthogonality  is 1.98D-15 for   1674    229.
 Iteration    1 A^-1*A deviation from unit magnitude is 3.33D-15 for   2090.
 Iteration    1 A^-1*A deviation from orthogonality  is 1.71D-15 for   1353   1133.
 Error on total polarization charges =  0.01504
 SCF Done:  E(RM062X) =  -617.496806351     A.U. after   12 cycles
            NFock= 12  Conv=0.49D-08     -V/T= 2.0035

 **********************************************************************

            Population analysis using the SCF density.

 **********************************************************************

 Orbital symmetries:
       Occupied  (A) (A) (A) (A) (A) (A) (A) (A) (A) (A) (A) (A)
                 (A) (A) (A) (A) (A) (A) (A) (A) (A) (A) (A) (A)
                 (A) (A) (A) (A) (A) (A) (A) (A) (A) (A) (A) (A)
                 (A) (A) (A) (A) (A) (A) (A) (A) (A) (A) (A) (A)
                 (A) (A) (A)
       Virtual   (A) (A) (A) (A) (A) (A) (A) (A) (A) (A) (A) (A)
                 (A) (A) (A) (A) (A) (A) (A) (A) (A) (A) (A) (A)
                 (A) (A) (A) (A) (A) (A) (A) (A) (A) (A) (A) (A)
                 (A) (A) (A) (A) (A) (A) (A) (A) (A) (A) (A) (A)
                 (A) (A) (A) (A) (A) (A) (A) (A) (A) (A) (A) (A)
                 (A) (A) (A) (A) (A) (A) (A) (A) (A) (A) (A) (A)
                 (A) (A) (A) (A) (A) (A) (A) (A) (A) (A) (A) (A)
                 (A) (A) (A) (A) (A) (A) (A) (A) (A) (A) (A) (A)
                 (A) (A) (A) (A) (A) (A) (A) (A) (A) (A) (A) (A)
                 (A) (A) (A) (A) (A) (A) (A) (A) (A) (A) (A) (A)
                 (A) (A) (A) (A) (A) (A) (A) (A) (A) (A) (A) (A)
                 (A) (A) (A) (A) (A) (A) (A) (A) (A) (A) (A) (A)
                 (A) (A) (A) (A) (A) (A) (A) (A) (A) (A) (A) (A)
                 (A) (A) (A) (A) (A) (A) (A) (A) (A) (A) (A) (A)
                 (A) (A) (A) (A) (A) (A) (A) (A) (A) (A) (A) (A)
                 (A) (A) (A) (A) (A) (A) (A) (A) (A) (A) (A) (A)
                 (A) (A) (A) (A) (A) (A) (A) (A) (A) (A) (A) (A)
                 (A) (A) (A) (A) (A) (A) (A) (A) (A) (A) (A) (A)
                 (A) (A) (A) (A) (A) (A) (A) (A) (A) (A) (A) (A)
                 (A) (A) (A) (A) (A) (A) (A) (A) (A) (A) (A) (A)
                 (A) (A) (A) (A) (A) (A) (A) (A) (A) (A) (A) (A)
                 (A) (A) (A) (A) (A) (A) (A) (A) (A) (A) (A) (A)
                 (A) (A) (A) (A) (A) (A) (A) (A) (A) (A) (A) (A)
                 (A) (A) (A) (A) (A) (A) (A) (A) (A) (A) (A) (A)
                 (A) (A) (A) (A) (A) (A) (A) (A) (A) (A) (A) (A)
                 (A) (A) (A) (A) (A) (A) (A) (A) (A) (A) (A) (A)
                 (A) (A) (A) (A) (A) (A) (A) (A) (A) (A) (A) (A)
                 (A) (A) (A) (A) (A) (A) (A) (A) (A) (A) (A) (A)
                 (A) (A) (A) (A) (A) (A) (A) (A) (A) (A) (A) (A)
                 (A) (A) (A) (A) (A) (A) (A) (A) (A) (A) (A) (A)
                 (A) (A) (A) (A) (A) (A) (A) (A) (A) (A) (A) (A)
                 (A) (A) (A) (A) (A) (A) (A) (A) (A) (A) (A) (A)
                 (A) (A) (A) (A) (A) (A) (A) (A) (A) (A) (A) (A)
                 (A) (A) (A) (A) (A) (A) (A) (A) (A) (A) (A) (A)
                 (A) (A) (A) (A) (A) (A) (A) (A) (A) (A) (A) (A)
                 (A) (A) (A) (A) (A) (A) (A) (A) (A) (A) (A) (A)
                 (A) (A) (A) (A) (A) (A) (A) (A) (A) (A) (A) (A)
                 (A) (A) (A) (A) (A) (A) (A) (A) (A) (A) (A) (A)
                 (A) (A) (A) (A) (A) (A) (A) (A) (A) (A) (A) (A)
                 (A) (A) (A) (A) (A) (A) (A) (A) (A) (A) (A) (A)
 The electronic state is 1-A.
 Alpha  occ. eigenvalues --  -19.63187 -19.62922 -19.62799 -10.63537 -10.58593
 Alpha  occ. eigenvalues --  -10.57872 -10.57821 -10.57765 -10.53206 -10.53176
 Alpha  occ. eigenvalues --  -10.53164 -10.53136 -10.52805  -1.20281  -1.16771
 Alpha  occ. eigenvalues --   -1.13892  -0.90957  -0.89805  -0.87354  -0.84496
 Alpha  occ. eigenvalues --   -0.75392  -0.74292  -0.73652  -0.70468  -0.65844
 Alpha  occ. eigenvalues --   -0.62749  -0.60746  -0.59166  -0.58401  -0.56888
 Alpha  occ. eigenvalues --   -0.55548  -0.53046  -0.52655  -0.49866  -0.49489
 Alpha  occ. eigenvalues --   -0.47882  -0.46898  -0.46028  -0.45699  -0.44564
 Alpha  occ. eigenvalues --   -0.44524  -0.43008  -0.40699  -0.40397  -0.39033
 Alpha  occ. eigenvalues --   -0.38624  -0.38193  -0.36088  -0.35292  -0.34036
 Alpha  occ. eigenvalues --   -0.31757
 Alpha virt. eigenvalues --   -0.00104   0.00755   0.00884   0.01022   0.02107
 Alpha virt. eigenvalues --    0.02405   0.02548   0.03629   0.03708   0.04146
 Alpha virt. eigenvalues --    0.04246   0.04650   0.05590   0.05858   0.06778
 Alpha virt. eigenvalues --    0.07155   0.07584   0.07874   0.08457   0.09086
 Alpha virt. eigenvalues --    0.10037   0.10585   0.10977   0.11527   0.11911
 Alpha virt. eigenvalues --    0.12274   0.12408   0.12683   0.13128   0.13271
 Alpha virt. eigenvalues --    0.13459   0.14007   0.14206   0.14544   0.14897
 Alpha virt. eigenvalues --    0.15043   0.15233   0.15463   0.15892   0.16214
 Alpha virt. eigenvalues --    0.16390   0.16732   0.16967   0.17274   0.17792
 Alpha virt. eigenvalues --    0.17897   0.18146   0.18826   0.19068   0.19472
 Alpha virt. eigenvalues --    0.19917   0.19988   0.20631   0.20979   0.21371
 Alpha virt. eigenvalues --    0.22153   0.22391   0.22522   0.23846   0.24391
 Alpha virt. eigenvalues --    0.24536   0.25233   0.26161   0.26762   0.26988
 Alpha virt. eigenvalues --    0.27177   0.27613   0.28260   0.28526   0.28964
 Alpha virt. eigenvalues --    0.29444   0.30120   0.30750   0.31075   0.31577
 Alpha virt. eigenvalues --    0.32237   0.32672   0.33595   0.33742   0.34270
 Alpha virt. eigenvalues --    0.34503   0.35047   0.35515   0.36279   0.36482
 Alpha virt. eigenvalues --    0.36658   0.36763   0.37328   0.37442   0.37892
 Alpha virt. eigenvalues --    0.38995   0.39272   0.39788   0.40405   0.40779
 Alpha virt. eigenvalues --    0.41712   0.42404   0.43392   0.43615   0.44248
 Alpha virt. eigenvalues --    0.45625   0.48148   0.48912   0.49982   0.50322
 Alpha virt. eigenvalues --    0.51594   0.52180   0.52524   0.53761   0.54359
 Alpha virt. eigenvalues --    0.55219   0.55966   0.56771   0.57498   0.58868
 Alpha virt. eigenvalues --    0.59521   0.59811   0.60524   0.60950   0.61519
 Alpha virt. eigenvalues --    0.61893   0.62080   0.62856   0.62961   0.63672
 Alpha virt. eigenvalues --    0.64054   0.64720   0.65565   0.66169   0.67173
 Alpha virt. eigenvalues --    0.67282   0.68499   0.68983   0.69894   0.70208
 Alpha virt. eigenvalues --    0.70543   0.71304   0.71451   0.72147   0.73006
 Alpha virt. eigenvalues --    0.73304   0.74398   0.74600   0.75057   0.75522
 Alpha virt. eigenvalues --    0.75944   0.76618   0.76837   0.77799   0.77970
 Alpha virt. eigenvalues --    0.81188   0.82191   0.83607   0.84601   0.85399
 Alpha virt. eigenvalues --    0.86418   0.86942   0.88428   0.88926   0.89366
 Alpha virt. eigenvalues --    0.90260   0.91153   0.91956   0.92546   0.95002
 Alpha virt. eigenvalues --    0.96101   0.96962   0.98700   0.99809   1.01827
 Alpha virt. eigenvalues --    1.02650   1.04595   1.05683   1.06104   1.06891
 Alpha virt. eigenvalues --    1.07533   1.08362   1.08905   1.10302   1.11277
 Alpha virt. eigenvalues --    1.12706   1.13635   1.14210   1.16091   1.16770
 Alpha virt. eigenvalues --    1.17123   1.17726   1.18010   1.18503   1.19907
 Alpha virt. eigenvalues --    1.20719   1.21400   1.22832   1.23199   1.24754
 Alpha virt. eigenvalues --    1.24961   1.26020   1.26207   1.26742   1.27916
 Alpha virt. eigenvalues --    1.28348   1.29449   1.29582   1.30091   1.30929
 Alpha virt. eigenvalues --    1.31868   1.32404   1.32616   1.33221   1.33515
 Alpha virt. eigenvalues --    1.33910   1.34961   1.35881   1.37059   1.37524
 Alpha virt. eigenvalues --    1.38111   1.38436   1.38684   1.40401   1.41206
 Alpha virt. eigenvalues --    1.41560   1.41803   1.42924   1.43363   1.45155
 Alpha virt. eigenvalues --    1.45310   1.45734   1.47336   1.48090   1.48307
 Alpha virt. eigenvalues --    1.48991   1.49259   1.50270   1.51252   1.51751
 Alpha virt. eigenvalues --    1.52451   1.53038   1.53389   1.53980   1.54480
 Alpha virt. eigenvalues --    1.55438   1.56255   1.56960   1.57699   1.58696
 Alpha virt. eigenvalues --    1.58785   1.59081   1.60353   1.60922   1.61728
 Alpha virt. eigenvalues --    1.62717   1.63420   1.64608   1.65375   1.66181
 Alpha virt. eigenvalues --    1.66989   1.67769   1.69164   1.69543   1.70974
 Alpha virt. eigenvalues --    1.71332   1.74757   1.75593   1.75792   1.76255
 Alpha virt. eigenvalues --    1.78292   1.78707   1.79652   1.81750   1.82992
 Alpha virt. eigenvalues --    1.87571   1.88381   1.90289   1.94904   1.96672
 Alpha virt. eigenvalues --    2.01263   2.02727   2.09466   2.09748   2.18282
 Alpha virt. eigenvalues --    2.24342   2.25304   2.32662   2.35150   2.38651
 Alpha virt. eigenvalues --    2.41038   2.43188   2.45624   2.46001   2.51580
 Alpha virt. eigenvalues --    2.56388   2.75849   2.76275   2.79908   2.80430
 Alpha virt. eigenvalues --    2.87442   2.88807   2.89961   2.92081   2.93136
 Alpha virt. eigenvalues --    2.93528   2.96389   3.00132   3.01143   3.02437
 Alpha virt. eigenvalues --    3.05745   3.07210   3.07444   3.09072   3.09972
 Alpha virt. eigenvalues --    3.12549   3.14332   3.16825   3.18482   3.22766
 Alpha virt. eigenvalues --    3.26129   3.28220   3.30553   3.31274   3.33326
 Alpha virt. eigenvalues --    3.35117   3.36536   3.36924   3.39454   3.40459
 Alpha virt. eigenvalues --    3.41966   3.42114   3.43939   3.44653   3.45517
 Alpha virt. eigenvalues --    3.47848   3.48457   3.48741   3.49415   3.50248
 Alpha virt. eigenvalues --    3.51361   3.54071   3.54291   3.55008   3.55905
 Alpha virt. eigenvalues --    3.56959   3.57392   3.58671   3.59252   3.60049
 Alpha virt. eigenvalues --    3.60960   3.61420   3.63037   3.63837   3.64405
 Alpha virt. eigenvalues --    3.65722   3.66188   3.67962   3.68483   3.69613
 Alpha virt. eigenvalues --    3.70420   3.71197   3.71694   3.72867   3.73486
 Alpha virt. eigenvalues --    3.73775   3.75309   3.75877   3.77330   3.78284
 Alpha virt. eigenvalues --    3.79677   3.80522   3.82254   3.84068   3.85788
 Alpha virt. eigenvalues --    3.85793   3.87101   3.88871   3.90148   3.91422
 Alpha virt. eigenvalues --    3.93250   3.93751   3.95488   3.97979   3.99068
 Alpha virt. eigenvalues --    3.99769   4.00970   4.02474   4.03177   4.03279
 Alpha virt. eigenvalues --    4.04535   4.05066   4.06185   4.06452   4.07772
 Alpha virt. eigenvalues --    4.07918   4.08654   4.09382   4.10151   4.11318
 Alpha virt. eigenvalues --    4.12434   4.13554   4.14015   4.15316   4.16456
 Alpha virt. eigenvalues --    4.16812   4.17641   4.18583   4.19419   4.20079
 Alpha virt. eigenvalues --    4.20611   4.21735   4.25009   4.25319   4.25766
 Alpha virt. eigenvalues --    4.27333   4.27377   4.28925   4.30425   4.31662
 Alpha virt. eigenvalues --    4.32493   4.33227   4.35163   4.36605   4.38458
 Alpha virt. eigenvalues --    4.41961   4.42095   4.45011   4.47883   4.52058
 Alpha virt. eigenvalues --    4.57133   4.59020   4.75091   4.76435   4.82511
 Alpha virt. eigenvalues --    4.84713   4.92481   4.95511   4.99548   5.00545
 Alpha virt. eigenvalues --    5.02875   5.06753   5.08398   5.11906   5.12617
 Alpha virt. eigenvalues --    5.13613   5.14980   5.18152   5.30349   5.37720
 Alpha virt. eigenvalues --    5.40554   5.57372   5.58732   5.64375   5.85873
 Alpha virt. eigenvalues --    5.87954   6.05934   7.03860   7.04824   7.05899
 Alpha virt. eigenvalues --    7.06325   7.09847   7.11319   7.13263   7.19666
 Alpha virt. eigenvalues --    7.26582   7.35594   7.37714   7.42498   7.52779
 Alpha virt. eigenvalues --    7.55733   7.64180  23.95962  23.98828  24.04660
 Alpha virt. eigenvalues --   24.07038  24.10740  24.12224  24.13108  24.15499
 Alpha virt. eigenvalues --   24.16197  24.20714  50.17505  50.18049  50.23318
          Condensed to atoms (all electrons):
               1          2          3          4          5          6
     1  C    8.356477   0.051312  -0.393759   0.024100  -0.090108  -1.705710
     2  C    0.051312   6.121570   0.503320  -0.327734  -0.367799  -0.020893
     3  C   -0.393759   0.503320   6.740334  -0.510268  -0.288599  -0.023396
     4  C    0.024100  -0.327734  -0.510268   5.794832   0.344516   0.036153
     5  C   -0.090108  -0.367799  -0.288599   0.344516   5.891640  -0.006348
     6  C   -1.705710  -0.020893  -0.023396   0.036153  -0.006348   7.339952
     7  C   -0.678014  -0.025981  -0.027919   0.037503   0.031292   0.041817
     8  C    0.248992   0.002583  -0.008476  -0.002249  -0.002989  -0.163766
     9  O    0.010888   0.000044  -0.004728   0.000015  -0.000599  -0.008580
    10  C   -0.266591  -0.004844  -0.097229   0.012572  -0.000465   0.155721
    11  O    0.226833   0.022552   0.365518  -0.002073  -0.015554  -0.141920
    12  C   -0.022154  -0.205644  -0.592646  -0.134487   0.137200  -0.128643
    13  O    0.030589  -0.012254   0.276298   0.051797  -0.105018  -0.076983
    14  H    0.408481   0.005252  -0.018550  -0.004611  -0.007683   0.076049
    15  H    0.002526   0.481679  -0.007925  -0.087994  -0.052118  -0.004006
    16  H   -0.002009   0.470878   0.014572  -0.044959  -0.066649   0.004556
    17  H    0.120276   0.034131   0.495508  -0.054459  -0.039205  -0.027741
    18  H   -0.007151  -0.010773   0.022504   0.424723  -0.007550   0.010550
    19  H    0.003876  -0.092487  -0.044393   0.480361   0.002888  -0.011277
    20  H    0.000924  -0.075792  -0.033234   0.005350   0.463497   0.004768
    21  H   -0.000633  -0.050418   0.014797   0.005815   0.447524  -0.002464
    22  H   -0.045389  -0.005081   0.003275   0.005538   0.000431   0.393134
    23  H    0.005115   0.000834   0.008929  -0.001770   0.001056   0.484976
    24  H   -0.147045  -0.002615   0.022321   0.004789   0.002981   0.054811
    25  H    0.028939   0.001816   0.000143  -0.003855  -0.005270  -0.025327
    26  H    0.048778   0.000025   0.003648  -0.000269  -0.000041  -0.030475
    27  H    0.004382   0.000091  -0.002418  -0.000012  -0.000118   0.010724
    28  H   -0.021500  -0.000191  -0.003249   0.000606  -0.000004  -0.014895
    29  H   -0.018770  -0.000161   0.004970  -0.000389   0.000219  -0.024205
    30  H   -0.006635   0.009140  -0.062920  -0.029623  -0.069811   0.006439
    31  H   -0.018974  -0.004175  -0.024211   0.015404   0.005607   0.004675
               7          8          9         10         11         12
     1  C   -0.678014   0.248992   0.010888  -0.266591   0.226833  -0.022154
     2  C   -0.025981   0.002583   0.000044  -0.004844   0.022552  -0.205644
     3  C   -0.027919  -0.008476  -0.004728  -0.097229   0.365518  -0.592646
     4  C    0.037503  -0.002249   0.000015   0.012572  -0.002073  -0.134487
     5  C    0.031292  -0.002989  -0.000599  -0.000465  -0.015554   0.137200
     6  C    0.041817  -0.163766  -0.008580   0.155721  -0.141920  -0.128643
     7  C    6.201969  -0.250656   0.168911   0.181099  -0.179657   0.112742
     8  C   -0.250656   5.385275   0.102193   0.068639   0.017307  -0.008542
     9  O    0.168911   0.102193   8.324603  -0.038200   0.004679   0.001030
    10  C    0.181099   0.068639  -0.038200   5.604261   0.002062   0.009432
    11  O   -0.179657   0.017307   0.004679   0.002062   8.260745  -0.247781
    12  C    0.112742  -0.008542   0.001030   0.009432  -0.247781   6.445215
    13  O    0.025448   0.000530   0.000080  -0.003726  -0.022402   0.002589
    14  H   -0.078915   0.005636  -0.010752  -0.011648  -0.013933  -0.020437
    15  H   -0.000682   0.000061  -0.000008  -0.000303   0.000137   0.048244
    16  H    0.000481  -0.000034   0.000007   0.000344   0.000752  -0.018536
    17  H   -0.067200   0.006430   0.000407  -0.015002  -0.037074  -0.020214
    18  H    0.001219  -0.000157   0.000022   0.001530  -0.001046  -0.024072
    19  H    0.003000  -0.000466  -0.000111  -0.001789   0.010950   0.045547
    20  H    0.000252  -0.000142   0.000028   0.000336   0.000146  -0.011053
    21  H    0.000594  -0.000016  -0.000013  -0.000125  -0.003151  -0.045714
    22  H    0.024144  -0.003070  -0.001532   0.016578   0.005064   0.006149
    23  H   -0.037839  -0.011581   0.000292  -0.083250  -0.005177   0.001676
    24  H    0.465663  -0.001526  -0.075988   0.022346  -0.005593  -0.001803
    25  H    0.358407   0.014570  -0.037677  -0.015665   0.009048   0.003805
    26  H   -0.040975   0.467812  -0.043168  -0.045146  -0.000334   0.000817
    27  H    0.010278   0.434311  -0.072286  -0.048775   0.001115  -0.000311
    28  H   -0.002146  -0.039287   0.007275   0.437157  -0.001610  -0.000870
    29  H    0.005933  -0.081592  -0.001647   0.487886  -0.000530   0.002341
    30  H   -0.003116   0.000166  -0.000015  -0.000215  -0.014554   0.534511
    31  H    0.008906  -0.000837   0.000412   0.000513   0.001672   0.388367
              13         14         15         16         17         18
     1  C    0.030589   0.408481   0.002526  -0.002009   0.120276  -0.007151
     2  C   -0.012254   0.005252   0.481679   0.470878   0.034131  -0.010773
     3  C    0.276298  -0.018550  -0.007925   0.014572   0.495508   0.022504
     4  C    0.051797  -0.004611  -0.087994  -0.044959  -0.054459   0.424723
     5  C   -0.105018  -0.007683  -0.052118  -0.066649  -0.039205  -0.007550
     6  C   -0.076983   0.076049  -0.004006   0.004556  -0.027741   0.010550
     7  C    0.025448  -0.078915  -0.000682   0.000481  -0.067200   0.001219
     8  C    0.000530   0.005636   0.000061  -0.000034   0.006430  -0.000157
     9  O    0.000080  -0.010752  -0.000008   0.000007   0.000407   0.000022
    10  C   -0.003726  -0.011648  -0.000303   0.000344  -0.015002   0.001530
    11  O   -0.022402  -0.013933   0.000137   0.000752  -0.037074  -0.001046
    12  C    0.002589  -0.020437   0.048244  -0.018536  -0.020214  -0.024072
    13  O    8.288549  -0.001740  -0.010539   0.012865  -0.113458  -0.067020
    14  H   -0.001740   0.434553  -0.000150   0.000230  -0.011639   0.000475
    15  H   -0.010539  -0.000150   0.511695  -0.022652   0.003974  -0.011762
    16  H    0.012865   0.000230  -0.022652   0.504512  -0.001105   0.000422
    17  H   -0.113458  -0.011639   0.003974  -0.001105   0.499233  -0.001830
    18  H   -0.067020   0.000475  -0.011762   0.000422  -0.001830   0.473636
    19  H   -0.023319  -0.000202   0.006288  -0.002032  -0.001134  -0.007335
    20  H    0.013019   0.001004  -0.014588   0.007241  -0.007083  -0.000069
    21  H   -0.005221  -0.000343   0.000374  -0.006410   0.000691  -0.000385
    22  H    0.000822  -0.009511  -0.000042   0.000287  -0.000025  -0.000042
    23  H    0.000413   0.005111   0.000032  -0.000156  -0.000348  -0.000115
    24  H    0.002585   0.000885  -0.000262   0.000085  -0.015432   0.000371
    25  H   -0.001129  -0.004790   0.000069  -0.000010   0.008310  -0.000169
    26  H    0.000018  -0.002178   0.000002  -0.000005   0.000472  -0.000029
    27  H    0.000008  -0.000407   0.000001   0.000001   0.000246   0.000008
    28  H   -0.000425   0.001211  -0.000021   0.000024  -0.000375   0.000132
    29  H    0.000277  -0.007624   0.000007  -0.000019   0.000571  -0.000101
    30  H    0.001302  -0.000815  -0.003609   0.001336   0.001766  -0.001268
    31  H    0.009093   0.000834   0.000180  -0.000036  -0.015936   0.001287
              19         20         21         22         23         24
     1  C    0.003876   0.000924  -0.000633  -0.045389   0.005115  -0.147045
     2  C   -0.092487  -0.075792  -0.050418  -0.005081   0.000834  -0.002615
     3  C   -0.044393  -0.033234   0.014797   0.003275   0.008929   0.022321
     4  C    0.480361   0.005350   0.005815   0.005538  -0.001770   0.004789
     5  C    0.002888   0.463497   0.447524   0.000431   0.001056   0.002981
     6  C   -0.011277   0.004768  -0.002464   0.393134   0.484976   0.054811
     7  C    0.003000   0.000252   0.000594   0.024144  -0.037839   0.465663
     8  C   -0.000466  -0.000142  -0.000016  -0.003070  -0.011581  -0.001526
     9  O   -0.000111   0.000028  -0.000013  -0.001532   0.000292  -0.075988
    10  C   -0.001789   0.000336  -0.000125   0.016578  -0.083250   0.022346
    11  O    0.010950   0.000146  -0.003151   0.005064  -0.005177  -0.005593
    12  C    0.045547  -0.011053  -0.045714   0.006149   0.001676  -0.001803
    13  O   -0.023319   0.013019  -0.005221   0.000822   0.000413   0.002585
    14  H   -0.000202   0.001004  -0.000343  -0.009511   0.005111   0.000885
    15  H    0.006288  -0.014588   0.000374  -0.000042   0.000032  -0.000262
    16  H   -0.002032   0.007241  -0.006410   0.000287  -0.000156   0.000085
    17  H   -0.001134  -0.007083   0.000691  -0.000025  -0.000348  -0.015432
    18  H   -0.007335  -0.000069  -0.000385  -0.000042  -0.000115   0.000371
    19  H    0.493749   0.000415  -0.000777  -0.000327   0.000411  -0.000435
    20  H    0.000415   0.492683  -0.011775   0.000064   0.000013   0.001009
    21  H   -0.000777  -0.011775   0.478421   0.000036   0.000026  -0.000101
    22  H   -0.000327   0.000064   0.000036   0.492475  -0.017079  -0.000475
    23  H    0.000411   0.000013   0.000026  -0.017079   0.457929  -0.001861
    24  H   -0.000435   0.001009  -0.000101  -0.000475  -0.001861   0.507858
    25  H    0.000071  -0.000151   0.000013  -0.000852  -0.003676  -0.025319
    26  H    0.000095  -0.000016   0.000007   0.000403  -0.005340  -0.005587
    27  H   -0.000062  -0.000002  -0.000002   0.000725  -0.000747   0.002332
    28  H   -0.000151   0.000023  -0.000006  -0.013077  -0.004900   0.002947
    29  H    0.000165  -0.000013   0.000007  -0.002041   0.003122  -0.002409
    30  H   -0.009001   0.005788  -0.004181   0.000684  -0.000517   0.001169
    31  H    0.000441   0.000090  -0.009383  -0.000112   0.000213  -0.000508
              25         26         27         28         29         30
     1  C    0.028939   0.048778   0.004382  -0.021500  -0.018770  -0.006635
     2  C    0.001816   0.000025   0.000091  -0.000191  -0.000161   0.009140
     3  C    0.000143   0.003648  -0.002418  -0.003249   0.004970  -0.062920
     4  C   -0.003855  -0.000269  -0.000012   0.000606  -0.000389  -0.029623
     5  C   -0.005270  -0.000041  -0.000118  -0.000004   0.000219  -0.069811
     6  C   -0.025327  -0.030475   0.010724  -0.014895  -0.024205   0.006439
     7  C    0.358407  -0.040975   0.010278  -0.002146   0.005933  -0.003116
     8  C    0.014570   0.467812   0.434311  -0.039287  -0.081592   0.000166
     9  O   -0.037677  -0.043168  -0.072286   0.007275  -0.001647  -0.000015
    10  C   -0.015665  -0.045146  -0.048775   0.437157   0.487886  -0.000215
    11  O    0.009048  -0.000334   0.001115  -0.001610  -0.000530  -0.014554
    12  C    0.003805   0.000817  -0.000311  -0.000870   0.002341   0.534511
    13  O   -0.001129   0.000018   0.000008  -0.000425   0.000277   0.001302
    14  H   -0.004790  -0.002178  -0.000407   0.001211  -0.007624  -0.000815
    15  H    0.000069   0.000002   0.000001  -0.000021   0.000007  -0.003609
    16  H   -0.000010  -0.000005   0.000001   0.000024  -0.000019   0.001336
    17  H    0.008310   0.000472   0.000246  -0.000375   0.000571   0.001766
    18  H   -0.000169  -0.000029   0.000008   0.000132  -0.000101  -0.001268
    19  H    0.000071   0.000095  -0.000062  -0.000151   0.000165  -0.009001
    20  H   -0.000151  -0.000016  -0.000002   0.000023  -0.000013   0.005788
    21  H    0.000013   0.000007  -0.000002  -0.000006   0.000007  -0.004181
    22  H   -0.000852   0.000403   0.000725  -0.013077  -0.002041   0.000684
    23  H   -0.003676  -0.005340  -0.000747  -0.004900   0.003122  -0.000517
    24  H   -0.025319  -0.005587   0.002332   0.002947  -0.002409   0.001169
    25  H    0.493626   0.010494  -0.001736  -0.002307   0.002261   0.001131
    26  H    0.010494   0.495766  -0.005543   0.002861   0.002553   0.000057
    27  H   -0.001736  -0.005543   0.471651  -0.008892  -0.003616   0.000005
    28  H   -0.002307   0.002861  -0.008892   0.485439  -0.008003  -0.000029
    29  H    0.002261   0.002553  -0.003616  -0.008003   0.475385   0.000128
    30  H    0.001131   0.000057   0.000005  -0.000029   0.000128   0.453280
    31  H   -0.001663  -0.000035  -0.000036   0.000011   0.000009  -0.012622
              31
     1  C   -0.018974
     2  C   -0.004175
     3  C   -0.024211
     4  C    0.015404
     5  C    0.005607
     6  C    0.004675
     7  C    0.008906
     8  C   -0.000837
     9  O    0.000412
    10  C    0.000513
    11  O    0.001672
    12  C    0.388367
    13  O    0.009093
    14  H    0.000834
    15  H    0.000180
    16  H   -0.000036
    17  H   -0.015936
    18  H    0.001287
    19  H    0.000441
    20  H    0.000090
    21  H   -0.009383
    22  H   -0.000112
    23  H    0.000213
    24  H   -0.000508
    25  H   -0.001663
    26  H   -0.000035
    27  H   -0.000036
    28  H    0.000011
    29  H    0.000009
    30  H   -0.012622
    31  H    0.480198
 Mulliken charges:
               1
     1  C   -0.148044
     2  C   -0.498383
     3  C   -0.332217
     4  C   -0.039325
     5  C   -0.202925
     6  C   -0.207694
     7  C   -0.286562
     8  C   -0.179119
     9  O   -0.325578
    10  C   -0.367501
    11  O   -0.236191
    12  C   -0.256761
    13  O   -0.273048
    14  H    0.266209
    15  H    0.161394
    16  H    0.146020
    17  H    0.257244
    18  H    0.203994
    19  H    0.147040
    20  H    0.157267
    21  H    0.192816
    22  H    0.148849
    23  H    0.204214
    24  H    0.194807
    25  H    0.196890
    26  H    0.145333
    27  H    0.209085
    28  H    0.184253
    29  H    0.165286
    30  H    0.202030
    31  H    0.170617
 Sum of Mulliken charges =  -0.00000
 Mulliken charges with hydrogens summed into heavy atoms:
               1
     1  C    0.118165
     2  C   -0.190969
     3  C   -0.074972
     4  C    0.311709
     5  C    0.147157
     6  C    0.145368
     7  C    0.105135
     8  C    0.175299
     9  O   -0.325578
    10  C   -0.017962
    11  O   -0.236191
    12  C    0.115887
    13  O   -0.273048
 Electronic spatial extent (au):  <R**2>=           3361.9782
 Charge=              0.0000 electrons
 Dipole moment (field-independent basis, Debye):
    X=             -1.3524    Y=              0.5970    Z=              1.4842  Tot=              2.0948
 Quadrupole moment (field-independent basis, Debye-Ang):
   XX=            -71.4364   YY=            -77.9961   ZZ=            -83.5137
   XY=              5.7044   XZ=              2.6457   YZ=             -0.0840
 Traceless Quadrupole moment (field-independent basis, Debye-Ang):
   XX=              6.2123   YY=             -0.3473   ZZ=             -5.8649
   XY=              5.7044   XZ=              2.6457   YZ=             -0.0840
 Octapole moment (field-independent basis, Debye-Ang**2):
  XXX=             -6.9786  YYY=              1.3765  ZZZ=              0.5126  XYY=             -9.1855
  XXY=             24.6877  XXZ=             20.6344  XZZ=             -0.5841  YZZ=             -0.0551
  YYZ=             -0.0515  XYZ=             -5.9581
 Hexadecapole moment (field-independent basis, Debye-Ang**3):
 XXXX=          -3502.9670 YYYY=           -570.1122 ZZZZ=           -246.4343 XXXY=             52.4926
 XXXZ=             32.2328 YYYX=             -9.9097 YYYZ=             -3.5142 ZZZX=              0.7494
 ZZZY=              0.8323 XXYY=           -715.3500 XXZZ=           -656.9436 YYZZ=           -136.5495
 XXYZ=            -23.6605 YYXZ=              9.9782 ZZXY=              2.1997
 N-N= 8.803437554526D+02 E-N=-3.202555467530D+03  KE= 6.153475780371D+02
 D1PCM: PCM CHGder 1st derivatives, ID1Alg=3 FixD1E=F DoIter=F DoCFld=F I1PDM=0.
 Calling FoFJK, ICntrl=      2127 FMM=F ISym2X=0 I1Cent= 0 IOpClX= 0 NMat=1 NMatS=1 NMatT=0.
 ***** Axes restored to original set *****
 -------------------------------------------------------------------
 Center     Atomic                   Forces (Hartrees/Bohr)
 Number     Number              X              Y              Z
 -------------------------------------------------------------------
      1        6          -0.000102827    0.001161863   -0.003442558
      2        6           0.001457730    0.000957856   -0.000229577
      3        6          -0.003476470   -0.003740005   -0.005031632
      4        6          -0.000709683    0.005722640   -0.000707152
      5        6           0.002151793   -0.002603009   -0.001181577
      6        6           0.002028101    0.002228889    0.003750796
      7        6           0.003190559   -0.006970832    0.000858815
      8        6          -0.006459212   -0.002463193    0.000670068
      9        8           0.002707672    0.004422783    0.007975885
     10        6          -0.000696746    0.001709391   -0.002223210
     11        8          -0.000717481    0.000035435   -0.011693822
     12        6          -0.000724132   -0.000140480    0.003138179
     13        8           0.002203587   -0.001782622    0.010357896
     14        1          -0.000287214   -0.002204600    0.006448316
     15        1          -0.001353571   -0.000375429    0.002259380
     16        1          -0.001558013   -0.000518287   -0.002552837
     17        1           0.001579342    0.004986235    0.006604341
     18        1          -0.000648869   -0.003689792    0.002016168
     19        1           0.001453939   -0.001045629   -0.005746854
     20        1           0.000580586    0.000885535    0.002965712
     21        1          -0.001743315    0.001139534   -0.001366448
     22        1          -0.002064720   -0.002331094    0.000271421
     23        1          -0.000084404    0.001884296   -0.003388682
     24        1          -0.002900514    0.003443604    0.002696555
     25        1          -0.000842722    0.000927748   -0.006426748
     26        1           0.000738502    0.000987558   -0.006075775
     27        1           0.003744013   -0.000284621    0.002204279
     28        1           0.001386166   -0.002149693   -0.001535698
     29        1          -0.000332875   -0.000554235    0.003170672
     30        1           0.000871110   -0.002482297   -0.003214580
     31        1           0.000609668    0.002842450   -0.000571331
 -------------------------------------------------------------------
 Cartesian Forces:  Max     0.011693822 RMS     0.003294260

 GradGradGradGradGradGradGradGradGradGradGradGradGradGradGradGradGradGrad
 Berny optimization.
 FormGI is forming the generalized inverse of G from B-inverse, IUseBI=4.
 Internal  Forces:  Max     0.010512640 RMS     0.001950102
 Search for a local minimum.
 Step number   1 out of a maximum of  186
 All quantities printed in internal units (Hartrees-Bohrs-Radians)
 Mixed Optimization -- RFO/linear search
 Second derivative matrix not updated -- first step.
 ITU=  0
     Eigenvalues ---    0.00391   0.00649   0.00692   0.00740   0.01424
     Eigenvalues ---    0.01444   0.01464   0.02696   0.02786   0.03174
     Eigenvalues ---    0.03205   0.04085   0.04356   0.04528   0.04804
     Eigenvalues ---    0.04868   0.04967   0.04997   0.05119   0.05149
     Eigenvalues ---    0.05172   0.05565   0.05741   0.05924   0.06157
     Eigenvalues ---    0.06399   0.06600   0.06814   0.07660   0.07884
     Eigenvalues ---    0.07895   0.07909   0.07919   0.08006   0.08103
     Eigenvalues ---    0.08505   0.09378   0.09397   0.10870   0.11592
     Eigenvalues ---    0.11610   0.11694   0.11710   0.12501   0.12613
     Eigenvalues ---    0.14603   0.15429   0.16619   0.17532   0.18708
     Eigenvalues ---    0.20439   0.21770   0.22413   0.25000   0.27233
     Eigenvalues ---    0.27486   0.28534   0.28701   0.28725   0.29470
     Eigenvalues ---    0.29555   0.30136   0.35068   0.35078   0.35081
     Eigenvalues ---    0.35150   0.35236   0.35253   0.35294   0.35295
     Eigenvalues ---    0.35346   0.35371   0.35452   0.35485   0.35491
     Eigenvalues ---    0.35501   0.35827   0.35831   0.35869   0.35923
     Eigenvalues ---    0.40006   0.41463   0.42299   0.42818   0.42887
     Eigenvalues ---    0.458281000.000001000.000001000.000001000.00000
     Eigenvalues --- 1000.000001000.000001000.000001000.000001000.00000
     Eigenvalues --- 1000.000001000.000001000.000001000.000001000.00000
     Eigenvalues --- 1000.000001000.000001000.000001000.000001000.00000
     Eigenvalues --- 1000.000001000.000001000.000001000.000001000.00000
     Eigenvalues --- 1000.000001000.000001000.000001000.000001000.00000
     Eigenvalues --- 1000.000001000.000001000.000001000.000001000.00000
     Eigenvalues --- 1000.000001000.000001000.000001000.000001000.00000
     Eigenvalues --- 1000.000001000.000001000.000001000.000001000.00000
     Eigenvalues --- 1000.000001000.000001000.000001000.000001000.00000
     Eigenvalues --- 1000.000001000.000001000.000001000.000001000.00000
     Eigenvalues --- 1000.000001000.000001000.000001000.000001000.00000
     Eigenvalues --- 1000.000001000.000001000.000001000.000001000.00000
     Eigenvalues --- 1000.000001000.000001000.000001000.000001000.00000
     Eigenvalues --- 1000.000001000.000001000.000001000.000001000.00000
     Eigenvalues --- 1000.000001000.000001000.000001000.000001000.00000
     Eigenvalues --- 1000.000001000.000001000.000001000.000001000.00000
     Eigenvalues --- 1000.000001000.000001000.000001000.000001000.00000
     Eigenvalues --- 1000.000001000.000001000.000001000.000001000.00000
     Eigenvalues --- 1000.000001000.000001000.000001000.000001000.00000
 RFO step:  Lambda=-2.75552525D-03 EMin= 3.91314145D-03
 Linear search not attempted -- first point.
 Iteration  1 RMS(Cart)=  0.02439916 RMS(Int)=  0.00024114
 Iteration  2 RMS(Cart)=  0.00053485 RMS(Int)=  0.00005116
 Iteration  3 RMS(Cart)=  0.00000011 RMS(Int)=  0.00005116
 Iteration  1 RMS(Cart)=  0.00001474 RMS(Int)=  0.00000332
 Iteration  2 RMS(Cart)=  0.00000774 RMS(Int)=  0.00000371
 Iteration  3 RMS(Cart)=  0.00000406 RMS(Int)=  0.00000417
 Iteration  4 RMS(Cart)=  0.00000213 RMS(Int)=  0.00000446
 Iteration  5 RMS(Cart)=  0.00000112 RMS(Int)=  0.00000463
 Iteration  6 RMS(Cart)=  0.00000059 RMS(Int)=  0.00000472
 Variable       Old X    -DE/DX   Delta X   Delta X   Delta X     New X
                                 (Linear)    (Quad)   (Total)
    R1        2.87473  -0.00215   0.00000  -0.00714  -0.00716   2.86757
    R2        2.88180  -0.00002   0.00000  -0.00004  -0.00004   2.88176
    R3        2.67809   0.00239   0.00000   0.00554   0.00554   2.68363
    R4        2.04869   0.00675   0.00000   0.01887   0.01887   2.06757
    R5        2.89120   0.00094   0.00000   0.00237   0.00241   2.89361
    R6        2.90944  -0.00046   0.00000  -0.00308  -0.00302   2.90642
    R7        2.05077   0.00265   0.00000   0.00744   0.00744   2.05820
    R8        2.05265   0.00301   0.00000   0.00846   0.00846   2.06111
    R9        2.64326   0.00336   0.00000   0.00728   0.00728   2.65054
   R10        2.87933  -0.00109   0.00000  -0.00202  -0.00203   2.87730
   R11        2.65472   0.00309   0.00000   0.00814   0.00811   2.66283
   R12        2.04287   0.00837   0.00000   0.02317   0.02317   2.06604
   R13        2.68203   0.00319   0.00000   0.00729   0.00725   2.68927
   R14        2.04202   0.00425   0.00000   0.01174   0.01174   2.05377
   R15        2.04885   0.00598   0.00000   0.01672   0.01672   2.06557
   R16        2.88641  -0.00051   0.00000  -0.00267  -0.00268   2.88373
   R17        2.05293   0.00307   0.00000   0.00863   0.00863   2.06156
   R18        2.04947   0.00249   0.00000   0.00697   0.00697   2.05644
   R19        2.89294  -0.00067   0.00000  -0.00230  -0.00232   2.89062
   R20        2.05117   0.00306   0.00000   0.00859   0.00859   2.05976
   R21        2.05565   0.00373   0.00000   0.01055   0.01055   2.06620
   R22        2.66658   0.00312   0.00000   0.00711   0.00713   2.67372
   R23        2.04353   0.00522   0.00000   0.01445   0.01445   2.05798
   R24        2.05549   0.00622   0.00000   0.01760   0.01760   2.07308
   R25        2.67693   0.00334   0.00000   0.00781   0.00783   2.68476
   R26        2.87326   0.00034   0.00000   0.00108   0.00108   2.87434
   R27        2.05543   0.00608   0.00000   0.01721   0.01721   2.07263
   R28        2.04347   0.00435   0.00000   0.01206   0.01206   2.05553
   R29        2.05199   0.00296   0.00000   0.00832   0.00832   2.06031
   R30        2.05432   0.00317   0.00000   0.00894   0.00894   2.06326
   R31        2.05201   0.00397   0.00000   0.01116   0.01116   2.06317
   R32        2.04895   0.00295   0.00000   0.00826   0.00826   2.05721
    A1        1.92374  -0.00024   0.00000  -0.00419  -0.00424   1.91950
    A2        1.90964  -0.00082   0.00000  -0.00256  -0.00255   1.90709
    A3        1.90941   0.00042   0.00000  -0.00166  -0.00165   1.90776
    A4        1.90391   0.00065   0.00000   0.00331   0.00332   1.90724
    A5        1.90487  -0.00028   0.00000  -0.00123  -0.00124   1.90363
    A6        1.91220   0.00028   0.00000   0.00643   0.00642   1.91862
    A7        1.92538  -0.00012   0.00000  -0.00956  -0.00972   1.91566
    A8        1.92203  -0.00049   0.00000   0.00089   0.00093   1.92296
    A9        1.89353   0.00073   0.00000   0.00504   0.00506   1.89859
   A10        1.92110   0.00083   0.00000   0.00249   0.00254   1.92363
   A11        1.93108  -0.00105   0.00000  -0.00197  -0.00192   1.92915
   A12        1.86981   0.00009   0.00000   0.00356   0.00352   1.87333
   A13        1.89390  -0.00269   0.00000  -0.01421  -0.01421   1.87969
   A14        1.93379   0.00048   0.00000   0.00167   0.00178   1.93557
   A15        1.91114   0.00149   0.00000   0.01210   0.01206   1.92320
   A16        1.95535   0.00264   0.00000   0.00526   0.00511   1.96046
   A17        1.93693  -0.00018   0.00000  -0.00062  -0.00051   1.93642
   A18        1.83234  -0.00164   0.00000  -0.00325  -0.00329   1.82905
   A19        1.92689   0.00137   0.00000   0.00146   0.00121   1.92810
   A20        1.95077  -0.00039   0.00000  -0.00347  -0.00339   1.94738
   A21        1.94048  -0.00090   0.00000  -0.00285  -0.00283   1.93765
   A22        1.85398  -0.00111   0.00000  -0.00079  -0.00073   1.85325
   A23        1.90729   0.00068   0.00000   0.00508   0.00517   1.91246
   A24        1.88169   0.00035   0.00000   0.00086   0.00083   1.88252
   A25        1.92149  -0.00082   0.00000  -0.00776  -0.00799   1.91350
   A26        1.91791   0.00062   0.00000   0.00182   0.00188   1.91979
   A27        1.93168  -0.00018   0.00000   0.00044   0.00049   1.93218
   A28        1.90300   0.00040   0.00000  -0.00040  -0.00034   1.90267
   A29        1.92543  -0.00004   0.00000   0.00136   0.00142   1.92685
   A30        1.86332   0.00007   0.00000   0.00496   0.00492   1.86824
   A31        1.91815   0.00126   0.00000  -0.00272  -0.00276   1.91539
   A32        1.91891  -0.00060   0.00000  -0.00309  -0.00306   1.91585
   A33        1.89708  -0.00107   0.00000  -0.00751  -0.00751   1.88957
   A34        1.93588   0.00011   0.00000   0.00578   0.00579   1.94167
   A35        1.91579  -0.00016   0.00000   0.00340   0.00337   1.91915
   A36        1.87723   0.00040   0.00000   0.00403   0.00399   1.88122
   A37        1.93138   0.00191   0.00000   0.00917   0.00918   1.94056
   A38        1.94039  -0.00062   0.00000  -0.00621  -0.00626   1.93413
   A39        1.91304  -0.00241   0.00000  -0.01617  -0.01624   1.89680
   A40        1.86626  -0.00087   0.00000   0.00075   0.00076   1.86702
   A41        1.91641   0.00132   0.00000   0.01244   0.01250   1.92891
   A42        1.89554   0.00074   0.00000   0.00066   0.00053   1.89607
   A43        1.93707   0.00190   0.00000   0.00857   0.00857   1.94564
   A44        1.90141   0.00068   0.00000   0.00685   0.00688   1.90829
   A45        1.85561  -0.00121   0.00000  -0.00368  -0.00367   1.85194
   A46        1.93051  -0.00160   0.00000  -0.00955  -0.00958   1.92093
   A47        1.94467  -0.00032   0.00000  -0.00303  -0.00304   1.94163
   A48        1.89228   0.00057   0.00000   0.00123   0.00120   1.89348
   A49        1.97591  -0.00463   0.00000  -0.02779  -0.02771   1.94820
   A50        1.92983  -0.00079   0.00000  -0.00590  -0.00596   1.92387
   A51        1.92794  -0.00042   0.00000  -0.00011  -0.00010   1.92784
   A52        1.91894   0.00076   0.00000   0.00109   0.00109   1.92003
   A53        1.90802   0.00071   0.00000   0.00489   0.00491   1.91294
   A54        1.90348  -0.00023   0.00000  -0.00274  -0.00274   1.90075
   A55        1.87464  -0.00000   0.00000   0.00302   0.00302   1.87765
   A56        2.03540  -0.01051   0.00000  -0.04159  -0.04159   1.99380
   A57        1.91595   0.00023   0.00000  -0.00473  -0.00485   1.91110
   A58        1.90798  -0.00048   0.00000  -0.00901  -0.00898   1.89900
   A59        1.89580  -0.00025   0.00000   0.00337   0.00341   1.89920
   A60        1.92127   0.00004   0.00000   0.00244   0.00235   1.92362
   A61        1.94919   0.00027   0.00000   0.00474   0.00483   1.95402
   A62        1.87274   0.00016   0.00000   0.00306   0.00304   1.87578
   A63        2.00767  -0.00547   0.00000  -0.03311  -0.03325   1.97442
    D1        0.91543  -0.00038   0.00000   0.00575   0.00573   0.92116
    D2        3.05111   0.00020   0.00000   0.00915   0.00913   3.06024
    D3       -1.18151  -0.00029   0.00000   0.00785   0.00784  -1.17367
    D4        3.00903  -0.00025   0.00000   0.00561   0.00560   3.01463
    D5       -1.13848   0.00033   0.00000   0.00901   0.00901  -1.12947
    D6        0.91209  -0.00016   0.00000   0.00772   0.00772   0.91981
    D7       -1.17919  -0.00015   0.00000   0.01090   0.01089  -1.16830
    D8        0.95648   0.00043   0.00000   0.01430   0.01430   0.97078
[...]
 0.00004882,0.00010879,0.00145687,-0.00054534,0.00147969,0.00002952,0.0
 0006563,-0.00000041,0.00001482,0.00014613,0.00000630,-0.00036605,0.000
 10951,0.00075612,0.00000476,0.00000211,-0.00000227,0.00000543,-0.00000
 105,0.00000325,-0.00009421,0.00006604,0.00005693,0.00001104,0.00001057
 ,0.00000067,0.00000505,-0.00000336,0.00000499,-0.00000138,0.00000058,-
 0.00000375,0.00001716,0.00000067,-0.00000457,0.00006857,0.00003411,0.0
 0016949,-0.00039569,0.00028172,0.00023745,0.00375723,0.00554843,-0.014
 02727,-0.03284867,-0.08389397,0.29079221,-0.00033588,0.00012018,-0.000
 23041,0.00000115,0.00000037,0.00000020,0.00003911,-0.00000876,-0.00004
 619,0.00000229,0.00000107,0.00000073,-0.00000089,0.00000234,-0.0000012
 6,0.00067507,0.00039037,0.00122907,0.00250964,-0.00168050,0.00447338,-
 0.05913973,-0.01403982,0.02553585,-0.00982789,0.00306962,0.02442595,-0
 .00150336,-0.00739958,0.01317556,-0.00021313,-0.00011466,-0.00014299,-
 0.00000484,0.00000173,0.00000279,-0.00000391,-0.00000639,0.00000659,0.
 00007525,0.00010055,-0.00007730,-0.00000027,0.00000003,0.00000011,-0.0
 0000020,-0.00000007,-0.00000014,0.00000719,0.00000331,0.00000435,-0.00
 000021,-0.00000031,0.00000034,0.00000015,0.00000005,0.00000056,-0.0000
 0015,-0.00000004,0.00000021,-0.00000116,-0.00000007,0.00000025,0.00016
 584,0.00010140,-0.00022298,-0.00016136,-0.00007379,-0.00038236,0.00010
 683,0.00008025,-0.00027151,0.00027463,0.00016731,-0.00080582,0.0610370
 5,0.00020856,-0.00046826,0.00018013,-0.00000003,0.00000007,-0.00000007
 ,-0.00004167,0.00002713,0.00000662,-0.00000096,0.00000037,-0.00000171,
 -0.00000121,0.00000079,-0.00000172,0.00127072,0.00116898,0.00052439,-0
 .00294302,0.00152833,-0.00318435,-0.01404485,-0.08420491,0.08852423,0.
 01294815,0.00312648,-0.02879073,-0.00468720,-0.01257478,0.02932935,0.0
 0007305,0.00024281,0.00012745,-0.00000672,0.00000084,0.00000821,0.0000
 0637,0.00000488,-0.00000608,0.00005065,-0.00011240,0.00000481,0.000000
 17,0.,0.,-0.00000008,0.,0.,-0.00000868,0.00000062,0.00000250,0.0000005
 8,0.00000026,-0.00000086,-0.00000009,-0.00000144,0.00000035,0.00000022
 ,-0.00000020,-0.00000004,-0.00000069,0.00000002,0.00000011,0.00024495,
 0.00004440,-0.00039714,-0.00043934,0.00026385,-0.00067074,-0.00016112,
 -0.00005510,0.00005074,-0.00069536,-0.00008619,0.00099256,0.01168417,0
 .09475442,-0.00021531,-0.00050455,0.00006487,-0.00000025,0.00000250,0.
 00000335,-0.00028414,0.00001908,0.00025212,-0.00003858,-0.00003209,-0.
 00003167,0.00000364,-0.00001277,0.00001896,0.00016822,-0.00051574,0.00
 068227,-0.00345106,0.00096302,0.00065437,0.02916493,0.08628212,-0.2545
 0407,0.01392078,-0.00708441,-0.02311632,-0.00166964,0.00045273,0.00133
 234,0.00068124,0.00008240,0.00002316,0.00002794,0.00001047,-0.00003369
 ,0.00012317,0.00009140,-0.00005523,-0.00007483,0.00007482,-0.00013818,
 0.00000379,0.00000205,-0.00000211,0.00000567,-0.00000105,0.00000280,-0
 .00000873,-0.00000648,-0.00000906,0.00000675,0.00000729,0.00000012,0.0
 0000005,-0.00000300,0.00000472,-0.00000006,0.00000038,-0.00000275,0.00
 001300,-0.00000002,-0.00000316,0.00009185,0.00006156,0.00014615,0.0004
 9845,-0.00001632,-0.00004236,0.00012645,-0.00028850,0.00047080,0.00131
 566,-0.00014707,0.00078681,-0.04171023,-0.08633171,0.28492810,0.000777
 06,0.00039573,-0.00007164,0.00000053,-0.00000328,-0.00000460,0.0003666
 3,0.00001925,-0.00026704,0.00005408,0.00003874,0.00004018,-0.00000363,
 0.00001540,-0.00002448,0.00035649,-0.00277942,0.00045467,0.00107014,0.
 00166061,0.00398536,-0.24907739,0.00816513,-0.11439309,-0.02366391,0.0
 0811808,-0.00678883,-0.01053848,-0.00042009,-0.00736430,-0.00061681,-0
 .00006097,-0.00004268,-0.00003234,-0.00001990,0.00003957,-0.00016332,-
 0.00012571,0.00006154,-0.00004132,-0.00000757,0.00001825,-0.00000538,-
 0.00000245,0.00000302,-0.00000717,0.00000112,-0.00000340,0.00000838,-0
 .00000590,-0.00000691,-0.00001059,-0.00001060,-0.00000081,-0.00000055,
 0.00000283,-0.00000520,0.00000032,-0.00000016,0.00000390,-0.00001680,-
 0.00000020,0.00000375,-0.00070832,0.00019145,-0.00034103,0.00002649,0.
 00008205,-0.00011146,-0.00106947,0.00010130,-0.00043813,0.00003946,0.0
 0001215,-0.00026496,0.00615043,-0.00051063,0.00149391,0.27662546,0.000
 51972,-0.00119126,-0.00026771,-0.00000051,-0.00000004,-0.00000005,-0.0
 0003125,0.00003720,-0.00004814,0.00000163,0.00000444,-0.00000576,-0.00
 000502,0.00000356,-0.00000454,-0.00162870,-0.00600533,0.00087175,0.001
 15983,-0.00235551,-0.00358755,0.00305772,-0.04868518,0.00397547,0.0282
 0447,-0.00613516,0.01034203,-0.02738337,0.00294221,-0.01561524,0.00005
 241,0.00051178,0.00019369,-0.00002054,0.00000361,0.00002165,0.00001169
 ,0.00001480,0.00000084,-0.00003815,0.00009971,0.00003955,-0.00000020,0
 .00000016,0.00000009,0.00000009,0.,0.00000014,-0.00004425,0.00000927,0
 .00003641,0.00000178,0.00000030,0.00000079,0.00000189,-0.00000139,0.00
 000136,-0.00000020,-0.00000003,0.00000012,-0.00000219,-0.00000037,0.00
 000084,-0.00194329,0.00019090,-0.00061360,0.00020906,0.00003595,-0.000
 09168,0.00141429,-0.00002476,0.00026588,-0.00022921,0.00002193,-0.0000
 6653,0.00991177,0.00038019,0.00648649,-0.01496205,0.05793225,0.0001187
 7,-0.00051487,-0.00015129,-0.00000032,0.00000007,0.,-0.00002700,0.0000
 1181,0.00000535,-0.00000427,-0.00000019,-0.00000373,-0.00000200,0.0000
 0011,-0.00000165,0.00017050,-0.00086053,0.00101088,0.00175952,-0.00166
 362,-0.00151009,-0.12453369,0.00848703,-0.12304259,0.02165061,-0.00425
 374,0.00974504,0.00078910,0.00139274,-0.00009111,0.00007965,0.00025204
 ,0.00013113,-0.00000580,0.00000167,0.00000634,0.00001475,0.00001364,-0
 .00000876,-0.00000091,0.00000738,0.00000900,0.00000010,0.00000010,-0.0
 0000007,0.00000024,0.00000012,0.00000010,-0.00001492,0.00000106,0.0000
 1446,0.00000137,0.00000084,-0.00000046,-0.00000006,-0.00000054,0.00000
 077,-0.00000008,0.00000030,-0.00000024,-0.00000003,-0.00000006,0.00000
 012,-0.00040304,0.00009374,0.00015995,0.00039740,-0.00002630,0.0003151
 9,0.00064592,-0.00021674,0.00048890,0.00020752,-0.00020224,0.00048057,
 -0.02478578,0.00060678,-0.01283516,0.12377325,-0.00238818,0.12456426,-
 0.00265104,-0.00256542,-0.00463762,0.00000594,-0.00000486,-0.00000956,
 0.00061657,0.00032979,-0.00116670,0.00011126,0.00010022,0.00008069,-0.
 00003634,0.00007105,-0.00010058,-0.01764233,0.02023751,0.01694745,-0.0
 0102025,-0.00056687,-0.00035355,0.00919371,-0.00695895,-0.00852506,0.0
 0062700,-0.00497517,-0.00085279,-0.13189805,0.09378812,0.08276541,-0.0
 0272285,0.00202835,0.00111556,-0.00021448,-0.00003587,0.00025158,-0.00
 029420,-0.00030613,0.00017690,0.00011909,-0.00024919,0.00000127,-0.000
 01188,-0.00000853,0.00000692,-0.00001630,0.00000163,-0.00000815,-0.000
 04850,0.00003460,0.00008243,-0.00001932,-0.00002313,-0.00000106,-0.000
 00314,0.00000460,-0.00001197,0.00000098,-0.00000076,0.00000949,-0.0000
 5786,-0.00000493,0.00001700,0.00104233,-0.00063643,0.00055278,0.001444
 37,-0.00014417,-0.00011442,0.00019641,0.00011176,0.00013017,0.00018791
 ,0.00004394,0.00000860,0.00047613,0.00064091,0.00031744,0.00013022,0.0
 0104907,-0.00013387,0.14424493,-0.00057127,0.00119467,0.00051223,-0.00
 000095,0.00000224,0.00000218,-0.00020921,-0.00003551,0.00019101,-0.000
 03093,-0.00002195,-0.00002267,0.00000169,-0.00001065,0.00001763,0.0008
 8122,-0.00100874,0.00027146,-0.00196363,0.00075110,-0.00073701,0.01955
 176,-0.01387813,-0.01562853,-0.00132622,-0.00880443,-0.00143074,0.0930
 0907,-0.15337009,-0.08943070,0.00031099,0.00008422,-0.00024136,0.00001
 790,0.00001286,-0.00003286,0.00008787,0.00007040,-0.00003731,0.0000803
 4,-0.00013173,-0.00019812,0.00000316,0.00000127,-0.00000164,0.00000426
 ,-0.00000063,0.00000192,-0.00000340,0.00000037,-0.00000536,0.00000577,
 0.00000597,0.00000060,0.00000072,-0.00000119,0.00000304,-0.00000073,0.
 00000014,-0.00000230,0.00001005,0.00000052,-0.00000328,0.00022167,0.00
 031838,0.00038572,0.00006419,0.00003112,-0.00001366,0.00023727,-0.0000
 1685,0.00006611,0.00019258,-0.00002147,0.00016380,0.00021447,0.0009827
 8,0.00085257,-0.00039414,0.00088620,-0.00016746,-0.10283999,0.16458971
 ,-0.00218276,-0.00065570,-0.00125003,0.00000228,0.00000104,-0.00000103
 ,-0.00002238,0.00014068,-0.00030224,0.00001904,0.00001407,0.00001257,-
 0.00001537,0.00001743,-0.00002775,-0.00951091,0.01140094,0.00805176,-0
 .00040676,0.00006604,-0.00035417,0.00043049,0.00117381,-0.00214419,-0.
 00007496,-0.00114510,0.00146930,0.08346948,-0.09154895,-0.12600636,-0.
 00095370,0.00054768,0.00058469,-0.00006830,-0.00000583,0.00007149,-0.0
 0003583,-0.00006043,0.00003599,-0.00013166,0.00016780,0.00033546,-0.00
 000222,-0.00000190,0.00000117,-0.00000234,-0.00000014,-0.00000143,0.00
 000059,0.00000844,0.00001637,-0.00000335,-0.00000440,-0.00000027,-0.00
 000113,0.00000091,-0.00000173,0.00000073,0.00000006,0.00000154,-0.0000
 1541,-0.00000166,0.00000466,0.00082845,-0.00026306,0.00026359,0.000782
 13,0.00011112,0.00073299,0.00005520,-0.00000332,-0.00000674,0.00013499
 ,-0.00002560,0.00002885,-0.00027554,-0.00033613,0.00021724,-0.00012908
 ,-0.00000570,0.00003424,-0.08782652,0.09936698,0.13351024,0.00140510,-
 0.00022094,-0.00120581,-0.00000005,-0.00000068,0.00000078,0.00005194,-
 0.00001330,0.00003156,0.00000596,0.00000303,0.00000344,0.00000147,-0.0
 0000024,-0.00000223,0.00142170,0.01154924,-0.03009298,-0.00054169,0.00
 008705,-0.00027991,-0.00351957,-0.00627676,0.01676236,0.00102198,0.001
 19875,-0.00112124,-0.04960136,-0.00680641,0.01943587,-0.00021323,-0.00
 017600,0.00041471,0.00001329,-0.00000117,-0.00000065,-0.00002725,-0.00
 002770,0.00003383,-0.00025736,0.00007156,0.00045540,-0.00000082,-0.000
 00002,0.00000029,-0.00000027,0.00000005,-0.00000029,-0.00001905,0.0000
 1148,0.00001929,-0.00000188,-0.00000159,0.00000002,0.00000041,0.000001
 48,-0.00000046,0.00000026,-0.00000007,0.00000023,-0.00000169,-0.000000
 24,0.00000002,0.00134081,-0.00047652,0.00063246,-0.00539628,0.00106392
 ,-0.00221236,0.00009452,0.00006867,0.00001489,-0.00012743,-0.00004935,
 0.00014350,-0.00032603,-0.00358792,-0.00051335,0.00035517,0.00069032,0
 .00030120,-0.00176699,-0.00755653,0.01593215,0.05608953,-0.00011545,-0
 .00015101,0.00074204,-0.00000109,-0.00000084,-0.00000111,0.00004737,-0
 .00002676,-0.00002190,0.00000493,0.00000883,0.00000630,-0.00000007,0.0
 0000057,-0.00000058,-0.00028869,-0.00118250,0.00115901,0.00006586,-0.0
 0017018,-0.00001271,-0.00453428,-0.01411652,0.02996874,0.00046837,0.00
 330724,-0.00052508,-0.00543248,-0.08329137,0.08719886,0.00005260,0.000
 06312,-0.00014546,-0.00000422,-0.00000236,0.00000029,-0.00002094,-0.00
 000698,-0.00000039,0.00025251,-0.00007676,-0.00001320,-0.00000023,-0.0
 0000019,0.00000032,-0.00000119,0.00000046,-0.00000054,0.00000266,-0.00
 000413,-0.00000061,-0.00000057,-0.00000085,-0.00000004,-0.00000003,0.0
 0000021,-0.00000157,-0.00000005,-0.00000016,0.00000015,-0.00000107,0.0
 0000031,-0.00000020,0.00027640,0.00033223,-0.00032054,0.00002320,0.000
 88372,0.00008954,0.00002393,-0.00000099,-0.00002137,-0.00010402,0.0000
 9570,-0.00002622,-0.00252649,-0.00502304,-0.00044058,0.00049181,0.0013
 2788,-0.00057143,0.00087317,0.00837235,-0.01895928,0.01044986,0.089661
 05,0.00093054,-0.00046893,-0.00010535,0.00000032,-0.00000144,-0.000001
 79,0.00013078,0.00008324,-0.00015489,0.00002162,0.00001728,0.00001527,
 -0.00000483,0.00000873,-0.00001554,-0.00006415,0.00438326,-0.01313213,
 0.00011182,-0.00003164,0.00014877,0.00058397,-0.00176552,0.00093958,-0
 .00125824,0.00071699,0.00130285,0.01999162,0.08906699,-0.27341264,-0.0
 0034490,-0.00007808,0.00043806,-0.00002323,-0.00000697,0.00002713,-0.0
 0006542,-0.00006532,0.00003361,-0.00025845,0.00041205,0.00047164,-0.00
 000261,-0.00000126,0.00000156,-0.00000284,0.00000061,-0.00000160,-0.00
 001523,0.00000730,0.00001331,-0.00000490,-0.00000533,0.00000043,0.0000
 0080,0.00000179,-0.00000211,0.00000058,0.00000014,0.00000188,-0.000009
 16,-0.00000069,0.00000251,0.00000476,-0.00031347,0.00045166,-0.0027712
 5,0.00019795,0.00022933,0.00000336,0.00008783,-0.00000154,0.00005304,-
 0.00008297,-0.00016152,0.00009426,-0.00063541,0.00118800,0.00037859,0.
 00045581,0.00067929,0.00127242,0.00611734,-0.01527499,-0.01875032,-0.0
 9810288,0.29632023,0.00005109,-0.00000905,-0.00021358,0.00158415,0.001
 11119,-0.00030222,-0.00365408,-0.01334846,-0.02292920,0.00042371,-0.00
 060379,-0.00031050,-0.00158218,0.01371858,0.02971903,0.00005056,-0.000
 00074,0.00014940,0.00005893,-0.00009899,-0.00002744,-0.00001314,-0.000
 00912,-0.00001113,0.00000925,0.00005967,0.00004831,0.00002633,-0.00002
 854,-0.00002220,0.00173010,-0.00078362,-0.00030939,-0.04568190,0.00240
 640,0.00508626,0.00034684,0.00124872,0.00045943,0.00000098,-0.00003497
 ,0.00018778,0.00010459,0.00020550,-0.00027012,-0.00002136,-0.00015078,
 -0.00037250,-0.00305799,0.00249661,-0.00196183,0.00000306,0.00005966,-
 0.00001028,0.00031896,-0.00011525,0.00033559,-0.00554103,-0.00127796,0
 .00275104,0.00121166,0.00034267,-0.00091116,-0.00000154,0.00000474,-0.
 00000005,-0.00002707,0.00002925,0.00001399,0.00004544,0.00008176,0.000
 01640,-0.00002134,0.00000296,0.00001990,-0.00000107,0.00000048,0.00000
 020,-0.00000255,0.00000460,0.00000291,0.00001310,-0.00000060,0.0000030
 1,0.00000084,-0.00000148,-0.00000052,0.05402585,0.00001889,0.00010153,
 0.00031058,0.00046691,0.00049031,0.00082024,-0.00004039,0.00619348,0.0
 1242711,-0.00001561,-0.00074837,0.00073110,0.00002981,0.00173119,0.004
 64489,-0.00006999,-0.00000163,-0.00011506,0.00003654,0.00002644,0.0000
 2705,0.00001249,0.00000703,-0.00000247,-0.00001793,-0.00002412,-0.0000
 2438,-0.00001822,0.00002454,0.00002926,-0.00127399,0.00057787,0.000219
 50,0.00184201,-0.10122894,-0.10496129,0.00022412,-0.00068775,-0.000603
 68,0.00004443,-0.00000350,-0.00004596,0.00005954,0.00007501,-0.0001502
 2,0.00004424,0.00022266,-0.00045508,0.00140371,0.00000275,0.00075058,-
 0.00004705,0.00014321,0.00007895,-0.00015254,-0.00109075,0.00073048,-0
 .00087408,0.00078508,0.00096804,0.00031866,-0.00001505,-0.00026093,0.0
 0000077,-0.00000321,-0.00000033,0.00000936,-0.00001567,-0.00000240,0.0
 0000784,-0.00003449,-0.00000620,0.00000128,0.00000244,-0.00000286,0.00
 000006,-0.00000069,0.00000191,-0.00000049,-0.00000310,-0.00000187,-0.0
 0001500,0.00000182,-0.00000437,-0.00000022,0.00000046,-0.00000082,-0.0
 0278148,0.10653975,0.00003894,0.00016035,0.00038482,0.00018641,-0.0003
 4384,0.00058677,-0.00083087,-0.01162049,-0.01964369,-0.00022486,-0.000
 99132,-0.00093291,0.00181017,-0.00503776,-0.01211562,-0.00003570,0.000
 00012,0.00003124,0.00010471,-0.00017076,0.00003891,-0.00001769,0.00000
 048,0.00000076,0.00005514,0.00008070,0.00002453,-0.00000150,-0.0000072
 1,-0.00001471,0.00273124,-0.00014859,0.00168869,0.00160003,-0.10235427
 ,-0.25842535,-0.00030708,0.00200428,0.00023171,0.00022949,-0.00009118,
 0.00010182,-0.00010435,0.00003224,0.00017428,0.00026780,0.00044439,-0.
 00030917,-0.00201446,0.00192461,-0.00100606,-0.00002841,0.00013959,0.0
 0041900,-0.00030553,0.00059233,0.00045182,0.00244154,0.00032814,0.0001
 9920,0.00014617,0.00011922,0.00055447,-0.00000047,-0.00000171,-0.00000
 695,-0.00001101,0.00000444,-0.00000627,0.00002393,0.00007182,0.0000232
 4,-0.00001914,0.00001419,0.00000765,0.00000138,-0.00000081,-0.00000173
 ,0.00000036,0.00000268,0.00000051,0.00000696,0.00000107,-0.00000113,-0
 .00000221,0.00000051,-0.00000081,-0.00525689,0.11318665,0.28276727,-0.
 00017019,-0.00054948,0.00022144,-0.00520968,0.00049338,0.00398906,0.00
 567949,0.02316651,-0.00087975,-0.00169249,0.00003115,-0.00038991,-0.00
 505448,-0.03061140,0.00160468,0.00001569,-0.00001071,-0.00001780,-0.00
 004277,0.00018199,-0.00000566,0.00002263,-0.00000623,-0.00000748,-0.00
 009063,-0.00006903,-0.00003182,0.00000648,0.00001135,0.00000386,-0.000
 59761,-0.00055059,-0.00030572,-0.05812772,-0.05332934,0.00686202,-0.00
 126046,0.00381075,-0.00384244,0.00004473,0.00001015,-0.00002712,-0.000
 48717,-0.00190048,0.00017221,-0.00006673,-0.00019344,-0.00016831,0.000
 98724,-0.00017139,0.00016801,0.00018550,-0.00000403,0.00004629,0.00018
 254,0.00012873,-0.00011464,0.00129771,0.00061432,-0.00008239,0.0011612
 8,0.00034945,-0.00091748,0.00000156,0.00000623,0.00000637,0.00000046,0
 .00000072,0.00000038,0.00003794,-0.00004254,-0.00002198,0.00000116,-0.
 00000565,0.00001664,-0.00000068,0.00000058,0.00000304,-0.00000282,-0.0
 0000140,-0.00000101,-0.00000643,0.00000263,-0.00000034,-0.00000204,-0.
 00000033,-0.00000243,-0.00040020,0.00078631,-0.00048413,0.06358771,0.0
 0001709,0.00020212,-0.00016354,-0.00007693,0.00117800,0.00054773,-0.00
 572853,-0.01186641,-0.00074106,0.00036990,0.00085946,0.00004242,-0.000
 04519,-0.00071084,-0.00017935,0.00006477,0.00001900,0.00005959,0.00005
 699,-0.00009788,0.00007045,-0.00002419,0.00001013,0.00002756,0.0000986
 7,0.00003905,-0.00000001,0.00000024,-0.00002817,-0.00003580,0.00136708
 ,0.00037120,0.00026949,-0.05205048,-0.30620870,0.03306194,0.00140865,-
 0.00095059,0.00169173,0.00000133,-0.00000444,-0.00000239,-0.00001152,-
 0.00028668,-0.00005676,-0.00004038,0.00006883,-0.00006271,0.00006638,0
 .00121169,-0.00002385,-0.00003423,-0.00004885,0.00012852,-0.00013218,0
 .00013374,0.00008679,-0.00027026,0.00021185,0.00030649,-0.00044683,0.0
 0034840,0.00000196,-0.00000545,-0.00000474,-0.00000326,0.00000049,-0.0
 0000025,-0.00000760,0.00004638,-0.00003291,0.00000163,0.00001420,0.000
 00253,-0.00001108,0.00000142,-0.00000020,-0.00000651,0.00000791,-0.000
 00023,-0.00000168,0.00002067,-0.00000475,0.00000457,0.00000024,0.00000
 048,0.00000342,-0.00252797,-0.01306828,0.00166015,0.05785178,0.3286574
 5,-0.00006181,0.00003774,0.00007522,0.00223170,-0.00030779,-0.00034605
 ,0.00514047,0.01907830,-0.00383011,-0.00058727,-0.00144772,-0.00082835
 ,0.00209075,0.01334214,-0.00203374,-0.00002616,0.00000524,-0.00001220,
 -0.00001674,-0.00000609,0.00004063,-0.00000021,0.00000552,0.00000552,0
 .00002667,-0.00000342,-0.00000806,-0.00000017,0.00000731,0.00000019,-0
 .00004569,-0.00044614,-0.00007462,0.00592409,0.02974844,-0.05093466,-0
 .00281389,0.00420199,-0.00323164,0.00002730,0.00001419,0.00000847,0.00
 015289,0.00060453,0.00012541,0.00022316,0.00028967,-0.00008222,0.00069
 851,0.00000065,0.00040217,0.00001691,0.00011148,0.00024158,-0.00014805
 ,0.00014205,0.00037656,-0.00073299,0.00005504,0.00030083,-0.00041150,-
 0.00045675,0.00044633,-0.00000011,-0.00000108,-0.00000088,0.00000279,-
 0.00000251,-0.00000175,-0.00001398,-0.00001280,-0.00000032,0.00000036,
 -0.00000038,-0.00000742,0.00000090,-0.00000073,-0.00000069,0.00000130,
 -0.00000093,-0.00000094,-0.00000121,-0.00000065,-0.00000008,-0.0000001
 8,-0.00000006,-0.00000020,-0.00588425,-0.02828842,0.00477769,-0.005793
 57,-0.03666883,0.05459334\\0.00021582,0.00088521,-0.00012763,-0.000007
 07,0.00000600,0.00000212,0.00090577,0.00059608,0.00085203,0.00001325,-
 0.00000285,-0.00000002,-0.00000194,-0.00000714,0.00000429,0.00000331,0
 .00000121,-0.00000070,0.00000471,-0.00000064,0.00000677,-0.00000680,0.
 00000535,0.00000726,0.00000449,-0.00000327,-0.00000189,0.00000489,-0.0
 0000093,0.00000236,-0.00053861,-0.00131337,-0.00006553,-0.00000506,0.0
 0000179,-0.00000391,-0.00058690,-0.00017250,-0.00066688,0.00000162,0.0
 0000130,0.00000255,-0.00000065,-0.00000114,-0.00000151,-0.00000131,0.0
 0000365,-0.00000175,0.00000270,0.00000137,0.00000479,-0.00000025,0.000
 00131,-0.00000004,-0.00000176,0.00000052,-0.00000351,0.00000019,-0.000
 00107,-0.00000051,-0.00000078,0.00000132,-0.00000114,-0.00000007,-0.00
 000030,0.00000038,-0.00000174,0.00000226,-0.00000061,-0.00000263,-0.00
 000039,0.00000115,-0.00000237,0.00000005,-0.00000124,0.00000193,-0.000
 00276,-0.00000280,0.00000168,-0.00000284,-0.00000058,-0.00000045,-0.00
 000045,-0.00000573,0.00000211,-0.00000036,-0.00000362,-0.00000008,0.00
 000066,0.00000042,-0.00000399,0.00000191,0.00000547\\\@


 We're simply so accustomed to the marvels of everyday thought
 that we never wonder about it.
 -- Marvin Minsky in "Why people think computers are smart"
 Job cpu time:       0 days 14 hours  1 minutes 32.0 seconds.
 Elapsed time:       0 days  0 hours 52 minutes 37.6 seconds.
 File lengths (MBytes):  RWF=    690 Int=      0 D2E=      0 Chk=     33 Scr=      1
 Normal termination of Gaussian 16 at Mon Nov  5 01:07:37 2018.
