 Entering Gaussian System, Link 0=g16
 Initial command:
 /apps/gaussian/g16a03/g16/l1.exe "/jobfs/local/2011843.r-man2/Gau-2318.inp" -scrdir="/jobfs/local/2011843.r-man2/"
 Entering Link 1 = /apps/gaussian/g16a03/g16/l1.exe PID=      2319.
  
 Copyright (c) 1988,1990,1992,1993,1995,1998,2003,2009,2016,
            Gaussian, Inc.  All Rights Reserved.
  
 This is part of the Gaussian(R) 16 program.  It is based on
 the Gaussian(R) 09 system (copyright 2009, Gaussian, Inc.),
 the Gaussian(R) 03 system (copyright 2003, Gaussian, Inc.),
 the Gaussian(R) 98 system (copyright 1998, Gaussian, Inc.),
 the Gaussian(R) 94 system (copyright 1995, Gaussian, Inc.),
 the Gaussian 92(TM) system (copyright 1992, Gaussian, Inc.),
 the Gaussian 90(TM) system (copyright 1990, Gaussian, Inc.),
 the Gaussian 88(TM) system (copyright 1988, Gaussian, Inc.),
 the Gaussian 86(TM) system (copyright 1986, Carnegie Mellon
 University), and the Gaussian 82(TM) system (copyright 1983,
 Carnegie Mellon University). Gaussian is a federally registered
 trademark of Gaussian, Inc.
  
 This software contains proprietary and confidential information,
 including trade secrets, belonging to Gaussian, Inc.
  
 This software is provided under written license and may be
 used, copied, transmitted, or stored only in accord with that
 written license.
  
 The following legend is applicable only to US Government
 contracts under FAR:
  
                    RESTRICTED RIGHTS LEGEND
  
 Use, reproduction and disclosure by the US Government is
 subject to restrictions as set forth in subparagraphs (a)
 and (c) of the Commercial Computer Software - Restricted
 Rights clause in FAR 52.227-19.
  
 Gaussian, Inc.
 340 Quinnipiac St., Bldg. 40, Wallingford CT 06492
  
  
 ---------------------------------------------------------------
 Warning -- This program may not be used in any manner that
 competes with the business of Gaussian, Inc. or will provide
 assistance to any competitor of Gaussian, Inc.  The licensee
 of this program is prohibited from giving any competitor of
 Gaussian, Inc. access to this program.  By using this program,
 the user acknowledges that Gaussian, Inc. is engaged in the
 business of creating and licensing software in the field of
 computational chemistry and represents and warrants to the
 licensee that it is not a competitor of Gaussian, Inc. and that
 it will not use this program in any manner prohibited above.
 ---------------------------------------------------------------
  

 Cite this work as:
 Gaussian 16, Revision A.03,
 M. J. Frisch, G. W. Trucks, H. B. Schlegel, G. E. Scuseria, 
 M. A. Robb, J. R. Cheeseman, G. Scalmani, V. Barone, 
 G. A. Petersson, H. Nakatsuji, X. Li, M. Caricato, A. V. Marenich, 
 J. Bloino, B. G. Janesko, R. Gomperts, B. Mennucci, H. P. Hratchian, 
 J. V. Ortiz, A. F. Izmaylov, J. L. Sonnenberg, D. Williams-Young, 
 F. Ding, F. Lipparini, F. Egidi, J. Goings, B. Peng, A. Petrone, 
 T. Henderson, D. Ranasinghe, V. G. Zakrzewski, J. Gao, N. Rega, 
 G. Zheng, W. Liang, M. Hada, M. Ehara, K. Toyota, R. Fukuda, 
 J. Hasegawa, M. Ishida, T. Nakajima, Y. Honda, O. Kitao, H. Nakai, 
 T. Vreven, K. Throssell, J. A. Montgomery, Jr., J. E. Peralta, 
 F. Ogliaro, M. J. Bearpark, J. J. Heyd, E. N. Brothers, K. N. Kudin, 
 V. N. Staroverov, T. A. Keith, R. Kobayashi, J. Normand, 
 K. Raghavachari, A. P. Rendell, J. C. Burant, S. S. Iyengar, 
 J. Tomasi, M. Cossi, J. M. Millam, M. Klene, C. Adamo, R. Cammi, 
 J. W. Ochterski, R. L. Martin, K. Morokuma, O. Farkas, 
 J. B. Foresman, and D. J. Fox, Gaussian, Inc., Wallingford CT, 2016.
 
 ******************************************
 Gaussian 16:  ES64L-G16RevA.03 25-Dec-2016
                 4-Nov-2018 
 ******************************************
 %mem=6000mb
 %nproc=24
 Will use up to   24 processors via shared memory.
 %chk=2SO_1_e4_D_PHI.inp_extract_7.chk
 ----------------------------------------------------------------------
 #M062X/6-311++G(2d,2p) opt=ModRedundant freq=noraman SCRF=(Solvent=Wat
 er)
 ----------------------------------------------------------------------
 1/18=120,19=15,26=3,38=1/1,3;
 2/9=110,12=2,17=6,18=5,40=1/2;
 3/5=4,6=6,7=1212,11=2,25=1,30=1,70=2201,71=1,72=1,74=-55/1,2,3;
 4//1;
 5/5=2,38=5,53=1/2;
 6/7=2,8=2,9=2,10=2,28=1/1;
 7//1,2,3,16;
 1/18=20,19=15,26=3/3(2);
 2/9=110/2;
 99//99;
 2/9=110/2;
 3/5=4,6=6,7=1212,11=2,25=1,30=1,70=2205,71=1,72=1,74=-55/1,2,3;
 4/5=5,16=3,69=1/1;
 5/5=2,38=5,53=1/2;
 7//1,2,3,16;
 1/18=20,19=15,26=3/3(-5);
 2/9=110/2;
 6/7=2,8=2,9=2,10=2,19=2,28=1/1;
 99/9=1/99;
 ----------------------------
 2SO_1_e4_D_PHI.inp_extract_7
 ----------------------------
 Symbolic Z-matrix:
 Charge =  0 Multiplicity = 1
 C                     0.96792  -0.22776  -0.13079 
 C                    -3.52824   0.73032   0.76021 
 C                    -1.36537  -0.33157  -0.91168 
 C                    -2.10003   1.25951   0.7498 
 C                    -3.59314  -0.69172   0.16003 
 C                     1.89887  -1.35352   0.30215 
 C                     1.75654   0.84111  -0.88019 
 C                     3.75842   0.32605   0.26607 
 O                     2.81952   1.32563  -0.08715 
 C                     3.09508  -0.7825    1.06727 
 O                    -0.02464  -0.76364  -0.98629 
 C                    -2.1896   -1.26551  -0.03877 
 O                    -1.46633   1.00205  -0.49652 
 H                     0.51382   0.21561   0.74442 
 H                    -4.16599   1.40347   0.19663 
 H                    -3.88399   0.73916   1.78602 
 H                    -1.72031  -0.36864  -1.93162 
 H                    -2.07567   2.33322   0.8691 
 H                    -1.51873   0.82295   1.55273 
 H                    -4.09646  -0.66141  -0.80209 
 H                    -4.17455  -1.35234   0.79356 
 H                     1.35488  -2.06804   0.91201 
 H                     2.2475   -1.87867  -0.58438 
 H                     1.13401   1.68994  -1.122 
 H                     2.14903   0.42273  -1.80465 
 H                     4.20843  -0.07298  -0.6403 
 H                     4.52943   0.82194   0.83982 
 H                     3.82208  -1.56262   1.27287 
 H                     2.76786  -0.38268   2.02386 
 H                    -1.69177  -1.40737   0.91579 
 H                    -2.23079  -2.23312  -0.52664 
 
 The following ModRedundant input section has been read:
 D      13       3      11       1 F                                           
 

 GradGradGradGradGradGradGradGradGradGradGradGradGradGradGradGradGradGrad
 Berny optimization.
 Initialization pass.
                           ----------------------------
                           !    Initial Parameters    !
                           ! (Angstroms and Degrees)  !
 --------------------------                            --------------------------
 ! Name  Definition              Value          Derivative Info.                !
 --------------------------------------------------------------------------------
 ! R1    R(1,6)                  1.5236         estimate D2E/DX2                !
 ! R2    R(1,7)                  1.5251         estimate D2E/DX2                !
 ! R3    R(1,11)                 1.4157         estimate D2E/DX2                !
 ! R4    R(1,14)                 1.0811         estimate D2E/DX2                !
 ! R5    R(2,4)                  1.5231         estimate D2E/DX2                !
 ! R6    R(2,5)                  1.5449         estimate D2E/DX2                !
 ! R7    R(2,15)                 1.0851         estimate D2E/DX2                !
 ! R8    R(2,16)                 1.0858         estimate D2E/DX2                !
 ! R9    R(3,11)                 1.4106         estimate D2E/DX2                !
 ! R10   R(3,12)                 1.521          estimate D2E/DX2                !
 ! R11   R(3,13)                 1.4004         estimate D2E/DX2                !
 ! R12   R(3,17)                 1.0806         estimate D2E/DX2                !
 ! R13   R(4,13)                 1.4217         estimate D2E/DX2                !
 ! R14   R(4,18)                 1.0806         estimate D2E/DX2                !
 ! R15   R(4,19)                 1.0831         estimate D2E/DX2                !
 ! R16   R(5,12)                 1.5293         estimate D2E/DX2                !
 ! R17   R(5,20)                 1.0862         estimate D2E/DX2                !
 ! R18   R(5,21)                 1.0843         estimate D2E/DX2                !
 ! R19   R(6,10)                 1.5305         estimate D2E/DX2                !
 ! R20   R(6,22)                 1.0855         estimate D2E/DX2                !
 ! R21   R(6,23)                 1.0878         estimate D2E/DX2                !
 ! R22   R(7,9)                  1.4119         estimate D2E/DX2                !
 ! R23   R(7,24)                 1.0801         estimate D2E/DX2                !
 ! R24   R(7,25)                 1.088          estimate D2E/DX2                !
 ! R25   R(8,9)                  1.4161         estimate D2E/DX2                !
 ! R26   R(8,10)                 1.5201         estimate D2E/DX2                !
 ! R27   R(8,26)                 1.0878         estimate D2E/DX2                !
 ! R28   R(8,27)                 1.0815         estimate D2E/DX2                !
 ! R29   R(10,28)                1.086          estimate D2E/DX2                !
 ! R30   R(10,29)                1.0872         estimate D2E/DX2                !
 ! R31   R(12,30)                1.0859         estimate D2E/DX2                !
 ! R32   R(12,31)                1.0844         estimate D2E/DX2                !
 ! A1    A(6,1,7)              109.9685         estimate D2E/DX2                !
 ! A2    A(6,1,11)             108.688          estimate D2E/DX2                !
 ! A3    A(6,1,14)             109.2458         estimate D2E/DX2                !
 ! A4    A(7,1,11)             109.3229         estimate D2E/DX2                !
 ! A5    A(7,1,14)             109.121          estimate D2E/DX2                !
 ! A6    A(11,1,14)            110.4847         estimate D2E/DX2                !
 ! A7    A(4,2,5)              110.8878         estimate D2E/DX2                !
 ! A8    A(4,2,15)             109.3905         estimate D2E/DX2                !
 ! A9    A(4,2,16)             108.1109         estimate D2E/DX2                !
 ! A10   A(5,2,15)             110.155          estimate D2E/DX2                !
 ! A11   A(5,2,16)             111.1479         estimate D2E/DX2                !
 ! A12   A(15,2,16)            107.0424         estimate D2E/DX2                !
 ! A13   A(11,3,12)            110.9359         estimate D2E/DX2                !
 ! A14   A(11,3,13)            112.0799         estimate D2E/DX2                !
 ! A15   A(11,3,17)            104.5823         estimate D2E/DX2                !
 ! A16   A(12,3,13)            112.0575         estimate D2E/DX2                !
 ! A17   A(12,3,17)            110.0372         estimate D2E/DX2                !
 ! A18   A(13,3,17)            106.7869         estimate D2E/DX2                !
 ! A19   A(2,4,13)             111.1643         estimate D2E/DX2                !
 ! A20   A(2,4,18)             111.4449         estimate D2E/DX2                !
 ! A21   A(2,4,19)             110.9853         estimate D2E/DX2                !
 ! A22   A(13,4,18)            105.4667         estimate D2E/DX2                !
 ! A23   A(13,4,19)            109.7339         estimate D2E/DX2                !
 ! A24   A(18,4,19)            107.8507         estimate D2E/DX2                !
 ! A25   A(2,5,12)             110.9358         estimate D2E/DX2                !
 ! A26   A(2,5,20)             109.7481         estimate D2E/DX2                !
 ! A27   A(2,5,21)             110.8746         estimate D2E/DX2                !
 ! A28   A(12,5,20)            108.6993         estimate D2E/DX2                !
 ! A29   A(12,5,21)            109.8445         estimate D2E/DX2                !
 ! A30   A(20,5,21)            106.6206         estimate D2E/DX2                !
 ! A31   A(1,6,10)             110.1172         estimate D2E/DX2                !
 ! A32   A(1,6,22)             109.8632         estimate D2E/DX2                !
 ! A33   A(1,6,23)             108.7204         estimate D2E/DX2                !
 ! A34   A(10,6,22)            110.8792         estimate D2E/DX2                !
 ! A35   A(10,6,23)            109.698          estimate D2E/DX2                !
 ! A36   A(22,6,23)            107.4996         estimate D2E/DX2                !
 ! A37   A(1,7,9)              110.7202         estimate D2E/DX2                !
 ! A38   A(1,7,24)             111.2704         estimate D2E/DX2                !
 ! A39   A(1,7,25)             109.5452         estimate D2E/DX2                !
 ! A40   A(9,7,24)             106.8569         estimate D2E/DX2                !
 ! A41   A(9,7,25)             109.7318         estimate D2E/DX2                !
 ! A42   A(24,7,25)            108.6573         estimate D2E/DX2                !
 ! A43   A(9,8,10)             110.9084         estimate D2E/DX2                !
 ! A44   A(9,8,26)             108.9889         estimate D2E/DX2                !
 ! A45   A(9,8,27)             106.34           estimate D2E/DX2                !
 ! A46   A(10,8,26)            110.6211         estimate D2E/DX2                !
 ! A47   A(10,8,27)            111.461          estimate D2E/DX2                !
 ! A48   A(26,8,27)            108.3806         estimate D2E/DX2                !
 ! A49   A(7,9,8)              113.3911         estimate D2E/DX2                !
 ! A50   A(6,10,8)             110.4661         estimate D2E/DX2                !
 ! A51   A(6,10,28)            110.4781         estimate D2E/DX2                !
 ! A52   A(6,10,29)            109.9891         estimate D2E/DX2                !
 ! A53   A(8,10,28)            109.3603         estimate D2E/DX2                !
 ! A54   A(8,10,29)            109.0807         estimate D2E/DX2                !
 ! A55   A(28,10,29)           107.4019         estimate D2E/DX2                !
 ! A56   A(1,11,3)             121.2298         estimate D2E/DX2                !
 ! A57   A(3,12,5)             109.9715         estimate D2E/DX2                !
 ! A58   A(3,12,30)            109.6496         estimate D2E/DX2                !
 ! A59   A(3,12,31)            108.0753         estimate D2E/DX2                !
 ! A60   A(5,12,30)            110.8246         estimate D2E/DX2                !
 ! A61   A(5,12,31)            111.0022         estimate D2E/DX2                !
 ! A62   A(30,12,31)           107.2374         estimate D2E/DX2                !
 ! A63   A(3,13,4)             117.6769         estimate D2E/DX2                !
 ! D1    D(7,1,6,10)            52.4846         estimate D2E/DX2                !
 ! D2    D(7,1,6,22)           174.8891         estimate D2E/DX2                !
 ! D3    D(7,1,6,23)           -67.7234         estimate D2E/DX2                !
 ! D4    D(11,1,6,10)          172.1249         estimate D2E/DX2                !
 ! D5    D(11,1,6,22)          -65.4706         estimate D2E/DX2                !
 ! D6    D(11,1,6,23)           51.9169         estimate D2E/DX2                !
 ! D7    D(14,1,6,10)          -67.2514         estimate D2E/DX2                !
 ! D8    D(14,1,6,22)           55.1531         estimate D2E/DX2                !
 ! D9    D(14,1,6,23)          172.5406         estimate D2E/DX2                !
 ! D10   D(6,1,7,9)            -56.3695         estimate D2E/DX2                !
 ! D11   D(6,1,7,24)          -175.0521         estimate D2E/DX2                !
 ! D12   D(6,1,7,25)            64.7835         estimate D2E/DX2                !
 ! D13   D(11,1,7,9)          -175.6224         estimate D2E/DX2                !
 ! D14   D(11,1,7,24)           65.695          estimate D2E/DX2                !
 ! D15   D(11,1,7,25)          -54.4694         estimate D2E/DX2                !
 ! D16   D(14,1,7,9)            63.4425         estimate D2E/DX2                !
 ! D17   D(14,1,7,24)          -55.2402         estimate D2E/DX2                !
 ! D18   D(14,1,7,25)         -175.4045         estimate D2E/DX2                !
 ! D19   D(6,1,11,3)           140.5978         estimate D2E/DX2                !
 ! D20   D(7,1,11,3)           -99.3602         estimate D2E/DX2                !
 ! D21   D(14,1,11,3)           20.7419         estimate D2E/DX2                !
 ! D22   D(5,2,4,13)            44.8879         estimate D2E/DX2                !
 ! D23   D(5,2,4,18)           162.2307         estimate D2E/DX2                !
 ! D24   D(5,2,4,19)           -77.5441         estimate D2E/DX2                !
 ! D25   D(15,2,4,13)          -76.8001         estimate D2E/DX2                !
 ! D26   D(15,2,4,18)           40.5427         estimate D2E/DX2                !
 ! D27   D(15,2,4,19)          160.7679         estimate D2E/DX2                !
 ! D28   D(16,2,4,13)          166.9674         estimate D2E/DX2                !
 ! D29   D(16,2,4,18)          -75.6898         estimate D2E/DX2                !
 ! D30   D(16,2,4,19)           44.5354         estimate D2E/DX2                !
 ! D31   D(4,2,5,12)            10.3084         estimate D2E/DX2                !
 ! D32   D(4,2,5,20)          -109.8279         estimate D2E/DX2                !
 ! D33   D(4,2,5,21)           132.6453         estimate D2E/DX2                !
 ! D34   D(15,2,5,12)          131.5473         estimate D2E/DX2                !
 ! D35   D(15,2,5,20)           11.4109         estimate D2E/DX2                !
 ! D36   D(15,2,5,21)         -106.1159         estimate D2E/DX2                !
 ! D37   D(16,2,5,12)         -109.9812         estimate D2E/DX2                !
 ! D38   D(16,2,5,20)          129.8824         estimate D2E/DX2                !
 ! D39   D(16,2,5,21)           12.3556         estimate D2E/DX2                !
 ! D40   D(12,3,11,1)          -95.7691         estimate D2E/DX2                !
 ! D41   D(13,3,11,1)           30.3239         Frozen                          !
 ! D42   D(17,3,11,1)          145.6377         estimate D2E/DX2                !
 ! D43   D(11,3,12,5)          173.4451         estimate D2E/DX2                !
 ! D44   D(11,3,12,30)          51.3447         estimate D2E/DX2                !
 ! D45   D(11,3,12,31)         -65.2402         estimate D2E/DX2                !
 ! D46   D(13,3,12,5)           47.3396         estimate D2E/DX2                !
 ! D47   D(13,3,12,30)         -74.7607         estimate D2E/DX2                !
 ! D48   D(13,3,12,31)         168.6543         estimate D2E/DX2                !
 ! D49   D(17,3,12,5)          -71.3116         estimate D2E/DX2                !
 ! D50   D(17,3,12,30)         166.5881         estimate D2E/DX2                !
 ! D51   D(17,3,12,31)          50.0031         estimate D2E/DX2                !
 ! D52   D(11,3,13,4)         -115.3153         estimate D2E/DX2                !
 ! D53   D(12,3,13,4)           10.1649         estimate D2E/DX2                !
 ! D54   D(17,3,13,4)          130.7208         estimate D2E/DX2                !
 ! D55   D(2,4,13,3)           -58.7084         estimate D2E/DX2                !
 ! D56   D(18,4,13,3)         -179.6329         estimate D2E/DX2                !
 ! D57   D(19,4,13,3)           64.4445         estimate D2E/DX2                !
 ! D58   D(2,5,12,3)           -56.3007         estimate D2E/DX2                !
 ! D59   D(2,5,12,30)           65.0996         estimate D2E/DX2                !
 ! D60   D(2,5,12,31)         -175.847          estimate D2E/DX2                !
 ! D61   D(20,5,12,3)           64.4578         estimate D2E/DX2                !
 ! D62   D(20,5,12,30)        -174.1418         estimate D2E/DX2                !
 ! D63   D(20,5,12,31)         -55.0884         estimate D2E/DX2                !
 ! D64   D(21,5,12,3)         -179.2345         estimate D2E/DX2                !
 ! D65   D(21,5,12,30)         -57.8342         estimate D2E/DX2                !
 ! D66   D(21,5,12,31)          61.2192         estimate D2E/DX2                !
 ! D67   D(1,6,10,8)           -51.9508         estimate D2E/DX2                !
 ! D68   D(1,6,10,28)         -173.0878         estimate D2E/DX2                !
 ! D69   D(1,6,10,29)           68.5166         estimate D2E/DX2                !
 ! D70   D(22,6,10,8)         -173.7539         estimate D2E/DX2                !
 ! D71   D(22,6,10,28)          65.1091         estimate D2E/DX2                !
 ! D72   D(22,6,10,29)         -53.2865         estimate D2E/DX2                !
 ! D73   D(23,6,10,8)           67.6652         estimate D2E/DX2                !
 ! D74   D(23,6,10,28)         -53.4718         estimate D2E/DX2                !
 ! D75   D(23,6,10,29)        -171.8674         estimate D2E/DX2                !
 ! D76   D(1,7,9,8)             61.0998         estimate D2E/DX2                !
 ! D77   D(24,7,9,8)          -177.5754         estimate D2E/DX2                !
 ! D78   D(25,7,9,8)           -59.9427         estimate D2E/DX2                !
 ! D79   D(10,8,9,7)           -60.3291         estimate D2E/DX2                !
 ! D80   D(26,8,9,7)            61.6879         estimate D2E/DX2                !
 ! D81   D(27,8,9,7)           178.3288         estimate D2E/DX2                !
 ! D82   D(9,8,10,6)            54.814          estimate D2E/DX2                !
 ! D83   D(9,8,10,28)          176.6129         estimate D2E/DX2                !
 ! D84   D(9,8,10,29)          -66.1954         estimate D2E/DX2                !
 ! D85   D(26,8,10,6)          -66.2452         estimate D2E/DX2                !
 ! D86   D(26,8,10,28)          55.5537         estimate D2E/DX2                !
 ! D87   D(26,8,10,29)         172.7454         estimate D2E/DX2                !
 ! D88   D(27,8,10,6)          173.0947         estimate D2E/DX2                !
 ! D89   D(27,8,10,28)         -65.1064         estimate D2E/DX2                !
 ! D90   D(27,8,10,29)          52.0853         estimate D2E/DX2                !
 --------------------------------------------------------------------------------
 Trust Radius=3.00D-01 FncErr=1.00D-07 GrdErr=1.00D-06 EigMax=2.50D+02 EigMin=1.00D-04
 Number of steps in this run=    186 maximum allowed number of steps=    186.
 GradGradGradGradGradGradGradGradGradGradGradGradGradGradGradGradGradGrad

                          Input orientation:                          
 ---------------------------------------------------------------------
 Center     Atomic      Atomic             Coordinates (Angstroms)
 Number     Number       Type             X           Y           Z
 ---------------------------------------------------------------------
      1          6           0        0.967918   -0.227757   -0.130794
      2          6           0       -3.528244    0.730318    0.760214
      3          6           0       -1.365366   -0.331568   -0.911680
      4          6           0       -2.100031    1.259509    0.749795
      5          6           0       -3.593135   -0.691723    0.160025
      6          6           0        1.898874   -1.353518    0.302150
      7          6           0        1.756540    0.841108   -0.880187
      8          6           0        3.758424    0.326046    0.266068
      9          8           0        2.819518    1.325633   -0.087146
     10          6           0        3.095077   -0.782497    1.067270
     11          8           0       -0.024639   -0.763636   -0.986290
     12          6           0       -2.189595   -1.265510   -0.038769
     13          8           0       -1.466325    1.002051   -0.496523
     14          1           0        0.513819    0.215612    0.744421
     15          1           0       -4.165987    1.403474    0.196626
     16          1           0       -3.883990    0.739157    1.786017
     17          1           0       -1.720305   -0.368638   -1.931621
     18          1           0       -2.075670    2.333224    0.869099
     19          1           0       -1.518732    0.822952    1.552730
     20          1           0       -4.096464   -0.661413   -0.802090
     21          1           0       -4.174550   -1.352336    0.793556
     22          1           0        1.354877   -2.068038    0.912008
     23          1           0        2.247498   -1.878672   -0.584378
     24          1           0        1.134014    1.689938   -1.122001
     25          1           0        2.149032    0.422728   -1.804654
     26          1           0        4.208435   -0.072980   -0.640301
     27          1           0        4.529432    0.821941    0.839819
     28          1           0        3.822076   -1.562617    1.272873
     29          1           0        2.767864   -0.382676    2.023865
     30          1           0       -1.691766   -1.407367    0.915786
     31          1           0       -2.230788   -2.233119   -0.526642
 ---------------------------------------------------------------------
                    Distance matrix (angstroms):
                    1          2          3          4          5
     1  C    0.000000
     2  C    4.682657   0.000000
     3  C    2.462676   2.932724   0.000000
     4  C    3.521322   1.523136   2.414903   0.000000
     5  C    4.593805   1.544875   2.498243   2.526756   0.000000
     6  C    1.523633   5.831450   3.629467   4.797868   5.533564
     7  C    1.525119   5.534630   3.335035   4.207736   5.661328
     8  C    2.872476   7.314585   5.298374   5.952045   7.422433
     9  O    2.417302   6.431680   4.575962   4.990672   6.727030
    10  C    2.503577   6.800829   4.900524   5.591040   6.750075
    11  O    1.415701   4.190158   1.410602   3.378514   3.748783
    12  C    3.324949   2.532525   1.521044   2.646805   1.529273
    13  O    2.751677   2.429966   1.400388   1.421681   2.797007
    14  H    1.081103   4.074733   2.563867   2.814598   4.246392
    15  H    5.396767   1.085121   3.475945   2.143571   2.172406
    16  H    5.305667   1.085774   3.842849   2.127682   2.185375
    17  H    3.238729   3.423788   1.080572   3.159912   2.826103
    18  H    4.101443   2.165903   3.282807   1.080597   3.457715
    19  H    3.181457   2.162129   2.725758   1.083141   2.921817
    20  H    5.127052   2.168083   2.753126   3.175537   1.086243
    21  H    5.344537   2.180888   3.441121   3.335758   1.084350
    22  H    2.150304   5.630161   3.706870   4.799507   5.190621
    23  H    2.137425   6.478731   3.943785   5.525324   6.006328
    24  H    2.165094   5.118618   3.221432   3.761374   5.446268
    25  H    2.149411   6.237357   3.703695   5.027917   6.170449
    26  H    3.283977   7.903349   5.586392   6.595805   7.866884
    27  H    3.837752   8.058590   6.256754   6.644498   8.290319
    28  H    3.449399   7.716707   5.761711   6.580985   7.548658
    29  H    2.811825   6.517403   5.069874   5.293055   6.635640
    30  H    3.092043   2.822508   2.145580   2.703047   2.167608
    31  H    3.796036   3.481573   2.124407   3.720865   2.168733
                    6          7          8          9         10
     6  C    0.000000
     7  C    2.496911   0.000000
     8  C    2.506025   2.363626   0.000000
     9  O    2.859543   1.411949   1.416149   0.000000
    10  C    1.530482   2.867118   1.520139   2.419260   0.000000
    11  O    2.389130   2.399804   4.131268   3.641804   3.734982
    12  C    4.103602   4.551682   6.164812   5.639821   5.420736
    13  O    4.184632   3.249609   5.323207   4.317493   5.141639
    14  H    2.139194   2.138914   3.281536   2.690706   2.786278
    15  H    6.662933   6.045834   7.997622   6.991700   7.632794
    16  H    6.326347   6.239761   7.803038   6.984963   7.179095
    17  H    4.365567   3.828505   5.943811   5.184847   5.687928
    18  H    5.450734   4.469032   6.199118   5.088468   6.040167
    19  H    4.240401   4.080052   5.454428   4.665007   4.909213
    20  H    6.135343   6.043288   7.988448   7.231203   7.431516
    21  H    6.093272   6.541440   8.125718   7.540832   7.297062
    22  H    1.085541   3.440411   3.453392   3.828901   2.169105
    23  H    1.087776   2.779523   2.804806   3.292722   2.155906
    24  H    3.446134   1.080058   3.267180   2.011111   3.840783
    25  H    2.766993   1.087994   2.624382   2.052955   3.255075
    26  H    2.803937   2.627716   1.087767   2.047239   2.158421
    27  H    3.455654   3.263084   1.081460   2.009173   2.164100
    28  H    2.164424   3.831449   2.141204   3.346156   1.085996
    29  H    2.159162   3.309674   2.138538   2.716129   1.087198
    30  H    3.643095   4.491322   5.755990   5.369064   4.829832
    31  H    4.302871   5.047242   6.561126   6.193825   5.745407
                   11         12         13         14         15
    11  O    0.000000
    12  C    2.415928   0.000000
    13  O    2.331519   2.423735   0.000000
    14  H    2.060152   3.180496   2.465644   0.000000
    15  H    4.821454   3.329416   2.815985   4.859185   0.000000
    16  H    4.983840   3.196797   3.335297   4.549697   1.745567
    17  H    1.981150   2.146509   2.000700   3.534665   3.694750
    18  H    4.152076   3.713232   2.002061   3.347429   2.384550
    19  H    3.346072   2.710092   2.057732   2.270130   3.030509
    20  H    4.077271   2.140967   3.126998   4.941212   2.294782
    21  H    4.553700   2.154147   3.813388   4.943853   2.819732
    22  H    2.684784   3.756502   4.400976   2.439369   6.560725
    23  H    2.562703   4.512366   4.700932   3.026116   7.246740
    24  H    2.716785   4.577602   2.761553   2.458009   5.469081
    25  H    2.608069   4.979175   3.888139   3.035556   6.696749
    26  H    4.302979   6.535959   5.777479   3.956125   8.544665
    27  H    5.156384   7.090465   6.145515   4.062251   8.738546
    28  H    4.532042   6.160265   6.138035   3.792878   8.588664
    29  H    4.123619   5.441531   5.118416   2.660008   7.389684
    30  H    2.609903   1.085879   2.801916   2.743726   3.813107
    31  H    2.690307   1.084428   3.324400   3.891626   4.182454
                   16         17         18         19         20
    16  H    0.000000
    17  H    4.441799   0.000000
    18  H    2.579110   3.907733   0.000000
    19  H    2.378211   3.687983   1.748843   0.000000
    20  H    2.950430   2.647204   3.980494   3.793840   0.000000
    21  H    2.333184   3.797048   4.241976   3.515906   1.740563
    22  H    6.007492   4.520059   5.580466   4.126255   5.885053
    23  H    7.075800   4.454069   6.208256   5.103968   6.463356
    24  H    5.877152   3.611143   3.831497   3.865606   5.743613
    25  H    7.027830   3.951474   5.352295   4.988457   6.417688
    26  H    8.487280   6.074939   6.896237   6.197784   8.327291
    27  H    8.466866   6.939566   6.775855   6.090035   8.905183
    28  H    8.058842   6.512477   7.079832   5.856064   8.235346
    29  H    6.749981   5.982452   5.671809   4.477769   7.428507
    30  H    3.189156   3.031089   3.760530   2.325932   3.047969
    31  H    4.112894   2.389738   4.777410   3.764357   2.454970
                   21         22         23         24         25
    21  H    0.000000
    22  H    5.576811   0.000000
    23  H    6.589266   1.752656   0.000000
    24  H    6.411368   4.278827   3.776753   0.000000
    25  H    7.063231   3.770259   2.606763   1.761277   0.000000
    26  H    8.600415   3.812180   2.666257   3.576588   2.417144
    27  H    8.971562   4.293599   3.811676   4.016344   3.580351
    28  H    8.013738   2.544159   2.455314   4.851826   4.026393
    29  H    7.116953   2.464387   3.051511   4.106296   3.960958
    30  H    2.486400   3.117456   4.241512   4.661642   5.049928
    31  H    2.509365   3.867035   4.492662   5.202569   5.279172
                   26         27         28         29         30
    26  H    0.000000
    27  H    1.759170   0.000000
    28  H    2.455306   2.524679   0.000000
    29  H    3.044493   2.440530   1.751460   0.000000
    30  H    6.246148   6.609001   5.527573   4.708092   0.000000
    31  H    6.792843   7.543287   6.350196   5.908955   1.747286
                   31
    31  H    0.000000
 Stoichiometry    C10H18O3
 Framework group  C1[X(C10H18O3)]
 Deg. of freedom    87
 Full point group                 C1      NOp   1
 Largest Abelian subgroup         C1      NOp   1
 Largest concise Abelian subgroup C1      NOp   1
                         Standard orientation:                         
 ---------------------------------------------------------------------
 Center     Atomic      Atomic             Coordinates (Angstroms)
 Number     Number       Type             X           Y           Z
 ---------------------------------------------------------------------
      1          6           0       -0.967918    0.227757   -0.130794
      2          6           0        3.528244   -0.730318    0.760214
      3          6           0        1.365366    0.331568   -0.911680
      4          6           0        2.100031   -1.259509    0.749795
      5          6           0        3.593135    0.691723    0.160025
      6          6           0       -1.898874    1.353518    0.302150
      7          6           0       -1.756540   -0.841108   -0.880187
      8          6           0       -3.758424   -0.326046    0.266068
      9          8           0       -2.819518   -1.325633   -0.087146
     10          6           0       -3.095077    0.782497    1.067270
     11          8           0        0.024639    0.763636   -0.986290
     12          6           0        2.189595    1.265510   -0.038769
     13          8           0        1.466325   -1.002051   -0.496523
     14          1           0       -0.513819   -0.215612    0.744421
     15          1           0        4.165987   -1.403474    0.196626
     16          1           0        3.883990   -0.739157    1.786017
     17          1           0        1.720305    0.368638   -1.931621
     18          1           0        2.075670   -2.333224    0.869099
     19          1           0        1.518732   -0.822952    1.552730
     20          1           0        4.096464    0.661413   -0.802090
     21          1           0        4.174550    1.352336    0.793556
     22          1           0       -1.354877    2.068038    0.912008
     23          1           0       -2.247498    1.878672   -0.584378
     24          1           0       -1.134014   -1.689938   -1.122001
     25          1           0       -2.149032   -0.422728   -1.804654
     26          1           0       -4.208435    0.072980   -0.640301
     27          1           0       -4.529432   -0.821941    0.839819
     28          1           0       -3.822076    1.562617    1.272873
     29          1           0       -2.767864    0.382676    2.023865
     30          1           0        1.691766    1.407367    0.915786
     31          1           0        2.230788    2.233119   -0.526642
 ---------------------------------------------------------------------
 Rotational constants (GHZ):           1.8604674           0.4115691           0.3855561
 Standard basis: 6-311++G(2d,2p) (5D, 7F)
 There are   557 symmetry adapted cartesian basis functions of A   symmetry.
 There are   531 symmetry adapted basis functions of A   symmetry.
   531 basis functions,   762 primitive gaussians,   557 cartesian basis functions
    51 alpha electrons       51 beta electrons
       nuclear repulsion energy       892.3740050032 Hartrees.
 NAtoms=   31 NActive=   31 NUniq=   31 SFac= 1.00D+00 NAtFMM=   60 NAOKFM=F Big=F
 Integral buffers will be    131072 words long.
 Raffenetti 2 integral format.
 Two-electron integral symmetry is turned on.
 ------------------------------------------------------------------------------
 Polarizable Continuum Model (PCM)
 =================================
 Model                : PCM.
 Atomic radii         : UFF (Universal Force Field).
 Polarization charges : Total charges.
 Charge compensation  : None.
 Solution method      : On-the-fly selection.
 Cavity type          : Scaled VdW (van der Waals Surface) (Alpha=1.100).
 Cavity algorithm     : GePol (No added spheres)
                        Default sphere list used, NSphG=   31.
                        Lebedev-Laikov grids with approx.  5.0 points / Ang**2.
                        Smoothing algorithm: York/Karplus (Gamma=1.0000).
                        Polarization charges: spherical gaussians, with
                                              point-specific exponents (IZeta= 3).
                        Self-potential: point-specific (ISelfS= 7).
                        Self-field    : sphere-specific E.n sum rule (ISelfD= 2).
 1st derivatives      : Analytical E(r).r(x)/FMM algorithm (CHGder, D1EAlg=3).
                        Cavity 1st derivative terms included.
 Solvent              : Water, Eps=  78.355300 Eps(inf)=   1.777849
 ------------------------------------------------------------------------------
 One-electron integrals computed using PRISM.
 NBasis=   531 RedAO= T EigKep=  5.37D-06  NBF=   531
 NBsUse=   531 1.00D-06 EigRej= -1.00D+00 NBFU=   531
 ExpMin= 3.60D-02 ExpMax= 8.59D+03 ExpMxC= 1.30D+03 IAcc=3 IRadAn=         5 AccDes= 0.00D+00
 Harris functional with IExCor= 1009 and IRadAn=       5 diagonalized for initial guess.
 HarFok:  IExCor= 1009 AccDes= 0.00D+00 IRadAn=         5 IDoV= 1 UseB2=F ITyADJ=14
 ICtDFT=  3500011 ScaDFX=  1.000000  1.000000  1.000000  1.000000
 FoFCou: FMM=F IPFlag=           0 FMFlag=      100000 FMFlg1=           0
         NFxFlg=           0 DoJE=T BraDBF=F KetDBF=T FulRan=T
         wScrn=  0.000000 ICntrl=       500 IOpCl=  0 I1Cent=   200000004 NGrid=           0
         NMat0=    1 NMatS0=      1 NMatT0=    0 NMatD0=    1 NMtDS0=    0 NMtDT0=    0
 Petite list used in FoFCou.
 Requested convergence on RMS density matrix=1.00D-08 within 128 cycles.
 Requested convergence on MAX density matrix=1.00D-06.
 Requested convergence on             energy=1.00D-06.
 No special actions if energy rises.
 Inv3:  Mode=1 IEnd=    12954252.
 Iteration    1 A*A^-1 deviation from unit magnitude is 4.33D-15 for   2046.
 Iteration    1 A*A^-1 deviation from orthogonality  is 2.17D-15 for   2046    933.
 Iteration    1 A^-1*A deviation from unit magnitude is 4.22D-15 for   2072.
 Iteration    1 A^-1*A deviation from orthogonality  is 1.50D-15 for   1576    845.
 Error on total polarization charges =  0.01499
 SCF Done:  E(RM062X) =  -617.489066100     A.U. after   12 cycles
            NFock= 12  Conv=0.55D-08     -V/T= 2.0035

 **********************************************************************

            Population analysis using the SCF density.

 **********************************************************************

 Orbital symmetries:
       Occupied  (A) (A) (A) (A) (A) (A) (A) (A) (A) (A) (A) (A)
                 (A) (A) (A) (A) (A) (A) (A) (A) (A) (A) (A) (A)
                 (A) (A) (A) (A) (A) (A) (A) (A) (A) (A) (A) (A)
                 (A) (A) (A) (A) (A) (A) (A) (A) (A) (A) (A) (A)
                 (A) (A) (A)
       Virtual   (A) (A) (A) (A) (A) (A) (A) (A) (A) (A) (A) (A)
                 (A) (A) (A) (A) (A) (A) (A) (A) (A) (A) (A) (A)
                 (A) (A) (A) (A) (A) (A) (A) (A) (A) (A) (A) (A)
                 (A) (A) (A) (A) (A) (A) (A) (A) (A) (A) (A) (A)
                 (A) (A) (A) (A) (A) (A) (A) (A) (A) (A) (A) (A)
                 (A) (A) (A) (A) (A) (A) (A) (A) (A) (A) (A) (A)
                 (A) (A) (A) (A) (A) (A) (A) (A) (A) (A) (A) (A)
                 (A) (A) (A) (A) (A) (A) (A) (A) (A) (A) (A) (A)
                 (A) (A) (A) (A) (A) (A) (A) (A) (A) (A) (A) (A)
                 (A) (A) (A) (A) (A) (A) (A) (A) (A) (A) (A) (A)
                 (A) (A) (A) (A) (A) (A) (A) (A) (A) (A) (A) (A)
                 (A) (A) (A) (A) (A) (A) (A) (A) (A) (A) (A) (A)
                 (A) (A) (A) (A) (A) (A) (A) (A) (A) (A) (A) (A)
                 (A) (A) (A) (A) (A) (A) (A) (A) (A) (A) (A) (A)
                 (A) (A) (A) (A) (A) (A) (A) (A) (A) (A) (A) (A)
                 (A) (A) (A) (A) (A) (A) (A) (A) (A) (A) (A) (A)
                 (A) (A) (A) (A) (A) (A) (A) (A) (A) (A) (A) (A)
                 (A) (A) (A) (A) (A) (A) (A) (A) (A) (A) (A) (A)
                 (A) (A) (A) (A) (A) (A) (A) (A) (A) (A) (A) (A)
                 (A) (A) (A) (A) (A) (A) (A) (A) (A) (A) (A) (A)
                 (A) (A) (A) (A) (A) (A) (A) (A) (A) (A) (A) (A)
                 (A) (A) (A) (A) (A) (A) (A) (A) (A) (A) (A) (A)
                 (A) (A) (A) (A) (A) (A) (A) (A) (A) (A) (A) (A)
                 (A) (A) (A) (A) (A) (A) (A) (A) (A) (A) (A) (A)
                 (A) (A) (A) (A) (A) (A) (A) (A) (A) (A) (A) (A)
                 (A) (A) (A) (A) (A) (A) (A) (A) (A) (A) (A) (A)
                 (A) (A) (A) (A) (A) (A) (A) (A) (A) (A) (A) (A)
                 (A) (A) (A) (A) (A) (A) (A) (A) (A) (A) (A) (A)
                 (A) (A) (A) (A) (A) (A) (A) (A) (A) (A) (A) (A)
                 (A) (A) (A) (A) (A) (A) (A) (A) (A) (A) (A) (A)
                 (A) (A) (A) (A) (A) (A) (A) (A) (A) (A) (A) (A)
                 (A) (A) (A) (A) (A) (A) (A) (A) (A) (A) (A) (A)
                 (A) (A) (A) (A) (A) (A) (A) (A) (A) (A) (A) (A)
                 (A) (A) (A) (A) (A) (A) (A) (A) (A) (A) (A) (A)
                 (A) (A) (A) (A) (A) (A) (A) (A) (A) (A) (A) (A)
                 (A) (A) (A) (A) (A) (A) (A) (A) (A) (A) (A) (A)
                 (A) (A) (A) (A) (A) (A) (A) (A) (A) (A) (A) (A)
                 (A) (A) (A) (A) (A) (A) (A) (A) (A) (A) (A) (A)
                 (A) (A) (A) (A) (A) (A) (A) (A) (A) (A) (A) (A)
                 (A) (A) (A) (A) (A) (A) (A) (A) (A) (A) (A) (A)
 The electronic state is 1-A.
 Alpha  occ. eigenvalues --  -19.63222 -19.62728 -19.62484 -10.63646 -10.58546
 Alpha  occ. eigenvalues --  -10.58149 -10.57765 -10.57435 -10.53257 -10.53082
 Alpha  occ. eigenvalues --  -10.53050 -10.52988 -10.52970  -1.19950  -1.16563
 Alpha  occ. eigenvalues --   -1.13621  -0.90859  -0.89969  -0.87431  -0.84418
 Alpha  occ. eigenvalues --   -0.75127  -0.74852  -0.73775  -0.70055  -0.65872
 Alpha  occ. eigenvalues --   -0.63030  -0.60299  -0.59196  -0.57619  -0.57161
 Alpha  occ. eigenvalues --   -0.55010  -0.53156  -0.52010  -0.50824  -0.49912
 Alpha  occ. eigenvalues --   -0.47739  -0.46900  -0.45688  -0.45578  -0.44617
 Alpha  occ. eigenvalues --   -0.44127  -0.43062  -0.41179  -0.40482  -0.39466
 Alpha  occ. eigenvalues --   -0.38787  -0.37437  -0.36701  -0.34683  -0.33635
 Alpha  occ. eigenvalues --   -0.30871
 Alpha virt. eigenvalues --   -0.00184   0.00704   0.00888   0.01123   0.02202
 Alpha virt. eigenvalues --    0.02446   0.02603   0.03356   0.03662   0.04404
 Alpha virt. eigenvalues --    0.04539   0.04727   0.05647   0.05663   0.06907
 Alpha virt. eigenvalues --    0.07411   0.07978   0.08115   0.08504   0.09127
 Alpha virt. eigenvalues --    0.09674   0.10397   0.11120   0.11800   0.12023
 Alpha virt. eigenvalues --    0.12274   0.12495   0.12842   0.13127   0.13393
 Alpha virt. eigenvalues --    0.13766   0.14009   0.14344   0.14631   0.14852
 Alpha virt. eigenvalues --    0.15361   0.15655   0.15896   0.15987   0.16132
 Alpha virt. eigenvalues --    0.16586   0.16992   0.17124   0.17214   0.17862
 Alpha virt. eigenvalues --    0.18013   0.18560   0.18638   0.19117   0.19846
 Alpha virt. eigenvalues --    0.19999   0.20257   0.20677   0.20980   0.21663
 Alpha virt. eigenvalues --    0.21936   0.22384   0.22978   0.23816   0.24153
 Alpha virt. eigenvalues --    0.24470   0.25331   0.26132   0.26269   0.27062
 Alpha virt. eigenvalues --    0.27157   0.28111   0.28212   0.28677   0.29051
 Alpha virt. eigenvalues --    0.29305   0.29738   0.30948   0.31033   0.31298
 Alpha virt. eigenvalues --    0.31570   0.33237   0.33331   0.33849   0.34120
 Alpha virt. eigenvalues --    0.35105   0.35158   0.35590   0.36093   0.36315
 Alpha virt. eigenvalues --    0.36731   0.36939   0.37365   0.37936   0.38511
 Alpha virt. eigenvalues --    0.38891   0.39222   0.40447   0.41071   0.41388
 Alpha virt. eigenvalues --    0.42093   0.42616   0.43650   0.44283   0.45034
 Alpha virt. eigenvalues --    0.46616   0.48141   0.48669   0.50066   0.51012
 Alpha virt. eigenvalues --    0.51684   0.52063   0.53325   0.54253   0.55668
 Alpha virt. eigenvalues --    0.57061   0.57382   0.57668   0.58234   0.58897
 Alpha virt. eigenvalues --    0.59330   0.60235   0.60581   0.61314   0.61892
 Alpha virt. eigenvalues --    0.62131   0.62516   0.62990   0.63402   0.64196
 Alpha virt. eigenvalues --    0.64942   0.65840   0.66109   0.66376   0.67037
 Alpha virt. eigenvalues --    0.67832   0.68257   0.69386   0.69730   0.70110
 Alpha virt. eigenvalues --    0.70793   0.71239   0.72311   0.72870   0.73038
 Alpha virt. eigenvalues --    0.73861   0.74035   0.74816   0.75127   0.76573
 Alpha virt. eigenvalues --    0.76875   0.76997   0.77425   0.78217   0.79346
 Alpha virt. eigenvalues --    0.80366   0.81629   0.83761   0.84471   0.84717
 Alpha virt. eigenvalues --    0.85623   0.87689   0.88004   0.88218   0.89652
 Alpha virt. eigenvalues --    0.90501   0.91918   0.92854   0.94171   0.94897
 Alpha virt. eigenvalues --    0.96509   0.97936   0.99989   1.00837   1.02545
 Alpha virt. eigenvalues --    1.03136   1.04424   1.05130   1.06449   1.07008
 Alpha virt. eigenvalues --    1.07806   1.08022   1.10498   1.10938   1.11641
 Alpha virt. eigenvalues --    1.12694   1.13400   1.14555   1.15864   1.16634
 Alpha virt. eigenvalues --    1.17645   1.18014   1.18483   1.19260   1.20040
 Alpha virt. eigenvalues --    1.20748   1.21328   1.22220   1.23465   1.23649
 Alpha virt. eigenvalues --    1.24362   1.25962   1.26719   1.27535   1.27657
 Alpha virt. eigenvalues --    1.28758   1.29458   1.30514   1.31261   1.31472
 Alpha virt. eigenvalues --    1.31762   1.32495   1.33041   1.33902   1.34382
 Alpha virt. eigenvalues --    1.34664   1.35948   1.36742   1.37096   1.37752
 Alpha virt. eigenvalues --    1.38571   1.39432   1.40617   1.40921   1.41781
 Alpha virt. eigenvalues --    1.42583   1.43005   1.44073   1.44811   1.45332
 Alpha virt. eigenvalues --    1.45955   1.46796   1.47151   1.48033   1.49525
 Alpha virt. eigenvalues --    1.49619   1.50286   1.50443   1.51324   1.52725
 Alpha virt. eigenvalues --    1.52980   1.53414   1.54178   1.54723   1.55379
 Alpha virt. eigenvalues --    1.55730   1.56600   1.57023   1.57314   1.58327
 Alpha virt. eigenvalues --    1.60427   1.60637   1.61116   1.61766   1.62424
 Alpha virt. eigenvalues --    1.63658   1.64174   1.64886   1.65867   1.66300
 Alpha virt. eigenvalues --    1.66977   1.68657   1.69455   1.70048   1.71286
 Alpha virt. eigenvalues --    1.72016   1.74123   1.74985   1.76586   1.77508
 Alpha virt. eigenvalues --    1.78293   1.79319   1.81335   1.82439   1.84936
 Alpha virt. eigenvalues --    1.87428   1.88980   1.89977   1.90890   1.96488
 Alpha virt. eigenvalues --    2.02500   2.04460   2.10874   2.13012   2.21472
 Alpha virt. eigenvalues --    2.24684   2.25862   2.27182   2.33571   2.40255
 Alpha virt. eigenvalues --    2.40689   2.45016   2.47657   2.50400   2.52990
 Alpha virt. eigenvalues --    2.55471   2.74310   2.76180   2.80687   2.83873
 Alpha virt. eigenvalues --    2.88108   2.89009   2.91149   2.92972   2.93974
 Alpha virt. eigenvalues --    2.96789   2.97879   3.01029   3.01475   3.03214
 Alpha virt. eigenvalues --    3.05718   3.07137   3.08678   3.09694   3.12397
 Alpha virt. eigenvalues --    3.14770   3.16321   3.17724   3.19691   3.20790
 Alpha virt. eigenvalues --    3.22464   3.27676   3.30114   3.30764   3.32396
 Alpha virt. eigenvalues --    3.35762   3.36988   3.38195   3.39679   3.40733
 Alpha virt. eigenvalues --    3.41250   3.43073   3.43411   3.44722   3.45495
 Alpha virt. eigenvalues --    3.46900   3.48201   3.49245   3.50249   3.50811
 Alpha virt. eigenvalues --    3.51770   3.53423   3.53728   3.54771   3.55286
 Alpha virt. eigenvalues --    3.56500   3.57579   3.58656   3.59372   3.59937
 Alpha virt. eigenvalues --    3.60595   3.61369   3.62421   3.63155   3.65679
 Alpha virt. eigenvalues --    3.66071   3.67126   3.67984   3.69327   3.70472
 Alpha virt. eigenvalues --    3.70750   3.70966   3.71977   3.73725   3.74827
 Alpha virt. eigenvalues --    3.75220   3.75884   3.76670   3.77461   3.78220
 Alpha virt. eigenvalues --    3.78872   3.79947   3.82663   3.83801   3.85277
 Alpha virt. eigenvalues --    3.85558   3.87414   3.88560   3.89212   3.90466
 Alpha virt. eigenvalues --    3.92928   3.93382   3.95181   3.96697   3.98939
 Alpha virt. eigenvalues --    3.99328   4.01031   4.02880   4.03770   4.04473
 Alpha virt. eigenvalues --    4.04610   4.05340   4.07013   4.07285   4.08026
 Alpha virt. eigenvalues --    4.08360   4.09421   4.09764   4.10865   4.11451
 Alpha virt. eigenvalues --    4.11633   4.14831   4.15856   4.16279   4.17054
 Alpha virt. eigenvalues --    4.17911   4.19401   4.19553   4.20329   4.21506
 Alpha virt. eigenvalues --    4.22972   4.23361   4.24311   4.25270   4.25527
 Alpha virt. eigenvalues --    4.26647   4.29039   4.29828   4.30745   4.31914
 Alpha virt. eigenvalues --    4.32266   4.34553   4.34682   4.39475   4.40620
 Alpha virt. eigenvalues --    4.41508   4.43254   4.44684   4.48611   4.51468
 Alpha virt. eigenvalues --    4.57688   4.59081   4.75237   4.77413   4.81768
 Alpha virt. eigenvalues --    4.82955   4.93114   4.93889   4.99898   5.01668
 Alpha virt. eigenvalues --    5.03160   5.06754   5.08763   5.11914   5.12295
 Alpha virt. eigenvalues --    5.14518   5.15058   5.20118   5.30817   5.39057
 Alpha virt. eigenvalues --    5.42654   5.56560   5.59131   5.62613   5.85377
 Alpha virt. eigenvalues --    5.87629   6.02151   7.02189   7.04589   7.05985
 Alpha virt. eigenvalues --    7.08825   7.10800   7.13400   7.13879   7.20012
 Alpha virt. eigenvalues --    7.29958   7.36640   7.37323   7.46688   7.53634
 Alpha virt. eigenvalues --    7.54529   7.58882  23.94973  23.99761  24.03622
 Alpha virt. eigenvalues --   24.07591  24.09463  24.10689  24.13371  24.16063
 Alpha virt. eigenvalues --   24.16861  24.22502  50.17467  50.18584  50.24699
          Condensed to atoms (all electrons):
               1          2          3          4          5          6
     1  C    7.972334   0.081570  -0.796159  -0.018389   0.007109  -1.294224
     2  C    0.081570   5.950740  -0.066298  -0.142245  -0.310641  -0.018249
     3  C   -0.796159  -0.066298   7.405075  -0.239637  -0.072212   0.151597
     4  C   -0.018389  -0.142245  -0.239637   5.538727   0.335576  -0.046198
     5  C    0.007109  -0.310641  -0.072212   0.335576   5.967188   0.005413
     6  C   -1.294224  -0.018249   0.151597  -0.046198   0.005413   7.039141
     7  C   -0.664472  -0.029132  -0.071412   0.063906   0.015786  -0.122730
     8  C    0.143459   0.002478  -0.036769   0.000428  -0.000405  -0.054337
     9  O    0.015207   0.000195   0.002573  -0.002457  -0.000811  -0.004180
    10  C   -0.128708   0.004086  -0.038346  -0.005948  -0.009334   0.108019
    11  O    0.297307   0.014106   0.163212   0.049221   0.020737  -0.305569
    12  C    0.124826   0.184896  -0.701503  -0.260819  -0.245391  -0.036951
    13  O   -0.011418  -0.052852   0.205420   0.074430   0.005010   0.044658
    14  H    0.281273   0.002596  -0.019844  -0.002366  -0.021790   0.109087
    15  H    0.002108   0.468425   0.004722  -0.077177  -0.088974   0.003069
    16  H   -0.002888   0.476144  -0.004315  -0.038444  -0.059446  -0.003817
    17  H   -0.032764   0.007514   0.502479  -0.052229  -0.044553   0.025295
    18  H    0.007328  -0.016909  -0.010679   0.437378   0.009329  -0.003480
    19  H   -0.024050  -0.086668   0.047878   0.470220   0.000445   0.011338
    20  H   -0.005154  -0.082286  -0.003026   0.010736   0.480093  -0.001062
    21  H   -0.003894  -0.053838   0.006200   0.000884   0.429384   0.001463
    22  H   -0.063835  -0.000062   0.003565  -0.005258  -0.004422   0.431426
    23  H    0.008938   0.000864  -0.004228   0.001259   0.000102   0.437291
    24  H   -0.093192   0.005262  -0.000045  -0.004985  -0.003139   0.033868
    25  H    0.009173  -0.002297   0.025029   0.002170   0.001544  -0.032059
    26  H    0.063320  -0.000011   0.002944  -0.000407  -0.000136  -0.054216
    27  H   -0.005837   0.000279  -0.001565   0.000220  -0.000190   0.016001
    28  H    0.005178   0.000029  -0.001158  -0.000081  -0.000084  -0.035845
    29  H    0.014690  -0.000386  -0.001158   0.000622   0.000919  -0.069003
    30  H    0.022341   0.023042   0.073893  -0.036400  -0.072340  -0.030418
    31  H    0.006996   0.008921  -0.088708   0.004201  -0.007318  -0.006618
               7          8          9         10         11         12
     1  C   -0.664472   0.143459   0.015207  -0.128708   0.297307   0.124826
     2  C   -0.029132   0.002478   0.000195   0.004086   0.014106   0.184896
     3  C   -0.071412  -0.036769   0.002573  -0.038346   0.163212  -0.701503
     4  C    0.063906   0.000428  -0.002457  -0.005948   0.049221  -0.260819
     5  C    0.015786  -0.000405  -0.000811  -0.009334   0.020737  -0.245391
     6  C   -0.122730  -0.054337  -0.004180   0.108019  -0.305569  -0.036951
     7  C    6.506130  -0.301098   0.175687   0.124706  -0.112362   0.079634
     8  C   -0.301098   5.437525   0.095595   0.049602   0.024574  -0.005820
     9  O    0.175687   0.095595   8.291786  -0.009543   0.005523   0.000019
    10  C    0.124706   0.049602  -0.009543   5.489289  -0.011307   0.011315
    11  O   -0.112362   0.024574   0.005523  -0.011307   8.383423  -0.163242
    12  C    0.079634  -0.005820   0.000019   0.011315  -0.163242   6.255004
    13  O   -0.014014  -0.002518  -0.000912   0.006092  -0.016694  -0.006383
    14  H   -0.145853   0.060914  -0.038020  -0.049263   0.010189   0.018659
    15  H   -0.002452  -0.000088  -0.000018   0.000117  -0.001988   0.049539
    16  H    0.002525   0.000165   0.000011  -0.000272   0.002050  -0.004348
    17  H    0.013502  -0.002160   0.000193   0.003137  -0.100440  -0.015025
    18  H   -0.000593   0.001175   0.000563  -0.000513   0.002086  -0.005722
    19  H    0.011820  -0.006345   0.002583   0.003796  -0.005344  -0.002260
    20  H    0.000840  -0.000009   0.000012  -0.000015   0.000087  -0.026750
    21  H    0.001497  -0.000201  -0.000022  -0.000065  -0.002588  -0.022408
    22  H    0.023689  -0.005432  -0.002320   0.003413   0.000949   0.012998
    23  H   -0.008557  -0.019060  -0.000129  -0.054985  -0.001775   0.004245
    24  H    0.442139   0.014358  -0.063251   0.003385  -0.003882  -0.004445
    25  H    0.393739  -0.002502  -0.045061   0.003461   0.002732  -0.006622
    26  H   -0.028355   0.453045  -0.048476  -0.022381  -0.000989  -0.000182
    27  H    0.006113   0.438717  -0.073839  -0.049604   0.001394   0.000057
    28  H   -0.009576  -0.029118   0.008540   0.429999  -0.002790  -0.000402
    29  H    0.028061  -0.096800  -0.001887   0.524631  -0.001199   0.001762
    30  H   -0.007178   0.002454   0.000347  -0.000773  -0.012151   0.429625
    31  H   -0.000069  -0.000074  -0.000009  -0.000246   0.001741   0.449888
              13         14         15         16         17         18
     1  C   -0.011418   0.281273   0.002108  -0.002888  -0.032764   0.007328
     2  C   -0.052852   0.002596   0.468425   0.476144   0.007514  -0.016909
     3  C    0.205420  -0.019844   0.004722  -0.004315   0.502479  -0.010679
     4  C    0.074430  -0.002366  -0.077177  -0.038444  -0.052229   0.437378
     5  C    0.005010  -0.021790  -0.088974  -0.059446  -0.044553   0.009329
     6  C    0.044658   0.109087   0.003069  -0.003817   0.025295  -0.003480
     7  C   -0.014014  -0.145853  -0.002452   0.002525   0.013502  -0.000593
     8  C   -0.002518   0.060914  -0.000088   0.000165  -0.002160   0.001175
     9  O   -0.000912  -0.038020  -0.000018   0.000011   0.000193   0.000563
    10  C    0.006092  -0.049263   0.000117  -0.000272   0.003137  -0.000513
    11  O   -0.016694   0.010189  -0.001988   0.002050  -0.100440   0.002086
    12  C   -0.006383   0.018659   0.049539  -0.004348  -0.015025  -0.005722
    13  O    8.215315   0.012521  -0.007366   0.009422  -0.060605  -0.057450
    14  H    0.012521   0.640628   0.002597   0.001484  -0.005112  -0.000176
    15  H   -0.007366   0.002597   0.517118  -0.023322   0.005942  -0.010055
    16  H    0.009422   0.001484  -0.023322   0.503718  -0.002326  -0.003398
    17  H   -0.060605  -0.005112   0.005942  -0.002326   0.509990  -0.002680
    18  H   -0.057450  -0.000176  -0.010055  -0.003398  -0.002680   0.468450
    19  H   -0.030258  -0.027121   0.005644  -0.005593   0.003679  -0.010752
    20  H   -0.002618  -0.000159  -0.008279   0.003519   0.001856  -0.001826
    21  H    0.000263   0.001134   0.002616  -0.002764   0.001009  -0.000266
    22  H   -0.000113  -0.011343   0.000226  -0.000137   0.003855  -0.000302
    23  H    0.000858  -0.003361  -0.000092   0.000072  -0.002028   0.000039
    24  H    0.005940   0.020083   0.000615  -0.000201   0.001496  -0.001957
    25  H   -0.003035  -0.027035  -0.000204   0.000046   0.000534   0.000464
    26  H   -0.000103  -0.012947   0.000015  -0.000018   0.000304  -0.000045
    27  H   -0.000118   0.005988  -0.000009   0.000018  -0.000154   0.000057
    28  H    0.000367   0.002470   0.000010  -0.000033   0.000037  -0.000011
    29  H    0.000247  -0.040652  -0.000060  -0.000043   0.000063  -0.000073
    30  H   -0.006306  -0.003521  -0.002641  -0.000437   0.004914  -0.002484
    31  H    0.006680   0.000528  -0.000422   0.000093  -0.011314   0.001524
              19         20         21         22         23         24
     1  C   -0.024050  -0.005154  -0.003894  -0.063835   0.008938  -0.093192
     2  C   -0.086668  -0.082286  -0.053838  -0.000062   0.000864   0.005262
     3  C    0.047878  -0.003026   0.006200   0.003565  -0.004228  -0.000045
     4  C    0.470220   0.010736   0.000884  -0.005258   0.001259  -0.004985
     5  C    0.000445   0.480093   0.429384  -0.004422   0.000102  -0.003139
     6  C    0.011338  -0.001062   0.001463   0.431426   0.437291   0.033868
     7  C    0.011820   0.000840   0.001497   0.023689  -0.008557   0.442139
     8  C   -0.006345  -0.000009  -0.000201  -0.005432  -0.019060   0.014358
     9  O    0.002583   0.000012  -0.000022  -0.002320  -0.000129  -0.063251
    10  C    0.003796  -0.000015  -0.000065   0.003413  -0.054985   0.003385
    11  O   -0.005344   0.000087  -0.002588   0.000949  -0.001775  -0.003882
    12  C   -0.002260  -0.026750  -0.022408   0.012998   0.004245  -0.004445
    13  O   -0.030258  -0.002618   0.000263  -0.000113   0.000858   0.005940
    14  H   -0.027121  -0.000159   0.001134  -0.011343  -0.003361   0.020083
    15  H    0.005644  -0.008279   0.002616   0.000226  -0.000092   0.000615
    16  H   -0.005593   0.003519  -0.002764  -0.000137   0.000072  -0.000201
    17  H    0.003679   0.001856   0.001009   0.003855  -0.002028   0.001496
    18  H   -0.010752  -0.001826  -0.000266  -0.000302   0.000039  -0.001957
    19  H    0.513831   0.000238   0.000150   0.001436   0.000021  -0.003552
    20  H    0.000238   0.488686  -0.011512   0.000153   0.000048  -0.000085
    21  H    0.000150  -0.011512   0.497151   0.000444  -0.000035  -0.000018
    22  H    0.001436   0.000153   0.000444   0.501446  -0.015408  -0.000456
    23  H    0.000021   0.000048  -0.000035  -0.015408   0.457888  -0.003131
    24  H   -0.003552  -0.000085  -0.000018  -0.000456  -0.003131   0.470205
    25  H    0.002489   0.000142  -0.000101  -0.002185  -0.000814  -0.021635
    26  H    0.000631  -0.000006   0.000010   0.000601  -0.004166  -0.004776
    27  H   -0.000647   0.000003  -0.000009   0.000239  -0.000706   0.003327
    28  H    0.000034  -0.000006  -0.000003  -0.014093  -0.005532   0.002056
    29  H    0.003342   0.000022  -0.000015  -0.000636   0.004371  -0.003263
    30  H   -0.012297   0.000669  -0.006231  -0.003273   0.000140  -0.000121
    31  H   -0.001636  -0.005558  -0.008390  -0.001382   0.000388  -0.000685
              25         26         27         28         29         30
     1  C    0.009173   0.063320  -0.005837   0.005178   0.014690   0.022341
     2  C   -0.002297  -0.000011   0.000279   0.000029  -0.000386   0.023042
     3  C    0.025029   0.002944  -0.001565  -0.001158  -0.001158   0.073893
     4  C    0.002170  -0.000407   0.000220  -0.000081   0.000622  -0.036400
     5  C    0.001544  -0.000136  -0.000190  -0.000084   0.000919  -0.072340
     6  C   -0.032059  -0.054216   0.016001  -0.035845  -0.069003  -0.030418
     7  C    0.393739  -0.028355   0.006113  -0.009576   0.028061  -0.007178
     8  C   -0.002502   0.453045   0.438717  -0.029118  -0.096800   0.002454
     9  O   -0.045061  -0.048476  -0.073839   0.008540  -0.001887   0.000347
    10  C    0.003461  -0.022381  -0.049604   0.429999   0.524631  -0.000773
    11  O    0.002732  -0.000989   0.001394  -0.002790  -0.001199  -0.012151
    12  C   -0.006622  -0.000182   0.000057  -0.000402   0.001762   0.429625
    13  O   -0.003035  -0.000103  -0.000118   0.000367   0.000247  -0.006306
    14  H   -0.027035  -0.012947   0.005988   0.002470  -0.040652  -0.003521
    15  H   -0.000204   0.000015  -0.000009   0.000010  -0.000060  -0.002641
    16  H    0.000046  -0.000018   0.000018  -0.000033  -0.000043  -0.000437
    17  H    0.000534   0.000304  -0.000154   0.000037   0.000063   0.004914
    18  H    0.000464  -0.000045   0.000057  -0.000011  -0.000073  -0.002484
    19  H    0.002489   0.000631  -0.000647   0.000034   0.003342  -0.012297
    20  H    0.000142  -0.000006   0.000003  -0.000006   0.000022   0.000669
    21  H   -0.000101   0.000010  -0.000009  -0.000003  -0.000015  -0.006231
    22  H   -0.002185   0.000601   0.000239  -0.014093  -0.000636  -0.003273
    23  H   -0.000814  -0.004166  -0.000706  -0.005532   0.004371   0.000140
    24  H   -0.021635  -0.004776   0.003327   0.002056  -0.003263  -0.000121
    25  H    0.497848   0.011090  -0.002932  -0.001943   0.004044   0.000518
    26  H    0.011090   0.499632  -0.008734   0.002255   0.005221  -0.000113
    27  H   -0.002932  -0.008734   0.477238  -0.007075  -0.006237   0.000137
    28  H   -0.001943   0.002255  -0.007075   0.479670  -0.009561  -0.000053
    29  H    0.004044   0.005221  -0.006237  -0.009561   0.480129  -0.000145
    30  H    0.000518  -0.000113   0.000137  -0.000053  -0.000145   0.462723
    31  H    0.000286   0.000069  -0.000012  -0.000059   0.000039  -0.008808
              31
     1  C    0.006996
     2  C    0.008921
     3  C   -0.088708
     4  C    0.004201
     5  C   -0.007318
     6  C   -0.006618
     7  C   -0.000069
     8  C   -0.000074
     9  O   -0.000009
    10  C   -0.000246
    11  O    0.001741
    12  C    0.449888
    13  O    0.006680
    14  H    0.000528
    15  H   -0.000422
    16  H    0.000093
    17  H   -0.011314
    18  H    0.001524
    19  H   -0.001636
    20  H   -0.005558
    21  H   -0.008390
    22  H   -0.001382
    23  H    0.000388
    24  H   -0.000685
    25  H    0.000286
    26  H    0.000069
    27  H   -0.000012
    28  H   -0.000059
    29  H    0.000039
    30  H   -0.008808
    31  H    0.463477
 Mulliken charges:
               1
     1  C    0.081826
     2  C   -0.369273
     3  C   -0.437528
     4  C   -0.056939
     5  C   -0.337450
     6  C   -0.298707
     7  C   -0.371919
     8  C   -0.161751
     9  O   -0.307899
    10  C   -0.383747
    11  O   -0.237007
    12  C   -0.114198
    13  O   -0.314461
    14  H    0.238413
    15  H    0.160386
    16  H    0.152534
    17  H    0.245594
    18  H    0.200976
    19  H    0.136951
    20  H    0.161249
    21  H    0.170155
    22  H    0.146217
    23  H    0.207481
    24  H    0.210085
    25  H    0.193116
    26  H    0.146922
    27  H    0.207877
    28  H    0.186777
    29  H    0.162955
    30  H    0.184887
    31  H    0.196477
 Sum of Mulliken charges =  -0.00000
 Mulliken charges with hydrogens summed into heavy atoms:
               1
     1  C    0.320239
     2  C   -0.056353
     3  C   -0.191934
     4  C    0.280988
     5  C   -0.006046
     6  C    0.054991
     7  C    0.031282
     8  C    0.193049
     9  O   -0.307899
    10  C   -0.034015
    11  O   -0.237007
    12  C    0.267167
    13  O   -0.314461
 Electronic spatial extent (au):  <R**2>=           3064.8360
 Charge=              0.0000 electrons
 Dipole moment (field-independent basis, Debye):
    X=              1.7898    Y=              1.9927    Z=              2.3126  Tot=              3.5387
 Quadrupole moment (field-independent basis, Debye-Ang):
   XX=            -70.3288   YY=            -84.3224   ZZ=            -79.1130
   XY=             -5.0355   XZ=              0.8522   YZ=             -0.1085
 Traceless Quadrupole moment (field-independent basis, Debye-Ang):
   XX=              7.5926   YY=             -6.4010   ZZ=             -1.1916
   XY=             -5.0355   XZ=              0.8522   YZ=             -0.1085
 Octapole moment (field-independent basis, Debye-Ang**2):
  XXX=             -4.5236  YYY=             -1.0247  ZZZ=             -2.3508  XYY=             12.5491
  XXY=             18.1217  XXZ=              6.7368  XZZ=              0.9891  YZZ=             -2.6996
  YYZ=              3.2200  XYZ=             -4.4207
 Hexadecapole moment (field-independent basis, Debye-Ang**3):
 XXXX=          -3014.6364 YYYY=           -572.3792 ZZZZ=           -358.1702 XXXY=            -42.2494
 XXXZ=            -19.7551 YYYX=            -20.0757 YYYZ=             -2.2829 ZZZX=             -0.7185
 ZZZY=             -0.0476 XXYY=           -641.2090 XXZZ=           -565.7791 YYZZ=           -157.6313
 XXYZ=            -10.5048 YYXZ=              2.1379 ZZXY=              6.0584
 N-N= 8.923740050032D+02 E-N=-3.226590357932D+03  KE= 6.153400318703D+02
 D1PCM: PCM CHGder 1st derivatives, ID1Alg=3 FixD1E=F DoIter=F DoCFld=F I1PDM=0.
 Calling FoFJK, ICntrl=      2127 FMM=F ISym2X=0 I1Cent= 0 IOpClX= 0 NMat=1 NMatS=1 NMatT=0.
 ***** Axes restored to original set *****
 -------------------------------------------------------------------
 Center     Atomic                   Forces (Hartrees/Bohr)
 Number     Number              X              Y              Z
 -------------------------------------------------------------------
      1        6          -0.001240721   -0.003929901   -0.002894142
      2        6           0.001474609   -0.001526294   -0.000003084
      3        6          -0.001082443   -0.001799044    0.013535995
      4        6          -0.002804940   -0.004826139   -0.003362456
      5        6           0.003071399    0.001456128    0.001242480
      6        6           0.001154178    0.004307894    0.001620481
      7        6           0.002537317   -0.002774995    0.006420522
      8        6          -0.006536351   -0.002131187    0.000953724
      9        8           0.001154658    0.008676383    0.002950788
     10        6           0.000044089   -0.000449516   -0.002868491
     11        8           0.005226526   -0.005002893   -0.009861681
     12        6          -0.002985403    0.002526225   -0.001770673
     13        8           0.003108748    0.008379737   -0.006772098
     14        1          -0.002489362    0.004200059    0.006456839
     15        1          -0.001210779    0.001805740   -0.001644296
     16        1          -0.001173151   -0.000264043    0.002698155
     17        1          -0.002727139   -0.000812726   -0.006905279
     18        1           0.000073454    0.004375032    0.000757180
     19        1           0.002659398   -0.002771922    0.005407316
     20        1          -0.000936443    0.000256293   -0.002908416
     21        1          -0.001455337   -0.001453120    0.001477718
     22        1          -0.002068752   -0.001890833    0.001470203
     23        1           0.000751536   -0.000962776   -0.003671926
     24        1          -0.004553395    0.003224230   -0.000697066
     25        1           0.000957531   -0.004217735   -0.005085069
     26        1           0.002281588   -0.003382595   -0.004702033
     27        1           0.003055611    0.001973976    0.002449451
     28        1           0.001724123   -0.002325021    0.000759678
     29        1          -0.001153088    0.001751382    0.002463529
     30        1           0.002807329    0.000231903    0.003619270
     31        1           0.000335210   -0.002644243   -0.001136619
 -------------------------------------------------------------------
 Cartesian Forces:  Max     0.013535995 RMS     0.003609491

 GradGradGradGradGradGradGradGradGradGradGradGradGradGradGradGradGradGrad
 Berny optimization.
 FormGI is forming the generalized inverse of G from B-inverse, IUseBI=4.
 Internal  Forces:  Max     0.017711111 RMS     0.002247791
 Search for a local minimum.
 Step number   1 out of a maximum of  186
 All quantities printed in internal units (Hartrees-Bohrs-Radians)
 Mixed Optimization -- RFO/linear search
 Second derivative matrix not updated -- first step.
 ITU=  0
     Eigenvalues ---    0.00398   0.00644   0.00734   0.00777   0.01322
     Eigenvalues ---    0.01442   0.01484   0.02644   0.02793   0.03067
     Eigenvalues ---    0.03162   0.03987   0.04372   0.04448   0.04800
     Eigenvalues ---    0.04836   0.04886   0.04988   0.05152   0.05154
     Eigenvalues ---    0.05184   0.05508   0.05737   0.05990   0.06160
     Eigenvalues ---    0.06393   0.06411   0.06768   0.07594   0.07910
     Eigenvalues ---    0.07934   0.07992   0.08040   0.08042   0.08096
     Eigenvalues ---    0.08693   0.09351   0.09638   0.10874   0.11616
     Eigenvalues ---    0.11668   0.11706   0.11788   0.12493   0.12636
     Eigenvalues ---    0.14559   0.16137   0.16620   0.17481   0.19179
     Eigenvalues ---    0.20709   0.21760   0.22169   0.25000   0.26880
     Eigenvalues ---    0.27893   0.28541   0.28727   0.28910   0.29267
     Eigenvalues ---    0.29806   0.30150   0.35045   0.35071   0.35072
     Eigenvalues ---    0.35138   0.35250   0.35279   0.35293   0.35306
     Eigenvalues ---    0.35333   0.35383   0.35465   0.35474   0.35617
     Eigenvalues ---    0.35819   0.35861   0.35922   0.35925   0.35987
     Eigenvalues ---    0.39860   0.41516   0.42179   0.43114   0.43741
     Eigenvalues ---    0.439081000.000001000.000001000.000001000.00000
     Eigenvalues --- 1000.000001000.000001000.000001000.000001000.00000
     Eigenvalues --- 1000.000001000.000001000.000001000.000001000.00000
     Eigenvalues --- 1000.000001000.000001000.000001000.000001000.00000
     Eigenvalues --- 1000.000001000.000001000.000001000.000001000.00000
     Eigenvalues --- 1000.000001000.000001000.000001000.000001000.00000
     Eigenvalues --- 1000.000001000.000001000.000001000.000001000.00000
     Eigenvalues --- 1000.000001000.000001000.000001000.000001000.00000
     Eigenvalues --- 1000.000001000.000001000.000001000.000001000.00000
     Eigenvalues --- 1000.000001000.000001000.000001000.000001000.00000
     Eigenvalues --- 1000.000001000.000001000.000001000.000001000.00000
     Eigenvalues --- 1000.000001000.000001000.000001000.000001000.00000
     Eigenvalues --- 1000.000001000.000001000.000001000.000001000.00000
     Eigenvalues --- 1000.000001000.000001000.000001000.000001000.00000
     Eigenvalues --- 1000.000001000.000001000.000001000.000001000.00000
     Eigenvalues --- 1000.000001000.000001000.000001000.000001000.00000
     Eigenvalues --- 1000.000001000.000001000.000001000.000001000.00000
     Eigenvalues --- 1000.000001000.000001000.000001000.000001000.00000
     Eigenvalues --- 1000.000001000.000001000.000001000.000001000.00000
     Eigenvalues --- 1000.000001000.000001000.000001000.000001000.00000
 RFO step:  Lambda=-3.72655620D-03 EMin= 3.98090214D-03
 Linear search not attempted -- first point.
 Iteration  1 RMS(Cart)=  0.08129467 RMS(Int)=  0.00121226
 Iteration  2 RMS(Cart)=  0.00361071 RMS(Int)=  0.00005038
 Iteration  3 RMS(Cart)=  0.00000323 RMS(Int)=  0.00005035
 Iteration  4 RMS(Cart)=  0.00000000 RMS(Int)=  0.00005035
 Iteration  1 RMS(Cart)=  0.00003576 RMS(Int)=  0.00000843
 Iteration  2 RMS(Cart)=  0.00001887 RMS(Int)=  0.00000942
 Iteration  3 RMS(Cart)=  0.00000996 RMS(Int)=  0.00001060
 Iteration  4 RMS(Cart)=  0.00000525 RMS(Int)=  0.00001135
 Iteration  5 RMS(Cart)=  0.00000277 RMS(Int)=  0.00001177
 Iteration  6 RMS(Cart)=  0.00000146 RMS(Int)=  0.00001200
 Iteration  7 RMS(Cart)=  0.00000077 RMS(Int)=  0.00001212
 Variable       Old X    -DE/DX   Delta X   Delta X   Delta X     New X
                                 (Linear)    (Quad)   (Total)
    R1        2.87925  -0.00191   0.00000  -0.00610  -0.00612   2.87312
    R2        2.88206  -0.00107   0.00000  -0.00329  -0.00329   2.87877
    R3        2.67529   0.00110   0.00000   0.00253   0.00253   2.67781
    R4        2.04299   0.00799   0.00000   0.02206   0.02206   2.06505
    R5        2.87831   0.00093   0.00000   0.00153   0.00152   2.87983
    R6        2.91939  -0.00004   0.00000  -0.00264  -0.00266   2.91673
    R7        2.05058   0.00269   0.00000   0.00751   0.00751   2.05809
    R8        2.05182   0.00293   0.00000   0.00822   0.00822   2.06004
    R9        2.66565   0.00193   0.00000   0.00436   0.00436   2.67001
   R10        2.87436  -0.00060   0.00000   0.00029   0.00034   2.87469
   R11        2.64635   0.00394   0.00000   0.01016   0.01018   2.65654
   R12        2.04198   0.00744   0.00000   0.02050   0.02050   2.06249
   R13        2.68659   0.00348   0.00000   0.00803   0.00800   2.69459
   R14        2.04203   0.00443   0.00000   0.01221   0.01221   2.05425
   R15        2.04684   0.00655   0.00000   0.01821   0.01821   2.06505
   R16        2.88991  -0.00062   0.00000  -0.00244  -0.00246   2.88744
   R17        2.05270   0.00302   0.00000   0.00847   0.00847   2.06117
   R18        2.04912   0.00253   0.00000   0.00705   0.00705   2.05618
   R19        2.89219  -0.00051   0.00000  -0.00177  -0.00179   2.89041
   R20        2.05137   0.00311   0.00000   0.00870   0.00870   2.06008
   R21        2.05560   0.00370   0.00000   0.01044   0.01044   2.06604
   R22        2.66820   0.00346   0.00000   0.00787   0.00788   2.67608
   R23        2.04101   0.00531   0.00000   0.01462   0.01462   2.05563
   R24        2.05601   0.00629   0.00000   0.01775   0.01775   2.07376
   R25        2.67613   0.00320   0.00000   0.00727   0.00730   2.68343
   R26        2.87265   0.00049   0.00000   0.00133   0.00132   2.87397
   R27        2.05558   0.00610   0.00000   0.01722   0.01722   2.07280
   R28        2.04366   0.00438   0.00000   0.01211   0.01211   2.05577
   R29        2.05224   0.00297   0.00000   0.00833   0.00833   2.06056
   R30        2.05451   0.00316   0.00000   0.00889   0.00889   2.06339
   R31        2.05201   0.00444   0.00000   0.01244   0.01244   2.06445
   R32        2.04927   0.00286   0.00000   0.00797   0.00797   2.05725
    A1        1.91931   0.00007   0.00000   0.00044   0.00040   1.91971
    A2        1.89696  -0.00048   0.00000   0.00205   0.00206   1.89902
    A3        1.90670   0.00081   0.00000   0.00358   0.00357   1.91027
    A4        1.90804   0.00032   0.00000   0.00094   0.00095   1.90899
    A5        1.90452  -0.00102   0.00000  -0.01210  -0.01208   1.89244
    A6        1.92832   0.00031   0.00000   0.00517   0.00514   1.93347
    A7        1.93536   0.00016   0.00000  -0.00865  -0.00878   1.92657
    A8        1.90922  -0.00073   0.00000  -0.00206  -0.00202   1.90721
    A9        1.88689   0.00063   0.00000   0.00550   0.00553   1.89242
   A10        1.92257   0.00077   0.00000   0.00374   0.00376   1.92633
   A11        1.93990  -0.00097   0.00000  -0.00129  -0.00124   1.93865
   A12        1.86824   0.00012   0.00000   0.00317   0.00315   1.87139
   A13        1.93620  -0.00050   0.00000  -0.01012  -0.01034   1.92586
   A14        1.95616  -0.00207   0.00000  -0.01791  -0.01798   1.93818
   A15        1.82530   0.00085   0.00000   0.01323   0.01334   1.83865
   A16        1.95577   0.00255   0.00000  -0.00061  -0.00085   1.95492
   A17        1.92051  -0.00009   0.00000   0.00477   0.00478   1.92529
   A18        1.86378  -0.00086   0.00000   0.01299   0.01303   1.87682
   A19        1.94018   0.00124   0.00000   0.00278   0.00264   1.94283
   A20        1.94508  -0.00035   0.00000  -0.00431  -0.00429   1.94079
   A21        1.93706  -0.00110   0.00000  -0.00450  -0.00449   1.93257
   A22        1.84074  -0.00100   0.00000  -0.00202  -0.00197   1.83877
   A23        1.91522   0.00097   0.00000   0.00952   0.00957   1.92479
   A24        1.88235   0.00026   0.00000  -0.00121  -0.00124   1.88111
   A25        1.93620  -0.00043   0.00000  -0.00807  -0.00823   1.92796
   A26        1.91547   0.00056   0.00000   0.00367   0.00373   1.91919
   A27        1.93513  -0.00033   0.00000  -0.00062  -0.00060   1.93453
   A28        1.89716   0.00010   0.00000  -0.00063  -0.00058   1.89658
   A29        1.91715   0.00007   0.00000   0.00264   0.00269   1.91984
   A30        1.86088   0.00005   0.00000   0.00350   0.00347   1.86435
   A31        1.92191   0.00115   0.00000  -0.00208  -0.00211   1.91979
   A32        1.91747  -0.00044   0.00000  -0.00219  -0.00216   1.91531
   A33        1.89753  -0.00120   0.00000  -0.00889  -0.00890   1.88863
   A34        1.93521   0.00015   0.00000   0.00617   0.00617   1.94138
   A35        1.91459  -0.00010   0.00000   0.00304   0.00303   1.91762
   A36        1.87622   0.00038   0.00000   0.00379   0.00375   1.87997
   A37        1.93243   0.00195   0.00000   0.01020   0.01026   1.94269
   A38        1.94203  -0.00179   0.00000  -0.01591  -0.01601   1.92603
   A39        1.91192  -0.00253   0.00000  -0.01745  -0.01756   1.89436
   A40        1.86501  -0.00007   0.00000   0.00702   0.00707   1.87207
   A41        1.91518   0.00129   0.00000   0.01244   0.01249   1.92767
   A42        1.89643   0.00126   0.00000   0.00463   0.00434   1.90077
   A43        1.93572   0.00171   0.00000   0.00839   0.00839   1.94411
   A44        1.90222   0.00080   0.00000   0.00710   0.00714   1.90936
   A45        1.85598  -0.00115   0.00000  -0.00362  -0.00361   1.85237
   A46        1.93070  -0.00156   0.00000  -0.00959  -0.00962   1.92108
   A47        1.94536  -0.00034   0.00000  -0.00345  -0.00346   1.94190
   A48        1.89160   0.00059   0.00000   0.00157   0.00154   1.89313
   A49        1.97905  -0.00456   0.00000  -0.02727  -0.02721   1.95184
   A50        1.92800  -0.00075   0.00000  -0.00516  -0.00520   1.92279
   A51        1.92821  -0.00049   0.00000  -0.00050  -0.00050   1.92771
   A52        1.91967   0.00081   0.00000   0.00126   0.00127   1.92094
   A53        1.90870   0.00080   0.00000   0.00501   0.00504   1.91374
   A54        1.90382  -0.00036   0.00000  -0.00329  -0.00330   1.90051
   A55        1.87452   0.00001   0.00000   0.00290   0.00289   1.87741
   A56        2.11586  -0.01771   0.00000  -0.06980  -0.06980   2.04606
   A57        1.91937   0.00019   0.00000  -0.00192  -0.00189   1.91747
   A58        1.91375  -0.00047   0.00000  -0.00837  -0.00837   1.90538
   A59        1.88627  -0.00040   0.00000  -0.00024  -0.00027   1.88600
   A60        1.93425   0.00006   0.00000   0.00226   0.00218   1.93643
   A61        1.93735   0.00050   0.00000   0.00632   0.00635   1.94371
   A62        1.87165   0.00010   0.00000   0.00181   0.00179   1.87344
   A63        2.05385  -0.00501   0.00000  -0.02462  -0.02459   2.02926
    D1        0.91603  -0.00062   0.00000  -0.00236  -0.00236   0.91367
    D2        3.05239   0.00004   0.00000   0.00254   0.00254   3.05493
    D3       -1.18200  -0.00045   0.00000   0.00069   0.00069  -1.18131
    D4        3.00415  -0.00048   0.00000   0.00030   0.00030   3.00445
    D5       -1.14268   0.00018   0.00000   0.00521   0.00520  -1.13748
    D6        0.90612  -0.00032   0.00000   0.00335   0.00335   0.90947
    D7       -1.17376   0.00009   0.00000   0.00999   0.01000  -1.16375
[...]
 -0.00005140,-0.00056126,0.00037042,0.00233587,-0.00014660,0.00007699,-
 0.00004007,0.00013714,-0.00012981,-0.00006500,0.00107765,0.00257172,-0
 .00107797,0.00002652,0.00000561,0.00000391,0.00000781,0.00000327,-0.00
 000552,0.00008405,-0.00002230,-0.00002278,0.00002210,-0.00002390,0.000
 00889,0.00000378,-0.00001280,0.00009266,0.00000453,-0.00000173,0.00000
 416,0.00000021,0.00000670,-0.00000212,-0.00005130,0.00011899,0.0004056
 0,-0.00053206,0.00065216,0.00009773,-0.00135522,0.00231788,0.00705011,
 -0.08894013,0.08076304,0.25025182,-0.00017073,-0.00001014,-0.00040475,
 -0.00000023,0.00000034,0.00000245,0.00013750,-0.00006611,-0.00001454,0
 .00001307,-0.00000741,-0.00002244,-0.00000085,-0.00000681,0.00000669,0
 .00028074,0.00114568,0.00045829,0.00218332,0.00205930,0.00483664,-0.08
 835347,0.02291107,0.07898102,-0.02206032,0.02086342,0.01530071,-0.0040
 7162,0.00239783,0.01272755,-0.00033345,-0.00029380,-0.00010294,-0.0000
 1674,0.00001248,0.00000106,-0.00003390,0.00003933,0.00002165,0.0001010
 1,0.00005071,-0.00005848,-0.00000156,0.00000097,-0.00000043,-0.0000025
 2,-0.00000013,0.00000147,-0.00001924,0.00000284,-0.00000440,-0.0000012
 5,0.00000228,0.00000361,0.00000223,-0.00000129,-0.00000070,-0.00000015
 ,0.00000025,-0.00000156,-0.00000511,0.00000079,0.00000122,0.00019325,-
 0.00007828,-0.00020100,-0.00017048,-0.00033852,-0.00020812,0.00017086,
 -0.00013715,-0.00038618,0.00029197,-0.00056747,-0.00089295,0.10057281,
 -0.00011803,-0.00039506,0.00050191,0.00000223,-0.00000114,-0.00000596,
 -0.00024141,0.00009032,-0.00002383,-0.00002372,0.00001975,0.00004759,0
 .00000161,0.00001169,-0.00001046,0.00079597,0.00142320,0.00059847,-0.0
 0349150,-0.00040069,-0.00229538,0.02492998,-0.07058587,-0.06446674,0.0
 2464444,-0.01803753,-0.01700580,-0.01154995,0.00786499,0.02343808,0.00
 040471,0.00031643,0.00003596,0.00003342,-0.00002237,-0.00000159,0.0001
 0296,-0.00004639,-0.00004178,0.00003926,-0.00007687,-0.00007555,0.0000
 0363,-0.00000144,0.00000104,0.00000557,0.00000073,-0.00000309,0.000022
 87,-0.00000154,0.00000755,0.00000191,-0.00000578,-0.00000431,-0.000000
 74,-0.00000054,0.00000310,0.00000077,-0.00000030,0.00000216,0.00001001
 ,-0.00000164,-0.00000241,0.00033813,-0.00002079,-0.00017416,0.00015934
 ,-0.00024094,-0.00048097,-0.00010914,0.00004953,0.00035418,0.00006316,
 0.00070348,0.00089060,-0.03949952,0.08554829,-0.00029899,-0.00015713,-
 0.00015895,0.00000119,-0.00000242,-0.00000294,-0.00018450,0.00007474,0
 .00002656,-0.00002065,0.00001944,0.00003454,0.00000024,0.00001152,-0.0
 0000783,-0.00073204,-0.00076293,0.00089261,-0.00089215,0.00179251,0.00
 294740,0.08201727,-0.06645780,-0.23774576,-0.00335745,0.00067164,0.010
 31916,0.00650079,-0.00528110,-0.01670418,0.00039531,-0.00003850,0.0001
 1690,0.00002151,-0.00001626,-0.00000403,0.00008121,-0.00004986,-0.0000
 3590,-0.00004393,0.00002456,-0.00020154,0.00000416,-0.00000140,0.00000
 083,0.00000406,0.00000087,-0.00000232,0.00003874,-0.00000640,0.0000070
 4,0.00000303,-0.00000585,-0.00000285,-0.00000093,0.00000015,0.00000491
 ,0.00000132,-0.00000081,0.00000238,0.00000863,-0.00000143,-0.00000226,
 -0.00017672,0.00023269,0.00020483,0.00054897,0.00029745,0.00055961,0.0
 0012256,0.00011053,0.00030831,0.00143643,0.00009507,0.00005434,-0.0932
 0975,0.07037827,0.25333425,0.00066044,0.00054036,-0.00026154,-0.000003
 61,0.00000416,0.00001809,0.00040093,-0.00009626,0.00000523,0.00004584,
 -0.00005076,-0.00011207,0.00000025,-0.00001969,0.00001643,0.00034900,-
 0.00148328,0.00175134,-0.00074012,0.00458580,0.00170800,-0.17237724,-0
 .08753870,-0.09445681,-0.02587034,-0.00608931,-0.01874193,-0.00740447,
 -0.00716660,-0.00593175,-0.00052392,-0.00034479,-0.00011180,-0.0000484
 0,0.00002982,0.00000250,-0.00024710,0.00006877,0.00010706,-0.00004727,
 -0.00001667,0.00001955,-0.00000658,0.00000291,-0.00000187,-0.00001336,
 -0.00000216,0.00000619,-0.00005470,0.00000363,-0.00001329,-0.00000663,
 0.00001334,0.00000740,0.00000456,-0.00000492,-0.00000104,-0.00000180,0
 .00000111,-0.00000450,-0.00001659,0.00000229,0.00000422,-0.00040462,-0
 .00024537,-0.00046144,-0.00003453,-0.00009517,-0.00021467,-0.00092398,
 -0.00058878,-0.00076735,0.00011235,-0.00022586,-0.00033402,0.01084891,
 0.00558349,0.00639528,0.19593893,0.00070354,-0.00085055,0.00069178,-0.
 00000055,-0.00000036,-0.00001016,0.00007011,-0.00006231,-0.00008649,0.
 00000474,0.00001324,0.00001943,0.00000012,-0.00000582,-0.00000191,-0.0
 0120852,-0.00322897,0.00459811,0.00284860,-0.00314231,0.00014664,-0.09
 718313,-0.11642234,-0.07754080,0.02483397,0.01064009,0.01817257,-0.016
 94205,-0.01104802,-0.01516721,-0.00015723,0.00049057,-0.00022076,0.000
 00796,0.00000733,0.00001442,0.00005892,0.00006986,-0.00002043,-0.00004
 173,0.00005748,-0.00003224,-0.00000155,0.00000070,0.00000032,0.0000028
 1,0.00000086,0.00000023,-0.00003965,0.00001011,-0.00000519,-0.00000329
 ,0.00000178,0.00000024,0.00000330,-0.00000238,-0.00001077,-0.00000146,
 0.00000163,-0.00000042,-0.00000249,0.00000084,0.00000104,-0.00164097,-
 0.00049713,-0.00080457,0.00037770,0.00018688,0.00015461,0.00095247,0.0
 0048890,0.00063786,-0.00008937,0.00007053,0.00022461,-0.00655605,-0.00
 358940,-0.00432189,0.09286276,0.12513651,-0.00014132,0.00041187,-0.000
 34603,-0.00000171,0.00000067,0.00000803,0.00007407,0.00001217,0.000046
 07,0.00001478,-0.00001903,-0.00003577,0.00000063,-0.00000203,0.0000043
 3,0.00110655,0.00254315,-0.00171508,-0.00005010,0.00224504,0.00112940,
 -0.09935192,-0.07198894,-0.13104110,-0.00833260,-0.00102883,-0.0049955
 2,0.01410187,0.00911875,0.01064971,-0.00006949,-0.00020889,0.00006286,
 -0.00000894,0.00000336,-0.00000787,-0.00009343,-0.00003368,0.00002959,
 0.00001059,-0.00004797,0.00003920,-0.00000142,0.00000070,-0.00000080,-
 0.00000421,-0.00000091,0.00000154,0.00000482,-0.00000421,-0.00000362,-
 0.00000019,0.00000269,0.00000199,0.00000002,0.00000081,0.00000253,-0.0
 0000026,-0.00000016,-0.00000044,-0.00000324,0.00000029,0.00000073,0.00
 075018,0.00049071,0.00053017,0.00006129,0.00019198,0.00022914,-0.00065
 116,-0.00023483,-0.00001447,0.00019775,0.00016980,0.00039237,-0.018080
 14,-0.01356381,-0.01356542,0.11145875,0.07346762,0.13722838,-0.0004294
 6,-0.00471836,-0.00148707,-0.00000099,0.00000492,0.00000817,0.00082288
 ,-0.00044022,-0.00061318,0.00007422,-0.00004370,-0.00013943,0.00000055
 ,-0.00005419,0.00003110,-0.01791497,0.01780371,-0.00431558,-0.00069936
 ,-0.00073329,0.00012225,0.01014643,-0.00782520,0.00128850,0.00106779,-
 0.00364135,0.00219122,-0.18198080,0.13048269,-0.03131290,-0.00266321,0
 .00105655,-0.00114366,-0.00006331,0.00006979,0.00001966,-0.00018618,0.
 00030720,0.00017973,0.00017602,-0.00026925,0.00017987,-0.00001249,0.00
 000628,-0.00000158,-0.00001537,-0.00000088,0.00001003,-0.00029826,0.00
 005911,-0.00001812,-0.00001526,0.00002285,0.00001673,0.00000863,-0.000
 00849,-0.00001522,-0.00000138,0.00000362,-0.00000823,-0.00003521,0.000
 00786,0.00001073,0.00060634,0.00005509,0.00083894,0.00120576,-0.000102
 36,0.00011068,0.00012165,0.00019737,0.00004549,0.00013411,0.00006025,-
 0.00001633,0.00042915,0.00076849,-0.00023562,0.00018363,0.00065427,-0.
 00073362,0.19697870,-0.00186457,-0.00152083,-0.00136526,0.00000145,-0.
 00000047,-0.00000207,0.00002262,-0.00012892,-0.00029220,0.00000263,0.0
 0000287,-0.00001036,-0.00000043,-0.00001278,0.00000573,-0.01190454,0.0
 1203360,-0.00324476,-0.00158480,-0.00064297,-0.00127854,0.02010540,-0.
 01363260,0.00052921,-0.00058030,-0.00628995,0.00538444,0.12997532,-0.1
 7330409,0.03295529,-0.00110621,0.00056175,-0.00045731,-0.00000377,0.00
 001552,-0.00000376,0.00004101,0.00006982,0.00003202,-0.00002447,0.0000
 2174,0.00008202,-0.00000093,0.00000121,0.00000047,-0.00000069,0.000000
 69,0.00000094,-0.00010652,0.00002730,-0.00000998,-0.00000232,0.0000028
 1,0.00000399,-0.00000140,0.,0.00000009,0.00000158,0.00000035,-0.000000
 62,-0.00000586,0.00000243,0.00000280,0.00072936,0.00052232,0.00063610,
 0.00070050,0.00053553,0.00043649,0.00019315,0.00012427,0.00009631,0.00
 021710,0.00013504,0.00017050,-0.00018732,0.00100290,0.00014955,-0.0003
 3291,0.00044072,-0.00074680,-0.14051117,0.18717266,-0.00082571,-0.0030
 0925,-0.00047253,-0.00000032,0.00000210,0.00000734,0.00037259,-0.00022
 190,-0.00035212,0.00003857,-0.00002630,-0.00009025,-0.00000124,-0.0000
 3214,0.00002069,-0.01295474,0.01258928,-0.00478787,0.00079018,-0.00010
 171,0.00071658,-0.01344643,0.00906966,-0.00317957,0.00034996,0.0045807
 3,-0.00151451,-0.02981166,0.03122048,-0.05542495,-0.00163815,0.0005418
 0,-0.00027112,-0.00003956,0.00004505,-0.00000122,-0.00010886,0.0001350
 4,0.00010871,-0.00024493,0.00033207,0.00012473,-0.00000578,0.00000382,
 -0.00000082,-0.00000915,-0.00000060,0.00000581,-0.00015908,0.00002636,
 -0.00001611,-0.00000749,0.00001261,0.00001000,0.00000059,-0.00000466,-
 0.00000289,0.00000019,0.00000180,-0.00000416,-0.00001979,0.00000488,0.
 00000659,0.00059860,-0.00023957,0.00051110,0.00059392,0.00050398,0.000
 46958,-0.00005717,-0.00002416,-0.00005747,0.00002812,-0.00005914,-0.00
 007225,-0.00010212,-0.00087333,0.00023276,0.00018642,-0.00016583,0.000
 39895,0.03665569,-0.03463268,0.05758543,0.00139771,-0.00053576,-0.0004
 9550,0.00000107,-0.00000331,0.00000198,-0.00002249,0.00000436,0.000104
 33,-0.00001087,0.00001129,-0.00001041,-0.00000504,-0.00000423,0.000005
 04,0.00844607,-0.00916327,-0.02384183,-0.00043762,-0.00026216,-0.00038
 960,-0.00756257,0.00557792,0.01351355,0.00166238,0.00003600,-0.0014227
 0,-0.07822029,0.03003292,0.07709308,-0.00018243,0.00005680,0.00025785,
 -0.00001796,0.00001189,-0.00001513,0.00000967,0.00002036,0.00002089,-0
 .00023918,0.00014473,0.00025565,0.00000197,0.00000051,0.00000079,0.000
 00071,0.00000050,-0.00000033,0.00002471,-0.00000867,-0.00000590,0.0000
 0074,-0.00000178,0.00000283,0.00000192,-0.00000187,0.00001152,0.000001
 64,0.00000007,0.00000010,-0.00000142,0.00000170,0.00000056,0.00109932,
 0.00034299,0.00086383,-0.00355064,-0.00173483,-0.00302822,0.00006997,0
 .00006175,0.00000282,-0.00018479,0.00007763,0.00012074,0.00001570,-0.0
 0287523,0.00157309,0.00017624,0.00048259,-0.00025613,-0.00764385,0.006
 22863,0.01981464,0.08516440,0.00073787,-0.00000808,0.00063129,-0.00000
 152,0.00000268,0.00000017,0.00016154,-0.00004910,-0.00000653,0.0000180
 8,-0.00001387,-0.00003502,-0.00000123,-0.00001098,0.00000843,0.0041945
 7,-0.00619319,-0.01305762,0.00000854,-0.00007268,0.00012531,-0.0106410
 6,0.00707269,0.02590171,-0.00037038,0.00233278,-0.00202505,0.03177559,
 -0.07721824,-0.07721896,-0.00032162,0.00007398,0.00016442,-0.00002502,
 0.00001774,-0.00000805,-0.00008253,0.00006653,0.00002091,-0.00018365,0
 .00041085,0.00010286,-0.00000309,0.00000067,-0.00000044,-0.00000323,-0
 .00000034,0.00000271,-0.00002865,-0.00000028,-0.00001202,-0.00000318,0
 .00000539,0.00000303,0.00000153,0.00000035,-0.00000726,-0.00000085,0.0
 0000052,-0.00000134,-0.00000812,0.00000170,0.00000190,0.00042072,0.000
 20339,0.00030523,-0.00280215,-0.00011645,-0.00146017,0.00004005,0.0000
 5310,-0.00005117,-0.00003110,-0.00007014,-0.00008359,-0.00173935,-0.00
 359971,0.00324639,0.00059905,0.00123022,-0.00078059,0.00678627,-0.0071
 3710,-0.01967767,-0.02850028,0.08301615,0.00120546,-0.00049563,-0.0001
 5554,0.00000003,-0.00000223,0.00000871,0.00010345,-0.00003787,-0.00004
 533,0.00000385,-0.00000387,-0.00004589,-0.00000159,-0.00001019,0.00000
 656,0.00492078,-0.00591449,-0.01514620,-0.00010041,0.00010680,-0.00005
 523,0.00752713,-0.00528176,-0.01635264,-0.00126527,-0.00064874,0.00162
 749,0.07620844,-0.07580264,-0.25021744,-0.00047466,0.00014562,0.000350
 57,-0.00001975,0.00001725,-0.00000805,-0.00005790,0.00006360,0.0000377
 7,-0.00046480,0.00044579,0.00001857,0.00000055,0.00000189,0.00000019,-
 0.00000376,-0.00000035,0.00000192,-0.00002558,0.00000056,-0.00001054,-
 0.00000174,0.00000299,0.00000504,-0.00000617,-0.00000074,0.00000427,0.
 00000064,0.00000049,-0.00000055,-0.00000607,0.00000192,0.00000196,-0.0
 0011969,0.00005752,0.00084702,-0.00277597,-0.00109394,-0.00064234,0.00
 000578,0.00006406,-0.00003833,0.00009952,-0.00011459,0.00006339,0.0013
 4990,0.00276554,-0.00061824,-0.00026332,0.00026652,0.00096868,-0.00165
 405,0.00155522,0.00605334,-0.08418592,0.08391384,0.27333898,-0.0003171
 1,-0.00005597,0.00029378,0.00078790,-0.00098769,-0.00031742,0.00750581
 ,-0.00092272,0.02008309,-0.00000481,-0.00039250,-0.00050848,-0.0151295
 5,0.00317029,-0.02761520,-0.00007658,-0.00009045,-0.00008183,-0.000033
 75,-0.00013108,0.00005085,-0.00003379,0.00001016,0.00001138,0.00007819
 ,0.00004893,0.00000756,-0.00000936,-0.00001688,-0.00000526,0.00262956,
 0.00093037,-0.00122717,-0.10118713,0.01203172,-0.10567907,0.00017257,0
 .00092891,-0.00143107,-0.00005591,-0.00026236,-0.00027541,0.00013147,-
 0.00006165,0.00005916,0.00003996,0.00016131,0.00015713,-0.00196861,-0.
 00248111,0.00230336,0.00011184,-0.00010028,0.00025198,0.00078687,-0.00
 073766,0.00000281,-0.00527999,0.00308931,0.00134905,0.00131237,-0.0008
 2348,0.00021962,0.00011798,0.00004612,-0.00003136,0.00004701,0.0000049
 6,-0.00001119,-0.00000033,0.00001341,-0.00000012,0.00002012,0.00001225
 ,-0.00002802,0.00000266,-0.00000465,-0.00000334,0.00000886,0.00000357,
 0.00000127,0.00001257,-0.00000059,0.00000702,0.00000305,0.00000489,0.0
 0000030,0.11213915,-0.00033583,0.00031609,0.00032728,-0.00019538,0.000
 52368,0.00046586,0.01069679,-0.00207862,0.01986484,-0.00002556,-0.0014
 7550,0.00025942,0.00614027,-0.00184865,0.01128851,-0.00005131,-0.00001
 531,-0.00018347,-0.00000012,-0.00014482,-0.00006399,-0.00003579,0.0000
 2283,0.00000147,0.00007083,0.00002259,0.00001855,-0.00002303,-0.000002
 25,-0.00001141,0.00111912,0.00059976,-0.00232270,0.01029111,-0.0520539
 0,0.02365858,-0.00020831,0.00097832,-0.00156231,-0.00024381,-0.0002485
 9,-0.00026045,-0.00022817,0.00011561,-0.00009838,0.00006698,0.00000835
 ,-0.00006373,-0.00202804,-0.00129911,0.00201860,-0.00004508,0.00018735
 ,-0.00008189,-0.00025957,-0.00234446,-0.00053644,0.00242315,-0.0002877
 2,-0.00011155,-0.00058800,0.00037742,-0.00035837,-0.00003906,-0.000009
 70,0.00002045,0.00004749,-0.00004639,0.00000204,-0.00000774,0.00000199
 ,0.00000942,0.00004218,0.00004374,-0.00003188,0.00000217,-0.00000469,-
 0.00000351,0.00000812,0.00000076,0.00000253,0.00000776,-0.00000287,0.0
 0000271,-0.00000170,0.00000331,-0.00000228,-0.01337985,0.05460241,0.00
 058414,0.00001657,-0.00020978,-0.00073859,0.00018766,0.00047447,-0.010
 49247,0.00104700,-0.02257128,-0.00082136,-0.00116926,-0.00127298,0.002
 50958,-0.00035405,0.00619184,0.00011383,0.00003519,0.00004075,-0.00000
 289,0.00012260,0.00014268,0.00000839,-0.00000600,-0.00001616,-0.000001
 83,-0.00000535,-0.00001341,0.00001070,-0.00002209,0.00004300,-0.000608
 79,-0.00087395,0.00287489,-0.10443141,0.02462114,-0.25146418,0.0005329
 9,0.00017369,0.00114749,0.00025409,0.00021960,0.00005711,0.00003839,0.
 00018160,-0.00004666,-0.00006989,0.00038007,-0.00017258,0.00257854,0.0
 0285423,-0.00103163,0.00023875,-0.00010502,0.00048522,0.00030523,-0.00
 148884,0.00101363,0.00140595,-0.00087863,0.00107606,-0.00071258,0.0003
 4295,0.00055339,0.00010339,-0.00002221,0.00000154,-0.00003203,0.000035
 75,-0.00000094,-0.00000527,-0.00002131,0.00000577,-0.00004191,-0.00006
 273,0.00001212,-0.00000055,0.00000232,0.00000343,-0.00000645,-0.000006
 04,0.00000274,-0.00000566,0.00000418,-0.00000037,0.00000676,-0.0000016
 9,0.00000007,0.11468005,-0.02659988,0.27425626,0.00011487,-0.00003197,
 -0.00007667,-0.00564383,0.00159265,-0.00024025,-0.00239837,-0.01537877
 ,-0.01032489,-0.00136851,0.00001618,0.00053467,0.00319962,0.02888329,0
 .01357235,-0.00000290,-0.00002361,0.00002727,0.00006768,0.00008973,0.0
 0009540,0.00002078,-0.00001321,-0.00000293,-0.00003540,0.00001877,-0.0
 0002299,-0.00000229,0.00001638,0.00000103,0.00058053,0.00044330,0.0001
 2695,-0.04800769,-0.01949445,-0.00946329,-0.00086785,-0.00434606,0.001
 93705,0.00013896,0.00008226,0.00009415,0.00001442,0.00137266,0.0005906
 1,-0.00000090,0.00064670,0.00034307,0.00062942,0.00061675,0.00000607,0
 .00019854,-0.00006193,0.00002289,0.00025306,-0.00021316,0.00017316,0.0
 0133931,-0.00061400,-0.00049366,0.00126659,-0.00092429,0.00005210,0.00
 002115,0.00000972,-0.00001870,-0.00002116,0.00001474,-0.00000317,0.000
 02733,0.00002599,-0.00001464,-0.00002812,-0.00002434,0.00002046,-0.000
 00159,0.00000194,0.00000229,-0.00000466,0.00000062,-0.00000267,-0.0000
 0831,0.00000007,-0.00000432,0.00000191,-0.00000166,0.00000079,-0.00181
 103,-0.01321963,-0.00539911,0.05232844,0.00011894,0.00024843,-0.000260
 16,0.00197333,0.00068024,0.00023819,0.00045636,-0.01806565,-0.01045222
 ,0.00006230,0.00100741,0.00156300,-0.00093650,-0.00976022,-0.00413935,
 -0.00004467,-0.00000310,0.00002581,0.00010917,-0.00002316,0.00008462,0
 .00000176,-0.00000991,-0.00000836,-0.00001121,0.00005181,-0.00001516,0
 .00000114,0.00001071,0.00000300,0.00028018,0.00114908,0.00072776,-0.02
 058878,-0.26942269,-0.10290214,-0.00237869,-0.00341641,0.00224012,0.00
 006538,0.00000008,0.00005559,-0.00001328,-0.00051210,-0.00030133,0.000
 11002,-0.00030138,-0.00011065,0.00034874,0.00093916,0.00013883,-0.0000
 2555,-0.00007759,-0.00009756,-0.00005455,0.00025803,-0.00011963,-0.000
 11558,0.00022484,0.00028328,0.00016260,0.00050943,-0.00003266,-0.00001
 454,-0.00001018,-0.00000145,-0.00001542,0.00000941,-0.00000459,0.00003
 276,0.00004822,-0.00002592,-0.00002232,0.00000336,-0.00000186,-0.00000
 010,0.00000137,0.00000190,-0.00000435,0.00000058,-0.00000148,-0.000005
 65,-0.00000096,-0.00000343,0.00000047,-0.00000192,-0.00000030,-0.00000
 730,0.00405838,0.00139252,0.02051534,0.29240473,-0.00001652,-0.0001571
 6,0.00002144,0.00071055,-0.00027585,0.00131990,0.00175792,0.01918481,0
 .00789152,0.00029923,-0.00043430,-0.00160253,-0.00107819,-0.00251579,-
 0.00234849,0.00000673,-0.00005558,0.00002851,-0.00006060,0.00009968,-0
 .00002366,0.00002237,-0.00001006,0.00000282,-0.00004442,-0.00004768,-0
 .00000598,0.00000152,0.00001714,0.00000485,-0.00114337,-0.00013727,-0.
 00023350,-0.00975543,-0.10674078,-0.09679948,0.00328184,0.00545300,-0.
 00140394,0.00001784,0.00006149,0.00005759,0.00003823,-0.00036642,-0.00
 017475,-0.00001333,0.00007427,-0.00010594,-0.00071873,-0.00021021,0.00
 105711,0.00003812,-0.00015516,0.00032094,0.00028805,-0.00008524,0.0004
 4211,0.00027038,0.00028549,0.00047139,-0.00007263,-0.00000880,-0.00013
 322,0.00001760,-0.00000046,-0.00000868,-0.00001072,0.00001363,0.000002
 88,-0.00002140,-0.00003514,0.00001378,-0.00000779,-0.00002830,0.000019
 49,-0.00000117,0.00000242,0.00000233,-0.00000259,-0.00000129,-0.000000
 30,-0.00000856,-0.00000099,-0.00000342,0.00000160,-0.00000103,0.000001
 77,-0.00226348,-0.02564804,-0.01158249,0.00846695,0.11172361,0.1027679
 4\\0.00068548,0.00209335,-0.00214928,-0.00000064,-0.00000129,0.0000004
 6,0.00056355,0.00205018,-0.00494241,-0.00000083,0.00000380,0.00000086,
 0.00000151,0.00000151,0.00000193,-0.00000391,0.00000262,-0.00000239,0.
 00000294,0.00000160,-0.00000366,0.00000132,0.00000215,-0.00000356,0.00
 000303,-0.00000282,-0.00000124,-0.00000394,0.00000393,0.00000212,-0.00
 107701,-0.00337738,0.00423850,-0.00000108,-0.00000171,0.00000423,-0.00
 017643,-0.00077682,0.00285347,0.00000051,0.00000174,0.00000142,0.00000
 054,-0.00000024,-0.00000027,0.00000070,0.00000140,0.00000009,-0.000000
 15,-0.00000247,0.00000197,0.00000067,0.00000031,-0.00000106,0.00000014
 ,0.00000070,-0.00000243,-0.00000035,-0.00000251,0.00000177,0.00000110,
 0.00000019,0.00000272,0.00000086,0.00000092,0.00000114,-0.00000046,-0.
 00000131,0.00000067,0.00000020,-0.00000379,-0.00000157,0.00000044,-0.0
 0000045,-0.00000018,-0.00000064,0.00000037,-0.00000206,0.,0.00000102,-
 0.00000314,0.00000080,0.00000352,-0.00000166,0.00000071,0.00000138,-0.
 00000029,0.00000053,0.00000034,0.00000124,0.00000042,-0.00000024,0.000
 00259\\\@


 If your ship doesn't come in, swim out to it!
                          -- Jonathan Winters
 Job cpu time:       0 days 13 hours 46 minutes 49.3 seconds.
 Elapsed time:       0 days  0 hours 51 minutes 42.7 seconds.
 File lengths (MBytes):  RWF=    687 Int=      0 D2E=      0 Chk=     33 Scr=      1
 Normal termination of Gaussian 16 at Mon Nov  5 01:20:36 2018.
