 Entering Gaussian System, Link 0=g16
 Initial command:
 /apps/gaussian/g16a03/g16/l1.exe "/jobfs/local/2011841.r-man2/Gau-4716.inp" -scrdir="/jobfs/local/2011841.r-man2/"
 Entering Link 1 = /apps/gaussian/g16a03/g16/l1.exe PID=      4717.
  
 Copyright (c) 1988,1990,1992,1993,1995,1998,2003,2009,2016,
            Gaussian, Inc.  All Rights Reserved.
  
 This is part of the Gaussian(R) 16 program.  It is based on
 the Gaussian(R) 09 system (copyright 2009, Gaussian, Inc.),
 the Gaussian(R) 03 system (copyright 2003, Gaussian, Inc.),
 the Gaussian(R) 98 system (copyright 1998, Gaussian, Inc.),
 the Gaussian(R) 94 system (copyright 1995, Gaussian, Inc.),
 the Gaussian 92(TM) system (copyright 1992, Gaussian, Inc.),
 the Gaussian 90(TM) system (copyright 1990, Gaussian, Inc.),
 the Gaussian 88(TM) system (copyright 1988, Gaussian, Inc.),
 the Gaussian 86(TM) system (copyright 1986, Carnegie Mellon
 University), and the Gaussian 82(TM) system (copyright 1983,
 Carnegie Mellon University). Gaussian is a federally registered
 trademark of Gaussian, Inc.
  
 This software contains proprietary and confidential information,
 including trade secrets, belonging to Gaussian, Inc.
  
 This software is provided under written license and may be
 used, copied, transmitted, or stored only in accord with that
 written license.
  
 The following legend is applicable only to US Government
 contracts under FAR:
  
                    RESTRICTED RIGHTS LEGEND
  
 Use, reproduction and disclosure by the US Government is
 subject to restrictions as set forth in subparagraphs (a)
 and (c) of the Commercial Computer Software - Restricted
 Rights clause in FAR 52.227-19.
  
 Gaussian, Inc.
 340 Quinnipiac St., Bldg. 40, Wallingford CT 06492
  
  
 ---------------------------------------------------------------
 Warning -- This program may not be used in any manner that
 competes with the business of Gaussian, Inc. or will provide
 assistance to any competitor of Gaussian, Inc.  The licensee
 of this program is prohibited from giving any competitor of
 Gaussian, Inc. access to this program.  By using this program,
 the user acknowledges that Gaussian, Inc. is engaged in the
 business of creating and licensing software in the field of
 computational chemistry and represents and warrants to the
 licensee that it is not a competitor of Gaussian, Inc. and that
 it will not use this program in any manner prohibited above.
 ---------------------------------------------------------------
  

 Cite this work as:
 Gaussian 16, Revision A.03,
 M. J. Frisch, G. W. Trucks, H. B. Schlegel, G. E. Scuseria, 
 M. A. Robb, J. R. Cheeseman, G. Scalmani, V. Barone, 
 G. A. Petersson, H. Nakatsuji, X. Li, M. Caricato, A. V. Marenich, 
 J. Bloino, B. G. Janesko, R. Gomperts, B. Mennucci, H. P. Hratchian, 
 J. V. Ortiz, A. F. Izmaylov, J. L. Sonnenberg, D. Williams-Young, 
 F. Ding, F. Lipparini, F. Egidi, J. Goings, B. Peng, A. Petrone, 
 T. Henderson, D. Ranasinghe, V. G. Zakrzewski, J. Gao, N. Rega, 
 G. Zheng, W. Liang, M. Hada, M. Ehara, K. Toyota, R. Fukuda, 
 J. Hasegawa, M. Ishida, T. Nakajima, Y. Honda, O. Kitao, H. Nakai, 
 T. Vreven, K. Throssell, J. A. Montgomery, Jr., J. E. Peralta, 
 F. Ogliaro, M. J. Bearpark, J. J. Heyd, E. N. Brothers, K. N. Kudin, 
 V. N. Staroverov, T. A. Keith, R. Kobayashi, J. Normand, 
 K. Raghavachari, A. P. Rendell, J. C. Burant, S. S. Iyengar, 
 J. Tomasi, M. Cossi, J. M. Millam, M. Klene, C. Adamo, R. Cammi, 
 J. W. Ochterski, R. L. Martin, K. Morokuma, O. Farkas, 
 J. B. Foresman, and D. J. Fox, Gaussian, Inc., Wallingford CT, 2016.
 
 ******************************************
 Gaussian 16:  ES64L-G16RevA.03 25-Dec-2016
                 4-Nov-2018 
 ******************************************
 %mem=6000mb
 %nproc=24
 Will use up to   24 processors via shared memory.
 %chk=2SO_1_e4_D_PHI.inp_extract_6.chk
 ----------------------------------------------------------------------
 #M062X/6-311++G(2d,2p) opt=ModRedundant freq=noraman SCRF=(Solvent=Wat
 er)
 ----------------------------------------------------------------------
 1/18=120,19=15,26=3,38=1/1,3;
 2/9=110,12=2,17=6,18=5,40=1/2;
 3/5=4,6=6,7=1212,11=2,25=1,30=1,70=2201,71=1,72=1,74=-55/1,2,3;
 4//1;
 5/5=2,38=5,53=1/2;
 6/7=2,8=2,9=2,10=2,28=1/1;
 7//1,2,3,16;
 1/18=20,19=15,26=3/3(2);
 2/9=110/2;
 99//99;
 2/9=110/2;
 3/5=4,6=6,7=1212,11=2,25=1,30=1,70=2205,71=1,72=1,74=-55/1,2,3;
 4/5=5,16=3,69=1/1;
 5/5=2,38=5,53=1/2;
 7//1,2,3,16;
 1/18=20,19=15,26=3/3(-5);
 2/9=110/2;
 6/7=2,8=2,9=2,10=2,19=2,28=1/1;
 99/9=1/99;
 ----------------------------
 2SO_1_e4_D_PHI.inp_extract_6
 ----------------------------
 Symbolic Z-matrix:
 Charge =  0 Multiplicity = 1
 C                     0.98619  -0.2377   -0.06462 
 C                    -3.53342   0.76783   0.76727 
 C                    -1.35317  -0.34971  -0.87071 
 C                    -2.07473   1.21126   0.81139 
 C                    -3.67369  -0.57111   0.01274 
 C                     1.92875  -1.3134    0.45941 
 C                     1.75054   0.72975  -0.96309 
 C                     3.79073   0.3388    0.16378 
 O                     2.84269   1.2968   -0.27073 
 C                     3.15334  -0.66575   1.11022 
 O                    -0.03967  -0.86998  -0.80637 
 C                    -2.31492  -1.25832  -0.11894 
 O                    -1.43315   0.9765   -0.43549 
 H                     0.56977   0.30787   0.77028 
 H                    -4.13426   1.5327    0.28627 
 H                    -3.88999   0.67792   1.78905 
 H                    -1.60333  -0.33557  -1.92217 
 H                    -1.98695   2.27364   0.98792 
 H                    -1.53767   0.69778   1.59942 
 H                    -4.07284  -0.393    -0.98189 
 H                    -4.37581  -1.22602   0.51666 
 H                     1.4059   -1.94931   1.16694 
 H                     2.24349  -1.93912  -0.37281 
 H                     1.12276   1.54908  -1.28153 
 H                     2.10815   0.20237  -1.84504 
 H                     4.20787  -0.16528  -0.70522 
 H                     4.58242   0.89267   0.64955 
 H                     3.88527  -1.42191   1.37831 
 H                     2.86201  -0.15632   2.02539 
 H                    -1.90625  -1.4921    0.85957 
 H                    -2.39727  -2.19176  -0.66479 
 
 The following ModRedundant input section has been read:
 D      13       3      11       1 F                                           
 

 GradGradGradGradGradGradGradGradGradGradGradGradGradGradGradGradGradGrad
 Berny optimization.
 Initialization pass.
                           ----------------------------
                           !    Initial Parameters    !
                           ! (Angstroms and Degrees)  !
 --------------------------                            --------------------------
 ! Name  Definition              Value          Derivative Info.                !
 --------------------------------------------------------------------------------
 ! R1    R(1,6)                  1.5232         estimate D2E/DX2                !
 ! R2    R(1,7)                  1.5256         estimate D2E/DX2                !
 ! R3    R(1,11)                 1.4151         estimate D2E/DX2                !
 ! R4    R(1,14)                 1.0808         estimate D2E/DX2                !
 ! R5    R(2,4)                  1.5252         estimate D2E/DX2                !
 ! R6    R(2,5)                  1.5433         estimate D2E/DX2                !
 ! R7    R(2,15)                 1.0851         estimate D2E/DX2                !
 ! R8    R(2,16)                 1.0859         estimate D2E/DX2                !
 ! R9    R(3,11)                 1.4142         estimate D2E/DX2                !
 ! R10   R(3,12)                 1.5217         estimate D2E/DX2                !
 ! R11   R(3,13)                 1.3981         estimate D2E/DX2                !
 ! R12   R(3,17)                 1.0809         estimate D2E/DX2                !
 ! R13   R(4,13)                 1.4218         estimate D2E/DX2                !
 ! R14   R(4,18)                 1.0805         estimate D2E/DX2                !
 ! R15   R(4,19)                 1.0831         estimate D2E/DX2                !
 ! R16   R(5,12)                 1.5284         estimate D2E/DX2                !
 ! R17   R(5,20)                 1.0864         estimate D2E/DX2                !
 ! R18   R(5,21)                 1.0844         estimate D2E/DX2                !
 ! R19   R(6,10)                 1.5306         estimate D2E/DX2                !
 ! R20   R(6,22)                 1.0855         estimate D2E/DX2                !
 ! R21   R(6,23)                 1.0877         estimate D2E/DX2                !
 ! R22   R(7,9)                  1.412          estimate D2E/DX2                !
 ! R23   R(7,24)                 1.0802         estimate D2E/DX2                !
 ! R24   R(7,25)                 1.088          estimate D2E/DX2                !
 ! R25   R(8,9)                  1.4161         estimate D2E/DX2                !
 ! R26   R(8,10)                 1.5202         estimate D2E/DX2                !
 ! R27   R(8,26)                 1.0878         estimate D2E/DX2                !
 ! R28   R(8,27)                 1.0814         estimate D2E/DX2                !
 ! R29   R(10,28)                1.086          estimate D2E/DX2                !
 ! R30   R(10,29)                1.0872         estimate D2E/DX2                !
 ! R31   R(12,30)                1.0859         estimate D2E/DX2                !
 ! R32   R(12,31)                1.0845         estimate D2E/DX2                !
 ! A1    A(6,1,7)              109.9027         estimate D2E/DX2                !
 ! A2    A(6,1,11)             108.2634         estimate D2E/DX2                !
 ! A3    A(6,1,14)             109.2174         estimate D2E/DX2                !
 ! A4    A(7,1,11)             109.7463         estimate D2E/DX2                !
 ! A5    A(7,1,14)             109.14           estimate D2E/DX2                !
 ! A6    A(11,1,14)            110.5579         estimate D2E/DX2                !
 ! A7    A(4,2,5)              110.6894         estimate D2E/DX2                !
 ! A8    A(4,2,15)             109.7222         estimate D2E/DX2                !
 ! A9    A(4,2,16)             108.1123         estimate D2E/DX2                !
 ! A10   A(5,2,15)             110.1514         estimate D2E/DX2                !
 ! A11   A(5,2,16)             110.999          estimate D2E/DX2                !
 ! A12   A(15,2,16)            107.0757         estimate D2E/DX2                !
 ! A13   A(11,3,12)            110.173          estimate D2E/DX2                !
 ! A14   A(11,3,13)            112.826          estimate D2E/DX2                !
 ! A15   A(11,3,17)            105.3086         estimate D2E/DX2                !
 ! A16   A(12,3,13)            112.1137         estimate D2E/DX2                !
 ! A17   A(12,3,17)            110.0054         estimate D2E/DX2                !
 ! A18   A(13,3,17)            106.091          estimate D2E/DX2                !
 ! A19   A(2,4,13)             110.989          estimate D2E/DX2                !
 ! A20   A(2,4,18)             111.6087         estimate D2E/DX2                !
 ! A21   A(2,4,19)             110.943          estimate D2E/DX2                !
 ! A22   A(13,4,18)            105.6023         estimate D2E/DX2                !
 ! A23   A(13,4,19)            109.6356         estimate D2E/DX2                !
 ! A24   A(18,4,19)            107.8779         estimate D2E/DX2                !
 ! A25   A(2,5,12)             110.574          estimate D2E/DX2                !
 ! A26   A(2,5,20)             109.8018         estimate D2E/DX2                !
 ! A27   A(2,5,21)             110.8324         estimate D2E/DX2                !
 ! A28   A(12,5,20)            108.7518         estimate D2E/DX2                !
 ! A29   A(12,5,21)            110.1284         estimate D2E/DX2                !
 ! A30   A(20,5,21)            106.6531         estimate D2E/DX2                !
 ! A31   A(1,6,10)             110.0322         estimate D2E/DX2                !
 ! A32   A(1,6,22)             109.8701         estimate D2E/DX2                !
 ! A33   A(1,6,23)             108.789          estimate D2E/DX2                !
 ! A34   A(10,6,22)            110.8612         estimate D2E/DX2                !
 ! A35   A(10,6,23)            109.7084         estimate D2E/DX2                !
 ! A36   A(22,6,23)            107.5214         estimate D2E/DX2                !
 ! A37   A(1,7,9)              110.6964         estimate D2E/DX2                !
 ! A38   A(1,7,24)             111.3121         estimate D2E/DX2                !
 ! A39   A(1,7,25)             109.553          estimate D2E/DX2                !
 ! A40   A(9,7,24)             106.826          estimate D2E/DX2                !
 ! A41   A(9,7,25)             109.7485         estimate D2E/DX2                !
 ! A42   A(24,7,25)            108.6452         estimate D2E/DX2                !
 ! A43   A(9,8,10)             110.938          estimate D2E/DX2                !
 ! A44   A(9,8,26)             108.9715         estimate D2E/DX2                !
 ! A45   A(9,8,27)             106.3466         estimate D2E/DX2                !
 ! A46   A(10,8,26)            110.6048         estimate D2E/DX2                !
 ! A47   A(10,8,27)            111.4516         estimate D2E/DX2                !
 ! A48   A(26,8,27)            108.3878         estimate D2E/DX2                !
 ! A49   A(7,9,8)              113.3658         estimate D2E/DX2                !
 ! A50   A(6,10,8)             110.5082         estimate D2E/DX2                !
 ! A51   A(6,10,28)            110.4617         estimate D2E/DX2                !
 ! A52   A(6,10,29)            109.9876         estimate D2E/DX2                !
 ! A53   A(8,10,28)            109.342          estimate D2E/DX2                !
 ! A54   A(8,10,29)            109.0735         estimate D2E/DX2                !
 ! A55   A(28,10,29)           107.4018         estimate D2E/DX2                !
 ! A56   A(1,11,3)             122.194          estimate D2E/DX2                !
 ! A57   A(3,12,5)             109.6315         estimate D2E/DX2                !
 ! A58   A(3,12,30)            109.6251         estimate D2E/DX2                !
 ! A59   A(3,12,31)            108.2561         estimate D2E/DX2                !
 ! A60   A(5,12,30)            110.7174         estimate D2E/DX2                !
 ! A61   A(5,12,31)            111.2771         estimate D2E/DX2                !
 ! A62   A(30,12,31)           107.2681         estimate D2E/DX2                !
 ! A63   A(3,13,4)             117.0935         estimate D2E/DX2                !
 ! D1    D(7,1,6,10)            52.6954         estimate D2E/DX2                !
 ! D2    D(7,1,6,22)           175.0258         estimate D2E/DX2                !
 ! D3    D(7,1,6,23)           -67.5165         estimate D2E/DX2                !
 ! D4    D(11,1,6,10)          172.5537         estimate D2E/DX2                !
 ! D5    D(11,1,6,22)          -65.1159         estimate D2E/DX2                !
 ! D6    D(11,1,6,23)           52.3418         estimate D2E/DX2                !
 ! D7    D(14,1,6,10)          -67.0063         estimate D2E/DX2                !
 ! D8    D(14,1,6,22)           55.3241         estimate D2E/DX2                !
 ! D9    D(14,1,6,23)          172.7819         estimate D2E/DX2                !
 ! D10   D(6,1,7,9)            -56.614          estimate D2E/DX2                !
 ! D11   D(6,1,7,24)          -175.2693         estimate D2E/DX2                !
 ! D12   D(6,1,7,25)            64.5497         estimate D2E/DX2                !
 ! D13   D(11,1,7,9)          -175.5661         estimate D2E/DX2                !
 ! D14   D(11,1,7,24)           65.7787         estimate D2E/DX2                !
 ! D15   D(11,1,7,25)          -54.4024         estimate D2E/DX2                !
 ! D16   D(14,1,7,9)            63.1348         estimate D2E/DX2                !
 ! D17   D(14,1,7,24)          -55.5204         estimate D2E/DX2                !
 ! D18   D(14,1,7,25)         -175.7015         estimate D2E/DX2                !
 ! D19   D(6,1,11,3)           148.228          estimate D2E/DX2                !
 ! D20   D(7,1,11,3)           -91.8157         estimate D2E/DX2                !
 ! D21   D(14,1,11,3)           28.6271         estimate D2E/DX2                !
 ! D22   D(5,2,4,13)            41.1634         estimate D2E/DX2                !
 ! D23   D(5,2,4,18)           158.6675         estimate D2E/DX2                !
 ! D24   D(5,2,4,19)           -80.9913         estimate D2E/DX2                !
 ! D25   D(15,2,4,13)          -80.6116         estimate D2E/DX2                !
 ! D26   D(15,2,4,18)           36.8926         estimate D2E/DX2                !
 ! D27   D(15,2,4,19)          157.2338         estimate D2E/DX2                !
 ! D28   D(16,2,4,13)          162.9361         estimate D2E/DX2                !
 ! D29   D(16,2,4,18)          -79.5598         estimate D2E/DX2                !
 ! D30   D(16,2,4,19)           40.7815         estimate D2E/DX2                !
 ! D31   D(4,2,5,12)            16.1699         estimate D2E/DX2                !
 ! D32   D(4,2,5,20)          -103.8367         estimate D2E/DX2                !
 ! D33   D(4,2,5,21)           138.589          estimate D2E/DX2                !
 ! D34   D(15,2,5,12)          137.6923         estimate D2E/DX2                !
 ! D35   D(15,2,5,20)           17.6856         estimate D2E/DX2                !
 ! D36   D(15,2,5,21)          -99.8886         estimate D2E/DX2                !
 ! D37   D(16,2,5,12)         -103.8905         estimate D2E/DX2                !
 ! D38   D(16,2,5,20)          136.1029         estimate D2E/DX2                !
 ! D39   D(16,2,5,21)           18.5287         estimate D2E/DX2                !
 ! D40   D(12,3,11,1)         -110.816          estimate D2E/DX2                !
 ! D41   D(13,3,11,1)           15.3238         Frozen                          !
 ! D42   D(17,3,11,1)          130.6003         estimate D2E/DX2                !
 ! D43   D(11,3,12,5)          170.2568         estimate D2E/DX2                !
 ! D44   D(11,3,12,30)          48.5248         estimate D2E/DX2                !
 ! D45   D(11,3,12,31)         -68.1854         estimate D2E/DX2                !
 ! D46   D(13,3,12,5)           43.7165         estimate D2E/DX2                !
 ! D47   D(13,3,12,30)         -78.0155         estimate D2E/DX2                !
 ! D48   D(13,3,12,31)         165.2744         estimate D2E/DX2                !
 ! D49   D(17,3,12,5)          -74.0791         estimate D2E/DX2                !
 ! D50   D(17,3,12,30)         164.1889         estimate D2E/DX2                !
 ! D51   D(17,3,12,31)          47.4787         estimate D2E/DX2                !
 ! D52   D(11,3,13,4)         -108.7142         estimate D2E/DX2                !
 ! D53   D(12,3,13,4)           16.3778         estimate D2E/DX2                !
 ! D54   D(17,3,13,4)          136.48           estimate D2E/DX2                !
 ! D55   D(2,4,13,3)           -61.7663         estimate D2E/DX2                !
 ! D56   D(18,4,13,3)          177.1252         estimate D2E/DX2                !
 ! D57   D(19,4,13,3)           61.1461         estimate D2E/DX2                !
 ! D58   D(2,5,12,3)           -59.1638         estimate D2E/DX2                !
 ! D59   D(2,5,12,30)           61.9109         estimate D2E/DX2                !
 ! D60   D(2,5,12,31)         -178.8887         estimate D2E/DX2                !
 ! D61   D(20,5,12,3)           61.4707         estimate D2E/DX2                !
 ! D62   D(20,5,12,30)        -177.4546         estimate D2E/DX2                !
 ! D63   D(20,5,12,31)         -58.2542         estimate D2E/DX2                !
 ! D64   D(21,5,12,3)          178.0064         estimate D2E/DX2                !
 ! D65   D(21,5,12,30)         -60.9189         estimate D2E/DX2                !
 ! D66   D(21,5,12,31)          58.2815         estimate D2E/DX2                !
 ! D67   D(1,6,10,8)           -52.0299         estimate D2E/DX2                !
 ! D68   D(1,6,10,28)         -173.1609         estimate D2E/DX2                !
 ! D69   D(1,6,10,29)           68.4547         estimate D2E/DX2                !
 ! D70   D(22,6,10,8)         -173.7724         estimate D2E/DX2                !
 ! D71   D(22,6,10,28)          65.0966         estimate D2E/DX2                !
 ! D72   D(22,6,10,29)         -53.2878         estimate D2E/DX2                !
 ! D73   D(23,6,10,8)           67.6244         estimate D2E/DX2                !
 ! D74   D(23,6,10,28)         -53.5066         estimate D2E/DX2                !
 ! D75   D(23,6,10,29)        -171.891          estimate D2E/DX2                !
 ! D76   D(1,7,9,8)             61.1427         estimate D2E/DX2                !
 ! D77   D(24,7,9,8)          -177.5151         estimate D2E/DX2                !
 ! D78   D(25,7,9,8)           -59.9053         estimate D2E/DX2                !
 ! D79   D(10,8,9,7)           -60.1973         estimate D2E/DX2                !
 ! D80   D(26,8,9,7)            61.8067         estimate D2E/DX2                !
 ! D81   D(27,8,9,7)           178.4509         estimate D2E/DX2                !
 ! D82   D(9,8,10,6)            54.736          estimate D2E/DX2                !
 ! D83   D(9,8,10,28)          176.5295         estimate D2E/DX2                !
 ! D84   D(9,8,10,29)          -66.2934         estimate D2E/DX2                !
 ! D85   D(26,8,10,6)          -66.3099         estimate D2E/DX2                !
 ! D86   D(26,8,10,28)          55.4836         estimate D2E/DX2                !
 ! D87   D(26,8,10,29)         172.6607         estimate D2E/DX2                !
 ! D88   D(27,8,10,6)          173.0382         estimate D2E/DX2                !
 ! D89   D(27,8,10,28)         -65.1683         estimate D2E/DX2                !
 ! D90   D(27,8,10,29)          52.0088         estimate D2E/DX2                !
 --------------------------------------------------------------------------------
 Trust Radius=3.00D-01 FncErr=1.00D-07 GrdErr=1.00D-06 EigMax=2.50D+02 EigMin=1.00D-04
 Number of steps in this run=    186 maximum allowed number of steps=    186.
 GradGradGradGradGradGradGradGradGradGradGradGradGradGradGradGradGradGrad

                          Input orientation:                          
 ---------------------------------------------------------------------
 Center     Atomic      Atomic             Coordinates (Angstroms)
 Number     Number       Type             X           Y           Z
 ---------------------------------------------------------------------
      1          6           0        0.986194   -0.237697   -0.064615
      2          6           0       -3.533418    0.767826    0.767270
      3          6           0       -1.353168   -0.349712   -0.870706
      4          6           0       -2.074726    1.211256    0.811394
      5          6           0       -3.673691   -0.571105    0.012738
      6          6           0        1.928750   -1.313403    0.459405
      7          6           0        1.750536    0.729748   -0.963092
      8          6           0        3.790731    0.338795    0.163782
      9          8           0        2.842687    1.296799   -0.270731
     10          6           0        3.153340   -0.665754    1.110219
     11          8           0       -0.039671   -0.869981   -0.806369
     12          6           0       -2.314917   -1.258318   -0.118935
     13          8           0       -1.433147    0.976500   -0.435485
     14          1           0        0.569769    0.307872    0.770280
     15          1           0       -4.134259    1.532696    0.286271
     16          1           0       -3.889992    0.677917    1.789048
     17          1           0       -1.603330   -0.335565   -1.922166
     18          1           0       -1.986948    2.273639    0.987919
     19          1           0       -1.537672    0.697775    1.599415
     20          1           0       -4.072842   -0.393001   -0.981893
     21          1           0       -4.375813   -1.226019    0.516663
     22          1           0        1.405899   -1.949313    1.166936
     23          1           0        2.243485   -1.939118   -0.372812
     24          1           0        1.122762    1.549080   -1.281534
     25          1           0        2.108150    0.202370   -1.845037
     26          1           0        4.207872   -0.165283   -0.705220
     27          1           0        4.582423    0.892667    0.649554
     28          1           0        3.885265   -1.421910    1.378311
     29          1           0        2.862006   -0.156317    2.025391
     30          1           0       -1.906248   -1.492099    0.859572
     31          1           0       -2.397268   -2.191755   -0.664792
 ---------------------------------------------------------------------
                    Distance matrix (angstroms):
                    1          2          3          4          5
     1  C    0.000000
     2  C    4.704254   0.000000
     3  C    2.476882   2.947091   0.000000
     4  C    3.498012   1.525241   2.405562   0.000000
     5  C    4.672438   1.543286   2.492853   2.524154   0.000000
     6  C    1.523205   5.853339   3.669997   4.746116   5.669027
     7  C    1.525592   5.560195   3.287362   4.244205   5.662747
     8  C    2.872270   7.361482   5.291872   5.965247   7.521192
     9  O    2.417380   6.481664   4.547105   5.035798   6.784733
    10  C    2.501997   6.847299   4.932805   5.562835   6.915329
    11  O    1.415055   4.167136   1.414247   3.330188   3.737160
    12  C    3.455713   2.524948   1.521738   2.649906   1.528354
    13  O    2.732221   2.429260   1.398089   1.421774   2.759714
    14  H    1.080789   4.128887   2.612076   2.794843   4.399253
    15  H    5.429222   1.085079   3.551974   2.149594   2.170926
    16  H    5.296377   1.085937   3.816515   2.129659   2.182228
    17  H    3.188371   3.489381   1.080902   3.176038   2.843541
    18  H    4.031651   2.169730   3.276909   1.080520   3.447992
    19  H    3.164491   2.163417   2.689381   1.083082   2.947911
    20  H    5.143867   2.167503   2.722290   3.127617   1.086431
    21  H    5.483227   2.178956   3.439344   3.364844   1.084356
    22  H    2.150000   5.651498   3.784595   4.714908   5.388308
    23  H    2.137896   6.480736   3.963587   5.474865   6.085481
    24  H    2.166129   5.146646   3.147129   3.836457   5.401508
    25  H    2.149964   6.242690   3.637972   5.056771   6.122032
    26  H    3.285548   7.935143   5.566558   6.608027   7.924594
    27  H    3.836746   8.117655   6.251875   6.666733   8.409018
    28  H    3.448044   7.759199   5.800764   6.540371   7.728291
    29  H    2.809523   6.583187   5.117858   5.264539   6.851143
    30  H    3.285402   2.786299   2.145882   2.709028   2.165459
    31  H    3.953020   3.478614   2.127362   3.723391   2.171361
                    6          7          8          9         10
     6  C    0.000000
     7  C    2.495941   0.000000
     8  C    2.506816   2.363278   0.000000
     9  O    2.860338   1.411986   1.416108   0.000000
    10  C    1.530565   2.865991   1.520240   2.419740   0.000000
    11  O    2.381909   2.405938   4.132107   3.645522   3.729656
    12  C    4.283249   4.603576   6.317407   5.757825   5.635937
    13  O    4.164953   3.236525   5.296668   4.290978   5.110975
    14  H    2.138225   2.139338   3.277711   2.688464   2.781788
    15  H    6.700025   6.069304   8.015352   7.003119   7.656446
    16  H    6.292143   6.276346   7.858117   7.067862   7.202415
    17  H    4.370771   3.647346   5.822528   5.015867   5.650690
    18  H    5.336561   4.489859   6.148528   5.085646   5.922630
    19  H    4.166598   4.168906   5.530080   4.800398   4.909594
    20  H    6.240480   5.930653   7.980218   7.154419   7.527884
    21  H    6.305429   6.599004   8.322596   7.687089   7.573266
    22  H    1.085521   3.439936   3.453864   3.829946   2.168938
    23  H    1.087733   2.777458   2.805493   3.292510   2.156078
    24  H    3.445910   1.080190   3.266770   2.010848   3.840471
    25  H    2.764092   1.088045   2.623937   2.053231   3.252630
    26  H    2.805161   2.627942   1.087780   2.046996   2.158316
    27  H    3.456137   3.262936   1.081446   2.009211   2.164062
    28  H    2.164281   3.829996   2.141051   3.346295   1.085983
    29  H    2.159196   3.309306   2.138517   2.717369   1.087171
    30  H    3.859958   4.650890   6.024273   5.622092   5.132748
    31  H    4.555190   5.082169   6.736583   6.307331   6.024001
                   11         12         13         14         15
    11  O    0.000000
    12  C    2.408343   0.000000
    13  O    2.342824   2.423249   0.000000
    14  H    2.060237   3.400745   2.431585   0.000000
    15  H    4.871588   3.356182   2.850665   4.884909   0.000000
    16  H    4.894604   3.141698   3.327730   4.589585   1.746039
    17  H    1.993899   2.146968   1.990150   3.519323   3.843591
    18  H    4.110195   3.715832   2.003832   3.232400   2.377446
    19  H    3.238775   2.717193   2.056558   2.297998   3.027161
    20  H    4.065069   2.140974   3.023588   5.011504   2.306582
    21  H    4.547450   2.156924   3.796967   5.184200   2.778837
    22  H    2.673680   3.996925   4.380447   2.439536   6.602523
    23  H    2.558090   4.615947   4.692801   3.026045   7.291331
    24  H    2.725599   4.588110   2.752511   2.460963   5.485850
    25  H    2.615703   4.967551   3.889331   3.036055   6.729035
    26  H    4.306791   6.639671   5.761729   3.954336   8.570726
    27  H    5.156587   7.265715   6.113217   4.056840   8.747694
    28  H    4.525768   6.380499   6.109643   3.788715   8.615974
    29  H    4.116784   5.710786   5.078142   2.654266   7.404392
    30  H    2.578081   1.085882   2.827539   3.062438   3.800275
    31  H    2.706547   1.084457   3.319631   4.136529   4.218198
                   16         17         18         19         20
    16  H    0.000000
    17  H    4.475386   0.000000
    18  H    2.609543   3.927302   0.000000
    19  H    2.360035   3.670645   1.749035   0.000000
    20  H    2.976309   2.643086   3.916897   3.778893   0.000000
    21  H    2.340931   3.798349   4.263375   3.595606   1.741086
    22  H    5.944394   4.604584   5.420035   3.982301   6.087378
    23  H    7.010139   4.446332   6.123355   5.013984   6.531267
    24  H    5.942651   3.375481   3.917359   4.012792   5.554797
    25  H    7.029255   3.751054   5.393109   5.040009   6.269302
    26  H    8.515149   5.939699   6.869560   6.250399   8.288464
    27  H    8.551396   6.810715   6.721474   6.196433   8.901021
    28  H    8.064279   6.495996   6.949271   5.826680   8.364250
    29  H    6.807443   5.962765   5.522082   4.502010   7.562532
    30  H    3.083526   3.027771   3.768789   2.340676   3.048465
    31  H    4.060120   2.378396   4.779075   3.770268   2.478632
                   21         22         23         24         25
    21  H    0.000000
    22  H    5.862952   0.000000
    23  H    6.716754   1.752849   0.000000
    24  H    6.416308   4.279477   3.774827   0.000000
    25  H    7.046964   3.767609   2.602255   1.761293   0.000000
    26  H    8.734862   3.812976   2.667546   3.576183   2.417268
    27  H    9.206328   4.293581   3.812462   4.016122   3.580715
    28  H    8.308202   2.543637   2.455479   4.851080   4.023232
    29  H    7.470378   2.464148   3.051610   4.107201   3.959440
    30  H    2.507416   3.357653   4.351882   4.796666   5.128501
    31  H    2.498624   4.228248   4.656787   5.173474   5.236755
                   26         27         28         29         30
    26  H    0.000000
    27  H    1.759250   0.000000
    28  H    2.454443   2.524754   0.000000
    29  H    3.044285   2.439904   1.751427   0.000000
    30  H    6.449146   6.916218   5.815122   5.087209   0.000000
    31  H    6.909131   7.743207   6.651102   6.248204   1.747657
                   31
    31  H    0.000000
 Stoichiometry    C10H18O3
 Framework group  C1[X(C10H18O3)]
 Deg. of freedom    87
 Full point group                 C1      NOp   1
 Largest Abelian subgroup         C1      NOp   1
 Largest concise Abelian subgroup C1      NOp   1
                         Standard orientation:                         
 ---------------------------------------------------------------------
 Center     Atomic      Atomic             Coordinates (Angstroms)
 Number     Number       Type             X           Y           Z
 ---------------------------------------------------------------------
      1          6           0       -0.986194    0.237697   -0.064615
      2          6           0        3.533418   -0.767826    0.767270
      3          6           0        1.353168    0.349712   -0.870706
      4          6           0        2.074726   -1.211256    0.811394
      5          6           0        3.673691    0.571105    0.012738
      6          6           0       -1.928750    1.313403    0.459405
      7          6           0       -1.750536   -0.729748   -0.963092
      8          6           0       -3.790731   -0.338795    0.163782
      9          8           0       -2.842687   -1.296799   -0.270731
     10          6           0       -3.153340    0.665754    1.110219
     11          8           0        0.039671    0.869981   -0.806369
     12          6           0        2.314917    1.258318   -0.118935
     13          8           0        1.433147   -0.976500   -0.435485
     14          1           0       -0.569769   -0.307872    0.770280
     15          1           0        4.134259   -1.532696    0.286271
     16          1           0        3.889992   -0.677917    1.789048
     17          1           0        1.603330    0.335565   -1.922166
     18          1           0        1.986948   -2.273639    0.987919
     19          1           0        1.537672   -0.697775    1.599415
     20          1           0        4.072842    0.393001   -0.981893
     21          1           0        4.375813    1.226019    0.516663
     22          1           0       -1.405899    1.949313    1.166936
     23          1           0       -2.243485    1.939118   -0.372812
     24          1           0       -1.122762   -1.549080   -1.281534
     25          1           0       -2.108150   -0.202370   -1.845037
     26          1           0       -4.207872    0.165283   -0.705220
     27          1           0       -4.582423   -0.892667    0.649554
     28          1           0       -3.885265    1.421910    1.378311
     29          1           0       -2.862006    0.156317    2.025391
     30          1           0        1.906248    1.492099    0.859572
     31          1           0        2.397268    2.191755   -0.664792
 ---------------------------------------------------------------------
 Rotational constants (GHZ):           1.9221223           0.4030283           0.3807428
 Standard basis: 6-311++G(2d,2p) (5D, 7F)
 There are   557 symmetry adapted cartesian basis functions of A   symmetry.
 There are   531 symmetry adapted basis functions of A   symmetry.
   531 basis functions,   762 primitive gaussians,   557 cartesian basis functions
    51 alpha electrons       51 beta electrons
       nuclear repulsion energy       891.1232312006 Hartrees.
 NAtoms=   31 NActive=   31 NUniq=   31 SFac= 1.00D+00 NAtFMM=   60 NAOKFM=F Big=F
 Integral buffers will be    131072 words long.
 Raffenetti 2 integral format.
 Two-electron integral symmetry is turned on.
 ------------------------------------------------------------------------------
 Polarizable Continuum Model (PCM)
 =================================
 Model                : PCM.
 Atomic radii         : UFF (Universal Force Field).
 Polarization charges : Total charges.
 Charge compensation  : None.
 Solution method      : On-the-fly selection.
 Cavity type          : Scaled VdW (van der Waals Surface) (Alpha=1.100).
 Cavity algorithm     : GePol (No added spheres)
                        Default sphere list used, NSphG=   31.
                        Lebedev-Laikov grids with approx.  5.0 points / Ang**2.
                        Smoothing algorithm: York/Karplus (Gamma=1.0000).
                        Polarization charges: spherical gaussians, with
                                              point-specific exponents (IZeta= 3).
                        Self-potential: point-specific (ISelfS= 7).
                        Self-field    : sphere-specific E.n sum rule (ISelfD= 2).
 1st derivatives      : Analytical E(r).r(x)/FMM algorithm (CHGder, D1EAlg=3).
                        Cavity 1st derivative terms included.
 Solvent              : Water, Eps=  78.355300 Eps(inf)=   1.777849
 ------------------------------------------------------------------------------
 One-electron integrals computed using PRISM.
 NBasis=   531 RedAO= T EigKep=  5.51D-06  NBF=   531
 NBsUse=   531 1.00D-06 EigRej= -1.00D+00 NBFU=   531
 ExpMin= 3.60D-02 ExpMax= 8.59D+03 ExpMxC= 1.30D+03 IAcc=3 IRadAn=         5 AccDes= 0.00D+00
 Harris functional with IExCor= 1009 and IRadAn=       5 diagonalized for initial guess.
 HarFok:  IExCor= 1009 AccDes= 0.00D+00 IRadAn=         5 IDoV= 1 UseB2=F ITyADJ=14
 ICtDFT=  3500011 ScaDFX=  1.000000  1.000000  1.000000  1.000000
 FoFCou: FMM=F IPFlag=           0 FMFlag=      100000 FMFlg1=           0
         NFxFlg=           0 DoJE=T BraDBF=F KetDBF=T FulRan=T
         wScrn=  0.000000 ICntrl=       500 IOpCl=  0 I1Cent=   200000004 NGrid=           0
         NMat0=    1 NMatS0=      1 NMatT0=    0 NMatD0=    1 NMtDS0=    0 NMtDT0=    0
 Petite list used in FoFCou.
 Requested convergence on RMS density matrix=1.00D-08 within 128 cycles.
 Requested convergence on MAX density matrix=1.00D-06.
 Requested convergence on             energy=1.00D-06.
 No special actions if energy rises.
 Inv3:  Mode=1 IEnd=    12979200.
 Iteration    1 A*A^-1 deviation from unit magnitude is 3.55D-15 for   2057.
 Iteration    1 A*A^-1 deviation from orthogonality  is 2.11D-15 for   2071    908.
 Iteration    1 A^-1*A deviation from unit magnitude is 3.55D-15 for   2057.
 Iteration    1 A^-1*A deviation from orthogonality  is 1.27D-15 for   1728    678.
 Error on total polarization charges =  0.01499
 SCF Done:  E(RM062X) =  -617.487807106     A.U. after   12 cycles
            NFock= 12  Conv=0.55D-08     -V/T= 2.0035

 **********************************************************************

            Population analysis using the SCF density.

 **********************************************************************

 Orbital symmetries:
       Occupied  (A) (A) (A) (A) (A) (A) (A) (A) (A) (A) (A) (A)
                 (A) (A) (A) (A) (A) (A) (A) (A) (A) (A) (A) (A)
                 (A) (A) (A) (A) (A) (A) (A) (A) (A) (A) (A) (A)
                 (A) (A) (A) (A) (A) (A) (A) (A) (A) (A) (A) (A)
                 (A) (A) (A)
       Virtual   (A) (A) (A) (A) (A) (A) (A) (A) (A) (A) (A) (A)
                 (A) (A) (A) (A) (A) (A) (A) (A) (A) (A) (A) (A)
                 (A) (A) (A) (A) (A) (A) (A) (A) (A) (A) (A) (A)
                 (A) (A) (A) (A) (A) (A) (A) (A) (A) (A) (A) (A)
                 (A) (A) (A) (A) (A) (A) (A) (A) (A) (A) (A) (A)
                 (A) (A) (A) (A) (A) (A) (A) (A) (A) (A) (A) (A)
                 (A) (A) (A) (A) (A) (A) (A) (A) (A) (A) (A) (A)
                 (A) (A) (A) (A) (A) (A) (A) (A) (A) (A) (A) (A)
                 (A) (A) (A) (A) (A) (A) (A) (A) (A) (A) (A) (A)
                 (A) (A) (A) (A) (A) (A) (A) (A) (A) (A) (A) (A)
                 (A) (A) (A) (A) (A) (A) (A) (A) (A) (A) (A) (A)
                 (A) (A) (A) (A) (A) (A) (A) (A) (A) (A) (A) (A)
                 (A) (A) (A) (A) (A) (A) (A) (A) (A) (A) (A) (A)
                 (A) (A) (A) (A) (A) (A) (A) (A) (A) (A) (A) (A)
                 (A) (A) (A) (A) (A) (A) (A) (A) (A) (A) (A) (A)
                 (A) (A) (A) (A) (A) (A) (A) (A) (A) (A) (A) (A)
                 (A) (A) (A) (A) (A) (A) (A) (A) (A) (A) (A) (A)
                 (A) (A) (A) (A) (A) (A) (A) (A) (A) (A) (A) (A)
                 (A) (A) (A) (A) (A) (A) (A) (A) (A) (A) (A) (A)
                 (A) (A) (A) (A) (A) (A) (A) (A) (A) (A) (A) (A)
                 (A) (A) (A) (A) (A) (A) (A) (A) (A) (A) (A) (A)
                 (A) (A) (A) (A) (A) (A) (A) (A) (A) (A) (A) (A)
                 (A) (A) (A) (A) (A) (A) (A) (A) (A) (A) (A) (A)
                 (A) (A) (A) (A) (A) (A) (A) (A) (A) (A) (A) (A)
                 (A) (A) (A) (A) (A) (A) (A) (A) (A) (A) (A) (A)
                 (A) (A) (A) (A) (A) (A) (A) (A) (A) (A) (A) (A)
                 (A) (A) (A) (A) (A) (A) (A) (A) (A) (A) (A) (A)
                 (A) (A) (A) (A) (A) (A) (A) (A) (A) (A) (A) (A)
                 (A) (A) (A) (A) (A) (A) (A) (A) (A) (A) (A) (A)
                 (A) (A) (A) (A) (A) (A) (A) (A) (A) (A) (A) (A)
                 (A) (A) (A) (A) (A) (A) (A) (A) (A) (A) (A) (A)
                 (A) (A) (A) (A) (A) (A) (A) (A) (A) (A) (A) (A)
                 (A) (A) (A) (A) (A) (A) (A) (A) (A) (A) (A) (A)
                 (A) (A) (A) (A) (A) (A) (A) (A) (A) (A) (A) (A)
                 (A) (A) (A) (A) (A) (A) (A) (A) (A) (A) (A) (A)
                 (A) (A) (A) (A) (A) (A) (A) (A) (A) (A) (A) (A)
                 (A) (A) (A) (A) (A) (A) (A) (A) (A) (A) (A) (A)
                 (A) (A) (A) (A) (A) (A) (A) (A) (A) (A) (A) (A)
                 (A) (A) (A) (A) (A) (A) (A) (A) (A) (A) (A) (A)
                 (A) (A) (A) (A) (A) (A) (A) (A) (A) (A) (A) (A)
 The electronic state is 1-A.
 Alpha  occ. eigenvalues --  -19.63349 -19.62716 -19.62326 -10.63633 -10.58518
 Alpha  occ. eigenvalues --  -10.58157 -10.57758 -10.57394 -10.53245 -10.53048
 Alpha  occ. eigenvalues --  -10.53047 -10.52984 -10.52967  -1.19945  -1.16552
 Alpha  occ. eigenvalues --   -1.13579  -0.90910  -0.89934  -0.87397  -0.84413
 Alpha  occ. eigenvalues --   -0.75227  -0.74728  -0.73713  -0.69970  -0.65763
 Alpha  occ. eigenvalues --   -0.62981  -0.60283  -0.59296  -0.57777  -0.57144
 Alpha  occ. eigenvalues --   -0.55164  -0.53083  -0.51874  -0.50792  -0.49849
 Alpha  occ. eigenvalues --   -0.47590  -0.46777  -0.45581  -0.45530  -0.44589
 Alpha  occ. eigenvalues --   -0.44016  -0.43646  -0.41015  -0.40409  -0.39401
 Alpha  occ. eigenvalues --   -0.38911  -0.37226  -0.36687  -0.34565  -0.33872
 Alpha  occ. eigenvalues --   -0.30750
 Alpha virt. eigenvalues --   -0.00178   0.00711   0.00888   0.01114   0.02167
 Alpha virt. eigenvalues --    0.02428   0.02603   0.03433   0.03602   0.04362
 Alpha virt. eigenvalues --    0.04508   0.04674   0.05588   0.05747   0.06853
 Alpha virt. eigenvalues --    0.07326   0.07825   0.08163   0.08574   0.09282
 Alpha virt. eigenvalues --    0.09549   0.10421   0.11007   0.11743   0.12100
 Alpha virt. eigenvalues --    0.12137   0.12584   0.12738   0.13136   0.13272
 Alpha virt. eigenvalues --    0.13589   0.13781   0.14377   0.14447   0.14996
 Alpha virt. eigenvalues --    0.15409   0.15487   0.15886   0.16053   0.16278
 Alpha virt. eigenvalues --    0.16414   0.16904   0.17137   0.17380   0.17914
 Alpha virt. eigenvalues --    0.18185   0.18686   0.18858   0.19345   0.19583
 Alpha virt. eigenvalues --    0.19960   0.20147   0.20299   0.20977   0.21618
 Alpha virt. eigenvalues --    0.21881   0.22599   0.22801   0.23764   0.24350
 Alpha virt. eigenvalues --    0.24717   0.25246   0.26069   0.26486   0.26693
 Alpha virt. eigenvalues --    0.27154   0.27908   0.28300   0.28929   0.29370
 Alpha virt. eigenvalues --    0.29496   0.29749   0.30673   0.31107   0.31376
 Alpha virt. eigenvalues --    0.31398   0.33335   0.33576   0.34069   0.34360
 Alpha virt. eigenvalues --    0.34628   0.35056   0.35436   0.35880   0.36395
 Alpha virt. eigenvalues --    0.36609   0.37136   0.37283   0.37877   0.38474
 Alpha virt. eigenvalues --    0.38810   0.39084   0.40122   0.41126   0.41803
 Alpha virt. eigenvalues --    0.42145   0.42834   0.43336   0.43798   0.44968
 Alpha virt. eigenvalues --    0.47308   0.48070   0.49046   0.50210   0.50862
 Alpha virt. eigenvalues --    0.51750   0.52005   0.53457   0.54258   0.55428
 Alpha virt. eigenvalues --    0.56559   0.57396   0.57685   0.58741   0.58894
 Alpha virt. eigenvalues --    0.59566   0.60330   0.60665   0.61367   0.61737
 Alpha virt. eigenvalues --    0.61920   0.62181   0.62710   0.63106   0.64402
 Alpha virt. eigenvalues --    0.65198   0.65594   0.65855   0.66798   0.67192
 Alpha virt. eigenvalues --    0.67691   0.68413   0.69311   0.69419   0.70040
 Alpha virt. eigenvalues --    0.70633   0.70984   0.71650   0.72392   0.73355
 Alpha virt. eigenvalues --    0.73844   0.73993   0.74556   0.75352   0.76299
 Alpha virt. eigenvalues --    0.76369   0.76854   0.77064   0.78003   0.79948
 Alpha virt. eigenvalues --    0.80498   0.81662   0.83091   0.84639   0.84881
 Alpha virt. eigenvalues --    0.85430   0.87440   0.88434   0.88614   0.89874
 Alpha virt. eigenvalues --    0.90683   0.91508   0.92979   0.94715   0.95031
 Alpha virt. eigenvalues --    0.96650   0.98941   0.99384   1.00771   1.01857
 Alpha virt. eigenvalues --    1.02797   1.04577   1.05170   1.06411   1.06901
 Alpha virt. eigenvalues --    1.07301   1.08101   1.10115   1.10630   1.12149
 Alpha virt. eigenvalues --    1.12330   1.13145   1.15159   1.15601   1.16332
 Alpha virt. eigenvalues --    1.17648   1.18226   1.18560   1.19142   1.20293
 Alpha virt. eigenvalues --    1.20995   1.21075   1.23144   1.23374   1.24172
 Alpha virt. eigenvalues --    1.25316   1.26043   1.26489   1.27607   1.28122
 Alpha virt. eigenvalues --    1.28555   1.29474   1.29979   1.31218   1.31639
 Alpha virt. eigenvalues --    1.32174   1.32405   1.32840   1.33594   1.33789
 Alpha virt. eigenvalues --    1.34723   1.35939   1.36618   1.37121   1.37633
 Alpha virt. eigenvalues --    1.38840   1.39267   1.40005   1.41060   1.41631
 Alpha virt. eigenvalues --    1.42830   1.43340   1.43906   1.44162   1.45945
 Alpha virt. eigenvalues --    1.46673   1.46778   1.47345   1.47816   1.48573
 Alpha virt. eigenvalues --    1.49167   1.49987   1.50263   1.51152   1.51806
 Alpha virt. eigenvalues --    1.52593   1.53504   1.54084   1.54683   1.55416
 Alpha virt. eigenvalues --    1.55888   1.56853   1.57336   1.57605   1.58983
 Alpha virt. eigenvalues --    1.59909   1.60865   1.60935   1.61380   1.62000
 Alpha virt. eigenvalues --    1.63282   1.64241   1.64802   1.65834   1.66158
 Alpha virt. eigenvalues --    1.67819   1.68393   1.69551   1.70518   1.71218
 Alpha virt. eigenvalues --    1.72575   1.73726   1.74429   1.76162   1.77531
 Alpha virt. eigenvalues --    1.77840   1.79097   1.81192   1.82196   1.85385
 Alpha virt. eigenvalues --    1.86384   1.89275   1.89663   1.90929   1.96904
 Alpha virt. eigenvalues --    2.01586   2.05022   2.08690   2.12248   2.20861
 Alpha virt. eigenvalues --    2.23908   2.25849   2.27107   2.34092   2.39662
 Alpha virt. eigenvalues --    2.41162   2.45567   2.47514   2.49732   2.53245
 Alpha virt. eigenvalues --    2.54654   2.74981   2.76281   2.80672   2.83293
 Alpha virt. eigenvalues --    2.87163   2.88513   2.90297   2.93199   2.93783
 Alpha virt. eigenvalues --    2.95687   2.98100   3.00996   3.01821   3.03685
 Alpha virt. eigenvalues --    3.05788   3.06732   3.08346   3.09148   3.12306
 Alpha virt. eigenvalues --    3.14509   3.16580   3.17089   3.18647   3.20443
 Alpha virt. eigenvalues --    3.22660   3.28140   3.30331   3.31204   3.32513
 Alpha virt. eigenvalues --    3.35765   3.36429   3.38649   3.39656   3.40478
 Alpha virt. eigenvalues --    3.42392   3.43353   3.43890   3.45438   3.45510
 Alpha virt. eigenvalues --    3.46938   3.48275   3.48884   3.50157   3.50727
 Alpha virt. eigenvalues --    3.51058   3.53645   3.54100   3.55270   3.55833
 Alpha virt. eigenvalues --    3.56677   3.57933   3.58179   3.58933   3.59265
 Alpha virt. eigenvalues --    3.60104   3.61392   3.62351   3.62403   3.64870
 Alpha virt. eigenvalues --    3.66355   3.66984   3.68141   3.69814   3.70545
 Alpha virt. eigenvalues --    3.70724   3.71080   3.72157   3.73581   3.74534
 Alpha virt. eigenvalues --    3.75154   3.76115   3.76848   3.77535   3.78671
 Alpha virt. eigenvalues --    3.79388   3.79704   3.82350   3.84076   3.85818
 Alpha virt. eigenvalues --    3.86482   3.87145   3.88262   3.89507   3.91340
 Alpha virt. eigenvalues --    3.92160   3.92897   3.95174   3.96456   3.98729
 Alpha virt. eigenvalues --    3.98992   4.00956   4.02757   4.03370   4.04387
 Alpha virt. eigenvalues --    4.04514   4.05849   4.06517   4.07238   4.07533
 Alpha virt. eigenvalues --    4.08758   4.09038   4.10019   4.10536   4.11062
 Alpha virt. eigenvalues --    4.11901   4.14821   4.15640   4.15891   4.16813
 Alpha virt. eigenvalues --    4.18062   4.18983   4.19277   4.19810   4.21446
 Alpha virt. eigenvalues --    4.21939   4.23718   4.24135   4.25682   4.25966
 Alpha virt. eigenvalues --    4.26738   4.29117   4.29595   4.30481   4.31771
 Alpha virt. eigenvalues --    4.32516   4.34597   4.35108   4.38806   4.39560
 Alpha virt. eigenvalues --    4.41160   4.42170   4.44684   4.47720   4.50694
 Alpha virt. eigenvalues --    4.57553   4.59204   4.75208   4.77461   4.82187
 Alpha virt. eigenvalues --    4.83015   4.92974   4.93913   4.99770   5.01611
 Alpha virt. eigenvalues --    5.02911   5.06848   5.08693   5.11997   5.12439
 Alpha virt. eigenvalues --    5.14470   5.14976   5.19359   5.30937   5.39465
 Alpha virt. eigenvalues --    5.41731   5.56256   5.58999   5.63276   5.85338
 Alpha virt. eigenvalues --    5.87645   6.03257   7.00778   7.04529   7.06034
 Alpha virt. eigenvalues --    7.09018   7.10544   7.13235   7.14444   7.20611
 Alpha virt. eigenvalues --    7.28168   7.37015   7.39417   7.46925   7.53250
 Alpha virt. eigenvalues --    7.54693   7.57289  23.95064  23.99859  24.03886
 Alpha virt. eigenvalues --   24.07528  24.10317  24.11065  24.13361  24.16290
 Alpha virt. eigenvalues --   24.16647  24.21461  50.17610  50.18452  50.22941
          Condensed to atoms (all electrons):
               1          2          3          4          5          6
     1  C    7.617661   0.063750  -0.787686   0.026879  -0.001136  -1.132805
     2  C    0.063750   5.986348   0.010792  -0.131867  -0.212922  -0.026798
     3  C   -0.787686   0.010792   7.075128  -0.269455  -0.055546   0.197713
     4  C    0.026879  -0.131867  -0.269455   5.532937   0.238549  -0.058231
     5  C   -0.001136  -0.212922  -0.055546   0.238549   5.757915   0.006853
     6  C   -1.132805  -0.026798   0.197713  -0.058231   0.006853   7.029300
     7  C   -0.419233   0.005627  -0.035847   0.044901   0.005333  -0.324649
     8  C    0.057459   0.001942  -0.037648  -0.002444  -0.001471  -0.002467
     9  O    0.022694   0.000077  -0.002153  -0.002312  -0.000466  -0.005670
    10  C   -0.079764   0.004175  -0.015964  -0.007642  -0.005744   0.094491
    11  O    0.270674   0.026702   0.237346   0.034495   0.003983  -0.306237
    12  C    0.116684   0.007175  -0.600202  -0.136110  -0.074159  -0.041840
    13  O   -0.022862  -0.046880   0.259350   0.060339  -0.015650   0.032363
    14  H    0.293432  -0.022739  -0.054597   0.006035  -0.011910   0.130549
    15  H    0.001987   0.452920   0.008356  -0.072574  -0.071938   0.002406
    16  H   -0.001925   0.481730  -0.006854  -0.040193  -0.066607  -0.003198
    17  H   -0.030257   0.006703   0.537243  -0.053632  -0.039617   0.020805
    18  H    0.005273  -0.010759  -0.005443   0.433582   0.001906  -0.004696
    19  H   -0.010746  -0.080446   0.044995   0.469526   0.003268   0.010364
    20  H   -0.005474  -0.084885  -0.007731   0.008755   0.479126  -0.001099
    21  H   -0.000815  -0.051539  -0.001514   0.007475   0.433065   0.000784
    22  H   -0.040666  -0.000359   0.007113  -0.002973  -0.001001   0.416340
    23  H    0.012879   0.001296  -0.008458   0.001553  -0.000652   0.432685
    24  H   -0.097718   0.002580   0.004914  -0.004201  -0.002441   0.035148
    25  H    0.004024  -0.001092   0.015856   0.001219   0.000931  -0.029056
    26  H    0.065466  -0.000089   0.002691  -0.000296   0.000019  -0.052587
    27  H   -0.011676   0.000213  -0.001483   0.000078  -0.000171   0.020932
    28  H    0.003059   0.000015  -0.000113  -0.000468  -0.000082  -0.029346
    29  H    0.024659   0.000586  -0.002301   0.001613   0.000541  -0.083325
    30  H    0.000888   0.007232   0.046120  -0.024905  -0.063957  -0.013982
    31  H    0.002605   0.007454  -0.076624   0.004474  -0.009888  -0.006200
               7          8          9         10         11         12
     1  C   -0.419233   0.057459   0.022694  -0.079764   0.270674   0.116684
     2  C    0.005627   0.001942   0.000077   0.004175   0.026702   0.007175
     3  C   -0.035847  -0.037648  -0.002153  -0.015964   0.237346  -0.600202
     4  C    0.044901  -0.002444  -0.002312  -0.007642   0.034495  -0.136110
     5  C    0.005333  -0.001471  -0.000466  -0.005744   0.003983  -0.074159
     6  C   -0.324649  -0.002467  -0.005670   0.094491  -0.306237  -0.041840
     7  C    6.392055  -0.245078   0.166039   0.082901  -0.089865   0.041725
     8  C   -0.245078   5.413386   0.099839   0.063712   0.019684  -0.005499
     9  O    0.166039   0.099839   8.296267  -0.015898   0.006106   0.001126
    10  C    0.082901   0.063712  -0.015898   5.461765  -0.011189   0.001500
    11  O   -0.089865   0.019684   0.006106  -0.011189   8.395517  -0.204228
    12  C    0.041725  -0.005499   0.001126   0.001500  -0.204228   6.204862
    13  O   -0.018950  -0.001681  -0.000557   0.005618  -0.023572  -0.031226
    14  H   -0.133194   0.054437  -0.034605  -0.040528  -0.001503   0.026810
    15  H   -0.002056  -0.000016  -0.000030   0.000125  -0.001654   0.041987
    16  H    0.002716   0.000083   0.000019  -0.000218   0.002095  -0.001570
    17  H    0.015500  -0.001493   0.000142   0.003234  -0.100971  -0.063971
    18  H    0.001745   0.000918   0.000595  -0.000713   0.002564  -0.006520
    19  H   -0.001526  -0.003217   0.002387   0.003080  -0.004333  -0.005602
    20  H    0.000603  -0.000003   0.000006  -0.000000   0.000716  -0.021617
    21  H    0.000523  -0.000121  -0.000011  -0.000077  -0.002991  -0.026628
    22  H    0.018181  -0.000156  -0.002201   0.001087   0.002722   0.000605
    23  H   -0.007612  -0.021243   0.000272  -0.052083  -0.001731   0.005968
    24  H    0.441589   0.014589  -0.064421   0.002340  -0.002354  -0.004725
    25  H    0.403996  -0.005244  -0.043525   0.004588   0.004370  -0.003277
    26  H   -0.031895   0.455507  -0.048825  -0.024577  -0.000779  -0.000336
    27  H    0.009441   0.437338  -0.073411  -0.050239   0.001180   0.000071
    28  H   -0.013020  -0.028306   0.008507   0.426950  -0.002940  -0.000402
    29  H    0.029584  -0.098413  -0.001874   0.526650  -0.000980   0.001861
    30  H   -0.005113   0.000389  -0.000078  -0.001511  -0.013517   0.448633
    31  H    0.001534  -0.000022  -0.000008   0.000037   0.002386   0.445903
              13         14         15         16         17         18
     1  C   -0.022862   0.293432   0.001987  -0.001925  -0.030257   0.005273
     2  C   -0.046880  -0.022739   0.452920   0.481730   0.006703  -0.010759
     3  C    0.259350  -0.054597   0.008356  -0.006854   0.537243  -0.005443
     4  C    0.060339   0.006035  -0.072574  -0.040193  -0.053632   0.433582
     5  C   -0.015650  -0.011910  -0.071938  -0.066607  -0.039617   0.001906
     6  C    0.032363   0.130549   0.002406  -0.003198   0.020805  -0.004696
     7  C   -0.018950  -0.133194  -0.002056   0.002716   0.015500   0.001745
     8  C   -0.001681   0.054437  -0.000016   0.000083  -0.001493   0.000918
     9  O   -0.000557  -0.034605  -0.000030   0.000019   0.000142   0.000595
    10  C    0.005618  -0.040528   0.000125  -0.000218   0.003234  -0.000713
    11  O   -0.023572  -0.001503  -0.001654   0.002095  -0.100971   0.002564
    12  C   -0.031226   0.026810   0.041987  -0.001570  -0.063971  -0.006520
    13  O    8.216219   0.022383  -0.008043   0.010096  -0.063339  -0.058389
    14  H    0.022383   0.603882   0.002837   0.000144  -0.003800  -0.001795
    15  H   -0.008043   0.002837   0.517371  -0.022529   0.006768  -0.010601
    16  H    0.010096   0.000144  -0.022529   0.501740  -0.002361  -0.001951
    17  H   -0.063339  -0.003800   0.006768  -0.002361   0.531456  -0.003333
    18  H   -0.058389  -0.001795  -0.010601  -0.001951  -0.003333   0.462643
    19  H   -0.031865  -0.021188   0.005543  -0.005119   0.003477  -0.006440
    20  H   -0.000234  -0.000179  -0.008776   0.004650   0.001003  -0.001916
    21  H   -0.000963   0.000951  -0.000390  -0.002939  -0.001019   0.000376
    22  H   -0.000349  -0.010539   0.000156  -0.000009   0.002888  -0.000177
    23  H    0.000847  -0.003143  -0.000088   0.000057  -0.002049   0.000093
    24  H    0.004064   0.019372   0.000396  -0.000064  -0.000144  -0.001526
    25  H   -0.002599  -0.024997  -0.000208   0.000067  -0.000057   0.000411
    26  H   -0.000202  -0.012235   0.000008  -0.000015   0.000276  -0.000022
    27  H   -0.000047   0.005200  -0.000004   0.000011  -0.000132   0.000043
    28  H    0.000299   0.003163   0.000010  -0.000030   0.000056  -0.000029
    29  H    0.000164  -0.038688  -0.000078  -0.000007  -0.000006  -0.000012
    30  H   -0.003016   0.002224  -0.002225  -0.000621   0.005694  -0.002924
    31  H    0.006632   0.000139  -0.000044  -0.000157  -0.012503   0.001424
              19         20         21         22         23         24
     1  C   -0.010746  -0.005474  -0.000815  -0.040666   0.012879  -0.097718
     2  C   -0.080446  -0.084885  -0.051539  -0.000359   0.001296   0.002580
     3  C    0.044995  -0.007731  -0.001514   0.007113  -0.008458   0.004914
     4  C    0.469526   0.008755   0.007475  -0.002973   0.001553  -0.004201
     5  C    0.003268   0.479126   0.433065  -0.001001  -0.000652  -0.002441
     6  C    0.010364  -0.001099   0.000784   0.416340   0.432685   0.035148
     7  C   -0.001526   0.000603   0.000523   0.018181  -0.007612   0.441589
     8  C   -0.003217  -0.000003  -0.000121  -0.000156  -0.021243   0.014589
     9  O    0.002387   0.000006  -0.000011  -0.002201   0.000272  -0.064421
    10  C    0.003080  -0.000000  -0.000077   0.001087  -0.052083   0.002340
    11  O   -0.004333   0.000716  -0.002991   0.002722  -0.001731  -0.002354
    12  C   -0.005602  -0.021617  -0.026628   0.000605   0.005968  -0.004725
    13  O   -0.031865  -0.000234  -0.000963  -0.000349   0.000847   0.004064
    14  H   -0.021188  -0.000179   0.000951  -0.010539  -0.003143   0.019372
    15  H    0.005543  -0.008776  -0.000390   0.000156  -0.000088   0.000396
    16  H   -0.005119   0.004650  -0.002939  -0.000009   0.000057  -0.000064
    17  H    0.003477   0.001003  -0.001019   0.002888  -0.002049  -0.000144
    18  H   -0.006440  -0.001916   0.000376  -0.000177   0.000093  -0.001526
    19  H    0.498994   0.000768  -0.001854   0.000730  -0.000512  -0.002866
    20  H    0.000768   0.488001  -0.009845   0.000095   0.000047  -0.000083
    21  H   -0.001854  -0.009845   0.492996   0.000138  -0.000021   0.000020
    22  H    0.000730   0.000095   0.000138   0.492415  -0.015919  -0.000655
    23  H   -0.000512   0.000047  -0.000021  -0.015919   0.459705  -0.002954
    24  H   -0.002866  -0.000083   0.000020  -0.000655  -0.002954   0.472477
    25  H    0.002416   0.000187  -0.000118  -0.001658  -0.000596  -0.021165
    26  H    0.000595  -0.000003   0.000006   0.000121  -0.003727  -0.004799
    27  H   -0.000455   0.000004  -0.000006   0.000617  -0.000849   0.003480
    28  H    0.000053  -0.000008  -0.000001  -0.013470  -0.006028   0.002157
    29  H    0.002426   0.000016  -0.000014  -0.001606   0.005103  -0.003500
    30  H   -0.012124   0.001511  -0.003979  -0.003344   0.000712   0.000041
    31  H   -0.001560  -0.003922  -0.008434  -0.000021  -0.000061  -0.000526
              25         26         27         28         29         30
     1  C    0.004024   0.065466  -0.011676   0.003059   0.024659   0.000888
     2  C   -0.001092  -0.000089   0.000213   0.000015   0.000586   0.007232
     3  C    0.015856   0.002691  -0.001483  -0.000113  -0.002301   0.046120
     4  C    0.001219  -0.000296   0.000078  -0.000468   0.001613  -0.024905
     5  C    0.000931   0.000019  -0.000171  -0.000082   0.000541  -0.063957
     6  C   -0.029056  -0.052587   0.020932  -0.029346  -0.083325  -0.013982
     7  C    0.403996  -0.031895   0.009441  -0.013020   0.029584  -0.005113
     8  C   -0.005244   0.455507   0.437338  -0.028306  -0.098413   0.000389
     9  O   -0.043525  -0.048825  -0.073411   0.008507  -0.001874  -0.000078
    10  C    0.004588  -0.024577  -0.050239   0.426950   0.526650  -0.001511
    11  O    0.004370  -0.000779   0.001180  -0.002940  -0.000980  -0.013517
    12  C   -0.003277  -0.000336   0.000071  -0.000402   0.001861   0.448633
    13  O   -0.002599  -0.000202  -0.000047   0.000299   0.000164  -0.003016
    14  H   -0.024997  -0.012235   0.005200   0.003163  -0.038688   0.002224
    15  H   -0.000208   0.000008  -0.000004   0.000010  -0.000078  -0.002225
    16  H    0.000067  -0.000015   0.000011  -0.000030  -0.000007  -0.000621
    17  H   -0.000057   0.000276  -0.000132   0.000056  -0.000006   0.005694
    18  H    0.000411  -0.000022   0.000043  -0.000029  -0.000012  -0.002924
    19  H    0.002416   0.000595  -0.000455   0.000053   0.002426  -0.012124
    20  H    0.000187  -0.000003   0.000004  -0.000008   0.000016   0.001511
    21  H   -0.000118   0.000006  -0.000006  -0.000001  -0.000014  -0.003979
    22  H   -0.001658   0.000121   0.000617  -0.013470  -0.001606  -0.003344
    23  H   -0.000596  -0.003727  -0.000849  -0.006028   0.005103   0.000712
    24  H   -0.021165  -0.004799   0.003480   0.002157  -0.003500   0.000041
    25  H    0.494060   0.010789  -0.002952  -0.001997   0.004155  -0.000300
    26  H    0.010789   0.499880  -0.008268   0.002598   0.004954  -0.000127
    27  H   -0.002952  -0.008268   0.475747  -0.007205  -0.005734   0.000065
    28  H   -0.001997   0.002598  -0.007205   0.480780  -0.010257  -0.000009
    29  H    0.004155   0.004954  -0.005734  -0.010257   0.481778  -0.000135
    30  H   -0.000300  -0.000127   0.000065  -0.000009  -0.000135   0.466313
    31  H    0.000365   0.000042  -0.000005  -0.000047  -0.000004  -0.010643
              31
     1  C    0.002605
     2  C    0.007454
     3  C   -0.076624
     4  C    0.004474
     5  C   -0.009888
     6  C   -0.006200
     7  C    0.001534
     8  C   -0.000022
     9  O   -0.000008
    10  C    0.000037
    11  O    0.002386
    12  C    0.445903
    13  O    0.006632
    14  H    0.000139
    15  H   -0.000044
    16  H   -0.000157
    17  H   -0.012503
    18  H    0.001424
    19  H   -0.001560
    20  H   -0.003922
    21  H   -0.008434
    22  H   -0.000021
    23  H   -0.000061
    24  H   -0.000526
    25  H    0.000365
    26  H    0.000042
    27  H   -0.000005
    28  H   -0.000047
    29  H   -0.000004
    30  H   -0.010643
    31  H    0.465613
 Mulliken charges:
               1
     1  C    0.052692
     2  C   -0.396943
     3  C   -0.477995
     4  C   -0.065108
     5  C   -0.296130
     6  C   -0.308546
     7  C   -0.335958
     8  C   -0.164762
     9  O   -0.308032
    10  C   -0.376107
    11  O   -0.241696
    12  C   -0.116999
    13  O   -0.287951
    14  H    0.244080
    15  H    0.160384
    16  H    0.152959
    17  H    0.243437
    18  H    0.205673
    19  H    0.141231
    20  H    0.160287
    21  H    0.176943
    22  H    0.151894
    23  H    0.206511
    24  H    0.210975
    25  H    0.191408
    26  H    0.145826
    27  H    0.208216
    28  H    0.186113
    29  H    0.162845
    30  H    0.182689
    31  H    0.192063
 Sum of Mulliken charges =  -0.00000
 Mulliken charges with hydrogens summed into heavy atoms:
               1
     1  C    0.296771
     2  C   -0.083599
     3  C   -0.234558
     4  C    0.281796
     5  C    0.041100
     6  C    0.049859
     7  C    0.066425
     8  C    0.189279
     9  O   -0.308032
    10  C   -0.027149
    11  O   -0.241696
    12  C    0.257753
    13  O   -0.287951
 Electronic spatial extent (au):  <R**2>=           3100.2209
 Charge=             -0.0000 electrons
 Dipole moment (field-independent basis, Debye):
    X=              1.7998    Y=              1.7367    Z=              2.1936  Tot=              3.3267
 Quadrupole moment (field-independent basis, Debye-Ang):
   XX=            -70.2456   YY=            -84.9088   ZZ=            -78.1811
   XY=             -5.0745   XZ=              0.1334   YZ=             -0.7218
 Traceless Quadrupole moment (field-independent basis, Debye-Ang):
   XX=              7.5329   YY=             -7.1303   ZZ=             -0.4026
   XY=             -5.0745   XZ=              0.1334   YZ=             -0.7218
 Octapole moment (field-independent basis, Debye-Ang**2):
  XXX=             -4.4804  YYY=             -1.7187  ZZZ=             -3.7788  XYY=             12.2881
  XXY=             18.4242  XXZ=              9.0399  XZZ=              1.1923  YZZ=             -2.1853
  YYZ=              4.1255  XYZ=             -2.4957
 Hexadecapole moment (field-independent basis, Debye-Ang**3):
 XXXX=          -3078.7891 YYYY=           -548.5252 ZZZZ=           -361.9532 XXXY=            -37.5160
 XXXZ=            -20.3321 YYYX=            -18.5738 YYYZ=             -3.9623 ZZZX=              1.5360
 ZZZY=              0.3459 XXYY=           -646.3659 XXZZ=           -583.6411 YYZZ=           -152.8664
 XXYZ=            -14.0288 YYXZ=             -1.0605 ZZXY=              3.8437
 N-N= 8.911232312006D+02 E-N=-3.224117263566D+03  KE= 6.153407421112D+02
 D1PCM: PCM CHGder 1st derivatives, ID1Alg=3 FixD1E=F DoIter=F DoCFld=F I1PDM=0.
 Calling FoFJK, ICntrl=      2127 FMM=F ISym2X=0 I1Cent= 0 IOpClX= 0 NMat=1 NMatS=1 NMatT=0.
 ***** Axes restored to original set *****
 -------------------------------------------------------------------
 Center     Atomic                   Forces (Hartrees/Bohr)
 Number     Number              X              Y              Z
 -------------------------------------------------------------------
      1        6          -0.001046419   -0.002758346   -0.004140769
      2        6           0.001341538   -0.001530850   -0.000315248
      3        6          -0.002251386    0.000388990    0.010303434
      4        6          -0.002938843   -0.004435028   -0.003317855
      5        6           0.003045196    0.001075086    0.001429539
      6        6           0.001148591    0.004471595    0.000936997
      7        6           0.002635797   -0.002296497    0.006681812
      8        6          -0.006510142   -0.002017811    0.001369886
      9        8           0.001443977    0.009237593    0.001846182
     10        6          -0.000205691   -0.000830977   -0.002808250
     11        8           0.005065894   -0.009150762   -0.004946251
     12        6          -0.002468982    0.002492363   -0.001714265
     13        8           0.003422297    0.007919289   -0.005630576
     14        1          -0.002120879    0.004991799    0.005849905
     15        1          -0.001148894    0.001988726   -0.001389556
     16        1          -0.001137827   -0.000549860    0.002687969
     17        1          -0.002325257   -0.000123914   -0.007159650
     18        1           0.000345240    0.004283300    0.000945510
     19        1           0.002481761   -0.003221512    0.005204045
     20        1          -0.000594647    0.000736353   -0.003001658
     21        1          -0.001681526   -0.001434625    0.001177852
     22        1          -0.001975923   -0.001649653    0.001706914
     23        1           0.000657107   -0.001378875   -0.003550701
     24        1          -0.004514439    0.003283320   -0.000910167
     25        1           0.000806027   -0.004789968   -0.004566988
     26        1           0.002127574   -0.003928168   -0.004350965
     27        1           0.003158181    0.002228586    0.002092967
     28        1           0.001744066   -0.002242233    0.000970159
     29        1          -0.001067477    0.002018637    0.002289942
     30        1           0.002460674   -0.000159429    0.003564433
     31        1           0.000104413   -0.002617131   -0.001254646
 -------------------------------------------------------------------
 Cartesian Forces:  Max     0.010303434 RMS     0.003433957

 GradGradGradGradGradGradGradGradGradGradGradGradGradGradGradGradGradGrad
 Berny optimization.
 FormGI is forming the generalized inverse of G from B-inverse, IUseBI=4.
 Internal  Forces:  Max     0.016904923 RMS     0.002201329
 Search for a local minimum.
 Step number   1 out of a maximum of  186
 All quantities printed in internal units (Hartrees-Bohrs-Radians)
 Mixed Optimization -- RFO/linear search
 Second derivative matrix not updated -- first step.
 ITU=  0
     Eigenvalues ---    0.00398   0.00646   0.00733   0.00757   0.01355
     Eigenvalues ---    0.01439   0.01493   0.02659   0.02794   0.03118
     Eigenvalues ---    0.03166   0.04028   0.04374   0.04430   0.04801
     Eigenvalues ---    0.04842   0.04919   0.04991   0.05148   0.05151
     Eigenvalues ---    0.05184   0.05527   0.05737   0.05977   0.06157
     Eigenvalues ---    0.06389   0.06466   0.06769   0.07593   0.07880
     Eigenvalues ---    0.07898   0.07985   0.07998   0.07999   0.08088
     Eigenvalues ---    0.08596   0.09345   0.09540   0.10873   0.11615
     Eigenvalues ---    0.11648   0.11707   0.11748   0.12491   0.12642
     Eigenvalues ---    0.14551   0.15934   0.16626   0.17458   0.19146
     Eigenvalues ---    0.20660   0.21763   0.22261   0.25000   0.27013
     Eigenvalues ---    0.27783   0.28515   0.28716   0.28841   0.29300
     Eigenvalues ---    0.29739   0.30128   0.35040   0.35070   0.35076
     Eigenvalues ---    0.35142   0.35228   0.35281   0.35286   0.35293
     Eigenvalues ---    0.35335   0.35388   0.35461   0.35473   0.35624
     Eigenvalues ---    0.35820   0.35886   0.35899   0.35932   0.35971
     Eigenvalues ---    0.39789   0.41525   0.42173   0.43214   0.43339
     Eigenvalues ---    0.440141000.000001000.000001000.000001000.00000
     Eigenvalues --- 1000.000001000.000001000.000001000.000001000.00000
     Eigenvalues --- 1000.000001000.000001000.000001000.000001000.00000
     Eigenvalues --- 1000.000001000.000001000.000001000.000001000.00000
     Eigenvalues --- 1000.000001000.000001000.000001000.000001000.00000
     Eigenvalues --- 1000.000001000.000001000.000001000.000001000.00000
     Eigenvalues --- 1000.000001000.000001000.000001000.000001000.00000
     Eigenvalues --- 1000.000001000.000001000.000001000.000001000.00000
     Eigenvalues --- 1000.000001000.000001000.000001000.000001000.00000
     Eigenvalues --- 1000.000001000.000001000.000001000.000001000.00000
     Eigenvalues --- 1000.000001000.000001000.000001000.000001000.00000
     Eigenvalues --- 1000.000001000.000001000.000001000.000001000.00000
     Eigenvalues --- 1000.000001000.000001000.000001000.000001000.00000
     Eigenvalues --- 1000.000001000.000001000.000001000.000001000.00000
     Eigenvalues --- 1000.000001000.000001000.000001000.000001000.00000
     Eigenvalues --- 1000.000001000.000001000.000001000.000001000.00000
     Eigenvalues --- 1000.000001000.000001000.000001000.000001000.00000
     Eigenvalues --- 1000.000001000.000001000.000001000.000001000.00000
     Eigenvalues --- 1000.000001000.000001000.000001000.000001000.00000
     Eigenvalues --- 1000.000001000.000001000.000001000.000001000.00000
 RFO step:  Lambda=-3.64278669D-03 EMin= 3.97831539D-03
 Linear search not attempted -- first point.
 Iteration  1 RMS(Cart)=  0.07647459 RMS(Int)=  0.00111808
 Iteration  2 RMS(Cart)=  0.00310196 RMS(Int)=  0.00005107
 Iteration  3 RMS(Cart)=  0.00000306 RMS(Int)=  0.00005105
 Iteration  4 RMS(Cart)=  0.00000000 RMS(Int)=  0.00005105
 Iteration  1 RMS(Cart)=  0.00003195 RMS(Int)=  0.00000749
 Iteration  2 RMS(Cart)=  0.00001681 RMS(Int)=  0.00000837
 Iteration  3 RMS(Cart)=  0.00000884 RMS(Int)=  0.00000942
 Iteration  4 RMS(Cart)=  0.00000465 RMS(Int)=  0.00001008
 Iteration  5 RMS(Cart)=  0.00000245 RMS(Int)=  0.00001045
 Iteration  6 RMS(Cart)=  0.00000129 RMS(Int)=  0.00001065
 Iteration  7 RMS(Cart)=  0.00000068 RMS(Int)=  0.00001076
 Variable       Old X    -DE/DX   Delta X   Delta X   Delta X     New X
                                 (Linear)    (Quad)   (Total)
    R1        2.87844  -0.00206   0.00000  -0.00660  -0.00663   2.87181
    R2        2.88295  -0.00102   0.00000  -0.00308  -0.00307   2.87988
    R3        2.67407   0.00102   0.00000   0.00235   0.00235   2.67642
    R4        2.04240   0.00786   0.00000   0.02166   0.02166   2.06406
    R5        2.88229   0.00094   0.00000   0.00175   0.00176   2.88405
    R6        2.91639  -0.00007   0.00000  -0.00256  -0.00256   2.91383
    R7        2.05050   0.00265   0.00000   0.00742   0.00742   2.05792
    R8        2.05212   0.00295   0.00000   0.00827   0.00827   2.06040
    R9        2.67254   0.00295   0.00000   0.00675   0.00675   2.67929
   R10        2.87567  -0.00057   0.00000   0.00004   0.00008   2.87574
   R11        2.64200   0.00359   0.00000   0.00925   0.00927   2.65127
   R12        2.04261   0.00750   0.00000   0.02069   0.02069   2.06330
   R13        2.68676   0.00338   0.00000   0.00799   0.00795   2.69471
   R14        2.04189   0.00439   0.00000   0.01211   0.01211   2.05399
   R15        2.04673   0.00654   0.00000   0.01819   0.01819   2.06491
   R16        2.88817  -0.00061   0.00000  -0.00257  -0.00260   2.88558
   R17        2.05306   0.00309   0.00000   0.00867   0.00867   2.06173
   R18        2.04914   0.00250   0.00000   0.00699   0.00699   2.05612
   R19        2.89235  -0.00060   0.00000  -0.00218  -0.00219   2.89016
   R20        2.05134   0.00303   0.00000   0.00849   0.00849   2.05982
   R21        2.05552   0.00370   0.00000   0.01044   0.01044   2.06596
   R22        2.66827   0.00360   0.00000   0.00826   0.00828   2.67655
   R23        2.04126   0.00538   0.00000   0.01481   0.01481   2.05608
   R24        2.05611   0.00629   0.00000   0.01776   0.01776   2.07387
   R25        2.67606   0.00324   0.00000   0.00737   0.00740   2.68345
   R26        2.87284   0.00056   0.00000   0.00155   0.00154   2.87438
   R27        2.05561   0.00611   0.00000   0.01725   0.01725   2.07286
   R28        2.04364   0.00439   0.00000   0.01214   0.01214   2.05578
   R29        2.05221   0.00298   0.00000   0.00835   0.00835   2.06056
   R30        2.05446   0.00316   0.00000   0.00890   0.00890   2.06335
   R31        2.05202   0.00417   0.00000   0.01170   0.01170   2.06372
   R32        2.04933   0.00288   0.00000   0.00803   0.00803   2.05735
    A1        1.91816   0.00001   0.00000  -0.00022  -0.00026   1.91790
    A2        1.88955  -0.00060   0.00000   0.00109   0.00110   1.89065
    A3        1.90620   0.00092   0.00000   0.00461   0.00459   1.91080
    A4        1.91543   0.00041   0.00000   0.00114   0.00115   1.91659
    A5        1.90485  -0.00108   0.00000  -0.01246  -0.01244   1.89241
    A6        1.92960   0.00035   0.00000   0.00600   0.00598   1.93558
    A7        1.93189   0.00021   0.00000  -0.00838  -0.00853   1.92337
    A8        1.91501  -0.00072   0.00000  -0.00178  -0.00173   1.91328
    A9        1.88691   0.00061   0.00000   0.00530   0.00533   1.89224
   A10        1.92250   0.00079   0.00000   0.00332   0.00335   1.92585
   A11        1.93730  -0.00104   0.00000  -0.00133  -0.00128   1.93601
   A12        1.86882   0.00014   0.00000   0.00327   0.00325   1.87207
   A13        1.92288  -0.00079   0.00000  -0.00903  -0.00921   1.91368
   A14        1.96918  -0.00206   0.00000  -0.01816  -0.01816   1.95103
   A15        1.83798   0.00132   0.00000   0.01529   0.01538   1.85337
   A16        1.95675   0.00253   0.00000   0.00203   0.00180   1.95855
   A17        1.91996  -0.00044   0.00000   0.00285   0.00288   1.92283
   A18        1.85164  -0.00062   0.00000   0.00910   0.00914   1.86078
   A19        1.93712   0.00108   0.00000   0.00195   0.00178   1.93890
   A20        1.94794  -0.00031   0.00000  -0.00394  -0.00391   1.94403
   A21        1.93632  -0.00094   0.00000  -0.00344  -0.00342   1.93290
   A22        1.84311  -0.00100   0.00000  -0.00184  -0.00178   1.84132
   A23        1.91350   0.00096   0.00000   0.00839   0.00845   1.92195
   A24        1.88282   0.00023   0.00000  -0.00087  -0.00090   1.88192
   A25        1.92988  -0.00069   0.00000  -0.00845  -0.00865   1.92123
   A26        1.91640   0.00068   0.00000   0.00334   0.00341   1.91981
   A27        1.93439  -0.00032   0.00000  -0.00050  -0.00047   1.93392
   A28        1.89808   0.00024   0.00000  -0.00019  -0.00014   1.89794
   A29        1.92210   0.00010   0.00000   0.00223   0.00228   1.92439
   A30        1.86145   0.00004   0.00000   0.00409   0.00405   1.86550
   A31        1.92042   0.00119   0.00000  -0.00226  -0.00231   1.91812
   A32        1.91760  -0.00046   0.00000  -0.00225  -0.00222   1.91538
   A33        1.89873  -0.00118   0.00000  -0.00846  -0.00847   1.89026
   A34        1.93489   0.00013   0.00000   0.00606   0.00606   1.94095
   A35        1.91477  -0.00014   0.00000   0.00286   0.00284   1.91762
   A36        1.87660   0.00039   0.00000   0.00392   0.00388   1.88048
   A37        1.93202   0.00208   0.00000   0.01106   0.01113   1.94314
   A38        1.94276  -0.00173   0.00000  -0.01528  -0.01539   1.92738
   A39        1.91206  -0.00254   0.00000  -0.01757  -0.01767   1.89439
   A40        1.86447  -0.00019   0.00000   0.00611   0.00617   1.87063
   A41        1.91547   0.00122   0.00000   0.01184   0.01190   1.92737
   A42        1.89622   0.00127   0.00000   0.00474   0.00447   1.90068
   A43        1.93623   0.00173   0.00000   0.00839   0.00839   1.94462
   A44        1.90191   0.00082   0.00000   0.00728   0.00733   1.90924
   A45        1.85610  -0.00119   0.00000  -0.00370  -0.00370   1.85240
   A46        1.93042  -0.00160   0.00000  -0.00967  -0.00970   1.92071
   A47        1.94520  -0.00030   0.00000  -0.00334  -0.00334   1.94186
   A48        1.89172   0.00058   0.00000   0.00145   0.00141   1.89313
   A49        1.97861  -0.00474   0.00000  -0.02791  -0.02784   1.95077
   A50        1.92873  -0.00071   0.00000  -0.00519  -0.00524   1.92349
   A51        1.92792  -0.00052   0.00000  -0.00061  -0.00061   1.92731
   A52        1.91965   0.00082   0.00000   0.00131   0.00131   1.92096
   A53        1.90838   0.00078   0.00000   0.00491   0.00494   1.91332
   A54        1.90369  -0.00035   0.00000  -0.00305  -0.00306   1.90064
   A55        1.87452   0.00001   0.00000   0.00286   0.00286   1.87737
   A56        2.13269  -0.01690   0.00000  -0.06665  -0.06665   2.06604
   A57        1.91343   0.00011   0.00000  -0.00373  -0.00373   1.90970
   A58        1.91332  -0.00037   0.00000  -0.00818  -0.00816   1.90515
   A59        1.88943  -0.00041   0.00000   0.00077   0.00075   1.89018
   A60        1.93238   0.00002   0.00000   0.00271   0.00262   1.93500
   A61        1.94215   0.00054   0.00000   0.00625   0.00629   1.94845
   A62        1.87218   0.00009   0.00000   0.00206   0.00204   1.87422
   A63        2.04367  -0.00505   0.00000  -0.02722  -0.02724   2.01643
    D1        0.91971  -0.00063   0.00000  -0.00160  -0.00160   0.91811
    D2        3.05478   0.00002   0.00000   0.00301   0.00300   3.05778
    D3       -1.17839  -0.00046   0.00000   0.00151   0.00151  -1.17687
    D4        3.01163  -0.00049   0.00000   0.00032   0.00032   3.01195
    D5       -1.13649   0.00016   0.00000   0.00493   0.00492  -1.13157
    D6        0.91354  -0.00031   0.00000   0.00343   0.00343   0.91697
[...]
 041926,0.00026112,-0.00008922,-0.00077505,0.00046723,0.00257921,-0.000
 09807,0.00004347,-0.00001823,0.00005280,-0.00012330,-0.00000832,0.0014
 0295,0.00285575,-0.00187574,0.00003106,0.00000647,0.00000515,0.0000047
 7,0.00000320,-0.00000415,0.00009315,-0.00001469,-0.00003313,0.00001585
 ,-0.00002115,0.00000610,-0.00000081,-0.00004793,0.00011074,-0.00000016
 ,0.00000063,0.00000391,0.00000283,0.00000723,0.00000017,-0.00004726,0.
 00017273,0.00044594,-0.00051592,0.00071949,0.00002813,-0.00210073,0.00
 428982,0.00881275,-0.07800491,0.10254089,0.22993120,-0.00019413,-0.000
 07381,-0.00039866,0.00000013,-0.00000015,0.00000232,0.00013019,-0.0000
 6627,0.00000551,0.00001257,-0.00000688,-0.00002218,-0.00000256,-0.0000
 0728,0.00000555,0.00029713,0.00116516,0.00028762,0.00229764,0.00274093
 ,0.00450027,-0.08289702,0.03056010,0.06966313,-0.02103911,0.02287428,0
 .01315322,-0.00359635,0.00407327,0.01223384,-0.00031956,-0.00029900,-0
 .00005694,-0.00001713,0.00001422,-0.00000209,-0.00002989,0.00003764,0.
 00001700,0.00009409,0.00003450,-0.00007813,-0.00000139,0.00000117,-0.0
 0000017,-0.00000258,-0.00000013,0.00000127,-0.00001678,0.00000311,-0.0
 0000636,-0.00000095,0.00000166,0.00000313,0.00000237,-0.00000052,-0.00
 000027,-0.00000005,0.00000053,-0.00000132,-0.00000494,0.00000120,0.000
 00083,0.00018800,-0.00009698,-0.00018605,-0.00008742,-0.00021985,-0.00
 016887,0.00015700,-0.00018266,-0.00034945,0.00021577,-0.00072948,-0.00
 077206,0.09392691,-0.00011950,-0.00033529,0.00054750,0.00000184,-0.000
 00009,-0.00000633,-0.00025428,0.00009686,-0.00004699,-0.00002247,0.000
 02163,0.00005135,0.00000469,0.00001365,-0.00001015,0.00073079,0.001333
 80,0.00045703,-0.00368062,-0.00041704,-0.00184570,0.03311944,-0.092013
 42,-0.08637865,0.02358647,-0.02049018,-0.01387860,-0.00976576,0.009909
 63,0.01995500,0.00044756,0.00031839,0.00000234,0.00003450,-0.00002748,
 0.00000491,0.00010383,-0.00005423,-0.00004482,0.00002059,-0.00008203,-
 0.00008832,0.00000376,-0.00000200,0.00000077,0.00000600,0.00000082,-0.
 00000284,0.00002424,-0.00000330,0.00001140,0.00000131,-0.00000547,-0.0
 0000454,-0.00000028,-0.00000168,0.00000288,-0.00000007,-0.00000057,0.0
 0000235,0.00001045,-0.00000247,-0.00000170,0.00029891,-0.00000770,-0.0
 0013954,0.00026069,-0.00011897,-0.00036568,-0.00008215,0.00012548,0.00
 039768,0.00029723,0.00080475,0.00082501,-0.04877678,0.10882020,-0.0002
 9369,-0.00013074,-0.00018715,0.00000089,-0.00000243,-0.00000218,-0.000
 15549,0.00007645,0.00001380,-0.00001754,0.00001756,0.00003072,0.000002
 37,0.00001109,-0.00000732,-0.00080272,-0.00084271,0.00093053,-0.000372
 62,0.00220587,0.00283205,0.07238276,-0.08830942,-0.22141820,-0.0055480
 3,0.00411713,0.01178280,0.00739052,-0.00913149,-0.01927517,0.00035948,
 -0.00006134,0.00012402,0.00001857,-0.00001826,0.00000285,0.00006760,-0
 .00004681,-0.00003086,-0.00005714,0.00000914,-0.00018888,0.00000375,-0
 .00000141,0.00000063,0.00000328,0.00000079,-0.00000179,0.00003337,-0.0
 0000860,0.00000967,0.00000208,-0.00000426,-0.00000307,-0.00000148,-0.0
 0000219,0.00000442,0.00000019,-0.00000076,0.00000198,0.00000754,-0.000
 00181,-0.00000139,-0.00021838,0.00026746,0.00020506,0.00051410,0.00038
 324,0.00063042,0.00014392,0.00013933,0.00025143,0.00141578,-0.00000243
 ,-0.00007826,-0.08135541,0.09285065,0.23622871,0.00066690,0.00048668,-
 0.00035500,-0.00000377,0.00000352,0.00001747,0.00040844,-0.00010662,0.
 00003234,0.00004023,-0.00005247,-0.00011114,-0.00000445,-0.00002153,0.
 00001604,0.00040300,-0.00121798,0.00195253,-0.00060400,0.00480568,0.00
 111640,-0.18103245,-0.10074264,-0.08145299,-0.02643401,-0.00794488,-0.
 01692084,-0.00745645,-0.00759925,-0.00462255,-0.00054079,-0.00035322,-
 0.00006217,-0.00004760,0.00003713,-0.00000651,-0.00023187,0.00008167,0
 .00011535,-0.00004650,-0.00001757,0.00002381,-0.00000696,0.00000352,-0
 .00000144,-0.00001319,-0.00000211,0.00000542,-0.00005199,0.00000853,-0
 .00001838,-0.00000516,0.00001246,0.00000819,0.00000384,-0.00000107,-0.
 00000168,-0.00000025,0.00000147,-0.00000411,-0.00001636,0.00000344,0.0
 0000274,-0.00042469,-0.00028954,-0.00041077,-0.00002994,-0.00010894,-0
 .00019275,-0.00097689,-0.00066521,-0.00065463,0.00010950,-0.00025904,-
 0.00028634,0.01041866,0.00564690,0.00484156,0.20552108,0.00067932,-0.0
 0071789,0.00072766,0.00000031,0.00000057,-0.00000942,0.00006039,-0.000
 07656,-0.00006934,0.00001187,0.00000831,0.00001231,-0.00000089,-0.0000
 0660,0.00000125,-0.00094675,-0.00224157,0.00469662,0.00281738,-0.00287
 569,0.00058795,-0.11116284,-0.13265831,-0.07238115,0.02464140,0.012365
 03,0.01540759,-0.01529795,-0.01103963,-0.01167517,-0.00017071,0.000444
 74,-0.00027452,0.00000410,0.00000853,0.00000514,0.00003126,0.00005327,
 -0.00003065,-0.00003814,0.00004787,-0.00003471,-0.00000164,0.00000066,
 0.00000017,0.00000228,0.00000049,0.00000049,-0.00004006,0.00001147,-0.
 00000964,-0.00000229,0.00000151,0.00000093,0.00000481,0.00000037,-0.00
 000972,-0.00000035,0.00000121,-0.00000031,-0.00000290,0.00000125,0.000
 00101,-0.00154653,-0.00048832,-0.00061671,0.00039327,0.00022503,0.0001
 4821,0.00090981,0.00052814,0.00055492,-0.00005620,0.00012978,0.0002682
 2,-0.00935557,-0.00606475,-0.00514820,0.10803567,0.14086793,-0.0002564
 5,0.00045407,-0.00049038,-0.00000167,0.00000020,0.00000899,0.00006272,
 0.00002713,0.00005934,0.00000584,-0.00001908,-0.00003336,0.00000030,-0
 .00000121,0.00000268,0.00121053,0.00266127,-0.00280909,-0.00035799,0.0
 0262087,0.00070518,-0.08489149,-0.06705556,-0.10603689,-0.01106436,-0.
 00294899,-0.00613794,0.01696496,0.01202053,0.01070949,-0.00003626,-0.0
 0025286,0.00012908,-0.00000755,0.00000287,-0.00000716,-0.00007950,-0.0
 0003345,0.00004188,0.00001888,-0.00005076,0.00004976,-0.00000120,0.000
 00078,-0.00000055,-0.00000448,-0.00000065,0.00000098,0.00001382,-0.000
 00605,-0.00000103,0.00000046,0.00000197,0.00000185,-0.00000185,0.00000
 138,0.00000373,-0.00000027,-0.00000004,-0.00000024,-0.00000225,0.00000
 018,0.00000030,0.00100385,0.00062369,0.00054131,0.00001092,0.00018613,
 0.00018894,-0.00076442,-0.00027171,-0.00002182,0.00022119,0.00021169,0
 .00034082,-0.01796987,-0.01443327,-0.01064075,0.09705748,0.06780039,0.
 11178076,-0.00059348,-0.00493076,-0.00083693,0.00000127,0.00000493,0.0
 0000707,0.00080849,-0.00058808,-0.00051443,0.00008254,-0.00004879,-0.0
 0014459,-0.00001303,-0.00006238,0.00003499,-0.01841463,0.01785139,-0.0
 0635825,-0.00069339,-0.00070389,0.00023960,0.00988550,-0.00766656,0.00
 188134,0.00109092,-0.00326223,0.00264173,-0.18020546,0.12670534,-0.043
 89502,-0.00276879,0.00100455,-0.00124096,-0.00007762,0.00009454,-0.000
 02113,-0.00018896,0.00030562,0.00016893,0.00017360,-0.00024658,0.00020
 601,-0.00001267,0.00000758,-0.00000101,-0.00001537,-0.00000130,0.00000
 957,-0.00029095,0.00008111,-0.00005163,-0.00001153,0.00002078,0.000018
 71,0.00000988,-0.00000145,-0.00001402,0.00000238,0.00000322,-0.0000069
 7,-0.00003686,0.00001149,0.00000874,0.00065244,0.00015418,0.00081694,0
 .00123340,-0.00008288,0.00011026,0.00012793,0.00019756,0.00001367,0.00
 013896,0.00005769,-0.00002755,0.00042634,0.00070869,-0.00033731,0.0001
 7510,0.00055614,-0.00081867,0.19536862,-0.00203407,-0.00195503,-0.0010
 7259,0.00000220,-0.00000102,-0.00000154,0.00003515,-0.00021579,-0.0002
 8402,0.00001181,-0.00000016,-0.00002093,-0.00000595,-0.00002023,0.0000
 0993,-0.01314864,0.01287178,-0.00510253,-0.00148589,-0.00075064,-0.001
 03435,0.01778685,-0.01244509,0.00121097,-0.00045856,-0.00481716,0.0057
 8248,0.12642233,-0.16711235,0.04426438,-0.00126731,0.00059998,-0.00052
 089,-0.00001755,0.00003130,-0.00001333,0.00002705,0.00007942,0.0000363
 9,-0.00004916,0.00008769,0.00009067,-0.00000145,0.00000210,0.00000052,
 -0.00000154,0.00000063,0.00000172,-0.00010844,0.00003554,-0.00002343,-
 0.00000223,0.00000387,0.00000543,-0.00000076,-0.00000124,0.00000051,0.
 00000211,0.00000045,-0.00000062,-0.00000953,0.00000410,0.00000353,0.00
 082030,0.00055998,0.00058258,0.00078226,0.00064522,0.00039406,0.000189
 22,0.00012169,0.00006815,0.00021888,0.00013987,0.00013314,-0.00018595,
 0.00087728,0.00006878,-0.00030443,0.00031589,-0.00070298,-0.13607830,0
 .18048256,-0.00059756,-0.00263975,0.00011863,0.00000027,0.00000143,0.0
 0000707,0.00032079,-0.00024568,-0.00022340,0.00003688,-0.00002735,-0.0
 0008441,-0.00000807,-0.00003295,0.00001906,-0.01072387,0.00981894,-0.0
 0518719,0.00104136,0.00010615,0.00083904,-0.01626264,0.01087457,-0.004
 25876,0.00039462,0.00508111,-0.00299617,-0.04240008,0.04254951,-0.0632
 4118,-0.00137024,0.00045554,-0.00020989,-0.00004468,0.00005350,-0.0000
 1528,-0.00010046,0.00011353,0.00009063,-0.00022477,0.00035591,0.000080
 58,-0.00000523,0.00000411,-0.00000046,-0.00000840,-0.00000080,0.000004
 88,-0.00012535,0.00002843,-0.00002605,-0.00000484,0.00001054,0.0000092
 6,0.00000093,-0.00000210,-0.00000142,0.00000139,0.00000153,-0.00000321
 ,-0.00001876,0.00000626,0.00000502,0.00048671,-0.00025985,0.00041494,0
 .00048179,0.00047432,0.00032981,-0.00009062,-0.00005380,-0.00006301,-0
 .00000691,-0.00009009,-0.00008052,-0.00009489,-0.00098391,0.00037175,0
 .00023100,-0.00018126,0.00053784,0.05013144,-0.04727675,0.06585727,0.0
 0137711,-0.00062176,-0.00048306,0.00000013,-0.00000295,0.00000127,-0.0
 0001543,0.00001248,0.00012119,-0.00000883,0.00001167,-0.00001121,-0.00
 000467,-0.00000506,0.00000247,0.00772855,-0.01274362,-0.02321674,-0.00
 044897,-0.00029870,-0.00033049,-0.00694568,0.00731448,0.01267985,0.001
 61111,-0.00025436,-0.00140359,-0.07266121,0.03661730,0.06606078,-0.000
 17937,0.00010028,0.00022100,-0.00001597,0.00001251,-0.00000817,0.00000
 482,0.00002821,0.00002156,-0.00025048,0.00018694,0.00020724,0.00000182
 ,0.00000065,0.00000065,0.00000067,0.00000055,0.00000006,0.00002355,-0.
 00001038,-0.00000392,0.,-0.00000126,0.00000205,0.00000175,-0.00000361,
 0.00001114,0.00000051,0.00000010,0.00000009,-0.00000181,0.00000184,0.0
 0000065,0.00114565,0.00044683,0.00081182,-0.00379092,-0.00209802,-0.00
 267999,0.00007269,0.00006161,-0.00000957,-0.00017511,0.00009450,0.0001
 1228,0.00004186,-0.00260500,0.00197351,0.00017808,0.00047204,-0.000310
 23,-0.00685768,0.00886123,0.01895799,0.07916641,0.00089424,-0.00002004
 ,0.00059678,-0.00000078,0.00000136,0.00000121,0.00015194,-0.00005970,0
 .00001336,0.00001824,-0.00001447,-0.00004284,-0.00000360,-0.00001324,0
 .00000849,0.00405799,-0.00868847,-0.01368075,-0.00001432,-0.00004162,0
 .00011360,-0.00854763,0.00943090,0.02245774,-0.00065599,0.00209397,-0.
 00204085,0.03813044,-0.10182414,-0.09967056,-0.00033723,0.00014401,0.0
 0019802,-0.00002618,0.00002367,-0.00001115,-0.00009001,0.00007091,0.00
 001742,-0.00021160,0.00047513,0.00006338,-0.00000254,0.00000163,-0.000
 00025,-0.00000382,-0.00000040,0.00000254,-0.00002751,0.00000059,-0.000
 01595,-0.00000232,0.00000481,0.00000407,0.00000058,0.00000084,-0.00000
 403,-0.00000017,0.00000062,-0.00000113,-0.00000844,0.00000271,0.000001
 51,0.00039620,0.00024596,0.00036193,-0.00313126,-0.00037722,-0.0013342
 9,0.00003854,0.00005003,-0.00006419,-0.00001541,-0.00009195,-0.0000600
 1,-0.00150766,-0.00269459,0.00356419,0.00056051,0.00115730,-0.00083642
 ,0.00591377,-0.00953635,-0.01813750,-0.03557730,0.10965846,0.00100415,
 -0.00052740,-0.00023350,-0.00000046,-0.00000196,0.00000787,0.00007896,
 -0.00004639,-0.00002010,0.00000214,-0.00000590,-0.00003714,-0.00000291
 ,-0.00001021,0.00000476,0.00363018,-0.00645814,-0.01183456,-0.00006121
 ,0.00012759,-0.00006234,0.00833146,-0.00915705,-0.01922754,-0.00119172
 ,-0.00077974,0.00207475,0.06501171,-0.09812437,-0.23128974,-0.00039385
 ,0.00019463,0.00028207,-0.00001822,0.00001854,-0.00000616,-0.00004453,
 0.00005756,0.00003027,-0.00046766,0.00041420,-0.00008928,0.00000048,0.
 00000175,0.00000030,-0.00000316,-0.00000047,0.00000160,-0.00001950,0.0
 0000145,-0.00001100,-0.00000153,0.00000320,0.00000348,-0.00000623,-0.0
 0000293,0.00000421,0.00000040,0.00000058,-0.00000034,-0.00000541,0.000
 00233,0.00000153,-0.00018329,0.00012379,0.00077261,-0.00228942,-0.0010
 2200,-0.00014409,-0.00000398,0.00004927,-0.00003991,0.00011103,-0.0001
 0042,0.00008135,0.00158973,0.00312056,-0.00158713,-0.00031660,0.000229
 38,0.00107418,-0.00201884,0.00339856,0.00770367,-0.07273177,0.10849595
 ,0.25253835,-0.00011497,-0.00001010,-0.00009179,0.00081077,-0.00104396
 ,-0.00037101,0.00591759,-0.00309425,0.02387547,0.00011231,-0.00044888,
 -0.00033379,-0.01182287,0.00622725,-0.02768391,-0.00004784,-0.00004671
 ,-0.00001184,0.00001928,-0.00008260,0.00006585,-0.00002406,0.00000538,
 0.00001034,0.00006147,0.00004942,-0.00000299,-0.00000540,-0.00001001,-
 0.00000502,0.00312176,0.00056407,-0.00052613,-0.08247833,0.01841306,-0
 .08898302,0.00027762,0.00071599,-0.00152460,0.00004640,-0.00006745,-0.
 00018089,0.00008227,-0.00013199,0.00006501,0.00005394,0.00012610,0.000
 20964,-0.00271677,-0.00264663,0.00209846,0.00006969,-0.00009228,0.0001
 9626,0.00070647,-0.00078801,-0.00016079,-0.00489569,0.00335817,0.00103
 714,0.00105986,-0.00091152,0.00019998,0.00012222,0.00003223,-0.0000395
 9,0.00002094,0.00000245,-0.00000423,0.00000880,0.00001688,0.00000077,0
 .00001536,0.00001243,-0.00002130,0.00000215,-0.00000234,-0.00000300,0.
 00000604,0.00000255,-0.00000080,0.00000967,0.00000089,0.00000567,0.000
 00073,0.00000259,0.00000022,0.09158827,-0.00032231,0.00013083,0.000014
 47,-0.00018164,0.00054212,0.00051511,0.00825372,-0.00385660,0.01990203
 ,-0.00011193,-0.00131839,0.00040133,0.00609615,-0.00383600,0.01389985,
 -0.00004630,-0.00003037,-0.00009271,0.00002583,-0.00006800,0.00000598,
 -0.00001909,0.00001608,-0.00000298,0.00004828,0.00002560,0.00000592,-0
 .00001801,0.00000303,-0.00000594,0.00164826,0.00063374,-0.00222576,0.0
 1643625,-0.05894475,0.04538044,-0.00024653,0.00060527,-0.00146282,-0.0
 0010302,-0.00012073,-0.00007354,-0.00019728,0.00016801,-0.00011523,0.0
 0006174,-0.00001458,-0.00012993,-0.00211004,-0.00119042,0.00154654,-0.
 00003442,0.00019127,-0.00010537,-0.00045550,-0.00200532,-0.00066493,0.
 00285910,-0.00077753,-0.00006975,-0.00050441,0.00044868,-0.00041565,-0
 .00003425,-0.00001693,0.00001689,0.00002060,-0.00002385,0.00000579,0.0
 0000149,0.00000053,0.00000511,0.00001948,0.00001696,-0.00001481,0.0000
 0131,-0.00000324,-0.00000114,0.00000447,-0.00000050,0.00000151,0.00000
 263,-0.00000250,0.00000055,-0.00000127,0.00000155,-0.00000187,-0.02084
 444,0.06293779,0.00052681,0.00008959,-0.00003615,-0.00075783,0.0001352
 8,0.00064383,-0.00720769,0.00249683,-0.02011927,-0.00075530,-0.0011823
 2,-0.00136015,0.00117417,-0.00063899,0.00487863,0.00006069,0.00003737,
 0.00002053,-0.00004298,0.00001109,0.00000114,-0.00000547,0.00000163,-0
 .00000132,0.00001138,-0.00001601,0.00000037,0.00000989,-0.00002108,0.0
 0001697,-0.00082107,-0.00081316,0.00303730,-0.08677712,0.04653175,-0.2
 6367854,0.00046533,0.00044144,0.00103740,0.00016508,0.00009072,-0.0001
 1175,0.00004872,0.00018101,-0.00002080,-0.00007030,0.00053284,-0.00017
 506,0.00250858,0.00246477,-0.00041666,0.00020635,-0.00014674,0.0004935
 9,0.00030177,-0.00164742,0.00072682,0.00098826,-0.00087858,0.00116678,
 -0.00066164,0.00034135,0.00040313,0.00008831,0.00001074,-0.00001426,-0
 .00000473,0.00001565,-0.00000502,-0.00000664,-0.00001622,0.00000865,-0
 .00000283,-0.00001507,-0.00001014,0.00000038,-0.00000009,0.00000011,-0
 .00000082,-0.00000070,0.00000194,0.00000395,0.00000371,0.00000372,0.00
 000223,0.00000010,0.00000084,0.09564886,-0.05097688,0.28725693,0.00031
 649,0.00020088,-0.00015087,-0.00537639,0.00243150,-0.00083741,-0.00246
 081,-0.01732649,-0.01338257,-0.00140638,0.00013599,0.00066574,0.004618
 58,0.02655202,0.01585727,-0.00001228,-0.00001486,0.00001440,0.00009571
 ,0.00003699,0.00008105,0.00000801,-0.00000876,-0.00000315,-0.00001264,
 0.00003124,-0.00002327,-0.00000541,0.00001164,-0.00000268,0.00026729,0
 .00070838,0.00089587,-0.05051767,-0.02732340,-0.01547871,-0.00178306,-
 0.00483992,0.00173199,0.00010926,0.00004161,0.00002535,0.00010204,0.00
 141373,0.00082088,0.00002513,0.00041094,0.00034914,0.00082384,0.000682
 28,-0.00002398,0.00018556,-0.00007081,0.00000191,0.00024254,-0.0002557
 5,0.00012299,0.00116845,-0.00069789,-0.00049838,0.00130610,-0.00101029
 ,0.00009375,0.00001017,0.00000030,-0.00001170,-0.00001319,0.00000713,-
 0.00000236,0.00002323,0.00003231,-0.00002025,-0.00001961,-0.00000569,0
 .00000699,-0.00000096,0.00000137,0.00000155,-0.00000352,0.00000023,-0.
 00000165,-0.00000660,-0.00000053,-0.00000346,0.00000070,-0.00000128,-0
 .00000016,-0.00200766,-0.01024884,-0.00509632,0.05432311,0.00006416,0.
 00023558,-0.00022071,0.00241816,0.00014973,0.00057438,0.00023290,-0.01
 688582,-0.01099273,0.00019908,0.00092609,0.00163609,-0.00191314,-0.011
 38245,-0.00610634,-0.00003943,-0.00001245,0.00000788,0.00008660,-0.000
 01127,0.00006707,0.00000650,-0.00001146,-0.00000646,-0.00002320,0.0000
 2989,-0.00001940,-0.00000111,0.00001682,-0.00000051,-0.00004578,0.0007
 2694,0.00097193,-0.02809012,-0.25110844,-0.11390866,-0.00292044,-0.003
 24784,0.00168944,0.00003828,-0.00000767,0.00004614,-0.00007020,-0.0006
 0076,-0.00047081,0.00010205,-0.00027394,-0.00015748,0.00043953,0.00093
 131,0.00013855,-0.00003757,-0.00005102,-0.00011962,-0.00007196,0.00026
 785,-0.00013120,-0.00021063,0.00019408,0.00027884,0.00006358,0.0006863
 2,0.00003716,-0.00000932,0.00000013,-0.00000203,-0.00001145,0.00000690
 ,-0.00000308,0.00002831,0.00004231,-0.00003165,-0.00001927,0.00000936,
 -0.00000101,-0.00000012,0.00000201,0.00000232,-0.00000515,0.00000045,-
 0.00000161,-0.00000803,-0.00000180,-0.00000415,0.00000008,-0.00000225,
 -0.00000049,0.00069171,0.00648825,0.00296738,0.02910599,0.27288317,0.0
 0004017,-0.00001781,0.00012817,0.00041714,-0.00034425,0.00136022,0.002
 17730,0.01612954,0.00751051,0.00029385,-0.00029964,-0.00145481,-0.0006
 4270,-0.00070630,-0.00171400,-0.00000314,-0.00003572,0.00001905,-0.000
 03999,0.00004703,-0.00004741,0.00001465,-0.00000710,0.00000199,-0.0000
 3572,-0.00003674,0.00000312,0.00000021,0.00001406,0.00000135,-0.000859
 63,-0.00005212,-0.00036017,-0.01612733,-0.11752844,-0.11297405,0.00333
 662,0.00480132,-0.00061569,0.00004020,0.00004908,-0.00000039,0.0000074
 9,-0.00031568,-0.00016543,-0.00002532,0.00016286,-0.00006544,-0.000718
 86,-0.00000675,0.00105939,0.00002221,-0.00017584,0.00030638,0.00029417
 ,-0.00013727,0.00043141,0.00036973,0.00010972,0.00041867,0.00005584,-0
 .00003251,-0.00009373,0.00001523,-0.00000031,-0.00000553,-0.00000531,0
 .00000691,0.00000244,-0.00001720,-0.00002532,0.00001689,-0.00000125,-0
 .00001632,0.00001018,-0.00000107,0.00000169,0.00000120,-0.00000159,-0.
 00000074,0.00000016,-0.00000563,-0.00000154,-0.00000224,0.00000090,-0.
 00000037,0.00000100,-0.00346900,-0.02534218,-0.01374956,0.01486804,0.1
 2376076,0.11997633\\0.00016459,0.00035677,-0.00063785,0.00000032,0.000
 00452,0.00000509,0.00028940,0.00050963,-0.00118809,-0.00000073,0.00000
 570,0.00002138,-0.00000325,-0.00000086,-0.00000747,0.00003089,0.000003
 25,0.00000488,-0.00000650,-0.00000473,0.00001268,-0.00000737,0.0000095
 4,-0.00000803,-0.00000149,-0.00000132,0.00001737,0.00000814,-0.0000082
 5,0.00000238,-0.00033006,-0.00061438,0.00116107,0.00000872,-0.00001255
 ,-0.00000678,-0.00013669,-0.00023731,0.00063078,0.00000513,0.00000408,
 0.00000240,-0.00000030,-0.00000115,0.00000055,-0.00000298,-0.00000545,
 0.00000134,-0.00000051,-0.00000490,-0.00000512,0.00000025,-0.00000184,
 -0.00000029,-0.00000588,-0.00000534,0.00000179,0.00000065,0.00000060,-
 0.00000029,0.00000092,-0.00000432,0.00000114,-0.00000442,0.00000051,-0
 .00000004,-0.00000173,0.00000381,-0.00000437,0.00000047,0.00001026,-0.
 00000482,-0.00000340,0.00000006,-0.00000244,0.00000238,-0.00000037,0.0
 0000267,0.00000145,0.00000333,0.00000347,-0.00000257,-0.00000830,0.000
 00203,0.00000123,0.00000102,-0.00000062,-0.00000017,-0.00000065,-0.000
 00147,-0.00000650,-0.00000135,-0.00000338\\\@


 Money is a good servant but a bad master.
                        -- French Proverb
 Job cpu time:       0 days 14 hours 46 minutes 19.8 seconds.
 Elapsed time:       0 days  0 hours 55 minutes 25.4 seconds.
 File lengths (MBytes):  RWF=    686 Int=      0 D2E=      0 Chk=     33 Scr=      1
 Normal termination of Gaussian 16 at Mon Nov  5 01:16:13 2018.
