 Entering Gaussian System, Link 0=g16
 Initial command:
 /apps/gaussian/g16a03/g16/l1.exe "/jobfs/local/2011927.r-man2/Gau-9240.inp" -scrdir="/jobfs/local/2011927.r-man2/"
 Entering Link 1 = /apps/gaussian/g16a03/g16/l1.exe PID=      9241.
  
 Copyright (c) 1988,1990,1992,1993,1995,1998,2003,2009,2016,
            Gaussian, Inc.  All Rights Reserved.
  
 This is part of the Gaussian(R) 16 program.  It is based on
 the Gaussian(R) 09 system (copyright 2009, Gaussian, Inc.),
 the Gaussian(R) 03 system (copyright 2003, Gaussian, Inc.),
 the Gaussian(R) 98 system (copyright 1998, Gaussian, Inc.),
 the Gaussian(R) 94 system (copyright 1995, Gaussian, Inc.),
 the Gaussian 92(TM) system (copyright 1992, Gaussian, Inc.),
 the Gaussian 90(TM) system (copyright 1990, Gaussian, Inc.),
 the Gaussian 88(TM) system (copyright 1988, Gaussian, Inc.),
 the Gaussian 86(TM) system (copyright 1986, Carnegie Mellon
 University), and the Gaussian 82(TM) system (copyright 1983,
 Carnegie Mellon University). Gaussian is a federally registered
 trademark of Gaussian, Inc.
  
 This software contains proprietary and confidential information,
 including trade secrets, belonging to Gaussian, Inc.
  
 This software is provided under written license and may be
 used, copied, transmitted, or stored only in accord with that
 written license.
  
 The following legend is applicable only to US Government
 contracts under FAR:
  
                    RESTRICTED RIGHTS LEGEND
  
 Use, reproduction and disclosure by the US Government is
 subject to restrictions as set forth in subparagraphs (a)
 and (c) of the Commercial Computer Software - Restricted
 Rights clause in FAR 52.227-19.
  
 Gaussian, Inc.
 340 Quinnipiac St., Bldg. 40, Wallingford CT 06492
  
  
 ---------------------------------------------------------------
 Warning -- This program may not be used in any manner that
 competes with the business of Gaussian, Inc. or will provide
 assistance to any competitor of Gaussian, Inc.  The licensee
 of this program is prohibited from giving any competitor of
 Gaussian, Inc. access to this program.  By using this program,
 the user acknowledges that Gaussian, Inc. is engaged in the
 business of creating and licensing software in the field of
 computational chemistry and represents and warrants to the
 licensee that it is not a competitor of Gaussian, Inc. and that
 it will not use this program in any manner prohibited above.
 ---------------------------------------------------------------
  

 Cite this work as:
 Gaussian 16, Revision A.03,
 M. J. Frisch, G. W. Trucks, H. B. Schlegel, G. E. Scuseria, 
 M. A. Robb, J. R. Cheeseman, G. Scalmani, V. Barone, 
 G. A. Petersson, H. Nakatsuji, X. Li, M. Caricato, A. V. Marenich, 
 J. Bloino, B. G. Janesko, R. Gomperts, B. Mennucci, H. P. Hratchian, 
 J. V. Ortiz, A. F. Izmaylov, J. L. Sonnenberg, D. Williams-Young, 
 F. Ding, F. Lipparini, F. Egidi, J. Goings, B. Peng, A. Petrone, 
 T. Henderson, D. Ranasinghe, V. G. Zakrzewski, J. Gao, N. Rega, 
 G. Zheng, W. Liang, M. Hada, M. Ehara, K. Toyota, R. Fukuda, 
 J. Hasegawa, M. Ishida, T. Nakajima, Y. Honda, O. Kitao, H. Nakai, 
 T. Vreven, K. Throssell, J. A. Montgomery, Jr., J. E. Peralta, 
 F. Ogliaro, M. J. Bearpark, J. J. Heyd, E. N. Brothers, K. N. Kudin, 
 V. N. Staroverov, T. A. Keith, R. Kobayashi, J. Normand, 
 K. Raghavachari, A. P. Rendell, J. C. Burant, S. S. Iyengar, 
 J. Tomasi, M. Cossi, J. M. Millam, M. Klene, C. Adamo, R. Cammi, 
 J. W. Ochterski, R. L. Martin, K. Morokuma, O. Farkas, 
 J. B. Foresman, and D. J. Fox, Gaussian, Inc., Wallingford CT, 2016.
 
 ******************************************
 Gaussian 16:  ES64L-G16RevA.03 25-Dec-2016
                 4-Nov-2018 
 ******************************************
 %mem=6000mb
 %nproc=24
 Will use up to   24 processors via shared memory.
 %chk=D_1a_4e_D_PHI.inp_extract_0.chk
 ----------------------------------------------------------------------
 #M062X/6-311++G(2d,2p) opt=ModRedundant freq=noraman SCRF=(Solvent=Wat
 er)
 ----------------------------------------------------------------------
 1/18=120,19=15,26=3,38=1/1,3;
 2/9=110,12=2,17=6,18=5,40=1/2;
 3/5=4,6=6,7=1212,11=2,25=1,30=1,70=2201,71=1,72=1,74=-55/1,2,3;
 4//1;
 5/5=2,38=5,53=1/2;
 6/7=2,8=2,9=2,10=2,28=1/1;
 7//1,2,3,16;
 1/18=20,19=15,26=3/3(2);
 2/9=110/2;
 99//99;
 2/9=110/2;
 3/5=4,6=6,7=1212,11=2,25=1,30=1,70=2205,71=1,72=1,74=-55/1,2,3;
 4/5=5,16=3,69=1/1;
 5/5=2,38=5,53=1/2;
 7//1,2,3,16;
 1/18=20,19=15,26=3/3(-5);
 2/9=110/2;
 6/7=2,8=2,9=2,10=2,19=2,28=1/1;
 99/9=1/99;
 ---------------------------
 D_1a_4e_D_PHI.inp_extract_0
 ---------------------------
 Symbolic Z-matrix:
 Charge =  0 Multiplicity = 1
 C                    -3.67899   0.51131  -0.20492 
 C                    -1.02804  -0.33187   0.6012 
 C                     1.08081  -0.17012  -0.6395 
 C                    -3.26034  -0.94326  -0.41861 
 O                     3.28118  -1.0659   -0.21088 
 C                     3.72026   0.12127   0.42462 
 C                    -2.4565    1.41398  -0.20591 
 C                     1.47898   1.16258  -0.01183 
 C                     1.90139  -1.313    -0.04531 
 C                     2.99654   1.33478  -0.13511 
 O                    -1.49235   0.98517   0.74597 
 O                    -0.30277  -0.4872   -0.58654 
 C                    -2.18372  -1.32232   0.59934 
 H                    -4.19529   0.60963   0.74726 
 H                    -4.3629    0.84008  -0.9823 
 H                     1.29738  -0.12723  -1.69983 
 H                    -4.11394  -1.60602  -0.31481 
 H                    -2.88129  -1.07048  -1.42916 
 H                     4.78601   0.18175   0.25176 
 H                     3.55068   0.03385   1.49553 
 H                    -2.00279   1.44286  -1.19092 
 H                    -2.71178   2.42621   0.07582 
 H                     1.20442   1.18231   1.03788 
 H                     0.96018   1.97855  -0.50329 
 H                     3.27402   1.46434  -1.17816 
 H                     3.31826   2.22332   0.39976 
 H                    -2.61375  -1.31875   1.59728 
 H                    -1.79377  -2.31759   0.41583 
 H                    -0.39023  -0.49738   1.45517 
 H                     1.6803   -1.44369   1.01083 
 H                     1.6837   -2.23836  -0.56078 
 
 The following ModRedundant input section has been read:
 D      11       2      12       3 F                                           
 

 GradGradGradGradGradGradGradGradGradGradGradGradGradGradGradGradGradGrad
 Berny optimization.
 Initialization pass.
                           ----------------------------
                           !    Initial Parameters    !
                           ! (Angstroms and Degrees)  !
 --------------------------                            --------------------------
 ! Name  Definition              Value          Derivative Info.                !
 --------------------------------------------------------------------------------
 ! R1    R(1,4)                  1.5286         estimate D2E/DX2                !
 ! R2    R(1,7)                  1.5196         estimate D2E/DX2                !
 ! R3    R(1,14)                 1.0876         estimate D2E/DX2                !
 ! R4    R(1,15)                 1.0863         estimate D2E/DX2                !
 ! R5    R(2,11)                 1.404          estimate D2E/DX2                !
 ! R6    R(2,12)                 1.4003         estimate D2E/DX2                !
 ! R7    R(2,13)                 1.522          estimate D2E/DX2                !
 ! R8    R(2,29)                 1.0786         estimate D2E/DX2                !
 ! R9    R(3,8)                  1.526          estimate D2E/DX2                !
 ! R10   R(3,9)                  1.5273         estimate D2E/DX2                !
 ! R11   R(3,12)                 1.4204         estimate D2E/DX2                !
 ! R12   R(3,16)                 1.0831         estimate D2E/DX2                !
 ! R13   R(4,13)                 1.5294         estimate D2E/DX2                !
 ! R14   R(4,17)                 1.0857         estimate D2E/DX2                !
 ! R15   R(4,18)                 1.0868         estimate D2E/DX2                !
 ! R16   R(5,6)                  1.4163         estimate D2E/DX2                !
 ! R17   R(5,9)                  1.4115         estimate D2E/DX2                !
 ! R18   R(6,10)                 1.5198         estimate D2E/DX2                !
 ! R19   R(6,19)                 1.0814         estimate D2E/DX2                !
 ! R20   R(6,20)                 1.0878         estimate D2E/DX2                !
 ! R21   R(7,11)                 1.4211         estimate D2E/DX2                !
 ! R22   R(7,21)                 1.0849         estimate D2E/DX2                !
 ! R23   R(7,22)                 1.0813         estimate D2E/DX2                !
 ! R24   R(8,10)                 1.5323         estimate D2E/DX2                !
 ! R25   R(8,23)                 1.0852         estimate D2E/DX2                !
 ! R26   R(8,24)                 1.0847         estimate D2E/DX2                !
 ! R27   R(9,30)                 1.0869         estimate D2E/DX2                !
 ! R28   R(9,31)                 1.0814         estimate D2E/DX2                !
 ! R29   R(10,25)                1.0871         estimate D2E/DX2                !
 ! R30   R(10,26)                1.0859         estimate D2E/DX2                !
 ! R31   R(13,27)                1.0867         estimate D2E/DX2                !
 ! R32   R(13,28)                1.0846         estimate D2E/DX2                !
 ! A1    A(4,1,7)              110.1701         estimate D2E/DX2                !
 ! A2    A(4,1,14)             109.7807         estimate D2E/DX2                !
 ! A3    A(4,1,15)             111.1227         estimate D2E/DX2                !
 ! A4    A(7,1,14)             109.1931         estimate D2E/DX2                !
 ! A5    A(7,1,15)             109.0394         estimate D2E/DX2                !
 ! A6    A(14,1,15)            107.4743         estimate D2E/DX2                !
 ! A7    A(11,2,12)            111.2727         estimate D2E/DX2                !
 ! A8    A(11,2,13)            111.0674         estimate D2E/DX2                !
 ! A9    A(11,2,29)            104.9436         estimate D2E/DX2                !
 ! A10   A(12,2,13)            108.6657         estimate D2E/DX2                !
 ! A11   A(12,2,29)            110.3795         estimate D2E/DX2                !
 ! A12   A(13,2,29)            110.4934         estimate D2E/DX2                !
 ! A13   A(8,3,9)              110.69           estimate D2E/DX2                !
 ! A14   A(8,3,12)             115.7078         estimate D2E/DX2                !
 ! A15   A(8,3,16)             108.4172         estimate D2E/DX2                !
 ! A16   A(9,3,12)             109.9858         estimate D2E/DX2                !
 ! A17   A(9,3,16)             107.6427         estimate D2E/DX2                !
 ! A18   A(12,3,16)            103.893          estimate D2E/DX2                !
 ! A19   A(1,4,13)             109.6086         estimate D2E/DX2                !
 ! A20   A(1,4,17)             110.6207         estimate D2E/DX2                !
 ! A21   A(1,4,18)             109.6883         estimate D2E/DX2                !
 ! A22   A(13,4,17)            109.788          estimate D2E/DX2                !
 ! A23   A(13,4,18)            110.1437         estimate D2E/DX2                !
 ! A24   A(17,4,18)            106.9586         estimate D2E/DX2                !
 ! A25   A(6,5,9)              113.3999         estimate D2E/DX2                !
 ! A26   A(5,6,10)             110.8797         estimate D2E/DX2                !
 ! A27   A(5,6,19)             106.3007         estimate D2E/DX2                !
 ! A28   A(5,6,20)             109.029          estimate D2E/DX2                !
 ! A29   A(10,6,19)            111.4562         estimate D2E/DX2                !
 ! A30   A(10,6,20)            110.642          estimate D2E/DX2                !
 ! A31   A(19,6,20)            108.3922         estimate D2E/DX2                !
 ! A32   A(1,7,11)             111.4762         estimate D2E/DX2                !
 ! A33   A(1,7,21)             110.6614         estimate D2E/DX2                !
 ! A34   A(1,7,22)             111.4678         estimate D2E/DX2                !
 ! A35   A(11,7,21)            109.4182         estimate D2E/DX2                !
 ! A36   A(11,7,22)            105.553          estimate D2E/DX2                !
 ! A37   A(21,7,22)            108.0824         estimate D2E/DX2                !
 ! A38   A(3,8,10)             108.8737         estimate D2E/DX2                !
 ! A39   A(3,8,23)             110.3488         estimate D2E/DX2                !
 ! A40   A(3,8,24)             110.2319         estimate D2E/DX2                !
 ! A41   A(10,8,23)            109.0482         estimate D2E/DX2                !
 ! A42   A(10,8,24)            110.6535         estimate D2E/DX2                !
 ! A43   A(23,8,24)            107.6731         estimate D2E/DX2                !
 ! A44   A(3,9,5)              110.4005         estimate D2E/DX2                !
 ! A45   A(3,9,30)             111.0217         estimate D2E/DX2                !
 ! A46   A(3,9,31)             110.288          estimate D2E/DX2                !
 ! A47   A(5,9,30)             109.5035         estimate D2E/DX2                !
 ! A48   A(5,9,31)             106.898          estimate D2E/DX2                !
 ! A49   A(30,9,31)            108.6234         estimate D2E/DX2                !
 ! A50   A(6,10,8)             110.6257         estimate D2E/DX2                !
 ! A51   A(6,10,25)            109.087          estimate D2E/DX2                !
 ! A52   A(6,10,26)            109.322          estimate D2E/DX2                !
 ! A53   A(8,10,25)            110.084          estimate D2E/DX2                !
 ! A54   A(8,10,26)            110.2287         estimate D2E/DX2                !
 ! A55   A(25,10,26)           107.4262         estimate D2E/DX2                !
 ! A56   A(2,11,7)             115.9996         estimate D2E/DX2                !
 ! A57   A(2,12,3)             120.7543         estimate D2E/DX2                !
 ! A58   A(2,13,4)             111.9649         estimate D2E/DX2                !
 ! A59   A(2,13,27)            107.2909         estimate D2E/DX2                !
 ! A60   A(2,13,28)            108.927          estimate D2E/DX2                !
 ! A61   A(4,13,27)            109.3819         estimate D2E/DX2                !
 ! A62   A(4,13,28)            111.5876         estimate D2E/DX2                !
 ! A63   A(27,13,28)           107.4987         estimate D2E/DX2                !
 ! D1    D(7,1,4,13)            52.8199         estimate D2E/DX2                !
 ! D2    D(7,1,4,17)           174.0206         estimate D2E/DX2                !
 ! D3    D(7,1,4,18)           -68.2276         estimate D2E/DX2                !
 ! D4    D(14,1,4,13)          -67.4651         estimate D2E/DX2                !
 ! D5    D(14,1,4,17)           53.7356         estimate D2E/DX2                !
 ! D6    D(14,1,4,18)          171.4873         estimate D2E/DX2                !
 ! D7    D(15,1,4,13)          173.7822         estimate D2E/DX2                !
 ! D8    D(15,1,4,17)          -65.0171         estimate D2E/DX2                !
 ! D9    D(15,1,4,18)           52.7346         estimate D2E/DX2                !
 ! D10   D(4,1,7,11)           -54.6371         estimate D2E/DX2                !
 ! D11   D(4,1,7,21)            67.3809         estimate D2E/DX2                !
 ! D12   D(4,1,7,22)          -172.3045         estimate D2E/DX2                !
 ! D13   D(14,1,7,11)           66.0015         estimate D2E/DX2                !
 ! D14   D(14,1,7,21)         -171.9805         estimate D2E/DX2                !
 ! D15   D(14,1,7,22)          -51.6659         estimate D2E/DX2                !
 ! D16   D(15,1,7,11)         -176.8383         estimate D2E/DX2                !
 ! D17   D(15,1,7,21)          -54.8203         estimate D2E/DX2                !
 ! D18   D(15,1,7,22)           65.4943         estimate D2E/DX2                !
 ! D19   D(12,2,11,7)           65.8765         estimate D2E/DX2                !
 ! D20   D(13,2,11,7)          -55.3233         estimate D2E/DX2                !
 ! D21   D(29,2,11,7)         -174.7376         estimate D2E/DX2                !
 ! D22   D(11,2,12,3)           85.0601         Frozen                          !
 ! D23   D(13,2,12,3)         -152.3456         estimate D2E/DX2                !
 ! D24   D(29,2,12,3)          -31.0331         estimate D2E/DX2                !
 ! D25   D(11,2,13,4)           52.1407         estimate D2E/DX2                !
 ! D26   D(11,2,13,27)         -67.8807         estimate D2E/DX2                !
 ! D27   D(11,2,13,28)         176.0372         estimate D2E/DX2                !
 ! D28   D(12,2,13,4)          -70.5777         estimate D2E/DX2                !
 ! D29   D(12,2,13,27)         169.401          estimate D2E/DX2                !
 ! D30   D(12,2,13,28)          53.3188         estimate D2E/DX2                !
 ! D31   D(29,2,13,4)          168.1798         estimate D2E/DX2                !
 ! D32   D(29,2,13,27)          48.1584         estimate D2E/DX2                !
 ! D33   D(29,2,13,28)         -67.9238         estimate D2E/DX2                !
 ! D34   D(9,3,8,10)            53.1393         estimate D2E/DX2                !
 ! D35   D(9,3,8,23)           -66.5077         estimate D2E/DX2                !
 ! D36   D(9,3,8,24)           174.6909         estimate D2E/DX2                !
 ! D37   D(12,3,8,10)          179.1056         estimate D2E/DX2                !
 ! D38   D(12,3,8,23)           59.4586         estimate D2E/DX2                !
 ! D39   D(12,3,8,24)          -59.3428         estimate D2E/DX2                !
 ! D40   D(16,3,8,10)          -64.7148         estimate D2E/DX2                !
 ! D41   D(16,3,8,23)          175.6382         estimate D2E/DX2                !
 ! D42   D(16,3,8,24)           56.8367         estimate D2E/DX2                !
 ! D43   D(8,3,9,5)            -56.5851         estimate D2E/DX2                !
 ! D44   D(8,3,9,30)            65.0513         estimate D2E/DX2                !
 ! D45   D(8,3,9,31)          -174.4971         estimate D2E/DX2                !
 ! D46   D(12,3,9,5)           174.309          estimate D2E/DX2                !
 ! D47   D(12,3,9,30)          -64.0546         estimate D2E/DX2                !
 ! D48   D(12,3,9,31)           56.397          estimate D2E/DX2                !
 ! D49   D(16,3,9,5)            61.7413         estimate D2E/DX2                !
 ! D50   D(16,3,9,30)         -176.6222         estimate D2E/DX2                !
 ! D51   D(16,3,9,31)          -56.1707         estimate D2E/DX2                !
 ! D52   D(8,3,12,2)           -46.5571         estimate D2E/DX2                !
 ! D53   D(9,3,12,2)            79.7665         estimate D2E/DX2                !
 ! D54   D(16,3,12,2)         -165.2614         estimate D2E/DX2                !
 ! D55   D(1,4,13,2)           -52.0753         estimate D2E/DX2                !
 ! D56   D(1,4,13,27)           66.7164         estimate D2E/DX2                !
 ! D57   D(1,4,13,28)         -174.4678         estimate D2E/DX2                !
 ! D58   D(17,4,13,2)         -173.777          estimate D2E/DX2                !
 ! D59   D(17,4,13,27)         -54.9853         estimate D2E/DX2                !
 ! D60   D(17,4,13,28)          63.8304         estimate D2E/DX2                !
 ! D61   D(18,4,13,2)           68.6967         estimate D2E/DX2                !
 ! D62   D(18,4,13,27)        -172.5116         estimate D2E/DX2                !
 ! D63   D(18,4,13,28)         -53.6958         estimate D2E/DX2                !
 ! D64   D(9,5,6,10)           -60.3599         estimate D2E/DX2                !
 ! D65   D(9,5,6,19)           178.345          estimate D2E/DX2                !
 ! D66   D(9,5,6,20)            61.6913         estimate D2E/DX2                !
 ! D67   D(6,5,9,3)             60.4261         estimate D2E/DX2                !
 ! D68   D(6,5,9,30)           -62.1045         estimate D2E/DX2                !
 ! D69   D(6,5,9,31)          -179.5994         estimate D2E/DX2                !
 ! D70   D(5,6,10,8)            55.8659         estimate D2E/DX2                !
 ! D71   D(5,6,10,25)          -65.3659         estimate D2E/DX2                !
 ! D72   D(5,6,10,26)          177.4314         estimate D2E/DX2                !
 ! D73   D(19,6,10,8)          174.0755         estimate D2E/DX2                !
 ! D74   D(19,6,10,25)          52.8436         estimate D2E/DX2                !
 ! D75   D(19,6,10,26)         -64.3591         estimate D2E/DX2                !
 ! D76   D(20,6,10,8)          -65.2387         estimate D2E/DX2                !
 ! D77   D(20,6,10,25)         173.5295         estimate D2E/DX2                !
 ! D78   D(20,6,10,26)          56.3268         estimate D2E/DX2                !
 ! D79   D(1,7,11,2)            57.3204         estimate D2E/DX2                !
 ! D80   D(21,7,11,2)          -65.4128         estimate D2E/DX2                !
 ! D81   D(22,7,11,2)          178.5008         estimate D2E/DX2                !
 ! D82   D(3,8,10,6)           -52.7895         estimate D2E/DX2                !
 ! D83   D(3,8,10,25)           67.8504         estimate D2E/DX2                !
 ! D84   D(3,8,10,26)         -173.8188         estimate D2E/DX2                !
 ! D85   D(23,8,10,6)           67.6625         estimate D2E/DX2                !
 ! D86   D(23,8,10,25)        -171.6976         estimate D2E/DX2                !
 ! D87   D(23,8,10,26)         -53.3668         estimate D2E/DX2                !
 ! D88   D(24,8,10,6)         -174.0839         estimate D2E/DX2                !
 ! D89   D(24,8,10,25)         -53.444          estimate D2E/DX2                !
 ! D90   D(24,8,10,26)          64.8869         estimate D2E/DX2                !
 --------------------------------------------------------------------------------
 Trust Radius=3.00D-01 FncErr=1.00D-07 GrdErr=1.00D-06 EigMax=2.50D+02 EigMin=1.00D-04
 Number of steps in this run=    186 maximum allowed number of steps=    186.
 GradGradGradGradGradGradGradGradGradGradGradGradGradGradGradGradGradGrad

                          Input orientation:                          
 ---------------------------------------------------------------------
 Center     Atomic      Atomic             Coordinates (Angstroms)
 Number     Number       Type             X           Y           Z
 ---------------------------------------------------------------------
      1          6           0       -3.678993    0.511306   -0.204924
      2          6           0       -1.028043   -0.331869    0.601203
      3          6           0        1.080808   -0.170117   -0.639501
      4          6           0       -3.260336   -0.943262   -0.418614
      5          8           0        3.281183   -1.065900   -0.210882
      6          6           0        3.720256    0.121273    0.424622
      7          6           0       -2.456500    1.413976   -0.205913
      8          6           0        1.478981    1.162576   -0.011827
      9          6           0        1.901386   -1.312998   -0.045313
     10          6           0        2.996539    1.334782   -0.135113
     11          8           0       -1.492351    0.985166    0.745970
     12          8           0       -0.302767   -0.487203   -0.586543
     13          6           0       -2.183720   -1.322319    0.599341
     14          1           0       -4.195285    0.609630    0.747263
     15          1           0       -4.362902    0.840077   -0.982296
     16          1           0        1.297377   -0.127229   -1.699832
     17          1           0       -4.113942   -1.606015   -0.314805
     18          1           0       -2.881290   -1.070483   -1.429164
     19          1           0        4.786008    0.181753    0.251755
     20          1           0        3.550676    0.033853    1.495530
     21          1           0       -2.002794    1.442857   -1.190919
     22          1           0       -2.711780    2.426213    0.075816
     23          1           0        1.204420    1.182305    1.037875
     24          1           0        0.960176    1.978550   -0.503285
     25          1           0        3.274016    1.464344   -1.178158
     26          1           0        3.318261    2.223325    0.399761
     27          1           0       -2.613749   -1.318753    1.597280
     28          1           0       -1.793765   -2.317591    0.415828
     29          1           0       -0.390226   -0.497384    1.455167
     30          1           0        1.680301   -1.443685    1.010831
     31          1           0        1.683704   -2.238356   -0.560783
 ---------------------------------------------------------------------
                    Distance matrix (angstroms):
                    1          2          3          4          5
     1  C    0.000000
     2  C    2.896260   0.000000
     3  C    4.827929   2.452094   0.000000
     4  C    1.528629   2.529221   4.414983   0.000000
     5  O    7.136642   4.446090   2.414082   6.545965   0.000000
     6  C    7.436218   4.773140   2.860761   7.111466   1.416344
     7  C    1.519639   2.395809   3.899987   2.499593   6.250665
     8  C    5.202512   2.982338   1.525971   5.202034   2.872918
     9  C    5.873176   3.156288   1.527280   5.188394   1.411492
    10  C    6.726493   4.417822   2.487801   6.664709   2.418685
    11  O    2.431079   1.403966   3.142508   2.863715   5.282903
    12  O    3.541406   1.400319   1.420432   2.997233   3.649755
    13  C    2.498973   1.522033   3.676879   1.529385   5.530586
    14  H    1.087605   3.307442   5.510742   2.155197   7.721594
    15  H    1.086337   3.873269   5.547250   2.171103   7.915798
    16  H    5.235144   3.277837   1.083071   4.804183   2.652086
    17  H    2.164325   3.461978   5.399320   1.085662   7.415551
    18  H    2.153404   2.846483   4.139136   1.086772   6.281744
    19  H    8.483714   5.847145   3.827095   8.152221   2.008773
    20  H    7.442286   4.679556   3.271117   7.142030   2.047907
    21  H    2.156297   2.703977   3.523400   2.805607   5.930830
    22  H    2.163605   3.273838   4.651487   3.449455   6.942093
    23  H    5.083553   2.732635   2.158220   5.154943   3.305566
    24  H    4.874804   3.242059   2.156357   5.133895   3.839433
    25  H    7.085182   4.990012   2.787790   7.005086   2.708839
    26  H    7.228984   5.045786   3.437270   7.346765   3.345633
    27  H    2.780611   2.116736   4.469039   2.150092   6.171192
    28  H    3.455731   2.136302   3.740125   2.176213   5.264465
    29  H    3.819600   1.078638   2.580442   3.456500   4.071630
    30  H    5.832845   2.956190   2.169093   5.167556   2.048933
    31  H    6.037035   3.512617   2.155758   5.112828   2.012218
                    6          7          8          9         10
     6  C    0.000000
     7  C    6.342000   0.000000
     8  C    2.509604   3.948276   0.000000
     9  C    2.363527   5.143282   2.511576   0.000000
    10  C    1.519761   5.454074   1.532265   2.866734   0.000000
    11  O    5.293472   1.421106   3.071570   4.174343   4.587883
    12  O    4.192542   2.897918   2.495335   2.415193   3.795898
    13  C    6.080413   2.865337   4.468065   4.135669   5.868108
    14  H    7.937152   2.139834   5.751457   6.441589   7.281948
    15  H    8.236112   2.136937   5.930718   6.689916   7.424542
    16  H    3.231935   4.324199   2.132121   2.123278   2.733674
    17  H    8.056360   3.446639   6.248014   6.028487   7.696721
    18  H    6.959685   2.801665   5.099741   4.984761   6.481415
    19  H    1.081373   7.360826   3.459468   3.262449   2.163641
    20  H    1.087770   6.394201   2.799654   2.628376   2.158351
    21  H    6.091786   1.084859   3.686675   4.914242   5.110747
    22  H    6.841455   1.081278   4.378006   5.939501   5.815550
    23  H    2.798446   3.873373   1.085195   2.808130   2.147287
    24  H    3.453771   3.475752   1.084667   3.453969   2.167201
    25  H    2.138194   5.812625   2.161838   3.298648   1.087071
    26  H    2.140290   5.862572   2.162763   3.835519   1.085866
    27  H    6.600638   3.277810   5.049422   4.804642   6.443428
    28  H    6.029309   3.840621   4.796386   3.856942   6.048998
    29  H    4.282619   3.268329   2.898530   2.857998   4.166053
    30  H    2.637072   5.172989   2.806948   1.086921   3.281090
    31  H    3.269008   5.532337   3.451029   1.081380   3.830411
                   11         12         13         14         15
    11  O    0.000000
    12  O    2.314859   0.000000
    13  C    2.413292   2.375231   0.000000
    14  H    2.728897   4.258377   2.792974   0.000000
    15  H    3.353806   4.289870   3.453457   1.752876   0.000000
    16  H    3.873235   1.982285   4.339640   6.058100   5.786994
    17  H    3.835649   3.981286   2.154508   2.458391   2.547723
    18  H    3.299402   2.774708   2.159828   3.047326   2.458679
    19  H    6.348820   5.200565   7.138638   9.005122   9.255205
    20  H    5.186421   4.410845   5.960340   7.803290   8.331527
    21  H    2.054646   2.642062   3.299085   3.042669   2.444786
    22  H    2.003180   3.837975   3.821573   2.439591   2.522228
    23  H    2.719678   2.774456   4.236148   5.437759   5.932393
    24  H    2.926147   2.771623   4.689947   5.478740   5.464497
    25  H    5.162377   4.117271   6.380586   7.760686   7.664893
    26  H    4.979446   4.629428   6.548528   7.692733   7.926142
    27  H    2.700056   3.286517   1.086655   2.634852   3.791345
    28  H    3.332874   2.564789   1.084577   3.800759   4.304194
    29  H    1.978786   2.043608   2.151645   4.025554   4.848936
    30  H    4.004396   2.720114   3.887764   6.229613   6.760801
    31  H    4.710204   2.648257   4.140287   6.662171   6.798225
                   16         17         18         19         20
    16  H    0.000000
    17  H    5.778190   0.000000
    18  H    4.292348   1.745858   0.000000
    19  H    4.009328   9.095395   7.948650   0.000000
    20  H    3.913265   8.044430   7.151474   1.759232   0.000000
    21  H    3.689890   3.810530   2.673087   7.054043   6.327980
    22  H    5.074084   4.286899   3.810588   7.828498   6.852542
    23  H    3.036208   6.155440   5.277723   3.800903   2.652038
    24  H    2.445350   6.215409   4.991064   4.293665   3.806284
    25  H    2.590820   8.047012   6.661542   2.444547   3.044906
    26  H    3.743977   8.391191   7.254555   2.518770   2.459373
    27  H    5.252388   2.447278   3.048373   7.669313   6.311896
    28  H    4.339224   2.534440   2.478303   7.040387   5.937853
    29  H    3.597087   4.269417   3.853986   5.357502   3.976751
    30  H    3.037660   5.946168   5.186614   3.586595   2.432356
    31  H    2.429720   5.837213   4.791365   4.017641   3.588446
                   21         22         23         24         25
    21  H    0.000000
    22  H    1.753359   0.000000
    23  H    3.914286   4.220129   0.000000
    24  H    3.088527   3.744198   1.751809   0.000000
    25  H    5.276869   6.190912   3.045255   2.464491   0.000000
    26  H    5.608299   6.042144   2.441155   2.536922   1.751525
    27  H    3.971626   4.043418   4.598548   5.296935   7.079157
    28  H    4.094667   4.843763   4.650304   5.185151   6.521214
    29  H    3.656047   3.979905   2.353377   3.433565   4.920310
    30  H    5.171558   5.927962   2.668898   3.810882   3.973441
    31  H    5.247730   6.440787   3.806093   4.278913   4.076792
                   26         27         28         29         30
    26  H    0.000000
    27  H    7.012069   0.000000
    28  H    6.837616   1.750965   0.000000
    29  H    4.719006   2.374636   2.522558   0.000000
    30  H    4.062423   4.335712   3.631374   2.319483   0.000000
    31  H    4.847785   4.896020   3.612871   3.375829   1.761103
                   31
    31  H    0.000000
 Stoichiometry    C10H18O3
 Framework group  C1[X(C10H18O3)]
 Deg. of freedom    87
 Full point group                 C1      NOp   1
 Largest Abelian subgroup         C1      NOp   1
 Largest concise Abelian subgroup C1      NOp   1
                         Standard orientation:                         
 ---------------------------------------------------------------------
 Center     Atomic      Atomic             Coordinates (Angstroms)
 Number     Number       Type             X           Y           Z
 ---------------------------------------------------------------------
      1          6           0       -3.678993    0.511306   -0.204924
      2          6           0       -1.028043   -0.331869    0.601203
      3          6           0        1.080808   -0.170117   -0.639501
      4          6           0       -3.260336   -0.943262   -0.418614
      5          8           0        3.281183   -1.065900   -0.210882
      6          6           0        3.720256    0.121273    0.424622
      7          6           0       -2.456500    1.413976   -0.205913
      8          6           0        1.478981    1.162576   -0.011827
      9          6           0        1.901386   -1.312998   -0.045313
     10          6           0        2.996539    1.334782   -0.135113
     11          8           0       -1.492351    0.985166    0.745970
     12          8           0       -0.302767   -0.487203   -0.586543
     13          6           0       -2.183720   -1.322319    0.599341
     14          1           0       -4.195285    0.609630    0.747263
     15          1           0       -4.362902    0.840077   -0.982296
     16          1           0        1.297377   -0.127229   -1.699832
     17          1           0       -4.113942   -1.606015   -0.314805
     18          1           0       -2.881290   -1.070483   -1.429164
     19          1           0        4.786008    0.181753    0.251755
     20          1           0        3.550676    0.033853    1.495530
     21          1           0       -2.002794    1.442857   -1.190919
     22          1           0       -2.711780    2.426213    0.075816
     23          1           0        1.204420    1.182305    1.037875
     24          1           0        0.960176    1.978550   -0.503285
     25          1           0        3.274016    1.464344   -1.178158
     26          1           0        3.318261    2.223325    0.399761
     27          1           0       -2.613749   -1.318753    1.597280
     28          1           0       -1.793765   -2.317591    0.415828
     29          1           0       -0.390226   -0.497384    1.455167
     30          1           0        1.680301   -1.443685    1.010831
     31          1           0        1.683704   -2.238356   -0.560783
 ---------------------------------------------------------------------
 Rotational constants (GHZ):           2.0225258           0.4196499           0.3751577
 Standard basis: 6-311++G(2d,2p) (5D, 7F)
 There are   557 symmetry adapted cartesian basis functions of A   symmetry.
 There are   531 symmetry adapted basis functions of A   symmetry.
   531 basis functions,   762 primitive gaussians,   557 cartesian basis functions
    51 alpha electrons       51 beta electrons
       nuclear repulsion energy       896.3464484486 Hartrees.
 NAtoms=   31 NActive=   31 NUniq=   31 SFac= 1.00D+00 NAtFMM=   60 NAOKFM=F Big=F
 Integral buffers will be    131072 words long.
 Raffenetti 2 integral format.
 Two-electron integral symmetry is turned on.
 ------------------------------------------------------------------------------
 Polarizable Continuum Model (PCM)
 =================================
 Model                : PCM.
 Atomic radii         : UFF (Universal Force Field).
 Polarization charges : Total charges.
 Charge compensation  : None.
 Solution method      : On-the-fly selection.
 Cavity type          : Scaled VdW (van der Waals Surface) (Alpha=1.100).
 Cavity algorithm     : GePol (No added spheres)
                        Default sphere list used, NSphG=   31.
                        Lebedev-Laikov grids with approx.  5.0 points / Ang**2.
                        Smoothing algorithm: York/Karplus (Gamma=1.0000).
                        Polarization charges: spherical gaussians, with
                                              point-specific exponents (IZeta= 3).
                        Self-potential: point-specific (ISelfS= 7).
                        Self-field    : sphere-specific E.n sum rule (ISelfD= 2).
 1st derivatives      : Analytical E(r).r(x)/FMM algorithm (CHGder, D1EAlg=3).
                        Cavity 1st derivative terms included.
 Solvent              : Water, Eps=  78.355300 Eps(inf)=   1.777849
 ------------------------------------------------------------------------------
 One-electron integrals computed using PRISM.
 NBasis=   531 RedAO= T EigKep=  5.25D-06  NBF=   531
 NBsUse=   531 1.00D-06 EigRej= -1.00D+00 NBFU=   531
 ExpMin= 3.60D-02 ExpMax= 8.59D+03 ExpMxC= 1.30D+03 IAcc=3 IRadAn=         5 AccDes= 0.00D+00
 Harris functional with IExCor= 1009 and IRadAn=       5 diagonalized for initial guess.
 HarFok:  IExCor= 1009 AccDes= 0.00D+00 IRadAn=         5 IDoV= 1 UseB2=F ITyADJ=14
 ICtDFT=  3500011 ScaDFX=  1.000000  1.000000  1.000000  1.000000
 FoFCou: FMM=F IPFlag=           0 FMFlag=      100000 FMFlg1=           0
         NFxFlg=           0 DoJE=T BraDBF=F KetDBF=T FulRan=T
         wScrn=  0.000000 ICntrl=       500 IOpCl=  0 I1Cent=   200000004 NGrid=           0
         NMat0=    1 NMatS0=      1 NMatT0=    0 NMatD0=    1 NMtDS0=    0 NMtDT0=    0
 Petite list used in FoFCou.
 Requested convergence on RMS density matrix=1.00D-08 within 128 cycles.
 Requested convergence on MAX density matrix=1.00D-06.
 Requested convergence on             energy=1.00D-06.
 No special actions if energy rises.
 Inv3:  Mode=1 IEnd=    12546075.
 Iteration    1 A*A^-1 deviation from unit magnitude is 4.88D-15 for   2042.
 Iteration    1 A*A^-1 deviation from orthogonality  is 2.17D-15 for   2025    927.
 Iteration    1 A^-1*A deviation from unit magnitude is 5.11D-15 for   2042.
 Iteration    1 A^-1*A deviation from orthogonality  is 4.52D-15 for   2030    852.
 Error on total polarization charges =  0.01473
 SCF Done:  E(RM062X) =  -617.498588634     A.U. after   12 cycles
            NFock= 12  Conv=0.58D-08     -V/T= 2.0035

 **********************************************************************

            Population analysis using the SCF density.

 **********************************************************************

 Orbital symmetries:
       Occupied  (A) (A) (A) (A) (A) (A) (A) (A) (A) (A) (A) (A)
                 (A) (A) (A) (A) (A) (A) (A) (A) (A) (A) (A) (A)
                 (A) (A) (A) (A) (A) (A) (A) (A) (A) (A) (A) (A)
                 (A) (A) (A) (A) (A) (A) (A) (A) (A) (A) (A) (A)
                 (A) (A) (A)
       Virtual   (A) (A) (A) (A) (A) (A) (A) (A) (A) (A) (A) (A)
                 (A) (A) (A) (A) (A) (A) (A) (A) (A) (A) (A) (A)
                 (A) (A) (A) (A) (A) (A) (A) (A) (A) (A) (A) (A)
                 (A) (A) (A) (A) (A) (A) (A) (A) (A) (A) (A) (A)
                 (A) (A) (A) (A) (A) (A) (A) (A) (A) (A) (A) (A)
                 (A) (A) (A) (A) (A) (A) (A) (A) (A) (A) (A) (A)
                 (A) (A) (A) (A) (A) (A) (A) (A) (A) (A) (A) (A)
                 (A) (A) (A) (A) (A) (A) (A) (A) (A) (A) (A) (A)
                 (A) (A) (A) (A) (A) (A) (A) (A) (A) (A) (A) (A)
                 (A) (A) (A) (A) (A) (A) (A) (A) (A) (A) (A) (A)
                 (A) (A) (A) (A) (A) (A) (A) (A) (A) (A) (A) (A)
                 (A) (A) (A) (A) (A) (A) (A) (A) (A) (A) (A) (A)
                 (A) (A) (A) (A) (A) (A) (A) (A) (A) (A) (A) (A)
                 (A) (A) (A) (A) (A) (A) (A) (A) (A) (A) (A) (A)
                 (A) (A) (A) (A) (A) (A) (A) (A) (A) (A) (A) (A)
                 (A) (A) (A) (A) (A) (A) (A) (A) (A) (A) (A) (A)
                 (A) (A) (A) (A) (A) (A) (A) (A) (A) (A) (A) (A)
                 (A) (A) (A) (A) (A) (A) (A) (A) (A) (A) (A) (A)
                 (A) (A) (A) (A) (A) (A) (A) (A) (A) (A) (A) (A)
                 (A) (A) (A) (A) (A) (A) (A) (A) (A) (A) (A) (A)
                 (A) (A) (A) (A) (A) (A) (A) (A) (A) (A) (A) (A)
                 (A) (A) (A) (A) (A) (A) (A) (A) (A) (A) (A) (A)
                 (A) (A) (A) (A) (A) (A) (A) (A) (A) (A) (A) (A)
                 (A) (A) (A) (A) (A) (A) (A) (A) (A) (A) (A) (A)
                 (A) (A) (A) (A) (A) (A) (A) (A) (A) (A) (A) (A)
                 (A) (A) (A) (A) (A) (A) (A) (A) (A) (A) (A) (A)
                 (A) (A) (A) (A) (A) (A) (A) (A) (A) (A) (A) (A)
                 (A) (A) (A) (A) (A) (A) (A) (A) (A) (A) (A) (A)
                 (A) (A) (A) (A) (A) (A) (A) (A) (A) (A) (A) (A)
                 (A) (A) (A) (A) (A) (A) (A) (A) (A) (A) (A) (A)
                 (A) (A) (A) (A) (A) (A) (A) (A) (A) (A) (A) (A)
                 (A) (A) (A) (A) (A) (A) (A) (A) (A) (A) (A) (A)
                 (A) (A) (A) (A) (A) (A) (A) (A) (A) (A) (A) (A)
                 (A) (A) (A) (A) (A) (A) (A) (A) (A) (A) (A) (A)
                 (A) (A) (A) (A) (A) (A) (A) (A) (A) (A) (A) (A)
                 (A) (A) (A) (A) (A) (A) (A) (A) (A) (A) (A) (A)
                 (A) (A) (A) (A) (A) (A) (A) (A) (A) (A) (A) (A)
                 (A) (A) (A) (A) (A) (A) (A) (A) (A) (A) (A) (A)
                 (A) (A) (A) (A) (A) (A) (A) (A) (A) (A) (A) (A)
                 (A) (A) (A) (A) (A) (A) (A) (A) (A) (A) (A) (A)
 The electronic state is 1-A.
 Alpha  occ. eigenvalues --  -19.62973 -19.62929 -19.62507 -10.63404 -10.58837
 Alpha  occ. eigenvalues --  -10.57870 -10.57863 -10.57517 -10.53152 -10.53111
 Alpha  occ. eigenvalues --  -10.52936 -10.52894 -10.52697  -1.19931  -1.16764
 Alpha  occ. eigenvalues --   -1.13439  -0.90857  -0.89628  -0.87541  -0.84828
 Alpha  occ. eigenvalues --   -0.75082  -0.74305  -0.73214  -0.71098  -0.66780
 Alpha  occ. eigenvalues --   -0.62618  -0.60485  -0.58916  -0.56683  -0.55497
 Alpha  occ. eigenvalues --   -0.54549  -0.53297  -0.52746  -0.50937  -0.50014
 Alpha  occ. eigenvalues --   -0.48884  -0.46581  -0.46150  -0.45258  -0.45019
 Alpha  occ. eigenvalues --   -0.43966  -0.43331  -0.40861  -0.40272  -0.39335
 Alpha  occ. eigenvalues --   -0.38390  -0.37649  -0.36635  -0.34770  -0.33129
 Alpha  occ. eigenvalues --   -0.31521
 Alpha virt. eigenvalues --   -0.00078   0.00711   0.00813   0.01109   0.02171
 Alpha virt. eigenvalues --    0.02507   0.02630   0.03325   0.03556   0.04363
 Alpha virt. eigenvalues --    0.04545   0.04907   0.05591   0.05899   0.06898
 Alpha virt. eigenvalues --    0.07314   0.07546   0.07738   0.09093   0.09617
 Alpha virt. eigenvalues --    0.10409   0.10666   0.11198   0.11585   0.11932
 Alpha virt. eigenvalues --    0.12079   0.12526   0.12787   0.13016   0.13725
 Alpha virt. eigenvalues --    0.13858   0.14038   0.14509   0.14614   0.14978
 Alpha virt. eigenvalues --    0.15135   0.15308   0.15536   0.15718   0.15893
 Alpha virt. eigenvalues --    0.16434   0.17154   0.17333   0.17376   0.17908
 Alpha virt. eigenvalues --    0.18054   0.18290   0.18616   0.18937   0.19647
 Alpha virt. eigenvalues --    0.19702   0.20179   0.20522   0.20741   0.20989
 Alpha virt. eigenvalues --    0.21526   0.22653   0.23347   0.23900   0.24702
 Alpha virt. eigenvalues --    0.25104   0.25635   0.26010   0.26736   0.27634
 Alpha virt. eigenvalues --    0.27798   0.28067   0.28808   0.29131   0.29601
 Alpha virt. eigenvalues --    0.29703   0.30184   0.30915   0.31196   0.31331
 Alpha virt. eigenvalues --    0.32382   0.32774   0.33340   0.33852   0.34677
 Alpha virt. eigenvalues --    0.34832   0.34971   0.35465   0.35736   0.36421
 Alpha virt. eigenvalues --    0.36815   0.37039   0.37591   0.37745   0.37966
 Alpha virt. eigenvalues --    0.38523   0.39216   0.40017   0.40379   0.40658
 Alpha virt. eigenvalues --    0.41057   0.42248   0.42922   0.44321   0.45067
 Alpha virt. eigenvalues --    0.45792   0.46425   0.49055   0.49342   0.50286
 Alpha virt. eigenvalues --    0.51392   0.52730   0.53639   0.54196   0.54446
 Alpha virt. eigenvalues --    0.55705   0.57169   0.57850   0.58787   0.59517
 Alpha virt. eigenvalues --    0.60356   0.60770   0.61399   0.61811   0.61972
 Alpha virt. eigenvalues --    0.62008   0.62986   0.63689   0.64020   0.64332
 Alpha virt. eigenvalues --    0.65306   0.65461   0.65996   0.66427   0.67518
 Alpha virt. eigenvalues --    0.68085   0.68616   0.69420   0.69917   0.69990
 Alpha virt. eigenvalues --    0.71000   0.71432   0.72035   0.72169   0.73195
 Alpha virt. eigenvalues --    0.73754   0.73917   0.74346   0.74974   0.75724
 Alpha virt. eigenvalues --    0.76222   0.77189   0.77610   0.77896   0.78853
 Alpha virt. eigenvalues --    0.80592   0.81299   0.83647   0.84110   0.86010
 Alpha virt. eigenvalues --    0.86416   0.87148   0.87956   0.88857   0.90266
 Alpha virt. eigenvalues --    0.90440   0.91787   0.92765   0.94020   0.95694
 Alpha virt. eigenvalues --    0.97669   0.98346   0.99754   1.01861   1.02495
 Alpha virt. eigenvalues --    1.02957   1.03281   1.06599   1.06933   1.07569
 Alpha virt. eigenvalues --    1.08010   1.08383   1.09582   1.10672   1.11558
 Alpha virt. eigenvalues --    1.13454   1.14690   1.14840   1.15158   1.16030
 Alpha virt. eigenvalues --    1.17667   1.18364   1.18633   1.19178   1.19877
 Alpha virt. eigenvalues --    1.20875   1.21599   1.22309   1.23267   1.23706
 Alpha virt. eigenvalues --    1.24815   1.25520   1.25769   1.27314   1.27531
 Alpha virt. eigenvalues --    1.28197   1.29386   1.30317   1.30710   1.30862
 Alpha virt. eigenvalues --    1.31809   1.32652   1.34371   1.34989   1.35111
 Alpha virt. eigenvalues --    1.36169   1.36384   1.37061   1.37381   1.37715
 Alpha virt. eigenvalues --    1.38324   1.39245   1.41034   1.41537   1.42295
 Alpha virt. eigenvalues --    1.42828   1.43351   1.44238   1.44714   1.45094
 Alpha virt. eigenvalues --    1.45980   1.46888   1.47594   1.48116   1.48410
 Alpha virt. eigenvalues --    1.49183   1.49948   1.50676   1.51621   1.52849
 Alpha virt. eigenvalues --    1.53086   1.54110   1.55487   1.56099   1.56272
 Alpha virt. eigenvalues --    1.56876   1.57287   1.57528   1.58194   1.59408
 Alpha virt. eigenvalues --    1.59756   1.59854   1.60465   1.61111   1.61821
 Alpha virt. eigenvalues --    1.62919   1.65046   1.65278   1.66697   1.67311
 Alpha virt. eigenvalues --    1.67788   1.68717   1.70265   1.70585   1.72409
 Alpha virt. eigenvalues --    1.73225   1.73835   1.76025   1.76417   1.78950
 Alpha virt. eigenvalues --    1.79296   1.80449   1.81343   1.85071   1.85382
 Alpha virt. eigenvalues --    1.86841   1.87829   1.91310   1.95667   1.98523
 Alpha virt. eigenvalues --    2.00214   2.05943   2.12996   2.16504   2.21816
 Alpha virt. eigenvalues --    2.23843   2.26423   2.31998   2.34247   2.38878
 Alpha virt. eigenvalues --    2.40880   2.44391   2.45785   2.47408   2.55641
 Alpha virt. eigenvalues --    2.58837   2.75950   2.76912   2.79135   2.80587
 Alpha virt. eigenvalues --    2.84463   2.90331   2.92569   2.93455   2.94635
 Alpha virt. eigenvalues --    2.96840   2.98092   3.01357   3.02117   3.04095
 Alpha virt. eigenvalues --    3.06958   3.07672   3.08693   3.10021   3.12012
 Alpha virt. eigenvalues --    3.14640   3.15648   3.16828   3.19477   3.23035
 Alpha virt. eigenvalues --    3.26294   3.28835   3.30730   3.33320   3.34134
 Alpha virt. eigenvalues --    3.35511   3.36827   3.38173   3.40015   3.41122
 Alpha virt. eigenvalues --    3.43102   3.43780   3.44282   3.45373   3.46550
 Alpha virt. eigenvalues --    3.48322   3.50186   3.51051   3.51666   3.52443
 Alpha virt. eigenvalues --    3.52739   3.53987   3.55328   3.55679   3.56406
 Alpha virt. eigenvalues --    3.56581   3.57861   3.58297   3.59675   3.60296
 Alpha virt. eigenvalues --    3.60878   3.62437   3.63350   3.63753   3.64926
 Alpha virt. eigenvalues --    3.66922   3.67868   3.68531   3.69308   3.69782
 Alpha virt. eigenvalues --    3.70557   3.70739   3.72571   3.72975   3.74557
 Alpha virt. eigenvalues --    3.75409   3.75586   3.76029   3.76950   3.78079
 Alpha virt. eigenvalues --    3.79204   3.80056   3.81186   3.82849   3.85919
 Alpha virt. eigenvalues --    3.86863   3.88032   3.89683   3.90058   3.91195
 Alpha virt. eigenvalues --    3.93410   3.94028   3.95027   3.96201   3.97997
 Alpha virt. eigenvalues --    3.99313   4.01080   4.02392   4.03199   4.03947
 Alpha virt. eigenvalues --    4.05056   4.05893   4.06141   4.06998   4.07559
 Alpha virt. eigenvalues --    4.08357   4.09831   4.10063   4.11039   4.11904
 Alpha virt. eigenvalues --    4.12225   4.13905   4.14761   4.15111   4.16410
 Alpha virt. eigenvalues --    4.17485   4.18194   4.18811   4.19922   4.20376
 Alpha virt. eigenvalues --    4.21770   4.23935   4.25143   4.26270   4.27253
 Alpha virt. eigenvalues --    4.28426   4.30564   4.31027   4.31703   4.32774
 Alpha virt. eigenvalues --    4.33682   4.34074   4.35814   4.37001   4.39026
 Alpha virt. eigenvalues --    4.40477   4.41915   4.44643   4.45936   4.47544
 Alpha virt. eigenvalues --    4.57610   4.60970   4.75183   4.75649   4.83466
 Alpha virt. eigenvalues --    4.85478   4.92660   4.95373   4.98931   5.01893
 Alpha virt. eigenvalues --    5.06578   5.07065   5.07678   5.08522   5.11757
 Alpha virt. eigenvalues --    5.12144   5.13905   5.16565   5.30216   5.39682
 Alpha virt. eigenvalues --    5.42694   5.58501   5.58914   5.67907   5.85305
 Alpha virt. eigenvalues --    5.88282   6.00796   7.02639   7.04608   7.05436
 Alpha virt. eigenvalues --    7.08879   7.09736   7.12988   7.14470   7.20250
 Alpha virt. eigenvalues --    7.28502   7.36579   7.41030   7.47667   7.53522
 Alpha virt. eigenvalues --    7.54895   7.63819  23.96223  23.96797  24.06831
 Alpha virt. eigenvalues --   24.07077  24.11346  24.11477  24.13353  24.15733
 Alpha virt. eigenvalues --   24.18249  24.22048  50.17149  50.18237  50.28488
          Condensed to atoms (all electrons):
               1          2          3          4          5          6
     1  C    5.629270   0.431577  -0.059210   0.050121  -0.000211  -0.001124
     2  C    0.431577   6.997199  -0.930838  -0.243989  -0.005100  -0.017455
     3  C   -0.059210  -0.930838   8.403265   0.140715   0.002215   0.147900
     4  C    0.050121  -0.243989   0.140715   5.664875   0.000159   0.000182
     5  O   -0.000211  -0.005100   0.002215   0.000159   8.359902   0.097165
     6  C   -0.001124  -0.017455   0.147900   0.000182   0.097165   5.377658
     7  C   -0.065593  -0.555983   0.141580  -0.028543   0.000786   0.003357
     8  C    0.029689   0.266495  -1.346274  -0.022649  -0.048549  -0.111393
     9  C    0.007894   0.202952  -0.968257  -0.024362   0.148516  -0.199578
    10  C   -0.008576  -0.125431   0.201812   0.007479   0.004389   0.136223
    11  O   -0.054946   0.242276  -0.081727  -0.012124   0.000101  -0.000033
    12  O   -0.002877   0.349063  -0.098901  -0.039617   0.000520  -0.002931
    13  C   -0.269528  -0.781515  -0.035918  -0.028442   0.002439   0.001612
    14  H    0.490355  -0.001587  -0.009998  -0.021146  -0.000001  -0.000078
    15  H    0.440574   0.004733   0.007991  -0.046765   0.000001   0.000025
    16  H   -0.004643  -0.047231   0.632842   0.007920   0.004979   0.013317
    17  H   -0.016568   0.019098   0.008493   0.417442  -0.000007   0.000126
    18  H   -0.063792  -0.032921  -0.013955   0.514638   0.000076  -0.000349
    19  H   -0.000086  -0.000033  -0.002931  -0.000066  -0.072937   0.426714
    20  H   -0.000085  -0.004738   0.033849   0.000506  -0.041300   0.451771
    21  H   -0.061521  -0.019980  -0.031347  -0.012072  -0.000141   0.000299
    22  H   -0.034110  -0.005500   0.008135   0.013031   0.000059  -0.000013
    23  H    0.002488  -0.072286   0.162377   0.000854   0.000526   0.000047
    24  H   -0.002195   0.043104  -0.065558  -0.004774  -0.002033  -0.002677
    25  H    0.000270  -0.007929  -0.010636   0.000537  -0.008765  -0.080646
    26  H    0.000236   0.001098   0.000848   0.000045   0.008390  -0.033665
    27  H   -0.024316  -0.132835   0.009083  -0.007926   0.000005   0.000259
    28  H   -0.000423  -0.034436  -0.005862  -0.043479   0.000547  -0.000399
    29  H    0.027122   0.502376   0.013509  -0.023431  -0.000128  -0.008235
    30  H   -0.005383  -0.042722   0.158233   0.011431  -0.039785  -0.004276
    31  H    0.002477   0.020265  -0.122647  -0.001159  -0.071090  -0.000300
               7          8          9         10         11         12
     1  C   -0.065593   0.029689   0.007894  -0.008576  -0.054946  -0.002877
     2  C   -0.555983   0.266495   0.202952  -0.125431   0.242276   0.349063
     3  C    0.141580  -1.346274  -0.968257   0.201812  -0.081727  -0.098901
     4  C   -0.028543  -0.022649  -0.024362   0.007479  -0.012124  -0.039617
     5  O    0.000786  -0.048549   0.148516   0.004389   0.000101   0.000520
     6  C    0.003357  -0.111393  -0.199578   0.136223  -0.000033  -0.002931
     7  C    5.566974  -0.013265  -0.030563   0.010531   0.093902  -0.011220
     8  C   -0.013265   6.739642   0.545713  -0.522838   0.022197   0.021250
     9  C   -0.030563   0.545713   6.040378  -0.145923   0.000119  -0.020798
    10  C    0.010531  -0.522838  -0.145923   6.082768   0.021209  -0.000599
    11  O    0.093902   0.022197   0.000119   0.021209   8.259108  -0.049276
    12  O   -0.011220   0.021250  -0.020798  -0.000599  -0.049276   8.308971
    13  C    0.185347  -0.056427  -0.000800   0.019260  -0.015461  -0.041831
    14  H   -0.093127   0.003555   0.000907   0.000063  -0.001684   0.000827
    15  H   -0.035069  -0.002548  -0.000390  -0.000287   0.009328  -0.000468
    16  H    0.013517  -0.074071  -0.138264  -0.010710   0.000902  -0.089806
    17  H    0.010219  -0.002297  -0.002296   0.000472  -0.004269  -0.000258
    18  H   -0.001699   0.001160   0.007108  -0.000952   0.001976  -0.002367
    19  H   -0.000021  -0.000343   0.015417  -0.031379   0.000273   0.000361
    20  H    0.000333  -0.030954  -0.027414  -0.021984  -0.000115   0.000198
    21  H    0.468781   0.012237   0.002612  -0.000167  -0.030716   0.005744
    22  H    0.443459  -0.000009   0.000082   0.002283  -0.070695   0.000246
    23  H    0.008462   0.401398  -0.087850  -0.062191  -0.002049  -0.018700
    24  H   -0.005930   0.417556   0.025908   0.005111  -0.014415   0.008920
    25  H    0.000492  -0.020146   0.000506   0.486058   0.000551  -0.000201
    26  H   -0.000664  -0.055179  -0.000282   0.450519   0.000409  -0.000783
    27  H    0.021159   0.000699  -0.004180   0.001706  -0.004556   0.008738
    28  H    0.005383   0.001460   0.009334  -0.002305   0.009400   0.001606
    29  H   -0.042106   0.018438   0.000657  -0.012840  -0.076379  -0.032424
    30  H    0.005848  -0.114290   0.337182   0.035814  -0.002135  -0.012169
    31  H   -0.003061   0.026522   0.504040  -0.000236  -0.000102   0.010871
              13         14         15         16         17         18
     1  C   -0.269528   0.490355   0.440574  -0.004643  -0.016568  -0.063792
     2  C   -0.781515  -0.001587   0.004733  -0.047231   0.019098  -0.032921
     3  C   -0.035918  -0.009998   0.007991   0.632842   0.008493  -0.013955
     4  C   -0.028442  -0.021146  -0.046765   0.007920   0.417442   0.514638
     5  O    0.002439  -0.000001   0.000001   0.004979  -0.000007   0.000076
     6  C    0.001612  -0.000078   0.000025   0.013317   0.000126  -0.000349
     7  C    0.185347  -0.093127  -0.035069   0.013517   0.010219  -0.001699
     8  C   -0.056427   0.003555  -0.002548  -0.074071  -0.002297   0.001160
     9  C   -0.000800   0.000907  -0.000390  -0.138264  -0.002296   0.007108
    10  C    0.019260   0.000063  -0.000287  -0.010710   0.000472  -0.000952
    11  O   -0.015461  -0.001684   0.009328   0.000902  -0.004269   0.001976
    12  O   -0.041831   0.000827  -0.000468  -0.089806  -0.000258  -0.002367
    13  C    6.766305  -0.003072  -0.005744  -0.012346  -0.052812  -0.027690
    14  H   -0.003072   0.486086  -0.012668  -0.000646  -0.001640   0.002344
    15  H   -0.005744  -0.012668   0.488624   0.000610  -0.007564  -0.005551
    16  H   -0.012346  -0.000646   0.000610   0.450972   0.000358  -0.001336
    17  H   -0.052812  -0.001640  -0.007564   0.000358   0.463437  -0.005394
    18  H   -0.027690   0.002344  -0.005551  -0.001336  -0.005394   0.460389
    19  H    0.000694   0.000001  -0.000002  -0.002728   0.000005  -0.000025
    20  H    0.000361   0.000006  -0.000005   0.001754   0.000006   0.000046
    21  H    0.039282   0.005512  -0.000723  -0.005403  -0.001271  -0.000659
    22  H   -0.011819  -0.006380  -0.008069   0.000806   0.001062  -0.002442
    23  H   -0.016393  -0.000665   0.000328   0.017698   0.000057  -0.000450
    24  H   -0.006417   0.000303   0.000035  -0.010710  -0.000090   0.000334
    25  H    0.001345   0.000012  -0.000003   0.000491   0.000005   0.000002
    26  H   -0.000337   0.000003  -0.000014  -0.001038   0.000004  -0.000031
    27  H    0.510983  -0.001652  -0.002812   0.000199  -0.003101   0.002499
    28  H    0.424126  -0.001859   0.001620   0.001139  -0.009552  -0.002813
    29  H   -0.087672   0.001653   0.001563  -0.007748   0.001101  -0.003867
    30  H   -0.000267  -0.000324   0.000064   0.012678   0.000438   0.000018
    31  H   -0.004630   0.000020   0.000019  -0.011455  -0.000130  -0.000281
              19         20         21         22         23         24
     1  C   -0.000086  -0.000085  -0.061521  -0.034110   0.002488  -0.002195
     2  C   -0.000033  -0.004738  -0.019980  -0.005500  -0.072286   0.043104
     3  C   -0.002931   0.033849  -0.031347   0.008135   0.162377  -0.065558
     4  C   -0.000066   0.000506  -0.012072   0.013031   0.000854  -0.004774
     5  O   -0.072937  -0.041300  -0.000141   0.000059   0.000526  -0.002033
     6  C    0.426714   0.451771   0.000299  -0.000013   0.000047  -0.002677
     7  C   -0.000021   0.000333   0.468781   0.443459   0.008462  -0.005930
     8  C   -0.000343  -0.030954   0.012237  -0.000009   0.401398   0.417556
     9  C    0.015417  -0.027414   0.002612   0.000082  -0.087850   0.025908
    10  C   -0.031379  -0.021984  -0.000167   0.002283  -0.062191   0.005111
    11  O    0.000273  -0.000115  -0.030716  -0.070695  -0.002049  -0.014415
    12  O    0.000361   0.000198   0.005744   0.000246  -0.018700   0.008920
    13  C    0.000694   0.000361   0.039282  -0.011819  -0.016393  -0.006417
    14  H    0.000001   0.000006   0.005512  -0.006380  -0.000665   0.000303
    15  H   -0.000002  -0.000005  -0.000723  -0.008069   0.000328   0.000035
    16  H   -0.002728   0.001754  -0.005403   0.000806   0.017698  -0.010710
    17  H    0.000005   0.000006  -0.001271   0.001062   0.000057  -0.000090
    18  H   -0.000025   0.000046  -0.000659  -0.002442  -0.000450   0.000334
    19  H    0.470554  -0.007725   0.000017  -0.000002  -0.001473   0.001015
    20  H   -0.007725   0.499307  -0.000027   0.000022  -0.006666   0.000268
    21  H    0.000017  -0.000027   0.494208  -0.011059  -0.001814  -0.002135
    22  H   -0.000002   0.000022  -0.011059   0.480156   0.000596  -0.001036
    23  H   -0.001473  -0.006666  -0.001814   0.000596   0.497657  -0.033374
    24  H    0.001015   0.000268  -0.002135  -0.001036  -0.033374   0.484895
    25  H   -0.003095   0.001336   0.000060   0.000051   0.004781  -0.007245
    26  H   -0.009289   0.005543   0.000026  -0.000016  -0.006234  -0.011477
    27  H    0.000035  -0.000027  -0.000385   0.000025   0.000895  -0.000593
    28  H   -0.000038  -0.000018  -0.001454   0.001386   0.000366  -0.000051
    29  H   -0.000251  -0.001609   0.002716  -0.000496  -0.011072   0.005549
    30  H   -0.004763   0.008752  -0.000887   0.000080   0.000816  -0.000150
    31  H    0.003533  -0.003155   0.000507  -0.000003  -0.003835  -0.000544
              25         26         27         28         29         30
     1  C    0.000270   0.000236  -0.024316  -0.000423   0.027122  -0.005383
     2  C   -0.007929   0.001098  -0.132835  -0.034436   0.502376  -0.042722
     3  C   -0.010636   0.000848   0.009083  -0.005862   0.013509   0.158233
     4  C    0.000537   0.000045  -0.007926  -0.043479  -0.023431   0.011431
     5  O   -0.008765   0.008390   0.000005   0.000547  -0.000128  -0.039785
     6  C   -0.080646  -0.033665   0.000259  -0.000399  -0.008235  -0.004276
     7  C    0.000492  -0.000664   0.021159   0.005383  -0.042106   0.005848
     8  C   -0.020146  -0.055179   0.000699   0.001460   0.018438  -0.114290
     9  C    0.000506  -0.000282  -0.004180   0.009334   0.000657   0.337182
    10  C    0.486058   0.450519   0.001706  -0.002305  -0.012840   0.035814
    11  O    0.000551   0.000409  -0.004556   0.009400  -0.076379  -0.002135
    12  O   -0.000201  -0.000783   0.008738   0.001606  -0.032424  -0.012169
    13  C    0.001345  -0.000337   0.510983   0.424126  -0.087672  -0.000267
    14  H    0.000012   0.000003  -0.001652  -0.001859   0.001653  -0.000324
    15  H   -0.000003  -0.000014  -0.002812   0.001620   0.001563   0.000064
    16  H    0.000491  -0.001038   0.000199   0.001139  -0.007748   0.012678
    17  H    0.000005   0.000004  -0.003101  -0.009552   0.001101   0.000438
    18  H    0.000002  -0.000031   0.002499  -0.002813  -0.003867   0.000018
    19  H   -0.003095  -0.009289   0.000035  -0.000038  -0.000251  -0.004763
    20  H    0.001336   0.005543  -0.000027  -0.000018  -0.001609   0.008752
    21  H    0.000060   0.000026  -0.000385  -0.001454   0.002716  -0.000887
    22  H    0.000051  -0.000016   0.000025   0.001386  -0.000496   0.000080
    23  H    0.004781  -0.006234   0.000895   0.000366  -0.011072   0.000816
    24  H   -0.007245  -0.011477  -0.000593  -0.000051   0.005549  -0.000150
    25  H    0.477206  -0.011205  -0.000010   0.000072   0.000595  -0.001221
    26  H   -0.011205   0.493716   0.000018  -0.000048  -0.000072  -0.001514
    27  H   -0.000010   0.000018   0.454618  -0.004557  -0.018066   0.000202
    28  H    0.000072  -0.000048  -0.004557   0.486413  -0.007073  -0.000837
    29  H    0.000595  -0.000072  -0.018066  -0.007073   0.485854  -0.027915
    30  H   -0.001221  -0.001514   0.000202  -0.000837  -0.027915   0.534628
    31  H   -0.001048   0.001692   0.000014  -0.003918   0.005384  -0.033060
              31
     1  C    0.002477
     2  C    0.020265
     3  C   -0.122647
     4  C   -0.001159
     5  O   -0.071090
     6  C   -0.000300
     7  C   -0.003061
     8  C    0.026522
     9  C    0.504040
    10  C   -0.000236
    11  O   -0.000102
    12  O    0.010871
    13  C   -0.004630
    14  H    0.000020
    15  H    0.000019
    16  H   -0.011455
    17  H   -0.000130
    18  H   -0.000281
    19  H    0.003533
    20  H   -0.003155
    21  H    0.000507
    22  H   -0.000003
    23  H   -0.003835
    24  H   -0.000544
    25  H   -0.001048
    26  H    0.001692
    27  H    0.000014
    28  H   -0.003918
    29  H    0.005384
    30  H   -0.033060
    31  H    0.483686
 Mulliken charges:
               1
     1  C   -0.436888
     2  C   -0.017728
     3  C   -0.288789
     4  C   -0.269388
     5  O   -0.340728
     6  C   -0.193504
     7  C   -0.093284
     8  C   -0.086780
     9  C   -0.198368
    10  C   -0.519278
    11  O   -0.241068
    12  O   -0.292088
    13  C   -0.492631
    14  H    0.164881
    15  H    0.173166
    16  H    0.257952
    17  H    0.184924
    18  H    0.175985
    19  H    0.218566
    20  H    0.141764
    21  H    0.149761
    22  H    0.200170
    23  H    0.225708
    24  H    0.178410
    25  H    0.177782
    26  H    0.169302
    27  H    0.193879
    28  H    0.176271
    29  H    0.294865
    30  H    0.185512
    31  H    0.201624
 Sum of Mulliken charges =  -0.00000
 Mulliken charges with hydrogens summed into heavy atoms:
               1
     1  C   -0.098841
     2  C    0.277137
     3  C   -0.030837
     4  C    0.091521
     5  O   -0.340728
     6  C    0.166826
     7  C    0.256647
     8  C    0.317338
     9  C    0.188768
    10  C   -0.172194
    11  O   -0.241068
    12  O   -0.292088
    13  C   -0.122481
 Electronic spatial extent (au):  <R**2>=           3049.0000
 Charge=             -0.0000 electrons
 Dipole moment (field-independent basis, Debye):
    X=             -1.0888    Y=              0.9054    Z=              0.7250  Tot=              1.5909
 Quadrupole moment (field-independent basis, Debye-Ang):
   XX=            -77.3097   YY=            -80.1602   ZZ=            -80.4393
   XY=              6.8666   XZ=              3.8554   YZ=             -3.8441
 Traceless Quadrupole moment (field-independent basis, Debye-Ang):
   XX=              1.9934   YY=             -0.8571   ZZ=             -1.1362
   XY=              6.8666   XZ=              3.8554   YZ=             -3.8441
 Octapole moment (field-independent basis, Debye-Ang**2):
  XXX=            -24.4777  YYY=              1.0075  ZZZ=             -0.5826  XYY=             -6.8855
  XXY=             28.4539  XXZ=              8.0155  XZZ=              4.6069  YZZ=             -1.9438
  YYZ=             -1.5063  XYZ=              2.7287
 Hexadecapole moment (field-independent basis, Debye-Ang**3):
 XXXX=          -3121.8877 YYYY=           -623.6179 ZZZZ=           -245.1119 XXXY=             80.6901
 XXXZ=             40.5978 YYYX=            -12.7308 YYYZ=              4.8947 ZZZX=             -2.5968
 ZZZY=             -2.6998 XXYY=           -648.9160 XXZZ=           -571.6018 YYZZ=           -151.2377
 XXYZ=            -13.6085 YYXZ=              2.3832 ZZXY=             -1.1797
 N-N= 8.963464484486D+02 E-N=-3.234475362285D+03  KE= 6.153353045920D+02
 D1PCM: PCM CHGder 1st derivatives, ID1Alg=3 FixD1E=F DoIter=F DoCFld=F I1PDM=0.
 Calling FoFJK, ICntrl=      2127 FMM=F ISym2X=0 I1Cent= 0 IOpClX= 0 NMat=1 NMatS=1 NMatT=0.
 ***** Axes restored to original set *****
 -------------------------------------------------------------------
 Center     Atomic                   Forces (Hartrees/Bohr)
 Number     Number              X              Y              Z
 -------------------------------------------------------------------
      1        6           0.002074679   -0.000808699   -0.001620587
      2        6          -0.003040294    0.001284509   -0.005351724
      3        6          -0.002198544    0.000947228    0.008771813
      4        6           0.001870012    0.002583695    0.002387027
      5        8           0.005642447   -0.005650471   -0.004587115
      6        6          -0.005825129    0.001344813   -0.003473900
      7        6          -0.001554265   -0.006412517    0.001122982
      8        6           0.003426386   -0.003142242   -0.002814386
      9        6           0.002657142    0.007006246   -0.002392957
     10        6          -0.001251054   -0.001143709    0.002579404
     11        8           0.003618432    0.006500257    0.008405217
     12        8          -0.005777139   -0.003976508   -0.009602258
     13        6           0.000069219    0.000665013   -0.002434685
     14        1          -0.000954942    0.000189742    0.003191538
     15        1          -0.001986907    0.000545055   -0.001987242
     16        1           0.002352632    0.000279520   -0.005397948
     17        1          -0.002034164   -0.001563198    0.000374180
     18        1           0.002211390    0.000081936   -0.002863821
     19        1           0.004294534    0.000271656   -0.000790685
     20        1          -0.001445023    0.000628106    0.006018170
     21        1           0.002313759   -0.000920658   -0.005793216
     22        1          -0.001139624    0.004086836    0.001304165
     23        1          -0.002230186   -0.000723713    0.004523822
     24        1          -0.002607029    0.002052671   -0.001207724
     25        1           0.000711559   -0.000320933   -0.003195361
     26        1           0.000763973    0.002686954    0.001246307
     27        1          -0.001440614    0.000612951    0.003079833
     28        1           0.001347393   -0.002839803   -0.000890876
     29        1           0.004870573   -0.000732489    0.007153720
     30        1          -0.003047089    0.000185488    0.006620622
     31        1          -0.001692127   -0.003717737   -0.002374318
 -------------------------------------------------------------------
 Cartesian Forces:  Max     0.009602258 RMS     0.003472015

 GradGradGradGradGradGradGradGradGradGradGradGradGradGradGradGradGradGrad
 Berny optimization.
 FormGI is forming the generalized inverse of G from B-inverse, IUseBI=4.
 Internal  Forces:  Max     0.017792828 RMS     0.002297517
 Search for a local minimum.
 Step number   1 out of a maximum of  186
 All quantities printed in internal units (Hartrees-Bohrs-Radians)
 Mixed Optimization -- RFO/linear search
 Second derivative matrix not updated -- first step.
 ITU=  0
     Eigenvalues ---    0.00625   0.00635   0.00718   0.00724   0.01414
     Eigenvalues ---    0.01422   0.01431   0.02661   0.02700   0.03076
     Eigenvalues ---    0.03168   0.04087   0.04110   0.04648   0.04744
     Eigenvalues ---    0.04853   0.04869   0.05116   0.05150   0.05202
     Eigenvalues ---    0.05237   0.05685   0.05742   0.06131   0.06169
     Eigenvalues ---    0.06382   0.06848   0.06880   0.07335   0.07701
     Eigenvalues ---    0.07846   0.07955   0.08013   0.08057   0.08081
     Eigenvalues ---    0.08237   0.08867   0.09557   0.10828   0.11578
     Eigenvalues ---    0.11619   0.11704   0.11762   0.12401   0.12510
     Eigenvalues ---    0.14440   0.14883   0.16056   0.16689   0.17963
     Eigenvalues ---    0.18953   0.21631   0.21969   0.25000   0.28443
     Eigenvalues ---    0.28498   0.28563   0.28832   0.28938   0.29072
     Eigenvalues ---    0.30104   0.30291   0.35072   0.35091   0.35153
     Eigenvalues ---    0.35171   0.35188   0.35202   0.35239   0.35295
     Eigenvalues ---    0.35319   0.35374   0.35414   0.35436   0.35447
     Eigenvalues ---    0.35626   0.35828   0.35829   0.35840   0.36159
     Eigenvalues ---    0.40914   0.41494   0.42266   0.42395   0.43381
     Eigenvalues ---    0.455681000.000001000.000001000.000001000.00000
     Eigenvalues --- 1000.000001000.000001000.000001000.000001000.00000
     Eigenvalues --- 1000.000001000.000001000.000001000.000001000.00000
     Eigenvalues --- 1000.000001000.000001000.000001000.000001000.00000
     Eigenvalues --- 1000.000001000.000001000.000001000.000001000.00000
     Eigenvalues --- 1000.000001000.000001000.000001000.000001000.00000
     Eigenvalues --- 1000.000001000.000001000.000001000.000001000.00000
     Eigenvalues --- 1000.000001000.000001000.000001000.000001000.00000
     Eigenvalues --- 1000.000001000.000001000.000001000.000001000.00000
     Eigenvalues --- 1000.000001000.000001000.000001000.000001000.00000
     Eigenvalues --- 1000.000001000.000001000.000001000.000001000.00000
     Eigenvalues --- 1000.000001000.000001000.000001000.000001000.00000
     Eigenvalues --- 1000.000001000.000001000.000001000.000001000.00000
     Eigenvalues --- 1000.000001000.000001000.000001000.000001000.00000
     Eigenvalues --- 1000.000001000.000001000.000001000.000001000.00000
     Eigenvalues --- 1000.000001000.000001000.000001000.000001000.00000
     Eigenvalues --- 1000.000001000.000001000.000001000.000001000.00000
     Eigenvalues --- 1000.000001000.000001000.000001000.000001000.00000
     Eigenvalues --- 1000.000001000.000001000.000001000.000001000.00000
     Eigenvalues --- 1000.000001000.000001000.000001000.000001000.00000
 RFO step:  Lambda=-4.02262844D-03 EMin= 6.25017814D-03
 Linear search not attempted -- first point.
 Iteration  1 RMS(Cart)=  0.05778605 RMS(Int)=  0.00070415
 Iteration  2 RMS(Cart)=  0.00180341 RMS(Int)=  0.00005791
 Iteration  3 RMS(Cart)=  0.00000122 RMS(Int)=  0.00005791
 Iteration  4 RMS(Cart)=  0.00000000 RMS(Int)=  0.00005791
 Iteration  1 RMS(Cart)=  0.00000763 RMS(Int)=  0.00000147
 Iteration  2 RMS(Cart)=  0.00000399 RMS(Int)=  0.00000165
 Iteration  3 RMS(Cart)=  0.00000209 RMS(Int)=  0.00000185
 Iteration  4 RMS(Cart)=  0.00000109 RMS(Int)=  0.00000198
 Iteration  5 RMS(Cart)=  0.00000057 RMS(Int)=  0.00000205
 Variable       Old X    -DE/DX   Delta X   Delta X   Delta X     New X
                                 (Linear)    (Quad)   (Total)
    R1        2.88869  -0.00079   0.00000  -0.00240  -0.00241   2.88628
    R2        2.87170   0.00019   0.00000   0.00060   0.00062   2.87232
    R3        2.05528   0.00326   0.00000   0.00920   0.00920   2.06447
    R4        2.05288   0.00284   0.00000   0.00796   0.00796   2.06084
    R5        2.65311   0.00348   0.00000   0.00750   0.00751   2.66062
    R6        2.64622   0.00229   0.00000   0.00499   0.00499   2.65121
    R7        2.87623  -0.00065   0.00000  -0.00212  -0.00214   2.87409
    R8        2.03833   0.00866   0.00000   0.02367   0.02367   2.06200
    R9        2.88367  -0.00225   0.00000  -0.00702  -0.00703   2.87664
   R10        2.88614  -0.00044   0.00000  -0.00108  -0.00104   2.88510
   R11        2.68423  -0.00041   0.00000  -0.00097  -0.00097   2.68326
   R12        2.04671   0.00577   0.00000   0.01600   0.01600   2.06271
   R13        2.89012  -0.00147   0.00000  -0.00473  -0.00474   2.88538
   R14        2.05160   0.00259   0.00000   0.00725   0.00725   2.05885
   R15        2.05370   0.00343   0.00000   0.00962   0.00962   2.06332
   R16        2.67650   0.00364   0.00000   0.00811   0.00812   2.68462
   R17        2.66733   0.00312   0.00000   0.00729   0.00730   2.67464
   R18        2.87193   0.00047   0.00000   0.00113   0.00110   2.87304
   R19        2.04350   0.00437   0.00000   0.01207   0.01207   2.05557
   R20        2.05559   0.00610   0.00000   0.01720   0.01720   2.07278
   R21        2.68550   0.00280   0.00000   0.00643   0.00643   2.69193
   R22        2.05009   0.00620   0.00000   0.01732   0.01732   2.06740
   R23        2.04332   0.00444   0.00000   0.01224   0.01224   2.05556
   R24        2.89556  -0.00043   0.00000  -0.00179  -0.00180   2.89376
   R25        2.05072   0.00493   0.00000   0.01377   0.01377   2.06449
   R26        2.04972   0.00334   0.00000   0.00931   0.00931   2.05903
   R27        2.05398   0.00703   0.00000   0.01976   0.01976   2.07374
   R28        2.04351   0.00466   0.00000   0.01285   0.01285   2.05636
   R29        2.05427   0.00321   0.00000   0.00902   0.00902   2.06329
   R30        2.05199   0.00304   0.00000   0.00851   0.00851   2.06050
   R31        2.05348   0.00340   0.00000   0.00955   0.00955   2.06303
   R32        2.04955   0.00324   0.00000   0.00904   0.00904   2.05859
    A1        1.92283  -0.00105   0.00000  -0.00568  -0.00587   1.91696
    A2        1.91604   0.00091   0.00000   0.00149   0.00156   1.91760
    A3        1.93946  -0.00050   0.00000  -0.00169  -0.00166   1.93780
    A4        1.90578   0.00009   0.00000  -0.00108  -0.00103   1.90475
    A5        1.90310   0.00061   0.00000   0.00377   0.00382   1.90691
    A6        1.87578  -0.00002   0.00000   0.00344   0.00341   1.87919
    A7        1.94207   0.00026   0.00000  -0.00255  -0.00242   1.93966
    A8        1.93849   0.00347   0.00000   0.01072   0.01051   1.94900
    A9        1.83161  -0.00224   0.00000  -0.00513  -0.00515   1.82646
   A10        1.89657  -0.00316   0.00000  -0.01766  -0.01759   1.87899
   A11        1.92648   0.00171   0.00000   0.01284   0.01282   1.93931
   A12        1.92847   0.00012   0.00000   0.00282   0.00288   1.93136
   A13        1.93190  -0.00003   0.00000  -0.00647  -0.00659   1.92531
   A14        2.01948  -0.00295   0.00000  -0.02301  -0.02308   1.99640
   A15        1.89224   0.00093   0.00000   0.00749   0.00759   1.89983
   A16        1.91961   0.00150   0.00000   0.00061   0.00026   1.91987
   A17        1.87872  -0.00040   0.00000   0.00492   0.00489   1.88361
   A18        1.81328   0.00116   0.00000   0.02018   0.02025   1.83353
   A19        1.91303   0.00196   0.00000  -0.00112  -0.00112   1.91191
   A20        1.93070  -0.00025   0.00000   0.00188   0.00194   1.93264
   A21        1.91442  -0.00087   0.00000  -0.00160  -0.00168   1.91274
   A22        1.91616  -0.00058   0.00000   0.00132   0.00132   1.91748
   A23        1.92237  -0.00097   0.00000  -0.00627  -0.00627   1.91610
   A24        1.86678   0.00065   0.00000   0.00585   0.00585   1.87263
   A25        1.97920  -0.00487   0.00000  -0.02687  -0.02682   1.95238
   A26        1.93522   0.00201   0.00000   0.00886   0.00889   1.94410
   A27        1.85530  -0.00126   0.00000  -0.00362  -0.00362   1.85168
   A28        1.90291   0.00068   0.00000   0.00678   0.00680   1.90971
   A29        1.94528  -0.00027   0.00000  -0.00259  -0.00260   1.94268
   A30        1.93107  -0.00170   0.00000  -0.01007  -0.01012   1.92095
   A31        1.89180   0.00057   0.00000   0.00104   0.00101   1.89281
   A32        1.94563   0.00232   0.00000   0.00591   0.00586   1.95149
   A33        1.93141  -0.00155   0.00000  -0.00672  -0.00676   1.92465
   A34        1.94548  -0.00026   0.00000  -0.00183  -0.00177   1.94371
   A35        1.90971   0.00006   0.00000   0.00055   0.00061   1.91032
   A36        1.84225  -0.00133   0.00000  -0.00232  -0.00232   1.83992
   A37        1.88639   0.00076   0.00000   0.00469   0.00468   1.89108
   A38        1.90020   0.00103   0.00000  -0.00014  -0.00013   1.90007
   A39        1.92595  -0.00123   0.00000  -0.01003  -0.01004   1.91591
   A40        1.92391  -0.00057   0.00000  -0.00436  -0.00438   1.91953
   A41        1.90325   0.00026   0.00000   0.00671   0.00671   1.90996
   A42        1.93127   0.00047   0.00000   0.01028   0.01027   1.94153
   A43        1.87925   0.00003   0.00000  -0.00241  -0.00250   1.87675
   A44        1.92685   0.00193   0.00000   0.01075   0.01085   1.93770
   A45        1.93769  -0.00231   0.00000  -0.01658  -0.01663   1.92106
   A46        1.92489  -0.00082   0.00000  -0.00712  -0.00723   1.91766
   A47        1.91120   0.00092   0.00000   0.00893   0.00896   1.92016
   A48        1.86572  -0.00042   0.00000   0.00424   0.00425   1.86997
   A49        1.89584   0.00076   0.00000   0.00054   0.00039   1.89622
   A50        1.93078  -0.00080   0.00000  -0.00622  -0.00626   1.92452
   A51        1.90393  -0.00025   0.00000  -0.00268  -0.00268   1.90125
   A52        1.90803   0.00071   0.00000   0.00478   0.00479   1.91282
   A53        1.92133   0.00069   0.00000   0.00032   0.00031   1.92164
   A54        1.92385  -0.00032   0.00000   0.00103   0.00104   1.92490
   A55        1.87494  -0.00000   0.00000   0.00305   0.00305   1.87799
   A56        2.02457  -0.00572   0.00000  -0.03544  -0.03537   1.98920
   A57        2.10756  -0.01779   0.00000  -0.07004  -0.07004   2.03752
   A58        1.95416  -0.00183   0.00000  -0.01473  -0.01487   1.93928
   A59        1.87258   0.00016   0.00000   0.00467   0.00468   1.87726
   A60        1.90113   0.00080   0.00000  -0.00121  -0.00120   1.89993
   A61        1.90907   0.00122   0.00000   0.00752   0.00761   1.91669
   A62        1.94757  -0.00025   0.00000  -0.00216  -0.00225   1.94532
   A63        1.87621  -0.00002   0.00000   0.00704   0.00702   1.88323
    D1        0.92188  -0.00008   0.00000   0.00793   0.00793   0.92981
    D2        3.03723   0.00032   0.00000   0.01006   0.01009   3.04732
    D3       -1.19080   0.00043   0.00000   0.01739   0.01741  -1.17338
    D4       -1.17749  -0.00010   0.00000   0.01191   0.01190  -1.16559
    D5        0.93786   0.00029   0.00000   0.01404   0.01406   0.95192
    D6        2.99302   0.00041   0.00000   0.02136   0.02138   3.01440
    D7        3.03307  -0.00035   0.00000   0.00775   0.00771   3.04078
    D8       -1.13476   0.00005   0.00000   0.00988   0.00987  -1.12489
[...]
 420,0.02492042,-0.28920442,0.00019316,-0.00001557,-0.00000298,0.000264
 49,0.00020588,0.00026001,-0.00000979,0.00000058,0.00001825,0.00000186,
 0.00000127,-0.00000256,0.00000857,0.00000237,0.00000329,0.00005807,0.0
 0046837,0.00022629,0.00000677,0.00000144,0.00000213,-0.00000209,-0.000
 00107,-0.00000119,-0.00029809,-0.00006826,0.00061674,-0.00149698,0.002
 27259,0.00020613,0.00000112,0.00000123,0.00000116,0.00000758,-0.000007
 38,0.00000183,0.00024836,-0.00010866,0.00121734,0.00043004,-0.00002556
 ,0.00047331,-0.07041457,-0.02897485,0.31439889,0.00000224,-0.00000401,
 -0.00001831,0.00075241,-0.00031384,-0.00111408,-0.00518933,0.00303900,
 0.00242893,0.00001098,-0.00003072,0.00002667,0.00006182,0.00546032,-0.
 00115446,0.00492907,0.01044199,0.00989579,0.00014344,-0.00004878,0.000
 07662,-0.01037130,-0.02965197,-0.01651729,-0.00128998,0.00037749,-0.00
 013217,-0.06692137,-0.06140625,-0.03768198,-0.00021315,0.00033854,0.00
 011010,-0.00238940,-0.00284193,-0.00035539,-0.00005803,0.00008954,0.00
 014555,-0.00000612,0.00000002,0.00000844,-0.00001747,0.00000409,-0.000
 00664,0.00007420,0.00018795,-0.00013510,-0.00003151,-0.00000021,-0.000
 00619,0.00001435,0.00000847,0.00001922,0.00008280,-0.00090350,0.000424
 80,0.00048816,-0.00054332,-0.00011545,-0.00000021,-0.00001917,0.000006
 47,-0.00002454,0.00002034,0.00000007,0.00149934,0.00028240,0.00033787,
 0.00140294,0.00070095,-0.00030474,0.00171185,0.00732756,0.00339340,0.0
 7495618,-0.00000132,0.00000141,-0.00001104,0.00025778,-0.00006076,-0.0
 0030875,0.00017143,0.00170091,0.00073004,-0.00000111,-0.00001304,0.000
 01142,0.00203937,-0.00763638,0.00198416,-0.00997329,-0.01756818,-0.015
 05162,0.00007214,-0.00002878,0.00005145,-0.00098355,-0.00158597,-0.000
 48426,0.00192201,0.00094339,-0.00023170,-0.06149121,-0.23045232,-0.106
 66594,-0.00017359,0.00009488,0.00003467,-0.00032039,-0.00017704,0.0000
 3019,-0.00000777,0.00002705,0.00002162,-0.00000283,-0.00000106,0.00000
 373,-0.00000890,-0.00000017,-0.00000350,0.00006414,-0.00005568,-0.0001
 0296,-0.00001282,-0.00000086,-0.00000394,0.00000467,0.00000303,0.00000
 511,0.00041549,0.00068155,-0.00016175,-0.00037984,0.00089647,0.0004966
 4,0.00000208,-0.00000457,0.00000091,-0.00001092,0.00000917,-0.00000164
 ,-0.00012280,0.00012061,0.00015490,-0.00036071,0.00039489,0.00012638,0
 .00179446,0.00375023,0.00164507,0.06757069,0.24905554,-0.00000305,0.00
 000123,-0.00000752,0.00000041,-0.00008496,-0.00006870,0.00063560,0.000
 01788,0.00045217,0.00000034,-0.00000463,0.00000667,-0.00104994,0.00361
 387,0.00079351,0.00537054,0.01001952,0.00581142,0.00002749,-0.00002021
 ,0.00002685,0.00188468,0.00402259,0.00097119,-0.00055209,-0.00003118,-
 0.00017711,-0.03815274,-0.10882909,-0.11336536,-0.00008393,0.00000828,
 -0.00000267,0.00005375,0.00001668,0.00043463,-0.00001596,0.00002150,0.
 00002968,-0.00000093,-0.00000050,0.00000124,-0.00000446,-0.00000061,-0
 .00000168,-0.00002760,0.00039175,0.00032966,-0.00000422,-0.00000063,-0
 .00000333,0.00000114,0.00000081,-0.00000092,0.00004239,-0.00056962,0.0
 0032976,0.00053274,-0.00076652,0.00022461,-0.00000053,-0.00000149,-0.0
 0000200,-0.00000391,0.00000416,-0.00000060,-0.00039872,0.00028133,0.00
 052467,-0.00026714,-0.00017779,-0.00014948,-0.00861771,-0.02550769,-0.
 01408022,0.04052375,0.11766538,0.11795836,0.00109660,-0.00086730,0.000
 03821,-0.00901346,0.00413131,0.02365164,0.00153757,-0.00041084,0.00121
 330,0.00927781,-0.00013606,-0.02376514,-0.00029069,0.00004102,-0.00009
 266,0.00005076,0.00005706,0.00010277,-0.00023616,-0.00002229,-0.000070
 53,-0.00036978,0.00009803,0.00012316,0.00018064,-0.00019660,0.00005959
 ,0.00004791,-0.00015690,-0.00012846,0.00131533,0.00084160,-0.00109840,
 -0.00755458,-0.00407088,0.00187858,-0.09096104,0.00098947,0.09728053,-
 0.00020227,0.00003055,0.00044069,-0.00008321,-0.00029323,0.00020590,-0
 .00058358,-0.00009703,0.00008907,0.00114740,-0.00048413,0.00081656,-0.
 00292017,0.00190274,-0.00360430,-0.00002542,-0.00000121,-0.00001199,0.
 00000713,-0.00000509,-0.00002047,-0.00006177,0.00003214,-0.00001912,0.
 00007448,0.00000849,0.00000220,0.00000663,-0.00000622,-0.00003610,0.00
 001829,-0.00001399,0.00000946,0.00000288,0.00000752,0.00000502,-0.0000
 8933,-0.00002368,-0.00001385,0.10200549,-0.00069722,0.00039448,0.00078
 280,-0.00686543,-0.00049821,0.02002506,0.00040641,0.00005387,0.0009345
 1,-0.00329861,-0.00053066,0.00700624,-0.00013890,0.00005286,-0.0000607
 5,0.00002767,0.00002661,0.00004444,-0.00012385,-0.00009937,0.00013189,
 -0.00005001,0.00006707,0.00003589,0.00003184,-0.00015747,0.00008869,0.
 00002021,-0.00005459,-0.00004477,0.00022236,0.00094142,-0.00059976,-0.
 00491431,-0.00138115,0.00065033,0.00394666,-0.05103941,-0.00820469,0.0
 0023317,0.00000707,-0.00003900,0.00002470,0.00007776,-0.00013541,-0.00
 036501,-0.00004596,0.00004888,-0.00000217,0.00024655,-0.00052396,0.000
 90097,0.00047295,0.00116251,-0.00001059,-0.00000122,-0.00000474,0.0000
 0217,-0.00000290,-0.00000863,0.00002381,0.00005943,-0.00006620,0.00000
 886,-0.00001152,-0.00000604,0.00000701,-0.00001155,-0.00002366,0.00001
 149,-0.00001093,-0.00000369,0.00000359,0.00000335,0.00000043,-0.000033
 21,-0.00000883,-0.00000773,-0.00173378,0.04987957,0.00086392,-0.000718
 49,0.00080181,-0.00074780,-0.00154298,-0.00185923,-0.00062966,-0.00001
 343,0.00007987,0.00801975,-0.00060142,-0.02245636,0.00008377,-0.000016
 32,0.00002306,-0.00001192,-0.00001314,-0.00002468,-0.00026982,0.000182
 35,-0.00015664,0.00011874,-0.00000903,-0.00000818,-0.00001632,0.000066
 76,-0.00003850,-0.00001931,0.00004129,0.00002836,-0.00054527,0.0002208
 4,0.00079298,0.00073163,-0.00014401,0.00126129,0.09991437,-0.00515425,
 -0.26629109,-0.00022109,0.00071293,0.00029926,-0.00025931,-0.00008571,
 0.00031648,0.00004014,0.00001576,-0.00001576,0.00005451,-0.00036977,0.
 00098280,-0.00369321,0.00143505,-0.00194643,0.00000689,-0.00000020,0.0
 0000308,-0.00000218,0.00000120,0.00000562,-0.00004275,-0.00008095,0.00
 001380,0.00006705,0.00006384,0.00002102,-0.00000608,-0.00001038,-0.000
 00554,-0.00000156,0.00000424,-0.00000468,0.00000433,-0.00000131,-0.000
 00389,0.00002261,0.00000521,0.00000096,-0.10534037,0.00612677,0.291578
 25,-0.00288391,0.00018491,-0.00452860,0.00988279,-0.02166393,-0.003292
 32,-0.00001133,0.00023717,-0.00017327,-0.00741706,0.02118058,0.0055027
 0,0.00000203,0.00003262,0.00000119,-0.00000184,-0.00002248,-0.00000861
 ,-0.00159251,0.00010243,-0.00101961,0.00002427,-0.00000735,-0.00000593
 ,0.00001776,-0.00002750,0.00002119,0.00000438,0.00002081,0.00001481,-0
 .00244249,-0.00757961,0.00047936,0.00117082,-0.00018506,-0.00065613,-0
 .08160640,0.08789084,0.01692759,0.00010535,-0.00042357,-0.00001358,-0.
 00014601,0.00173145,-0.00004498,0.00004109,0.00000525,-0.00001020,0.00
 043535,-0.00042213,0.00082507,0.00099527,-0.00055163,0.00009439,-0.000
 00050,0.00000608,0.00000181,-0.00000104,0.00000033,0.00000002,0.000144
 29,0.00000148,0.00013905,0.00027280,0.00001713,0.00016646,0.00002072,-
 0.00001082,0.00001924,0.00000603,0.00001340,-0.00002008,-0.00000655,0.
 00000039,0.00000375,0.00000359,0.00000019,0.00000058,-0.00483550,0.011
 83802,0.00160229,0.08710528,0.00098523,0.00134764,0.00152568,0.0108859
 9,-0.01879042,-0.00394025,-0.00027297,0.00032107,0.00003127,0.00186874
 ,-0.00536716,-0.00074399,-0.00000010,0.00002680,0.00000394,-0.00000840
 ,-0.00002029,-0.00000244,-0.00078967,0.00106352,-0.00128980,0.00009825
 ,-0.00003484,-0.00006053,-0.00013293,-0.00005179,0.00000832,0.00000905
 ,0.00006015,0.00004776,-0.00360299,-0.00521071,0.00019991,0.00091197,0
 .00207370,-0.00047469,0.08399994,-0.27667848,-0.04152472,0.00000461,0.
 00002892,-0.00010698,0.00000110,-0.00044696,-0.00021249,-0.00001746,0.
 00000775,-0.00000072,0.00025774,0.00038640,0.00020070,-0.00008524,0.00
 022581,0.00018373,-0.00000318,0.00000620,-0.00000116,0.00000114,0.0000
 0001,-0.00000015,0.00005557,-0.00004809,0.00020176,0.00009661,-0.00008
 233,0.00006634,0.00004328,0.00000788,0.00005493,-0.00000201,0.00002429
 ,-0.00002370,-0.00001874,-0.00000124,0.00000541,0.00001221,-0.00000009
 ,-0.00000088,-0.00033700,0.00088613,-0.00051487,-0.09352303,0.29982525
 ,-0.00339584,0.00020657,-0.00328136,0.00136262,0.00146664,-0.00240500,
 -0.00000847,-0.00002501,0.00005077,-0.00750714,0.02304010,0.00400144,-
 0.00000606,-0.00000448,-0.00001151,-0.00000119,-0.00000013,0.00000541,
 -0.00052213,-0.00023844,-0.00030066,-0.00002855,-0.00000360,-0.0000007
 3,0.00000277,0.00000466,0.00000383,-0.00000049,-0.00000397,-0.00000090
 ,-0.00030320,-0.00075503,0.00140720,0.00010147,0.00072583,0.00026825,0
 .01623550,-0.04462933,-0.05581944,-0.00016409,0.00023807,0.00021052,-0
 .00044574,0.00129241,0.00026207,-0.00003210,0.00000332,0.00000495,0.00
 061599,-0.00066574,0.00077571,0.00096408,-0.00015256,0.00090392,-0.000
 00178,0.00000075,-0.00000087,0.00000021,0.00000004,-0.00000143,0.00008
 070,-0.00001291,0.00005902,0.00010316,-0.00001605,0.00009064,0.0000067
 4,0.00000111,0.00000426,-0.00000179,0.00000370,-0.00000281,-0.00000105
 ,-0.00000135,0.00000039,-0.00000350,-0.00000178,-0.00000126,0.00858466
 ,-0.02691815,-0.00404582,-0.01570382,0.04637907,0.05785098,0.00045185,
 -0.00016399,0.00001913,-0.15923516,0.02463833,-0.12868628,0.00173166,-
 0.00064439,0.00053499,-0.00189281,-0.00420330,0.00156891,0.00017269,-0
 .00028045,0.00012285,-0.00003053,-0.00009317,0.00003397,0.00190558,0.0
 0094272,0.00199727,-0.00064351,-0.00080433,-0.00012660,-0.00047967,0.0
 0090852,-0.00042069,0.00002547,-0.00000235,0.00008886,-0.00856595,0.01
 013084,-0.00880162,0.01080348,-0.00203046,0.02120279,-0.01519001,0.003
 10608,-0.01829416,-0.00005837,0.00005655,0.00010041,-0.00004928,0.0000
 4578,-0.00001389,-0.00005995,0.00004218,-0.00030192,-0.00105462,0.0004
 2013,-0.00101034,0.00006180,-0.00001202,-0.00016613,0.00000755,0.00001
 396,-0.00001384,0.00001460,0.00001512,-0.00004570,-0.00016347,0.000088
 48,-0.00023947,-0.00036253,0.00025338,-0.00039585,-0.00066982,-0.00099
 046,0.00065669,0.00001749,0.00000907,0.00015079,-0.00003574,0.00001619
 ,0.00003348,-0.00000066,0.00000485,-0.00000419,0.00048555,0.00053045,0
 .00028220,0.00066799,-0.00036132,0.00009043,0.17432809,0.00022790,-0.0
 0061571,0.00030442,0.01724941,-0.05390791,0.02732438,-0.00020969,-0.00
 023642,0.00072928,-0.00272336,-0.00312882,0.00114518,0.00004646,0.0000
 0715,0.00010809,-0.00001945,0.00007158,0.00000933,-0.00081684,-0.00446
 230,-0.00352989,-0.00003432,-0.00030122,0.00040857,0.00015168,-0.00002
 813,-0.00017411,-0.00007798,0.00007335,-0.00013370,0.03177169,-0.02120
 626,0.02753777,-0.00094267,0.00483939,-0.00440298,-0.01453864,0.006030
 43,-0.01593395,0.00002242,0.00011862,-0.00001399,0.00018185,0.00036794
 ,0.00000868,-0.00000484,-0.00010888,-0.00005935,-0.00105153,0.00040910
 ,-0.00092153,0.00017724,-0.00003723,-0.00005538,0.00001229,-0.00001874
 ,-0.00000805,-0.00000399,0.00000172,-0.00000646,0.00004920,-0.00008634
 ,0.00035781,0.00121180,-0.00061260,0.00116489,-0.00084844,-0.00100070,
 0.00028326,0.00001459,0.00001926,-0.00008940,0.00007996,-0.00000045,-0
 .00001257,0.00003751,0.00000838,0.00000681,0.00066064,0.00067099,0.000
 39641,0.00106399,0.00050118,0.00007632,-0.03289083,0.07293204,-0.00003
 304,0.00000792,-0.00009391,-0.12364671,0.03470134,-0.19873455,-0.00462
 908,-0.00138960,0.00019240,0.00056495,0.00040960,0.00090380,-0.0002648
 4,-0.00037810,0.00065540,0.00006717,0.00011130,-0.00003077,0.00065538,
 -0.00111895,0.00203426,0.00034856,-0.00018399,-0.00038082,0.00070984,0
 .00049142,-0.00113667,0.00001644,0.00015195,0.00039854,0.00054647,0.00
 046368,0.00520123,-0.00620838,0.00206250,-0.03984808,0.00077829,-0.000
 52654,0.00304920,0.00000350,0.00000571,-0.00002765,0.00000593,-0.00000
 341,-0.00005817,0.00041358,0.00003609,0.00021251,0.00014982,0.00005495
 ,0.00002307,0.00016468,0.00001979,0.00014395,-0.00002022,-0.00001009,0
 .00000619,0.00004750,-0.00000394,-0.00001356,0.00021905,-0.00021918,0.
 00014663,-0.00001053,-0.00007412,0.00001502,0.00005525,0.00042257,0.00
 062182,-0.00010537,-0.00012428,0.00018630,-0.00015068,-0.00001597,0.00
 002109,0.00008396,-0.00000191,-0.00000232,-0.00026175,-0.00036737,0.00
 065218,-0.00029882,-0.00006520,-0.00002272,0.13061346,-0.03405457,0.22
 461349,0.00000445,0.00000627,0.00001885,-0.00100759,0.00064171,0.00010
 746,0.00545361,0.00216589,-0.01805146,0.00003908,0.00003201,-0.0000486
 2,-0.02891111,-0.00981988,0.03716587,0.00225525,0.00443327,0.00454474,
 -0.00004237,0.00003826,-0.00003827,0.00029250,-0.00117768,0.00022137,-
 0.05329127,-0.00501053,0.03669776,-0.00032670,-0.00044245,-0.00051947,
 -0.00001809,-0.00002691,-0.00005748,0.00179181,-0.00148613,0.00173160,
 0.00007640,-0.00011499,0.00024214,-0.00000012,-0.00000035,-0.00000217,
 0.00000543,-0.00000793,0.00000120,-0.00195249,0.00314350,-0.00124431,0
 .00002349,-0.00000540,0.00001714,0.00000016,-0.00000095,0.00000054,0.0
 0004847,0.00012371,-0.00041781,0.00047599,-0.00008266,-0.00143085,0.00
 001050,-0.00000009,-0.00000196,0.00000006,-0.00000724,-0.00000383,0.00
 007655,0.00006867,0.00042443,-0.00012275,-0.00012401,0.00017320,-0.000
 08588,0.00007669,-0.00005422,0.00022867,-0.00024477,0.00001026,-0.0000
 2334,-0.00000041,-0.00000744,0.00000657,-0.00004109,-0.00001506,-0.002
 28861,0.00121471,0.00026597,0.07443815,0.00000396,-0.00000027,-0.00001
 183,0.00034354,0.00006588,0.00028757,-0.00489998,-0.00286847,0.0269905
 2,-0.00006400,-0.00008015,0.00003518,-0.00549462,0.00122335,0.00419305
 ,-0.00049524,0.00065601,0.00293466,0.00003464,-0.00000545,0.00007944,-
 0.00054863,0.00185746,0.00084242,-0.00349490,-0.05741057,0.02103094,0.
 00003619,-0.00030893,-0.00013927,-0.00011072,0.00005452,-0.00012243,-0
 .00016282,0.00086004,-0.00169352,-0.00005852,0.00015256,-0.00028129,-0
 .00000054,0.00000054,0.00000253,-0.00000742,-0.00000004,-0.00000223,0.
 00248987,-0.00317092,0.00199971,-0.00002903,0.00000812,-0.00002301,0.0
 0000362,-0.00000155,-0.00000116,0.00009304,0.00002814,-0.00012705,0.00
 013646,0.00025334,-0.00023900,-0.00001119,0.00000536,-0.00000333,-0.00
 001440,0.00001379,-0.00000620,0.00013842,-0.00014927,-0.00049868,0.000
 14919,0.00021759,-0.00041499,0.00003418,0.00006568,-0.00015282,-0.0000
 0217,-0.00003125,-0.00003490,0.00003759,0.00000819,0.00000800,0.000032
 12,-0.00003656,0.00000535,0.00127864,-0.00023539,-0.00046785,0.0051344
 8,0.05449513,-0.00000849,-0.00001217,0.00002629,-0.00005112,-0.0002552
 9,-0.00213380,0.00351746,0.00081569,-0.01536509,0.00006105,0.00010086,
 -0.00002813,0.01093686,0.00146353,-0.00070126,-0.00148616,-0.00099689,
 0.00195286,-0.00001220,-0.00008165,-0.00015204,-0.00003088,-0.00080206
 ,0.00059355,0.04017296,0.02212783,-0.28616429,0.00018548,0.00001432,0.
 00005597,0.00040276,-0.00023460,0.00064247,-0.00142814,0.00004263,0.00
 127249,-0.00007336,-0.00006954,0.00031289,0.00000002,-0.00000029,-0.00
 000507,0.00001505,0.00000349,0.00000264,-0.00133938,0.00226182,0.00005
 083,0.00003082,-0.00000755,0.00003189,0.00000263,-0.00000068,0.0000210
 0,0.00008888,0.00015546,0.00043759,0.00064540,0.00132436,0.00020394,0.
 00000791,-0.00001127,0.00003159,0.00004119,-0.00002576,0.00004195,0.00
 021136,0.00080344,0.00049572,-0.00018399,0.00002147,0.00022170,-0.0001
 1207,-0.00008501,-0.00018895,0.00005504,0.00009274,-0.00000821,-0.0000
 3624,-0.00003406,-0.00000094,-0.00003274,0.00003557,-0.00000035,0.0010
 3673,-0.00044343,0.00108195,-0.05451037,-0.02795096,0.31064320,-0.0000
 0504,0.00000566,-0.00000480,-0.00005825,0.00000659,0.00026837,0.003495
 61,0.01471133,0.00910771,-0.00000828,-0.00001516,0.00000984,-0.0182971
 0,-0.03725845,-0.01929075,-0.00542943,0.00187714,0.00281781,0.00002708
 ,-0.00001717,0.00002493,-0.00231828,0.00277687,-0.00204896,-0.05407453
 ,-0.03421034,-0.01828521,-0.00064389,-0.00051427,-0.00035097,-0.000086
 07,-0.00007732,-0.00009156,0.00220304,-0.00028582,0.00020445,-0.000035
 16,0.00003987,-0.00001265,0.00000011,-0.00000078,0.00000071,-0.0000045
 9,-0.00000342,-0.00000160,0.00062277,-0.00081044,-0.00001961,-0.000004
 99,0.00000096,-0.00000391,0.00000231,0.00000044,-0.00000451,-0.0006656
 7,-0.00170348,-0.00068189,0.00007781,0.00003788,-0.00028607,0.00000228
 ,0.00000109,-0.00000259,-0.00000280,0.00000561,-0.00000476,-0.00005457
 ,-0.00026271,-0.00013108,0.00047671,0.00120690,0.00032647,0.00009849,-
 0.00000098,0.00003510,0.00024035,-0.00019981,0.00011730,-0.00000419,-0
 .00000589,0.00000190,0.00003877,-0.00003531,-0.00000635,0.00010687,-0.
 00001077,-0.00008035,0.00284317,0.00544824,0.00189355,0.07145745,-0.00
 000069,-0.00000184,0.00000734,0.00003731,-0.00004342,-0.00001698,-0.00
 478742,-0.02290163,-0.01297667,0.00001238,0.00001952,-0.00001499,-0.00
 628302,-0.00365097,-0.00185785,-0.00005713,0.00235232,0.00164230,-0.00
 004901,0.00004057,-0.00003174,0.00338685,-0.00204625,0.00344142,-0.042
 16961,-0.24816194,-0.11104974,0.00039891,0.00033264,-0.00016187,0.0000
 0206,0.00007396,0.00008437,-0.00034591,0.00245036,0.00006596,0.0000524
 9,-0.00003267,-0.00001946,0.00000205,0.00000109,-0.00000237,0.00000711
 ,0.00000117,0.00000253,-0.00045413,0.00112376,0.00010748,0.00001163,-0
 .00000035,0.00000701,-0.00000405,-0.00000108,-0.00000077,-0.00006761,-
 0.00024008,-0.00018941,0.00006903,-0.00006441,-0.00015680,-0.00000283,
 -0.00000256,-0.00000371,0.00000508,-0.00000676,-0.00000057,0.00004701,
 0.00018164,-0.00003891,-0.00047723,-0.00143372,-0.00061101,-0.00009288
 ,0.00000562,0.00005843,-0.00010000,-0.00006254,-0.00003334,0.00001808,
 0.00000547,-0.00000438,0.00005794,-0.00002376,-0.00001543,-0.00002420,
 -0.00006403,0.00006627,0.00151429,0.00433312,0.00174801,0.04929353,0.2
 6781677,-0.00000292,-0.00000187,0.00001064,-0.00015999,0.00003210,-0.0
 0032472,0.00159822,0.01452623,0.00681557,0.00002386,0.00004624,-0.0000
 0926,0.00096159,0.00479119,0.00353153,0.00040233,0.00076805,0.00060663
 ,-0.00003792,-0.00000384,-0.00006405,-0.00177769,0.00146119,-0.0006000
 1,-0.02492279,-0.11491158,-0.11723125,-0.00002844,-0.00004864,-0.00004
 543,0.00019492,-0.00017840,0.00007217,0.00159496,-0.00070020,-0.000012
 10,0.00003263,-0.00010076,0.00010469,0.00000097,-0.00000026,-0.0000036
 6,0.00000768,0.00000173,0.00000216,0.00068113,-0.00046049,0.00095428,0
 .00001749,-0.00000259,0.00001150,0.00000120,-0.00000442,-0.00000207,-0
 .00003329,-0.00014698,0.00032325,0.00013034,0.00029183,0.00045720,0.00
 000615,0.00000455,0.00000853,0.00001398,-0.00001077,0.00000858,-0.0000
 2775,0.00035477,0.00026385,0.00002011,0.00062866,0.00041799,0.00004205
 ,-0.00002942,-0.00000911,-0.00001401,-0.00002882,-0.00002401,-0.000001
 98,0.00001017,-0.00000310,0.00000918,0.00001816,-0.00000452,-0.0000122
 9,-0.00002184,0.00019020,-0.00521920,-0.02623885,-0.01337241,0.0264994
 9,0.11995488,0.11792696\\-0.00000183,0.00000226,-0.00000382,0.00078605
 ,-0.00008365,0.00047417,0.00016242,-0.00058863,0.00014782,-0.00000864,
 -0.00000524,-0.00000486,-0.00000802,-0.00000936,0.00000214,0.00000754,
 0.00000312,0.00000205,0.00000030,0.00001184,-0.00001018,-0.00000866,0.
 00000264,-0.00000736,0.00000497,-0.00000284,-0.00000395,-0.00000230,0.
 00000266,0.00000800,-0.00052783,-0.00014428,-0.00026586,-0.00040261,0.
 00080876,-0.00033537,0.00000312,-0.00000827,-0.00000473,0.00000278,-0.
 00000147,-0.00000211,-0.00000175,0.00000352,0.00000245,-0.00000009,0.0
 0000714,0.00000472,0.00000154,0.00000259,-0.00000579,0.00000047,0.0000
 0220,0.00000352,-0.00000381,-0.00000126,0.00000380,-0.00000035,-0.0000
 0191,-0.00000295,-0.00000296,0.00000122,0.00000746,0.00000094,-0.00000
 259,0.00000076,0.00000206,0.00000342,0.00000182,0.00000213,-0.00000179
 ,0.00000709,-0.00000026,-0.00000077,0.00000418,0.00000432,-0.00000078,
 -0.00000057,0.00000056,0.00000247,-0.00000615,-0.00000140,-0.00000001,
 0.00000138,-0.00000103,-0.00000299,-0.00001412,-0.00000552,-0.00000219
 ,-0.00000234,-0.00000213,0.00000421,-0.00000121\\\@


 REPARTEE - WHAT YOU THINK OF AFTER YOU BECOME A DEPARTEE.
 Job cpu time:       0 days 14 hours 16 minutes  5.0 seconds.
 Elapsed time:       0 days  0 hours 53 minutes 31.7 seconds.
 File lengths (MBytes):  RWF=    681 Int=      0 D2E=      0 Chk=     33 Scr=      1
 Normal termination of Gaussian 16 at Sun Nov  4 22:52:11 2018.
