 Entering Gaussian System, Link 0=g16
 Initial command:
 /apps/gaussian/g16a03/g16/l1.exe "/jobfs/local/2011929.r-man2/Gau-21610.inp" -scrdir="/jobfs/local/2011929.r-man2/"
 Entering Link 1 = /apps/gaussian/g16a03/g16/l1.exe PID=     21611.
  
 Copyright (c) 1988,1990,1992,1993,1995,1998,2003,2009,2016,
            Gaussian, Inc.  All Rights Reserved.
  
 This is part of the Gaussian(R) 16 program.  It is based on
 the Gaussian(R) 09 system (copyright 2009, Gaussian, Inc.),
 the Gaussian(R) 03 system (copyright 2003, Gaussian, Inc.),
 the Gaussian(R) 98 system (copyright 1998, Gaussian, Inc.),
 the Gaussian(R) 94 system (copyright 1995, Gaussian, Inc.),
 the Gaussian 92(TM) system (copyright 1992, Gaussian, Inc.),
 the Gaussian 90(TM) system (copyright 1990, Gaussian, Inc.),
 the Gaussian 88(TM) system (copyright 1988, Gaussian, Inc.),
 the Gaussian 86(TM) system (copyright 1986, Carnegie Mellon
 University), and the Gaussian 82(TM) system (copyright 1983,
 Carnegie Mellon University). Gaussian is a federally registered
 trademark of Gaussian, Inc.
  
 This software contains proprietary and confidential information,
 including trade secrets, belonging to Gaussian, Inc.
  
 This software is provided under written license and may be
 used, copied, transmitted, or stored only in accord with that
 written license.
  
 The following legend is applicable only to US Government
 contracts under FAR:
  
                    RESTRICTED RIGHTS LEGEND
  
 Use, reproduction and disclosure by the US Government is
 subject to restrictions as set forth in subparagraphs (a)
 and (c) of the Commercial Computer Software - Restricted
 Rights clause in FAR 52.227-19.
  
 Gaussian, Inc.
 340 Quinnipiac St., Bldg. 40, Wallingford CT 06492
  
  
 ---------------------------------------------------------------
 Warning -- This program may not be used in any manner that
 competes with the business of Gaussian, Inc. or will provide
 assistance to any competitor of Gaussian, Inc.  The licensee
 of this program is prohibited from giving any competitor of
 Gaussian, Inc. access to this program.  By using this program,
 the user acknowledges that Gaussian, Inc. is engaged in the
 business of creating and licensing software in the field of
 computational chemistry and represents and warrants to the
 licensee that it is not a competitor of Gaussian, Inc. and that
 it will not use this program in any manner prohibited above.
 ---------------------------------------------------------------
  

 Cite this work as:
 Gaussian 16, Revision A.03,
 M. J. Frisch, G. W. Trucks, H. B. Schlegel, G. E. Scuseria, 
 M. A. Robb, J. R. Cheeseman, G. Scalmani, V. Barone, 
 G. A. Petersson, H. Nakatsuji, X. Li, M. Caricato, A. V. Marenich, 
 J. Bloino, B. G. Janesko, R. Gomperts, B. Mennucci, H. P. Hratchian, 
 J. V. Ortiz, A. F. Izmaylov, J. L. Sonnenberg, D. Williams-Young, 
 F. Ding, F. Lipparini, F. Egidi, J. Goings, B. Peng, A. Petrone, 
 T. Henderson, D. Ranasinghe, V. G. Zakrzewski, J. Gao, N. Rega, 
 G. Zheng, W. Liang, M. Hada, M. Ehara, K. Toyota, R. Fukuda, 
 J. Hasegawa, M. Ishida, T. Nakajima, Y. Honda, O. Kitao, H. Nakai, 
 T. Vreven, K. Throssell, J. A. Montgomery, Jr., J. E. Peralta, 
 F. Ogliaro, M. J. Bearpark, J. J. Heyd, E. N. Brothers, K. N. Kudin, 
 V. N. Staroverov, T. A. Keith, R. Kobayashi, J. Normand, 
 K. Raghavachari, A. P. Rendell, J. C. Burant, S. S. Iyengar, 
 J. Tomasi, M. Cossi, J. M. Millam, M. Klene, C. Adamo, R. Cammi, 
 J. W. Ochterski, R. L. Martin, K. Morokuma, O. Farkas, 
 J. B. Foresman, and D. J. Fox, Gaussian, Inc., Wallingford CT, 2016.
 
 ******************************************
 Gaussian 16:  ES64L-G16RevA.03 25-Dec-2016
                 4-Nov-2018 
 ******************************************
 %mem=6000mb
 %nproc=24
 Will use up to   24 processors via shared memory.
 %chk=D_1a_4e_D_PHI.inp_extract_11.chk
 ----------------------------------------------------------------------
 #M062X/6-311++G(2d,2p) opt=ModRedundant freq=noraman SCRF=(Solvent=Wat
 er)
 ----------------------------------------------------------------------
 1/18=120,19=15,26=3,38=1/1,3;
 2/9=110,12=2,17=6,18=5,40=1/2;
 3/5=4,6=6,7=1212,11=2,25=1,30=1,70=2201,71=1,72=1,74=-55/1,2,3;
 4//1;
 5/5=2,38=5,53=1/2;
 6/7=2,8=2,9=2,10=2,28=1/1;
 7//1,2,3,16;
 1/18=20,19=15,26=3/3(2);
 2/9=110/2;
 99//99;
 2/9=110/2;
 3/5=4,6=6,7=1212,11=2,25=1,30=1,70=2205,71=1,72=1,74=-55/1,2,3;
 4/5=5,16=3,69=1/1;
 5/5=2,38=5,53=1/2;
 7//1,2,3,16;
 1/18=20,19=15,26=3/3(-5);
 2/9=110/2;
 6/7=2,8=2,9=2,10=2,19=2,28=1/1;
 99/9=1/99;
 ----------------------------
 D_1a_4e_D_PHI.inp_extract_11
 ----------------------------
 Symbolic Z-matrix:
 Charge =  0 Multiplicity = 1
 C                    -2.67583  -0.99695   1.06839 
 C                    -1.52167   1.01097  -0.72257 
 C                     1.02753   0.45084  -0.84143 
 C                    -1.65556  -0.01252   1.63756 
 O                     2.54725  -1.36402  -0.46044 
 C                     3.12098  -0.74362   0.67636 
 C                    -2.41213  -1.22854  -0.40885 
 C                     1.58006   1.20967   0.3614 
 C                     1.17989  -1.05455  -0.64134 
 C                     3.03368   0.771     0.57425 
 O                    -2.3952   -0.00831  -1.13611 
 O                    -0.25618   0.83099  -1.32269 
 C                    -1.6326    1.25356   0.78135 
 H                    -3.68084  -0.60088   1.19385 
 H                    -2.63316  -1.94905   1.58957 
 H                     1.6569    0.70269  -1.68658 
 H                    -1.91343   0.2537    2.65818 
 H                    -0.67799  -0.47813   1.67223 
 H                     4.14843  -1.07829   0.71834 
 H                     2.60891  -1.0963    1.56881 
 H                    -1.47708  -1.75395  -0.55708 
 H                    -3.19843  -1.81748  -0.86062 
 H                     1.01884   0.9854    1.25883 
 H                     1.52257   2.27961   0.18832 
 H                     3.65269   1.10993  -0.25237 
 H                     3.43113   1.2144    1.48237 
 H                    -2.58838   1.75622   0.90441 
 H                    -0.8759    1.9557    1.101 
 H                    -1.89832   1.88602  -1.22735 
 H                     0.6177   -1.40894   0.2138 
 H                     0.85339  -1.58915  -1.52249 
 
 The following ModRedundant input section has been read:
 D      11       2      12       3 F                                           
 

 GradGradGradGradGradGradGradGradGradGradGradGradGradGradGradGradGradGrad
 Berny optimization.
 Initialization pass.
                           ----------------------------
                           !    Initial Parameters    !
                           ! (Angstroms and Degrees)  !
 --------------------------                            --------------------------
 ! Name  Definition              Value          Derivative Info.                !
 --------------------------------------------------------------------------------
 ! R1    R(1,4)                  1.5278         estimate D2E/DX2                !
 ! R2    R(1,7)                  1.5184         estimate D2E/DX2                !
 ! R3    R(1,14)                 1.0875         estimate D2E/DX2                !
 ! R4    R(1,15)                 1.0863         estimate D2E/DX2                !
 ! R5    R(2,11)                 1.4046         estimate D2E/DX2                !
 ! R6    R(2,12)                 1.4121         estimate D2E/DX2                !
 ! R7    R(2,13)                 1.5274         estimate D2E/DX2                !
 ! R8    R(2,29)                 1.0781         estimate D2E/DX2                !
 ! R9    R(3,8)                  1.5257         estimate D2E/DX2                !
 ! R10   R(3,9)                  1.5262         estimate D2E/DX2                !
 ! R11   R(3,12)                 1.4227         estimate D2E/DX2                !
 ! R12   R(3,16)                 1.0834         estimate D2E/DX2                !
 ! R13   R(4,13)                 1.5286         estimate D2E/DX2                !
 ! R14   R(4,17)                 1.0858         estimate D2E/DX2                !
 ! R15   R(4,18)                 1.0833         estimate D2E/DX2                !
 ! R16   R(5,6)                  1.4165         estimate D2E/DX2                !
 ! R17   R(5,9)                  1.4136         estimate D2E/DX2                !
 ! R18   R(6,10)                 1.5206         estimate D2E/DX2                !
 ! R19   R(6,19)                 1.0814         estimate D2E/DX2                !
 ! R20   R(6,20)                 1.0877         estimate D2E/DX2                !
 ! R21   R(7,11)                 1.4206         estimate D2E/DX2                !
 ! R22   R(7,21)                 1.0827         estimate D2E/DX2                !
 ! R23   R(7,22)                 1.0813         estimate D2E/DX2                !
 ! R24   R(8,10)                 1.5332         estimate D2E/DX2                !
 ! R25   R(8,23)                 1.082          estimate D2E/DX2                !
 ! R26   R(8,24)                 1.0854         estimate D2E/DX2                !
 ! R27   R(9,30)                 1.083          estimate D2E/DX2                !
 ! R28   R(9,31)                 1.0811         estimate D2E/DX2                !
 ! R29   R(10,25)                1.0869         estimate D2E/DX2                !
 ! R30   R(10,26)                1.0859         estimate D2E/DX2                !
 ! R31   R(13,27)                1.0869         estimate D2E/DX2                !
 ! R32   R(13,28)                1.0806         estimate D2E/DX2                !
 ! A1    A(4,1,7)              110.1674         estimate D2E/DX2                !
 ! A2    A(4,1,14)             109.8471         estimate D2E/DX2                !
 ! A3    A(4,1,15)             111.0882         estimate D2E/DX2                !
 ! A4    A(7,1,14)             109.1654         estimate D2E/DX2                !
 ! A5    A(7,1,15)             109.044          estimate D2E/DX2                !
 ! A6    A(14,1,15)            107.4676         estimate D2E/DX2                !
 ! A7    A(11,2,12)            109.8595         estimate D2E/DX2                !
 ! A8    A(11,2,13)            111.0983         estimate D2E/DX2                !
 ! A9    A(11,2,29)            103.524          estimate D2E/DX2                !
 ! A10   A(12,2,13)            120.2514         estimate D2E/DX2                !
 ! A11   A(12,2,29)            102.5654         estimate D2E/DX2                !
 ! A12   A(13,2,29)            107.8618         estimate D2E/DX2                !
 ! A13   A(8,3,9)              110.552          estimate D2E/DX2                !
 ! A14   A(8,3,12)             117.4221         estimate D2E/DX2                !
 ! A15   A(8,3,16)             106.7976         estimate D2E/DX2                !
 ! A16   A(9,3,12)             113.4516         estimate D2E/DX2                !
 ! A17   A(9,3,16)             105.8764         estimate D2E/DX2                !
 ! A18   A(12,3,16)            101.4291         estimate D2E/DX2                !
 ! A19   A(1,4,13)             109.576          estimate D2E/DX2                !
 ! A20   A(1,4,17)             110.4602         estimate D2E/DX2                !
 ! A21   A(1,4,18)             109.7305         estimate D2E/DX2                !
 ! A22   A(13,4,17)            109.0863         estimate D2E/DX2                !
 ! A23   A(13,4,18)            111.1224         estimate D2E/DX2                !
 ! A24   A(17,4,18)            106.8336         estimate D2E/DX2                !
 ! A25   A(6,5,9)              113.4921         estimate D2E/DX2                !
 ! A26   A(5,6,10)             111.0472         estimate D2E/DX2                !
 ! A27   A(5,6,19)             106.2871         estimate D2E/DX2                !
 ! A28   A(5,6,20)             109.014          estimate D2E/DX2                !
 ! A29   A(10,6,19)            111.4333         estimate D2E/DX2                !
 ! A30   A(10,6,20)            110.5509         estimate D2E/DX2                !
 ! A31   A(19,6,20)            108.3669         estimate D2E/DX2                !
 ! A32   A(1,7,11)             111.6618         estimate D2E/DX2                !
 ! A33   A(1,7,21)             110.928          estimate D2E/DX2                !
 ! A34   A(1,7,22)             111.3009         estimate D2E/DX2                !
 ! A35   A(11,7,21)            109.6599         estimate D2E/DX2                !
 ! A36   A(11,7,22)            105.2249         estimate D2E/DX2                !
 ! A37   A(21,7,22)            107.8476         estimate D2E/DX2                !
 ! A38   A(3,8,10)             108.0884         estimate D2E/DX2                !
 ! A39   A(3,8,23)             111.2822         estimate D2E/DX2                !
 ! A40   A(3,8,24)             110.2054         estimate D2E/DX2                !
 ! A41   A(10,8,23)            108.501          estimate D2E/DX2                !
 ! A42   A(10,8,24)            110.7565         estimate D2E/DX2                !
 ! A43   A(23,8,24)            108.0065         estimate D2E/DX2                !
 ! A44   A(3,9,5)              109.2249         estimate D2E/DX2                !
 ! A45   A(3,9,30)             111.9903         estimate D2E/DX2                !
 ! A46   A(3,9,31)             110.5325         estimate D2E/DX2                !
 ! A47   A(5,9,30)             109.2345         estimate D2E/DX2                !
 ! A48   A(5,9,31)             106.7487         estimate D2E/DX2                !
 ! A49   A(30,9,31)            108.9635         estimate D2E/DX2                !
 ! A50   A(6,10,8)             110.4105         estimate D2E/DX2                !
 ! A51   A(6,10,25)            109.2068         estimate D2E/DX2                !
 ! A52   A(6,10,26)            109.2415         estimate D2E/DX2                !
 ! A53   A(8,10,25)            110.1911         estimate D2E/DX2                !
 ! A54   A(8,10,26)            110.2594         estimate D2E/DX2                !
 ! A55   A(25,10,26)           107.4718         estimate D2E/DX2                !
 ! A56   A(2,11,7)             118.6841         estimate D2E/DX2                !
 ! A57   A(2,12,3)             134.3411         estimate D2E/DX2                !
 ! A58   A(2,13,4)             114.9019         estimate D2E/DX2                !
 ! A59   A(2,13,27)            104.4069         estimate D2E/DX2                !
 ! A60   A(2,13,28)            110.0954         estimate D2E/DX2                !
 ! A61   A(4,13,27)            107.8442         estimate D2E/DX2                !
 ! A62   A(4,13,28)            112.5195         estimate D2E/DX2                !
 ! A63   A(27,13,28)           106.3666         estimate D2E/DX2                !
 ! D1    D(7,1,4,13)            52.635          estimate D2E/DX2                !
 ! D2    D(7,1,4,17)           172.84           estimate D2E/DX2                !
 ! D3    D(7,1,4,18)           -69.632          estimate D2E/DX2                !
 ! D4    D(14,1,4,13)          -67.6563         estimate D2E/DX2                !
 ! D5    D(14,1,4,17)           52.5487         estimate D2E/DX2                !
 ! D6    D(14,1,4,18)          170.0767         estimate D2E/DX2                !
 ! D7    D(15,1,4,13)          173.5784         estimate D2E/DX2                !
 ! D8    D(15,1,4,17)          -66.2165         estimate D2E/DX2                !
 ! D9    D(15,1,4,18)           51.3115         estimate D2E/DX2                !
 ! D10   D(4,1,7,11)           -55.1936         estimate D2E/DX2                !
 ! D11   D(4,1,7,21)            67.4532         estimate D2E/DX2                !
 ! D12   D(4,1,7,22)          -172.4608         estimate D2E/DX2                !
 ! D13   D(14,1,7,11)           65.5077         estimate D2E/DX2                !
 ! D14   D(14,1,7,21)         -171.8456         estimate D2E/DX2                !
 ! D15   D(14,1,7,22)          -51.7595         estimate D2E/DX2                !
 ! D16   D(15,1,7,11)         -177.3532         estimate D2E/DX2                !
 ! D17   D(15,1,7,21)          -54.7064         estimate D2E/DX2                !
 ! D18   D(15,1,7,22)           65.3796         estimate D2E/DX2                !
 ! D19   D(12,2,11,7)           86.9229         estimate D2E/DX2                !
 ! D20   D(13,2,11,7)          -48.5976         estimate D2E/DX2                !
 ! D21   D(29,2,11,7)         -164.1247         estimate D2E/DX2                !
 ! D22   D(11,2,12,3)         -109.9399         Frozen                          !
 ! D23   D(13,2,12,3)           20.8829         estimate D2E/DX2                !
 ! D24   D(29,2,12,3)          140.4724         estimate D2E/DX2                !
 ! D25   D(11,2,13,4)           45.1283         estimate D2E/DX2                !
 ! D26   D(11,2,13,27)         -72.7801         estimate D2E/DX2                !
 ! D27   D(11,2,13,28)         173.4056         estimate D2E/DX2                !
 ! D28   D(12,2,13,4)          -85.1538         estimate D2E/DX2                !
 ! D29   D(12,2,13,27)         156.9378         estimate D2E/DX2                !
 ! D30   D(12,2,13,28)          43.1235         estimate D2E/DX2                !
 ! D31   D(29,2,13,4)          157.9389         estimate D2E/DX2                !
 ! D32   D(29,2,13,27)          40.0305         estimate D2E/DX2                !
 ! D33   D(29,2,13,28)         -73.7838         estimate D2E/DX2                !
 ! D34   D(9,3,8,10)            55.5085         estimate D2E/DX2                !
 ! D35   D(9,3,8,23)           -63.5354         estimate D2E/DX2                !
 ! D36   D(9,3,8,24)           176.6719         estimate D2E/DX2                !
 ! D37   D(12,3,8,10)         -172.1653         estimate D2E/DX2                !
 ! D38   D(12,3,8,23)           68.7908         estimate D2E/DX2                !
 ! D39   D(12,3,8,24)          -51.0019         estimate D2E/DX2                !
 ! D40   D(16,3,8,10)          -59.2225         estimate D2E/DX2                !
 ! D41   D(16,3,8,23)         -178.2664         estimate D2E/DX2                !
 ! D42   D(16,3,8,24)           61.9409         estimate D2E/DX2                !
 ! D43   D(8,3,9,5)            -58.8083         estimate D2E/DX2                !
 ! D44   D(8,3,9,30)            62.329          estimate D2E/DX2                !
 ! D45   D(8,3,9,31)          -175.9702         estimate D2E/DX2                !
 ! D46   D(12,3,9,5)           166.8628         estimate D2E/DX2                !
 ! D47   D(12,3,9,30)          -71.9999         estimate D2E/DX2                !
 ! D48   D(12,3,9,31)           49.7009         estimate D2E/DX2                !
 ! D49   D(16,3,9,5)            56.5011         estimate D2E/DX2                !
 ! D50   D(16,3,9,30)          177.6385         estimate D2E/DX2                !
 ! D51   D(16,3,9,31)          -60.6608         estimate D2E/DX2                !
 ! D52   D(8,3,12,2)           -51.432          estimate D2E/DX2                !
 ! D53   D(9,3,12,2)            79.5774         estimate D2E/DX2                !
 ! D54   D(16,3,12,2)         -167.348          estimate D2E/DX2                !
 ! D55   D(1,4,13,2)           -48.9044         estimate D2E/DX2                !
 ! D56   D(1,4,13,27)           67.0474         estimate D2E/DX2                !
 ! D57   D(1,4,13,28)         -175.9566         estimate D2E/DX2                !
 ! D58   D(17,4,13,2)         -169.9439         estimate D2E/DX2                !
 ! D59   D(17,4,13,27)         -53.9922         estimate D2E/DX2                !
 ! D60   D(17,4,13,28)          63.0039         estimate D2E/DX2                !
 ! D61   D(18,4,13,2)           72.5281         estimate D2E/DX2                !
 ! D62   D(18,4,13,27)        -171.5202         estimate D2E/DX2                !
 ! D63   D(18,4,13,28)         -54.5241         estimate D2E/DX2                !
 ! D64   D(9,5,6,10)           -60.2008         estimate D2E/DX2                !
 ! D65   D(9,5,6,19)           178.444          estimate D2E/DX2                !
 ! D66   D(9,5,6,20)            61.8348         estimate D2E/DX2                !
 ! D67   D(6,5,9,3)             61.1671         estimate D2E/DX2                !
 ! D68   D(6,5,9,30)           -61.6312         estimate D2E/DX2                !
 ! D69   D(6,5,9,31)          -179.3044         estimate D2E/DX2                !
 ! D70   D(5,6,10,8)            55.505          estimate D2E/DX2                !
 ! D71   D(5,6,10,25)          -65.8013         estimate D2E/DX2                !
 ! D72   D(5,6,10,26)          176.9185         estimate D2E/DX2                !
 ! D73   D(19,6,10,8)          173.7918         estimate D2E/DX2                !
 ! D74   D(19,6,10,25)          52.4856         estimate D2E/DX2                !
 ! D75   D(19,6,10,26)         -64.7946         estimate D2E/DX2                !
 ! D76   D(20,6,10,8)          -65.6315         estimate D2E/DX2                !
 ! D77   D(20,6,10,25)         173.0622         estimate D2E/DX2                !
 ! D78   D(20,6,10,26)          55.782          estimate D2E/DX2                !
 ! D79   D(1,7,11,2)            55.1168         estimate D2E/DX2                !
 ! D80   D(21,7,11,2)          -68.2518         estimate D2E/DX2                !
 ! D81   D(22,7,11,2)          175.9929         estimate D2E/DX2                !
 ! D82   D(3,8,10,6)           -53.4972         estimate D2E/DX2                !
 ! D83   D(3,8,10,25)           67.2228         estimate D2E/DX2                !
 ! D84   D(3,8,10,26)         -174.3051         estimate D2E/DX2                !
 ! D85   D(23,8,10,6)           67.2957         estimate D2E/DX2                !
 ! D86   D(23,8,10,25)        -171.9843         estimate D2E/DX2                !
 ! D87   D(23,8,10,26)         -53.5122         estimate D2E/DX2                !
 ! D88   D(24,8,10,6)         -174.3179         estimate D2E/DX2                !
 ! D89   D(24,8,10,25)         -53.598          estimate D2E/DX2                !
 ! D90   D(24,8,10,26)          64.8742         estimate D2E/DX2                !
 --------------------------------------------------------------------------------
 Trust Radius=3.00D-01 FncErr=1.00D-07 GrdErr=1.00D-06 EigMax=2.50D+02 EigMin=1.00D-04
 Number of steps in this run=    186 maximum allowed number of steps=    186.
 GradGradGradGradGradGradGradGradGradGradGradGradGradGradGradGradGradGrad

                          Input orientation:                          
 ---------------------------------------------------------------------
 Center     Atomic      Atomic             Coordinates (Angstroms)
 Number     Number       Type             X           Y           Z
 ---------------------------------------------------------------------
      1          6           0       -2.675830   -0.996950    1.068387
      2          6           0       -1.521665    1.010973   -0.722567
      3          6           0        1.027534    0.450835   -0.841426
      4          6           0       -1.655557   -0.012517    1.637559
      5          8           0        2.547247   -1.364023   -0.460437
      6          6           0        3.120976   -0.743622    0.676355
      7          6           0       -2.412128   -1.228539   -0.408850
      8          6           0        1.580060    1.209671    0.361397
      9          6           0        1.179888   -1.054547   -0.641342
     10          6           0        3.033679    0.771003    0.574252
     11          8           0       -2.395203   -0.008305   -1.136114
     12          8           0       -0.256183    0.830992   -1.322690
     13          6           0       -1.632604    1.253558    0.781353
     14          1           0       -3.680844   -0.600882    1.193851
     15          1           0       -2.633162   -1.949054    1.589571
     16          1           0        1.656897    0.702693   -1.686582
     17          1           0       -1.913431    0.253695    2.658177
     18          1           0       -0.677993   -0.478133    1.672228
     19          1           0        4.148432   -1.078288    0.718340
     20          1           0        2.608907   -1.096295    1.568810
     21          1           0       -1.477081   -1.753952   -0.557081
     22          1           0       -3.198435   -1.817482   -0.860620
     23          1           0        1.018839    0.985403    1.258829
     24          1           0        1.522572    2.279610    0.188318
     25          1           0        3.652690    1.109927   -0.252371
     26          1           0        3.431128    1.214404    1.482374
     27          1           0       -2.588379    1.756216    0.904414
     28          1           0       -0.875902    1.955704    1.101000
     29          1           0       -1.898319    1.886024   -1.227350
     30          1           0        0.617700   -1.408939    0.213803
     31          1           0        0.853386   -1.589154   -1.522491
 ---------------------------------------------------------------------
                    Distance matrix (angstroms):
                    1          2          3          4          5
     1  C    0.000000
     2  C    2.927690   0.000000
     3  C    4.411164   2.612718   0.000000
     4  C    1.527751   2.575976   3.682260   0.000000
     5  O    5.454592   4.718619   2.397580   4.887915   0.000000
     6  C    5.815567   5.156520   2.848313   4.926834   1.416460
     7  C    1.518355   2.430382   3.852103   2.497779   4.961493
     8  C    4.845783   3.291680   1.525746   3.686672   2.869628
     9  C    4.218181   3.401670   1.526244   3.784041   1.413567
    10  C    5.997359   4.742413   2.476140   4.871700   2.421886
    11  O    2.432282   1.404641   3.465946   2.870602   5.169364
    12  O    3.861776   1.412086   1.422696   3.381247   3.663440
    13  C    2.497097   1.527393   3.217780   1.528582   5.085757
    14  H    1.087504   3.306477   5.236152   2.155189   6.489081
    15  H    1.086257   3.917036   5.006986   2.169836   5.601913
    16  H    5.408435   3.335808   1.083429   4.746977   2.562707
    17  H    2.161665   3.486600   4.575518   1.085831   5.678064
    18  H    2.150616   2.943512   3.176517   1.083343   3.966766
    19  H    6.833718   6.212184   3.809343   5.972196   2.008719
    20  H    5.309307   5.172293   3.271634   4.400563   2.047761
    21  H    2.156895   2.770232   3.348886   2.807293   4.044329
    22  H    2.160430   3.291014   4.796295   3.446632   5.777424
    23  H    4.197210   3.221916   2.167235   2.879527   3.288116
    24  H    5.397865   3.421481   2.156352   4.177876   3.840170
    25  H    6.799522   5.196617   2.769988   5.745364   2.717669
    26  H    6.508180   5.425247   3.429336   5.234862   3.347245
    27  H    2.759431   2.083347   4.222180   2.129806   6.162253
    28  H    3.458174   2.152887   3.108170   2.183953   5.017631
    29  H    3.766493   1.078141   3.281664   3.445446   5.560038
    30  H    3.427446   3.362982   2.177207   3.024033   2.044448
    31  H    4.418000   3.611289   2.157715   4.332031   2.011916
                    6          7          8          9         10
     6  C    0.000000
     7  C    5.659333   0.000000
     8  C    2.507783   4.740856   0.000000
     9  C    2.366606   3.603735   2.508447   0.000000
    10  C    1.520571   5.884001   1.533214   2.871732   0.000000
    11  O    5.852689   1.420623   4.419131   3.757752   5.745035
    12  O    4.228569   3.118472   2.520186   2.466129   3.798049
    13  C    5.157158   2.860952   3.240293   3.906600   4.695737
    14  H    6.822971   2.138281   5.625673   5.215406   6.881191
    15  H    5.949549   2.135810   5.407143   4.507379   6.367313
    16  H    3.133501   4.681797   2.111196   2.099513   2.647936
    17  H    5.501592   3.442727   4.288772   4.708179   5.392981
    18  H    3.936294   2.810911   3.108981   3.022678   4.067235
    19  H    1.081402   6.658384   3.458135   3.265203   2.164096
    20  H    1.087690   5.398094   2.798902   2.632225   2.157864
    21  H    4.866648   1.082748   4.355775   2.748773   5.291717
    22  H    6.591693   1.081309   5.787141   4.449704   6.899156
    23  H    2.783484   4.410695   1.081965   2.792487   2.138736
    24  H    3.454419   5.305241   1.085371   3.452879   2.169858
    25  H    2.140303   6.501917   2.163898   3.309229   1.086899
    26  H    2.140030   6.609716   2.164039   3.837498   1.085935
    27  H    6.236821   3.265653   4.239040   4.948695   5.717271
    28  H    4.841665   3.844352   2.671203   4.040252   4.118957
    29  H    5.977663   3.261050   3.883387   4.297176   5.367834
    30  H    2.631158   3.098403   2.793750   1.083015   3.273992
    31  H    3.269834   3.468980   3.451161   1.081125   3.836711
                   11         12         13         14         15
    11  O    0.000000
    12  O    2.305350   0.000000
    13  C    2.418788   2.549528   0.000000
    14  H    2.726308   4.484590   2.793634   0.000000
    15  H    3.354473   4.675462   3.451240   1.752655   0.000000
    16  H    4.150668   1.951603   4.149093   6.203844   6.014112
    17  H    3.833718   4.350522   2.145008   2.449143   2.551869
    18  H    3.325107   3.295643   2.168800   3.043193   2.448086
    19  H    6.884985   5.216492   6.233928   7.858218   6.892554
    20  H    5.791498   4.503770   4.912465   6.320364   5.311018
    21  H    2.055605   2.959507   3.295559   3.041694   2.445956
    22  H    1.998549   3.985570   3.818270   2.435916   2.517991
    23  H    4.287061   2.883360   2.707405   4.960599   4.696545
    24  H    4.726271   2.746927   3.370402   6.031904   6.092227
    25  H    6.213570   4.062349   5.387351   7.668060   7.229250
    26  H    6.503663   4.648833   5.112176   7.345655   6.840656
    27  H    2.704553   3.354873   1.086883   2.614032   3.768351
    28  H    3.342198   2.742864   1.080639   3.796374   4.309733
    29  H    1.960536   1.954173   2.122618   3.901834   4.814858
    30  H    3.586312   2.853379   3.531978   4.482291   3.571073
    31  H    3.633415   2.669863   4.423670   5.377215   4.687267
                   16         17         18         19         20
    16  H    0.000000
    17  H    5.641434   0.000000
    18  H    4.257660   1.741831   0.000000
    19  H    3.894007   6.502563   4.956255   0.000000
    20  H    3.839304   4.843628   3.346122   1.758909   0.000000
    21  H    4.139166   3.815617   2.689995   5.807720   4.652658
    22  H    5.532427   4.280531   3.815993   7.550892   6.336202
    23  H    3.026960   3.330432   2.278613   3.787519   2.637778
    24  H    2.453561   4.691551   3.827482   4.295526   3.805603
    25  H    2.491183   6.339253   4.998083   2.444652   3.045258
    26  H    3.667700   5.556058   4.448101   2.520855   2.454149
    27  H    5.083851   2.405994   3.038327   7.311201   5.965737
    28  H    3.969348   2.529447   2.507794   5.881791   4.655904
    29  H    3.775014   4.214504   3.935224   7.009711   6.085049
    30  H    3.024960   3.891779   2.161533   3.581893   2.428723
    31  H    2.434157   5.341288   3.712912   4.017417   3.588998
                   21         22         23         24         25
    21  H    0.000000
    22  H    1.749066   0.000000
    23  H    4.126889   5.489411   0.000000
    24  H    5.081649   6.338323   1.753486   0.000000
    25  H    5.882959   7.475132   3.039145   2.469771   0.000000
    26  H    6.087777   7.657223   2.433424   2.540045   1.751955
    27  H    3.961342   4.032224   3.705642   4.205550   6.380187
    28  H    4.107578   4.845518   2.134581   2.586616   4.801572
    29  H    3.725067   3.942176   3.937260   3.723106   5.689166
    30  H    2.258629   3.985496   2.643079   3.798004   3.971545
    31  H    2.527895   4.111868   3.793608   4.282758   4.090763
                   26         27         28         29         30
    26  H    0.000000
    27  H    6.071414   0.000000
    28  H    4.386967   1.735229   0.000000
    29  H    6.016368   2.244427   2.543896   0.000000
    30  H    4.050503   4.557860   3.786659   4.389084   0.000000
    31  H    4.851176   5.378393   4.736999   4.442505   1.761460
                   31
    31  H    0.000000
 Stoichiometry    C10H18O3
 Framework group  C1[X(C10H18O3)]
 Deg. of freedom    87
 Full point group                 C1      NOp   1
 Largest Abelian subgroup         C1      NOp   1
 Largest concise Abelian subgroup C1      NOp   1
                         Standard orientation:                         
 ---------------------------------------------------------------------
 Center     Atomic      Atomic             Coordinates (Angstroms)
 Number     Number       Type             X           Y           Z
 ---------------------------------------------------------------------
      1          6           0        2.675830    0.996950    1.068387
      2          6           0        1.521665   -1.010973   -0.722567
      3          6           0       -1.027534   -0.450835   -0.841426
      4          6           0        1.655557    0.012517    1.637559
      5          8           0       -2.547247    1.364023   -0.460437
      6          6           0       -3.120976    0.743622    0.676355
      7          6           0        2.412128    1.228539   -0.408850
      8          6           0       -1.580060   -1.209671    0.361397
      9          6           0       -1.179888    1.054547   -0.641342
     10          6           0       -3.033679   -0.771003    0.574252
     11          8           0        2.395203    0.008305   -1.136114
     12          8           0        0.256183   -0.830992   -1.322690
     13          6           0        1.632604   -1.253558    0.781353
     14          1           0        3.680844    0.600882    1.193851
     15          1           0        2.633162    1.949054    1.589571
     16          1           0       -1.656897   -0.702693   -1.686582
     17          1           0        1.913431   -0.253695    2.658177
     18          1           0        0.677993    0.478133    1.672228
     19          1           0       -4.148432    1.078288    0.718340
     20          1           0       -2.608907    1.096295    1.568810
     21          1           0        1.477081    1.753952   -0.557081
     22          1           0        3.198435    1.817482   -0.860620
     23          1           0       -1.018839   -0.985403    1.258829
     24          1           0       -1.522572   -2.279610    0.188318
     25          1           0       -3.652690   -1.109927   -0.252371
     26          1           0       -3.431128   -1.214404    1.482374
     27          1           0        2.588379   -1.756216    0.904414
     28          1           0        0.875902   -1.955704    1.101000
     29          1           0        1.898319   -1.886024   -1.227350
     30          1           0       -0.617700    1.408939    0.213803
     31          1           0       -0.853386    1.589154   -1.522491
 ---------------------------------------------------------------------
 Rotational constants (GHZ):           1.4235340           0.5027730           0.4935491
 Standard basis: 6-311++G(2d,2p) (5D, 7F)
 There are   557 symmetry adapted cartesian basis functions of A   symmetry.
 There are   531 symmetry adapted basis functions of A   symmetry.
   531 basis functions,   762 primitive gaussians,   557 cartesian basis functions
    51 alpha electrons       51 beta electrons
       nuclear repulsion energy       911.9384992602 Hartrees.
 NAtoms=   31 NActive=   31 NUniq=   31 SFac= 1.00D+00 NAtFMM=   60 NAOKFM=F Big=F
 Integral buffers will be    131072 words long.
 Raffenetti 2 integral format.
 Two-electron integral symmetry is turned on.
 ------------------------------------------------------------------------------
 Polarizable Continuum Model (PCM)
 =================================
 Model                : PCM.
 Atomic radii         : UFF (Universal Force Field).
 Polarization charges : Total charges.
 Charge compensation  : None.
 Solution method      : On-the-fly selection.
 Cavity type          : Scaled VdW (van der Waals Surface) (Alpha=1.100).
 Cavity algorithm     : GePol (No added spheres)
                        Default sphere list used, NSphG=   31.
                        Lebedev-Laikov grids with approx.  5.0 points / Ang**2.
                        Smoothing algorithm: York/Karplus (Gamma=1.0000).
                        Polarization charges: spherical gaussians, with
                                              point-specific exponents (IZeta= 3).
                        Self-potential: point-specific (ISelfS= 7).
                        Self-field    : sphere-specific E.n sum rule (ISelfD= 2).
 1st derivatives      : Analytical E(r).r(x)/FMM algorithm (CHGder, D1EAlg=3).
                        Cavity 1st derivative terms included.
 Solvent              : Water, Eps=  78.355300 Eps(inf)=   1.777849
 ------------------------------------------------------------------------------
 One-electron integrals computed using PRISM.
 NBasis=   531 RedAO= T EigKep=  4.50D-06  NBF=   531
 NBsUse=   531 1.00D-06 EigRej= -1.00D+00 NBFU=   531
 ExpMin= 3.60D-02 ExpMax= 8.59D+03 ExpMxC= 1.30D+03 IAcc=3 IRadAn=         5 AccDes= 0.00D+00
 Harris functional with IExCor= 1009 and IRadAn=       5 diagonalized for initial guess.
 HarFok:  IExCor= 1009 AccDes= 0.00D+00 IRadAn=         5 IDoV= 1 UseB2=F ITyADJ=14
 ICtDFT=  3500011 ScaDFX=  1.000000  1.000000  1.000000  1.000000
 FoFCou: FMM=F IPFlag=           0 FMFlag=      100000 FMFlg1=           0
         NFxFlg=           0 DoJE=T BraDBF=F KetDBF=T FulRan=T
         wScrn=  0.000000 ICntrl=       500 IOpCl=  0 I1Cent=   200000004 NGrid=           0
         NMat0=    1 NMatS0=      1 NMatT0=    0 NMatD0=    1 NMtDS0=    0 NMtDT0=    0
 Petite list used in FoFCou.
 Requested convergence on RMS density matrix=1.00D-08 within 128 cycles.
 Requested convergence on MAX density matrix=1.00D-06.
 Requested convergence on             energy=1.00D-06.
 No special actions if energy rises.
 Inv3:  Mode=1 IEnd=    11784972.
 Iteration    1 A*A^-1 deviation from unit magnitude is 6.44D-15 for   1967.
 Iteration    1 A*A^-1 deviation from orthogonality  is 2.50D-15 for   1967    821.
 Iteration    1 A^-1*A deviation from unit magnitude is 6.44D-15 for   1967.
 Iteration    1 A^-1*A deviation from orthogonality  is 2.48D-15 for   1977    827.
 Error on total polarization charges =  0.01449
 SCF Done:  E(RM062X) =  -617.479301149     A.U. after   12 cycles
            NFock= 12  Conv=0.54D-08     -V/T= 2.0035

 **********************************************************************

            Population analysis using the SCF density.

 **********************************************************************

 Orbital symmetries:
       Occupied  (A) (A) (A) (A) (A) (A) (A) (A) (A) (A) (A) (A)
                 (A) (A) (A) (A) (A) (A) (A) (A) (A) (A) (A) (A)
                 (A) (A) (A) (A) (A) (A) (A) (A) (A) (A) (A) (A)
                 (A) (A) (A) (A) (A) (A) (A) (A) (A) (A) (A) (A)
                 (A) (A) (A)
       Virtual   (A) (A) (A) (A) (A) (A) (A) (A) (A) (A) (A) (A)
                 (A) (A) (A) (A) (A) (A) (A) (A) (A) (A) (A) (A)
                 (A) (A) (A) (A) (A) (A) (A) (A) (A) (A) (A) (A)
                 (A) (A) (A) (A) (A) (A) (A) (A) (A) (A) (A) (A)
                 (A) (A) (A) (A) (A) (A) (A) (A) (A) (A) (A) (A)
                 (A) (A) (A) (A) (A) (A) (A) (A) (A) (A) (A) (A)
                 (A) (A) (A) (A) (A) (A) (A) (A) (A) (A) (A) (A)
                 (A) (A) (A) (A) (A) (A) (A) (A) (A) (A) (A) (A)
                 (A) (A) (A) (A) (A) (A) (A) (A) (A) (A) (A) (A)
                 (A) (A) (A) (A) (A) (A) (A) (A) (A) (A) (A) (A)
                 (A) (A) (A) (A) (A) (A) (A) (A) (A) (A) (A) (A)
                 (A) (A) (A) (A) (A) (A) (A) (A) (A) (A) (A) (A)
                 (A) (A) (A) (A) (A) (A) (A) (A) (A) (A) (A) (A)
                 (A) (A) (A) (A) (A) (A) (A) (A) (A) (A) (A) (A)
                 (A) (A) (A) (A) (A) (A) (A) (A) (A) (A) (A) (A)
                 (A) (A) (A) (A) (A) (A) (A) (A) (A) (A) (A) (A)
                 (A) (A) (A) (A) (A) (A) (A) (A) (A) (A) (A) (A)
                 (A) (A) (A) (A) (A) (A) (A) (A) (A) (A) (A) (A)
                 (A) (A) (A) (A) (A) (A) (A) (A) (A) (A) (A) (A)
                 (A) (A) (A) (A) (A) (A) (A) (A) (A) (A) (A) (A)
                 (A) (A) (A) (A) (A) (A) (A) (A) (A) (A) (A) (A)
                 (A) (A) (A) (A) (A) (A) (A) (A) (A) (A) (A) (A)
                 (A) (A) (A) (A) (A) (A) (A) (A) (A) (A) (A) (A)
                 (A) (A) (A) (A) (A) (A) (A) (A) (A) (A) (A) (A)
                 (A) (A) (A) (A) (A) (A) (A) (A) (A) (A) (A) (A)
                 (A) (A) (A) (A) (A) (A) (A) (A) (A) (A) (A) (A)
                 (A) (A) (A) (A) (A) (A) (A) (A) (A) (A) (A) (A)
                 (A) (A) (A) (A) (A) (A) (A) (A) (A) (A) (A) (A)
                 (A) (A) (A) (A) (A) (A) (A) (A) (A) (A) (A) (A)
                 (A) (A) (A) (A) (A) (A) (A) (A) (A) (A) (A) (A)
                 (A) (A) (A) (A) (A) (A) (A) (A) (A) (A) (A) (A)
                 (A) (A) (A) (A) (A) (A) (A) (A) (A) (A) (A) (A)
                 (A) (A) (A) (A) (A) (A) (A) (A) (A) (A) (A) (A)
                 (A) (A) (A) (A) (A) (A) (A) (A) (A) (A) (A) (A)
                 (A) (A) (A) (A) (A) (A) (A) (A) (A) (A) (A) (A)
                 (A) (A) (A) (A) (A) (A) (A) (A) (A) (A) (A) (A)
                 (A) (A) (A) (A) (A) (A) (A) (A) (A) (A) (A) (A)
                 (A) (A) (A) (A) (A) (A) (A) (A) (A) (A) (A) (A)
                 (A) (A) (A) (A) (A) (A) (A) (A) (A) (A) (A) (A)
                 (A) (A) (A) (A) (A) (A) (A) (A) (A) (A) (A) (A)
 The electronic state is 1-A.
 Alpha  occ. eigenvalues --  -19.63023 -19.62726 -19.62628 -10.63989 -10.59303
 Alpha  occ. eigenvalues --  -10.58006 -10.57980 -10.57842 -10.53442 -10.53389
 Alpha  occ. eigenvalues --  -10.53371 -10.53296 -10.52990  -1.19233  -1.16846
 Alpha  occ. eigenvalues --   -1.13159  -0.90824  -0.90459  -0.88014  -0.85147
 Alpha  occ. eigenvalues --   -0.75840  -0.74492  -0.73821  -0.70739  -0.67508
 Alpha  occ. eigenvalues --   -0.62856  -0.59868  -0.58769  -0.56391  -0.55926
 Alpha  occ. eigenvalues --   -0.55217  -0.53943  -0.52865  -0.50800  -0.50282
 Alpha  occ. eigenvalues --   -0.49722  -0.47841  -0.46278  -0.45798  -0.44983
 Alpha  occ. eigenvalues --   -0.43944  -0.42812  -0.40667  -0.40235  -0.39412
 Alpha  occ. eigenvalues --   -0.38028  -0.37154  -0.36927  -0.35136  -0.33349
 Alpha  occ. eigenvalues --   -0.31583
 Alpha virt. eigenvalues --   -0.00200   0.00726   0.00786   0.01029   0.02361
 Alpha virt. eigenvalues --    0.02657   0.02689   0.03211   0.03391   0.04957
 Alpha virt. eigenvalues --    0.05058   0.05262   0.05773   0.06061   0.07228
 Alpha virt. eigenvalues --    0.07657   0.08034   0.08238   0.08790   0.10031
 Alpha virt. eigenvalues --    0.10642   0.11047   0.11445   0.11604   0.12026
 Alpha virt. eigenvalues --    0.12316   0.12684   0.12811   0.13375   0.13590
 Alpha virt. eigenvalues --    0.13774   0.14003   0.14078   0.14580   0.14705
 Alpha virt. eigenvalues --    0.15106   0.15430   0.15682   0.15761   0.16398
 Alpha virt. eigenvalues --    0.16643   0.17066   0.17299   0.17550   0.17716
 Alpha virt. eigenvalues --    0.17764   0.18284   0.18508   0.19115   0.19276
 Alpha virt. eigenvalues --    0.19695   0.20088   0.20512   0.20722   0.21160
 Alpha virt. eigenvalues --    0.21510   0.21849   0.22969   0.23463   0.23840
 Alpha virt. eigenvalues --    0.24516   0.25904   0.26470   0.26843   0.27407
 Alpha virt. eigenvalues --    0.27872   0.28344   0.28760   0.29324   0.29588
 Alpha virt. eigenvalues --    0.29699   0.31195   0.31823   0.32210   0.32883
 Alpha virt. eigenvalues --    0.32966   0.33120   0.33319   0.34146   0.34537
 Alpha virt. eigenvalues --    0.35160   0.35591   0.35813   0.36098   0.36581
 Alpha virt. eigenvalues --    0.37190   0.37412   0.37535   0.38117   0.38303
 Alpha virt. eigenvalues --    0.38742   0.39245   0.39443   0.39735   0.40509
 Alpha virt. eigenvalues --    0.41028   0.41373   0.42231   0.43877   0.44705
 Alpha virt. eigenvalues --    0.46759   0.47300   0.47614   0.49871   0.50190
 Alpha virt. eigenvalues --    0.51176   0.52222   0.52988   0.53845   0.54184
 Alpha virt. eigenvalues --    0.56613   0.57230   0.58204   0.58638   0.59036
 Alpha virt. eigenvalues --    0.60150   0.61071   0.61499   0.62113   0.62652
 Alpha virt. eigenvalues --    0.62845   0.63248   0.64131   0.64331   0.64712
 Alpha virt. eigenvalues --    0.65324   0.66190   0.66395   0.67033   0.67883
 Alpha virt. eigenvalues --    0.68280   0.69551   0.69779   0.70606   0.70828
 Alpha virt. eigenvalues --    0.71876   0.72006   0.72757   0.73396   0.73666
 Alpha virt. eigenvalues --    0.74934   0.75252   0.75715   0.76288   0.76546
 Alpha virt. eigenvalues --    0.76752   0.77287   0.77770   0.78796   0.79673
 Alpha virt. eigenvalues --    0.80227   0.80886   0.82259   0.83640   0.85567
 Alpha virt. eigenvalues --    0.86583   0.87233   0.87991   0.88525   0.90100
 Alpha virt. eigenvalues --    0.90813   0.92223   0.92840   0.93802   0.96096
 Alpha virt. eigenvalues --    0.96763   0.97415   0.99584   1.00899   1.01695
 Alpha virt. eigenvalues --    1.03042   1.03699   1.03999   1.05014   1.07303
 Alpha virt. eigenvalues --    1.08349   1.09523   1.10986   1.11649   1.12235
 Alpha virt. eigenvalues --    1.13288   1.14156   1.15331   1.15992   1.16418
 Alpha virt. eigenvalues --    1.18325   1.18557   1.19137   1.20136   1.20816
 Alpha virt. eigenvalues --    1.21594   1.22916   1.23741   1.24566   1.25328
 Alpha virt. eigenvalues --    1.26020   1.26611   1.26739   1.27666   1.28360
 Alpha virt. eigenvalues --    1.29034   1.30170   1.31141   1.31606   1.32570
 Alpha virt. eigenvalues --    1.32845   1.34164   1.34516   1.35112   1.35801
 Alpha virt. eigenvalues --    1.36091   1.36992   1.37165   1.37856   1.38184
 Alpha virt. eigenvalues --    1.38792   1.39781   1.40325   1.41538   1.42410
 Alpha virt. eigenvalues --    1.42557   1.44029   1.44250   1.45617   1.46525
 Alpha virt. eigenvalues --    1.46988   1.47423   1.48133   1.48544   1.48796
 Alpha virt. eigenvalues --    1.49643   1.50886   1.51563   1.52096   1.53003
 Alpha virt. eigenvalues --    1.53281   1.54181   1.54619   1.55933   1.56631
 Alpha virt. eigenvalues --    1.57289   1.58163   1.58895   1.59347   1.59525
 Alpha virt. eigenvalues --    1.59723   1.60383   1.62418   1.63534   1.63912
 Alpha virt. eigenvalues --    1.64501   1.65368   1.66204   1.66699   1.67289
 Alpha virt. eigenvalues --    1.68284   1.69608   1.70872   1.71235   1.72594
 Alpha virt. eigenvalues --    1.73194   1.74332   1.75050   1.75356   1.78181
 Alpha virt. eigenvalues --    1.78627   1.80223   1.81989   1.82241   1.86086
 Alpha virt. eigenvalues --    1.86925   1.90472   1.92378   1.95081   1.99889
 Alpha virt. eigenvalues --    2.03575   2.04308   2.10009   2.15781   2.18621
 Alpha virt. eigenvalues --    2.21562   2.25890   2.27112   2.27748   2.39438
 Alpha virt. eigenvalues --    2.41829   2.43440   2.46478   2.50899   2.52289
 Alpha virt. eigenvalues --    2.57661   2.76075   2.77106   2.82000   2.83336
 Alpha virt. eigenvalues --    2.84297   2.89133   2.91557   2.94046   2.94411
 Alpha virt. eigenvalues --    2.96032   2.98172   3.00919   3.01976   3.06435
 Alpha virt. eigenvalues --    3.07374   3.08386   3.09173   3.10223   3.10883
 Alpha virt. eigenvalues --    3.13517   3.16305   3.17430   3.19776   3.20280
 Alpha virt. eigenvalues --    3.25514   3.26195   3.30744   3.32182   3.35477
 Alpha virt. eigenvalues --    3.35874   3.37814   3.39284   3.40623   3.41200
 Alpha virt. eigenvalues --    3.42473   3.44141   3.44535   3.45431   3.45663
 Alpha virt. eigenvalues --    3.47807   3.49043   3.49553   3.50742   3.52516
 Alpha virt. eigenvalues --    3.53049   3.54157   3.54572   3.55406   3.56582
 Alpha virt. eigenvalues --    3.57050   3.58026   3.59002   3.59528   3.60576
 Alpha virt. eigenvalues --    3.61719   3.62046   3.62922   3.64732   3.65215
 Alpha virt. eigenvalues --    3.66089   3.66953   3.68067   3.69306   3.69965
 Alpha virt. eigenvalues --    3.70940   3.71639   3.72635   3.72749   3.73659
 Alpha virt. eigenvalues --    3.75173   3.75483   3.76442   3.77478   3.78322
 Alpha virt. eigenvalues --    3.79070   3.80110   3.81055   3.82138   3.84717
 Alpha virt. eigenvalues --    3.86517   3.87705   3.89693   3.91038   3.92264
 Alpha virt. eigenvalues --    3.93957   3.94800   3.95450   3.95857   3.98280
 Alpha virt. eigenvalues --    4.00048   4.01161   4.02481   4.03669   4.04050
 Alpha virt. eigenvalues --    4.05415   4.06342   4.06710   4.07887   4.08901
 Alpha virt. eigenvalues --    4.10119   4.10327   4.11372   4.11870   4.12973
 Alpha virt. eigenvalues --    4.13913   4.14374   4.15204   4.15750   4.17732
 Alpha virt. eigenvalues --    4.18279   4.19193   4.20432   4.21181   4.21740
 Alpha virt. eigenvalues --    4.23384   4.24947   4.26071   4.27147   4.27344
 Alpha virt. eigenvalues --    4.28863   4.29104   4.30569   4.32957   4.34638
 Alpha virt. eigenvalues --    4.36922   4.37203   4.37643   4.40906   4.42310
 Alpha virt. eigenvalues --    4.42993   4.45430   4.48668   4.50689   4.52525
 Alpha virt. eigenvalues --    4.58742   4.61848   4.75280   4.76595   4.85056
 Alpha virt. eigenvalues --    4.85866   4.93015   4.94019   4.99137   5.00505
 Alpha virt. eigenvalues --    5.06962   5.07562   5.08649   5.09432   5.12716
 Alpha virt. eigenvalues --    5.13617   5.15756   5.18679   5.31779   5.34714
 Alpha virt. eigenvalues --    5.41571   5.52412   5.58278   5.59654   5.85813
 Alpha virt. eigenvalues --    5.88645   5.99539   6.99270   7.04205   7.06375
 Alpha virt. eigenvalues --    7.07720   7.08749   7.11514   7.12645   7.14024
 Alpha virt. eigenvalues --    7.34505   7.36889   7.42517   7.49777   7.54396
 Alpha virt. eigenvalues --    7.56845   7.60151  23.95750  23.96911  24.06621
 Alpha virt. eigenvalues --   24.07474  24.10229  24.11629  24.12685  24.15906
 Alpha virt. eigenvalues --   24.16694  24.20317  50.16578  50.19636  50.21573
          Condensed to atoms (all electrons):
               1          2          3          4          5          6
     1  C    6.490540   0.405963  -0.157594  -0.413595  -0.002180   0.012165
     2  C    0.405963   7.802051  -1.659796   0.198740  -0.005274  -0.012659
     3  C   -0.157594  -1.659796   9.518780   0.345782  -0.040774   0.144027
     4  C   -0.413595   0.198740   0.345782   6.076139  -0.000471   0.010156
     5  O   -0.002180  -0.005274  -0.040774  -0.000471   8.300718   0.099983
     6  C    0.012165  -0.012659   0.144027   0.010156   0.099983   5.493848
     7  C   -0.312023  -0.578349   0.178324   0.144296   0.002154  -0.006012
     8  C    0.010501   0.398805  -1.662567  -0.162374  -0.002996  -0.131901
     9  C    0.118271   0.519984  -1.416736  -0.138126   0.231947  -0.268800
    10  C    0.027103  -0.004793  -0.037800  -0.022396  -0.042585   0.068805
    11  O   -0.120022   0.164765   0.065758  -0.014231  -0.000673   0.001119
    12  O   -0.012545   0.315848  -0.140694  -0.035157   0.000505  -0.010953
    13  C   -0.262146  -1.928696   0.705677  -0.537565   0.005732   0.000601
    14  H    0.452599   0.036158  -0.006780   0.005720   0.000029  -0.000365
    15  H    0.459360   0.026949  -0.003978  -0.051348   0.000189   0.000639
    16  H   -0.012856  -0.070883   0.612119   0.011523   0.009164   0.007219
    17  H   -0.064213  -0.020436   0.038317   0.453051  -0.000521   0.002771
    18  H   -0.126466  -0.023818   0.028583   0.516680   0.001610  -0.022572
    19  H    0.001307   0.000508  -0.002373  -0.000447  -0.069912   0.434218
    20  H   -0.002425  -0.009720   0.064763   0.006329  -0.041680   0.465751
    21  H   -0.205233   0.004036  -0.014159   0.074261   0.004576  -0.011282
    22  H   -0.019692  -0.026514   0.014508   0.008854  -0.000077   0.000811
    23  H   -0.002838   0.017790   0.028464   0.016407  -0.000751  -0.001478
    24  H    0.001558   0.031116  -0.055080   0.012147  -0.000801   0.007192
    25  H   -0.000337  -0.002950  -0.003187   0.000026  -0.009296  -0.083965
    26  H    0.001365  -0.004540   0.003981  -0.003614   0.008058  -0.040417
    27  H   -0.026529  -0.087496   0.015244  -0.004926   0.000072   0.000243
    28  H   -0.001857  -0.064310  -0.022642  -0.050732  -0.000467  -0.003977
    29  H   -0.001608   0.529784  -0.044801   0.003388   0.000476   0.001754
    30  H    0.046181  -0.083716   0.081371  -0.047870  -0.058819   0.047554
    31  H    0.012290   0.035221  -0.108792  -0.017206  -0.064037  -0.007255
               7          8          9         10         11         12
     1  C   -0.312023   0.010501   0.118271   0.027103  -0.120022  -0.012545
     2  C   -0.578349   0.398805   0.519984  -0.004793   0.164765   0.315848
     3  C    0.178324  -1.662567  -1.416736  -0.037800   0.065758  -0.140694
     4  C    0.144296  -0.162374  -0.138126  -0.022396  -0.014231  -0.035157
     5  O    0.002154  -0.002996   0.231947  -0.042585  -0.000673   0.000505
     6  C   -0.006012  -0.131901  -0.268800   0.068805   0.001119  -0.010953
     7  C    5.579038  -0.036537  -0.124472  -0.001759   0.181546   0.025882
     8  C   -0.036537   6.801579   0.577939  -0.283920  -0.013871   0.043659
     9  C   -0.124472   0.577939   6.236491   0.103668  -0.004229   0.073804
    10  C   -0.001759  -0.283920   0.103668   5.890248   0.003675   0.021091
    11  O    0.181546  -0.013871  -0.004229   0.003675   8.229703  -0.030485
    12  O    0.025882   0.043659   0.073804   0.021091  -0.030485   8.329986
    13  C    0.367240  -0.039910  -0.243999  -0.058936  -0.013073  -0.009955
    14  H   -0.062901   0.003131   0.002575  -0.000703  -0.004012   0.000016
    15  H   -0.045673  -0.003520   0.003249   0.000173   0.003746   0.000016
    16  H    0.012149  -0.025015  -0.143924  -0.062880  -0.002741  -0.110976
    17  H    0.022177  -0.010840  -0.017246  -0.003348  -0.002316  -0.002266
    18  H    0.014070   0.000113   0.005262   0.006843   0.009127  -0.000655
    19  H   -0.000704   0.000676   0.016405  -0.035226   0.000063  -0.000141
    20  H    0.002389  -0.003861  -0.035187  -0.078430  -0.000268  -0.001617
    21  H    0.472361   0.033070   0.006720  -0.003416  -0.035339   0.005393
    22  H    0.436689  -0.004213  -0.007295   0.000158  -0.062199  -0.001263
    23  H   -0.009844   0.406595  -0.007089  -0.081253  -0.004261  -0.017476
    24  H   -0.001967   0.409375   0.001468   0.024312   0.000193   0.004314
    25  H    0.000095  -0.005779   0.005616   0.462753  -0.000076   0.000044
    26  H    0.000202  -0.065748   0.006506   0.464740   0.000161  -0.000030
    27  H    0.017201  -0.002688  -0.004052  -0.002684  -0.013021   0.002751
    28  H    0.007340   0.041063   0.001253   0.006949   0.013378  -0.010381
    29  H   -0.008092   0.011111   0.006768  -0.008950  -0.085202  -0.098023
    30  H    0.013497  -0.129827   0.284498   0.007259  -0.000179  -0.013989
    31  H   -0.009718  -0.011430   0.493288   0.025547   0.000028   0.016312
              13         14         15         16         17         18
     1  C   -0.262146   0.452599   0.459360  -0.012856  -0.064213  -0.126466
     2  C   -1.928696   0.036158   0.026949  -0.070883  -0.020436  -0.023818
     3  C    0.705677  -0.006780  -0.003978   0.612119   0.038317   0.028583
     4  C   -0.537565   0.005720  -0.051348   0.011523   0.453051   0.516680
     5  O    0.005732   0.000029   0.000189   0.009164  -0.000521   0.001610
     6  C    0.000601  -0.000365   0.000639   0.007219   0.002771  -0.022572
     7  C    0.367240  -0.062901  -0.045673   0.012149   0.022177   0.014070
     8  C   -0.039910   0.003131  -0.003520  -0.025015  -0.010840   0.000113
     9  C   -0.243999   0.002575   0.003249  -0.143924  -0.017246   0.005262
    10  C   -0.058936  -0.000703   0.000173  -0.062880  -0.003348   0.006843
    11  O   -0.013073  -0.004012   0.003746  -0.002741  -0.002316   0.009127
    12  O   -0.009955   0.000016   0.000016  -0.110976  -0.002266  -0.000655
    13  C    7.676757  -0.057692  -0.010952   0.053242  -0.014934  -0.080648
    14  H   -0.057692   0.464053  -0.004222  -0.000297  -0.000725   0.005088
    15  H   -0.010952  -0.004222   0.479933  -0.000201  -0.009666  -0.008791
    16  H    0.053242  -0.000297  -0.000201   0.453987   0.001868  -0.002631
    17  H   -0.014934  -0.000725  -0.009666   0.001868   0.463433  -0.020508
    18  H   -0.080648   0.005088  -0.008791  -0.002631  -0.020508   0.575549
    19  H   -0.001171  -0.000014   0.000099  -0.003366  -0.000020  -0.000055
    20  H    0.004822  -0.000027  -0.000070   0.004542   0.001826  -0.010726
    21  H   -0.023438   0.006699  -0.008211  -0.001784   0.003903   0.039355
    22  H    0.020228  -0.006857  -0.008784   0.001110   0.003207  -0.009928
    23  H   -0.009735   0.000279   0.002410   0.008555  -0.003243  -0.013719
    24  H   -0.044157   0.000139  -0.000123  -0.006524   0.000228   0.000030
    25  H    0.001568   0.000018   0.000002   0.004172   0.000016   0.000672
    26  H    0.003286  -0.000013  -0.000064  -0.002024  -0.000444   0.000356
    27  H    0.468986  -0.003826  -0.000410   0.000585  -0.007687   0.003660
    28  H    0.438944  -0.001757  -0.000924   0.000880  -0.008869   0.004876
    29  H   -0.047305   0.000313   0.002046   0.005706   0.003445  -0.009773
    30  H    0.101146  -0.004232  -0.003357   0.006647   0.004513  -0.076309
    31  H   -0.019158   0.000041   0.001388  -0.010385  -0.001209   0.001795
              19         20         21         22         23         24
     1  C    0.001307  -0.002425  -0.205233  -0.019692  -0.002838   0.001558
     2  C    0.000508  -0.009720   0.004036  -0.026514   0.017790   0.031116
     3  C   -0.002373   0.064763  -0.014159   0.014508   0.028464  -0.055080
     4  C   -0.000447   0.006329   0.074261   0.008854   0.016407   0.012147
     5  O   -0.069912  -0.041680   0.004576  -0.000077  -0.000751  -0.000801
     6  C    0.434218   0.465751  -0.011282   0.000811  -0.001478   0.007192
     7  C   -0.000704   0.002389   0.472361   0.436689  -0.009844  -0.001967
     8  C    0.000676  -0.003861   0.033070  -0.004213   0.406595   0.409375
     9  C    0.016405  -0.035187   0.006720  -0.007295  -0.007089   0.001468
    10  C   -0.035226  -0.078430  -0.003416   0.000158  -0.081253   0.024312
    11  O    0.000063  -0.000268  -0.035339  -0.062199  -0.004261   0.000193
    12  O   -0.000141  -0.001617   0.005393  -0.001263  -0.017476   0.004314
    13  C   -0.001171   0.004822  -0.023438   0.020228  -0.009735  -0.044157
    14  H   -0.000014  -0.000027   0.006699  -0.006857   0.000279   0.000139
    15  H    0.000099  -0.000070  -0.008211  -0.008784   0.002410  -0.000123
    16  H   -0.003366   0.004542  -0.001784   0.001110   0.008555  -0.006524
    17  H   -0.000020   0.001826   0.003903   0.003207  -0.003243   0.000228
    18  H   -0.000055  -0.010726   0.039355  -0.009928  -0.013719   0.000030
    19  H    0.461401  -0.010488  -0.000646   0.000004   0.000646   0.001342
    20  H   -0.010488   0.506557   0.000423   0.000225  -0.012510   0.000736
    21  H   -0.000646   0.000423   0.642434  -0.031937  -0.004630   0.000354
    22  H    0.000004   0.000225  -0.031937   0.459959  -0.000438  -0.000089
    23  H    0.000646  -0.012510  -0.004630  -0.000438   0.520063  -0.019496
    24  H    0.001342   0.000736   0.000354  -0.000089  -0.019496   0.446896
    25  H   -0.003672   0.001629   0.000375  -0.000042   0.000612  -0.005071
    26  H   -0.008778   0.005424  -0.000205   0.000026  -0.011875  -0.010893
    27  H    0.000018  -0.000329  -0.001532   0.000409   0.003474  -0.001449
    28  H   -0.000632   0.001292   0.004109   0.000252  -0.019059  -0.007973
    29  H    0.000050  -0.000016  -0.004922   0.001806   0.008987  -0.001250
    30  H   -0.001028   0.003692  -0.066815   0.010126  -0.008180   0.000264
    31  H    0.003671  -0.003343  -0.016362  -0.001378  -0.000910  -0.000633
              25         26         27         28         29         30
     1  C   -0.000337   0.001365  -0.026529  -0.001857  -0.001608   0.046181
     2  C   -0.002950  -0.004540  -0.087496  -0.064310   0.529784  -0.083716
     3  C   -0.003187   0.003981   0.015244  -0.022642  -0.044801   0.081371
     4  C    0.000026  -0.003614  -0.004926  -0.050732   0.003388  -0.047870
     5  O   -0.009296   0.008058   0.000072  -0.000467   0.000476  -0.058819
     6  C   -0.083965  -0.040417   0.000243  -0.003977   0.001754   0.047554
     7  C    0.000095   0.000202   0.017201   0.007340  -0.008092   0.013497
     8  C   -0.005779  -0.065748  -0.002688   0.041063   0.011111  -0.129827
     9  C    0.005616   0.006506  -0.004052   0.001253   0.006768   0.284498
    10  C    0.462753   0.464740  -0.002684   0.006949  -0.008950   0.007259
    11  O   -0.000076   0.000161  -0.013021   0.013378  -0.085202  -0.000179
    12  O    0.000044  -0.000030   0.002751  -0.010381  -0.098023  -0.013989
    13  C    0.001568   0.003286   0.468986   0.438944  -0.047305   0.101146
    14  H    0.000018  -0.000013  -0.003826  -0.001757   0.000313  -0.004232
    15  H    0.000002  -0.000064  -0.000410  -0.000924   0.002046  -0.003357
    16  H    0.004172  -0.002024   0.000585   0.000880   0.005706   0.006647
    17  H    0.000016  -0.000444  -0.007687  -0.008869   0.003445   0.004513
    18  H    0.000672   0.000356   0.003660   0.004876  -0.009773  -0.076309
    19  H   -0.003672  -0.008778   0.000018  -0.000632   0.000050  -0.001028
    20  H    0.001629   0.005424  -0.000329   0.001292  -0.000016   0.003692
    21  H    0.000375  -0.000205  -0.001532   0.004109  -0.004922  -0.066815
    22  H   -0.000042   0.000026   0.000409   0.000252   0.001806   0.010126
    23  H    0.000612  -0.011875   0.003474  -0.019059   0.008987  -0.008180
    24  H   -0.005071  -0.010893  -0.001449  -0.007973  -0.001250   0.000264
    25  H    0.470454  -0.008356   0.000003  -0.000100  -0.000024  -0.004788
    26  H   -0.008356   0.484921   0.000009   0.002455  -0.000592   0.000306
    27  H    0.000003   0.000009   0.416012  -0.007864  -0.007201   0.000228
    28  H   -0.000100   0.002455  -0.007864   0.489514  -0.017770  -0.001723
    29  H   -0.000024  -0.000592  -0.007201  -0.017770   0.507118  -0.000330
    30  H   -0.004788   0.000306   0.000228  -0.001723  -0.000330   0.642879
    31  H   -0.000430   0.001723  -0.000143  -0.000749  -0.000063  -0.022787
              31
     1  C    0.012290
     2  C    0.035221
     3  C   -0.108792
     4  C   -0.017206
     5  O   -0.064037
     6  C   -0.007255
     7  C   -0.009718
     8  C   -0.011430
     9  C    0.493288
    10  C    0.025547
    11  O    0.000028
    12  O    0.016312
    13  C   -0.019158
    14  H    0.000041
    15  H    0.001388
    16  H   -0.010385
    17  H   -0.001209
    18  H    0.001795
    19  H    0.003671
    20  H   -0.003343
    21  H   -0.016362
    22  H   -0.001378
    23  H   -0.000910
    24  H   -0.000633
    25  H   -0.000430
    26  H    0.001723
    27  H   -0.000143
    28  H   -0.000749
    29  H   -0.000063
    30  H   -0.022787
    31  H    0.468427
 Mulliken charges:
               1
     1  C   -0.295042
     2  C    0.096230
     3  C   -0.467947
     4  C   -0.383441
     5  O   -0.323900
     6  C   -0.197219
     7  C   -0.278601
     8  C   -0.140618
     9  C   -0.284556
    10  C   -0.384241
    11  O   -0.267063
    12  O   -0.343014
    13  C   -0.444760
    14  H    0.177566
    15  H    0.180095
    16  H    0.263020
    17  H    0.189739
    18  H    0.192930
    19  H    0.218267
    20  H    0.140296
    21  H    0.131842
    22  H    0.222333
    23  H    0.214503
    24  H    0.213844
    25  H    0.180018
    26  H    0.174072
    27  H    0.242947
    28  H    0.209481
    29  H    0.253169
    30  H    0.273789
    31  H    0.236260
 Sum of Mulliken charges =  -0.00000
 Mulliken charges with hydrogens summed into heavy atoms:
               1
     1  C    0.062619
     2  C    0.349399
     3  C   -0.204926
     4  C   -0.000772
     5  O   -0.323900
     6  C    0.161345
     7  C    0.075573
     8  C    0.287730
     9  C    0.225493
    10  C   -0.030151
    11  O   -0.267063
    12  O   -0.343014
    13  C    0.007668
 Electronic spatial extent (au):  <R**2>=           2615.4445
 Charge=             -0.0000 electrons
 Dipole moment (field-independent basis, Debye):
    X=             -0.3527    Y=             -0.8204    Z=              4.6480  Tot=              4.7330
 Quadrupole moment (field-independent basis, Debye-Ang):
   XX=            -80.0827   YY=            -78.8338   ZZ=            -84.0173
   XY=              5.9757   XZ=              1.4869   YZ=             -0.2630
 Traceless Quadrupole moment (field-independent basis, Debye-Ang):
   XX=              0.8952   YY=              2.1441   ZZ=             -3.0393
   XY=              5.9757   XZ=              1.4869   YZ=             -0.2630
 Octapole moment (field-independent basis, Debye-Ang**2):
  XXX=            -10.7348  YYY=             -5.0912  ZZZ=              3.5084  XYY=             15.9400
  XXY=             -8.9206  XXZ=             23.3317  XZZ=             -7.4028  YZZ=              2.5674
  YYZ=             -1.1885  XYZ=             -6.0527
 Hexadecapole moment (field-independent basis, Debye-Ang**3):
 XXXX=          -2257.9153 YYYY=           -607.9380 ZZZZ=           -557.2340 XXXY=             30.8465
 XXXZ=            -19.2873 YYYX=             10.3945 YYYZ=              4.7448 ZZZX=             10.1120
 ZZZY=             -5.0156 XXYY=           -482.2951 XXZZ=           -483.6555 YYZZ=           -188.6285
 XXYZ=             13.7445 YYXZ=            -14.8771 ZZXY=             -0.4290
 N-N= 9.119384992602D+02 E-N=-3.265293100838D+03  KE= 6.153097300937D+02
 D1PCM: PCM CHGder 1st derivatives, ID1Alg=3 FixD1E=F DoIter=F DoCFld=F I1PDM=0.
 Calling FoFJK, ICntrl=      2127 FMM=F ISym2X=0 I1Cent= 0 IOpClX= 0 NMat=1 NMatS=1 NMatT=0.
 ***** Axes restored to original set *****
 -------------------------------------------------------------------
 Center     Atomic                   Forces (Hartrees/Bohr)
 Number     Number              X              Y              Z
 -------------------------------------------------------------------
      1        6           0.002782677   -0.000519050   -0.000822137
      2        6           0.002506884   -0.008125063    0.008424820
      3        6          -0.007443855   -0.000605058    0.007822988
      4        6          -0.003048835    0.001631693   -0.003958553
      5        8           0.004354780   -0.005814605   -0.005653228
      6        6          -0.003846855    0.004732417   -0.003318300
      7        6           0.000710927    0.006804928    0.004751023
      8        6           0.002931919   -0.003115894   -0.003592774
      9        6           0.006295922    0.006259042    0.000686572
     10        6          -0.002061392   -0.001208351    0.001854537
     11        8          -0.006670734    0.001984942   -0.006050813
     12        8           0.002705890    0.001691005   -0.006748819
     13        6           0.001445205   -0.003265624   -0.000817410
     14        1          -0.002659104    0.001729339   -0.000101392
     15        1           0.000166041   -0.002221848    0.001698046
     16        1           0.004754714    0.000568394   -0.004056046
     17        1          -0.000183909    0.000397759    0.002445868
     18        1           0.004969140   -0.002241538   -0.000234343
     19        1           0.004107462   -0.001250958    0.000075495
     20        1          -0.003048741   -0.000876480    0.005487587
     21        1           0.006805710   -0.003611927   -0.000097088
     22        1          -0.002991455   -0.002679915   -0.001686286
     23        1          -0.003638137   -0.002049047    0.004463938
     24        1          -0.000759976    0.003129363   -0.000723121
     25        1           0.001337681    0.000549044   -0.002864263
     26        1           0.001071668    0.001504340    0.002331695
     27        1          -0.003293023    0.001356207    0.000631238
     28        1           0.003632715    0.002788389    0.001083495
     29        1          -0.002965403    0.005619659   -0.003325387
     30        1          -0.005527304   -0.001270840    0.006575615
     31        1          -0.002440615   -0.001890323   -0.004282956
 -------------------------------------------------------------------
 Cartesian Forces:  Max     0.008424820 RMS     0.003681238

 GradGradGradGradGradGradGradGradGradGradGradGradGradGradGradGradGradGrad
 Berny optimization.
 FormGI is forming the generalized inverse of G from B-inverse, IUseBI=4.
 Internal  Forces:  Max     0.025778556 RMS     0.002880113
 Search for a local minimum.
 Step number   1 out of a maximum of  186
 All quantities printed in internal units (Hartrees-Bohrs-Radians)
 Mixed Optimization -- RFO/linear search
 Second derivative matrix not updated -- first step.
 ITU=  0
     Eigenvalues ---    0.00587   0.00641   0.00708   0.00735   0.01346
     Eigenvalues ---    0.01392   0.01429   0.02537   0.02556   0.03049
     Eigenvalues ---    0.03154   0.03869   0.03892   0.04461   0.04647
     Eigenvalues ---    0.04770   0.04873   0.05009   0.05143   0.05184
     Eigenvalues ---    0.05293   0.05422   0.05717   0.05769   0.06144
     Eigenvalues ---    0.06174   0.06444   0.06744   0.07524   0.07566
     Eigenvalues ---    0.07854   0.07965   0.07965   0.07976   0.08581
     Eigenvalues ---    0.08815   0.09416   0.09628   0.10724   0.11565
     Eigenvalues ---    0.11711   0.11717   0.11914   0.12494   0.12521
     Eigenvalues ---    0.15057   0.15264   0.16733   0.16734   0.18381
     Eigenvalues ---    0.20015   0.21854   0.22134   0.25000   0.28441
     Eigenvalues ---    0.28457   0.28497   0.28934   0.29002   0.29072
     Eigenvalues ---    0.30088   0.30165   0.35081   0.35103   0.35173
     Eigenvalues ---    0.35175   0.35249   0.35287   0.35299   0.35353
     Eigenvalues ---    0.35583   0.35593   0.35632   0.35664   0.35758
     Eigenvalues ---    0.35825   0.35837   0.35859   0.35917   0.36220
     Eigenvalues ---    0.40989   0.41480   0.41965   0.42057   0.43440
     Eigenvalues ---    0.436751000.000001000.000001000.000001000.00000
     Eigenvalues --- 1000.000001000.000001000.000001000.000001000.00000
     Eigenvalues --- 1000.000001000.000001000.000001000.000001000.00000
     Eigenvalues --- 1000.000001000.000001000.000001000.000001000.00000
     Eigenvalues --- 1000.000001000.000001000.000001000.000001000.00000
     Eigenvalues --- 1000.000001000.000001000.000001000.000001000.00000
     Eigenvalues --- 1000.000001000.000001000.000001000.000001000.00000
     Eigenvalues --- 1000.000001000.000001000.000001000.000001000.00000
     Eigenvalues --- 1000.000001000.000001000.000001000.000001000.00000
     Eigenvalues --- 1000.000001000.000001000.000001000.000001000.00000
     Eigenvalues --- 1000.000001000.000001000.000001000.000001000.00000
     Eigenvalues --- 1000.000001000.000001000.000001000.000001000.00000
     Eigenvalues --- 1000.000001000.000001000.000001000.000001000.00000
     Eigenvalues --- 1000.000001000.000001000.000001000.000001000.00000
     Eigenvalues --- 1000.000001000.000001000.000001000.000001000.00000
     Eigenvalues --- 1000.000001000.000001000.000001000.000001000.00000
     Eigenvalues --- 1000.000001000.000001000.000001000.000001000.00000
     Eigenvalues --- 1000.000001000.000001000.000001000.000001000.00000
     Eigenvalues --- 1000.000001000.000001000.000001000.000001000.00000
     Eigenvalues --- 1000.000001000.000001000.000001000.000001000.00000
 RFO step:  Lambda=-6.98626468D-03 EMin= 5.86545369D-03
 Linear search not attempted -- first point.
 Iteration  1 RMS(Cart)=  0.16910463 RMS(Int)=  0.00456585
 Iteration  2 RMS(Cart)=  0.01656394 RMS(Int)=  0.00012169
 Iteration  3 RMS(Cart)=  0.00010258 RMS(Int)=  0.00011408
 Iteration  4 RMS(Cart)=  0.00000001 RMS(Int)=  0.00011408
 Iteration  1 RMS(Cart)=  0.00006576 RMS(Int)=  0.00001198
 Iteration  2 RMS(Cart)=  0.00003516 RMS(Int)=  0.00001339
 Iteration  3 RMS(Cart)=  0.00001880 RMS(Int)=  0.00001509
 Iteration  4 RMS(Cart)=  0.00001005 RMS(Int)=  0.00001618
 Iteration  5 RMS(Cart)=  0.00000537 RMS(Int)=  0.00001681
 Iteration  6 RMS(Cart)=  0.00000287 RMS(Int)=  0.00001716
 Iteration  7 RMS(Cart)=  0.00000154 RMS(Int)=  0.00001735
 Iteration  8 RMS(Cart)=  0.00000082 RMS(Int)=  0.00001745
 Variable       Old X    -DE/DX   Delta X   Delta X   Delta X     New X
                                 (Linear)    (Quad)   (Total)
    R1        2.88703  -0.00100   0.00000  -0.00224  -0.00231   2.88472
    R2        2.86927   0.00019   0.00000   0.00143   0.00141   2.87069
    R3        2.05508   0.00308   0.00000   0.00859   0.00859   2.06367
    R4        2.05273   0.00277   0.00000   0.00770   0.00770   2.06043
    R5        2.65439   0.00180   0.00000   0.00324   0.00331   2.65770
    R6        2.66845  -0.00030   0.00000  -0.00069  -0.00069   2.66777
    R7        2.88636  -0.00058   0.00000  -0.00281  -0.00278   2.88357
    R8        2.03739   0.00715   0.00000   0.01938   0.01938   2.05677
    R9        2.88324  -0.00167   0.00000  -0.00505  -0.00501   2.87823
   R10        2.88418  -0.00037   0.00000  -0.00071  -0.00066   2.88352
   R11        2.68851  -0.00155   0.00000  -0.00361  -0.00361   2.68489
   R12        2.04738   0.00606   0.00000   0.01670   0.01670   2.06408
   R13        2.88860  -0.00149   0.00000  -0.00461  -0.00461   2.88399
   R14        2.05192   0.00244   0.00000   0.00678   0.00678   2.05870
   R15        2.04722   0.00544   0.00000   0.01499   0.01499   2.06221
   R16        2.67672   0.00367   0.00000   0.00813   0.00809   2.68481
   R17        2.67126   0.00281   0.00000   0.00628   0.00631   2.67757
   R18        2.87346   0.00055   0.00000   0.00126   0.00121   2.87467
   R19        2.04355   0.00429   0.00000   0.01175   0.01175   2.05531
   R20        2.05544   0.00622   0.00000   0.01739   0.01739   2.07283
   R21        2.68459   0.00299   0.00000   0.00668   0.00668   2.69127
   R22        2.04610   0.00764   0.00000   0.02102   0.02102   2.06712
   R23        2.04338   0.00434   0.00000   0.01188   0.01188   2.05526
   R24        2.89735  -0.00071   0.00000  -0.00228  -0.00231   2.89505
   R25        2.04462   0.00602   0.00000   0.01650   0.01650   2.06112
   R26        2.05105   0.00324   0.00000   0.00899   0.00899   2.06004
   R27        2.04660   0.00848   0.00000   0.02333   0.02333   2.06993
   R28        2.04303   0.00516   0.00000   0.01412   0.01412   2.05715
   R29        2.05394   0.00311   0.00000   0.00867   0.00867   2.06261
   R30        2.05212   0.00296   0.00000   0.00822   0.00822   2.06034
   R31        2.05391   0.00359   0.00000   0.01002   0.01002   2.06393
   R32        2.04211   0.00468   0.00000   0.01277   0.01277   2.05488
    A1        1.92278  -0.00137   0.00000  -0.00306  -0.00339   1.91939
    A2        1.91719   0.00107   0.00000  -0.00047  -0.00036   1.91683
    A3        1.93885  -0.00059   0.00000  -0.00213  -0.00206   1.93679
    A4        1.90530   0.00018   0.00000  -0.00191  -0.00180   1.90350
    A5        1.90318   0.00079   0.00000   0.00426   0.00434   1.90752
    A6        1.87566  -0.00002   0.00000   0.00350   0.00344   1.87911
    A7        1.91741   0.00203   0.00000  -0.00240  -0.00257   1.91484
    A8        1.93903   0.00442   0.00000   0.01545   0.01481   1.95385
    A9        1.80683  -0.00148   0.00000   0.00127   0.00112   1.80796
   A10        2.09878  -0.00885   0.00000  -0.04625  -0.04620   2.05259
   A11        1.79010   0.00425   0.00000   0.02849   0.02875   1.81886
   A12        1.88254   0.00043   0.00000   0.01176   0.01191   1.89445
   A13        1.92950  -0.00052   0.00000  -0.01201  -0.01223   1.91727
   A14        2.04940  -0.00128   0.00000  -0.01449  -0.01501   2.03439
   A15        1.86397   0.00103   0.00000   0.01414   0.01424   1.87821
   A16        1.98010   0.00004   0.00000  -0.01211  -0.01265   1.96746
   A17        1.84789  -0.00023   0.00000   0.00539   0.00547   1.85336
   A18        1.77027   0.00135   0.00000   0.02782   0.02799   1.79826
   A19        1.91246   0.00156   0.00000  -0.00262  -0.00263   1.90984
   A20        1.92789   0.00011   0.00000   0.00318   0.00327   1.93117
   A21        1.91516  -0.00095   0.00000  -0.00098  -0.00108   1.91408
   A22        1.90391  -0.00035   0.00000   0.00340   0.00338   1.90729
   A23        1.93945  -0.00065   0.00000  -0.00287  -0.00286   1.93660
   A24        1.86460   0.00023   0.00000   0.00005   0.00005   1.86465
   A25        1.98081  -0.00488   0.00000  -0.02793  -0.02786   1.95295
   A26        1.93814   0.00219   0.00000   0.00928   0.00933   1.94747
   A27        1.85506  -0.00130   0.00000  -0.00379  -0.00379   1.85127
   A28        1.90265   0.00059   0.00000   0.00630   0.00631   1.90896
   A29        1.94488  -0.00034   0.00000  -0.00266  -0.00266   1.94222
   A30        1.92948  -0.00173   0.00000  -0.01004  -0.01010   1.91938
   A31        1.89136   0.00061   0.00000   0.00127   0.00125   1.89260
   A32        1.94887   0.00328   0.00000   0.01118   0.01115   1.96002
   A33        1.93606  -0.00213   0.00000  -0.00869  -0.00876   1.92729
   A34        1.94257  -0.00022   0.00000  -0.00324  -0.00319   1.93937
   A35        1.91393   0.00010   0.00000   0.00202   0.00209   1.91602
   A36        1.83652  -0.00164   0.00000  -0.00095  -0.00096   1.83556
   A37        1.88230   0.00059   0.00000  -0.00016  -0.00019   1.88210
   A38        1.88650   0.00136   0.00000   0.00060   0.00066   1.88716
   A39        1.94224  -0.00105   0.00000  -0.00839  -0.00839   1.93385
   A40        1.92345  -0.00060   0.00000  -0.00245  -0.00251   1.92094
   A41        1.89370  -0.00044   0.00000   0.00054   0.00049   1.89419
   A42        1.93307   0.00032   0.00000   0.00748   0.00747   1.94054
   A43        1.88507   0.00039   0.00000   0.00232   0.00230   1.88737
   A44        1.90633   0.00211   0.00000   0.01233   0.01245   1.91878
   A45        1.95460  -0.00223   0.00000  -0.01575  -0.01582   1.93878
   A46        1.92916  -0.00097   0.00000  -0.00867  -0.00883   1.92032
   A47        1.90650   0.00088   0.00000   0.00851   0.00856   1.91506
   A48        1.86312  -0.00037   0.00000   0.00606   0.00605   1.86916
   A49        1.90177   0.00069   0.00000  -0.00125  -0.00143   1.90034
   A50        1.92703  -0.00114   0.00000  -0.00669  -0.00678   1.92025
   A51        1.90602   0.00009   0.00000  -0.00039  -0.00035   1.90567
   A52        1.90662   0.00067   0.00000   0.00378   0.00377   1.91039
   A53        1.92320   0.00063   0.00000  -0.00031  -0.00030   1.92289
   A54        1.92439  -0.00019   0.00000   0.00048   0.00052   1.92491
   A55        1.87574  -0.00002   0.00000   0.00344   0.00343   1.87916
   A56        2.07143  -0.00658   0.00000  -0.04319  -0.04294   2.02849
   A57        2.34469  -0.02578   0.00000  -0.10031  -0.10031   2.24438
   A58        2.00542  -0.00171   0.00000  -0.01694  -0.01704   1.98837
   A59        1.82224   0.00036   0.00000   0.01302   0.01302   1.83527
   A60        1.92153   0.00077   0.00000  -0.00509  -0.00527   1.91626
   A61        1.88224   0.00144   0.00000   0.01352   0.01368   1.89592
   A62        1.96384  -0.00056   0.00000  -0.00664  -0.00695   1.95688
   A63        1.85645  -0.00008   0.00000   0.00626   0.00630   1.86274
    D1        0.91865  -0.00014   0.00000   0.00130   0.00132   0.91997
    D2        3.01663   0.00050   0.00000   0.00583   0.00588   3.02251
    D3       -1.21531   0.00027   0.00000   0.00720   0.00725  -1.20806
    D4       -1.18083  -0.00017   0.00000   0.00590   0.00591  -1.17492
    D5        0.91715   0.00046   0.00000   0.01043   0.01047   0.92762
    D6        2.96840   0.00023   0.00000   0.01180   0.01184   2.98024
[...]
 ,-0.00000154,-0.00000273,0.00000902,-0.00002285,0.00000666,-0.00024268
 ,0.00029275,0.00017030,-0.00027698,0.00064796,0.00113810,0.00000106,-0
 .00000907,-0.00000262,0.00000689,0.00000082,0.00000059,-0.00106423,-0.
 00009981,0.00086475,0.00052387,-0.00021630,0.00035913,-0.12401719,-0.0
 6724991,0.21971208,0.00001392,-0.00000456,0.00001177,0.00135411,-0.000
 03340,-0.00055023,-0.00404491,0.00381979,0.00260998,0.00001723,0.00002
 868,0.00002279,0.00159421,0.00075009,0.00014262,-0.00094623,-0.0001462
 0,0.00201884,0.00000724,0.00012605,-0.00009061,-0.01339669,-0.01427289
 ,-0.02696872,-0.00000823,0.00074073,0.00004543,-0.08058301,-0.04046643
 ,-0.08008184,-0.00044220,-0.00027150,0.00008868,-0.00259368,-0.0007404
 6,-0.00207940,-0.00004282,-0.00004609,0.00001453,-0.00001175,0.0000008
 6,0.00000038,-0.00000414,-0.00001374,0.00001253,0.00015865,0.00016480,
 -0.00013486,-0.00001927,-0.00001651,0.00003062,0.00000621,0.00002103,-
 0.00004280,-0.00003994,-0.00048949,0.00005722,0.00015148,-0.00001613,0
 .00002044,0.00002325,0.00000678,0.00001303,-0.00001675,-0.00002288,0.0
 0000828,0.00121151,-0.00046061,0.00042955,0.00143562,0.00018809,0.0003
 7486,0.00685740,0.00858669,0.01461112,0.08925424,-0.00000116,0.0000068
 4,-0.00000685,-0.00026619,0.00003067,0.00019640,0.00207050,-0.00048054
 ,0.00012367,0.00001925,-0.00000564,0.00001722,-0.00192162,-0.00986196,
 -0.00223537,-0.01236445,-0.00764374,-0.02840601,0.00002844,-0.00008165
 ,0.00001453,0.00372767,0.00489740,0.01009068,0.00227810,-0.00035671,0.
 00058419,-0.04074175,-0.09453252,-0.09117546,0.00012793,0.00008967,-0.
 00003466,0.00107142,0.00040703,0.00060204,-0.00000230,0.00002381,0.000
 00928,-0.00000216,0.00000036,0.00000463,0.00000176,-0.00000043,-0.0000
 0303,0.00014183,-0.00022439,-0.00025240,-0.00001338,0.00001088,-0.0000
 0166,-0.00001198,-0.00000150,-0.00001134,0.00077599,0.00097516,0.00015
 934,-0.00035497,0.00120637,0.00075085,-0.00000946,0.00002224,0.0000066
 9,-0.00001507,0.00001228,-0.00000103,-0.00051762,0.00022361,-0.0002698
 0,-0.00080068,0.00035933,0.00017967,0.00460213,0.00414257,0.00840782,0
 .04273103,0.10057419,0.00000313,0.00000516,0.00000780,0.00048092,-0.00
 005314,-0.00020497,-0.00002020,0.00054151,0.00116014,0.00001236,0.0000
 0054,0.00000249,-0.00014686,0.00028792,0.00155172,0.00199514,0.0018543
 4,0.00172431,0.00000797,0.00004491,-0.00004056,-0.00018792,-0.00061200
 ,-0.00254244,0.00023738,0.00043369,-0.00003228,-0.08147404,-0.09274637
 ,-0.23619933,-0.00021073,-0.00012310,0.00001988,-0.00084369,-0.0001468
 6,0.00003516,-0.00003421,0.00002542,0.00001586,-0.00001061,-0.00000273
 ,-0.00000120,-0.00000339,-0.00000937,0.00000476,-0.00006948,0.00021698
 ,0.00046254,-0.00001560,-0.00000252,0.00001456,-0.00000562,0.00002517,
 -0.00002440,-0.00001125,-0.00048420,0.00013571,0.00009711,-0.00062030,
 0.00027382,0.00001372,0.00000867,0.00001096,-0.00001234,-0.00000882,0.
 00000152,-0.00020545,0.00017952,0.00063992,-0.00004760,0.00021416,-0.0
 0009425,-0.00876125,-0.01021232,-0.01951204,0.08932252,0.10134451,0.25
 263500,0.00081186,-0.00043145,0.00006757,-0.00497761,0.00046950,-0.000
 92101,0.00066448,-0.00041061,-0.00039574,-0.00135695,0.00079911,-0.000
 92687,-0.00013044,0.00009683,0.00000195,-0.00005312,-0.00008412,0.0000
 2604,0.00002246,0.00017085,0.00000121,-0.00044705,0.00039080,-0.000621
 36,0.00009971,-0.00009581,-0.00002829,0.00011492,-0.00003584,0.0002893
 9,0.00084785,-0.00022310,-0.00057361,0.00109620,0.00017098,0.00111371,
 -0.25517083,0.10094199,0.03531356,0.00017416,0.00036090,0.00031877,0.0
 0015984,0.00008255,-0.00003258,-0.00005864,0.00003617,0.00006650,0.000
 44694,0.00009627,-0.00037929,0.00105878,-0.00029870,-0.00023022,-0.000
 01879,0.00004925,-0.00000595,0.00002308,0.00000253,-0.00000756,-0.0000
 0604,-0.00000665,-0.00002019,0.00002059,0.00000172,0.00003743,-0.00011
 269,-0.00013356,0.00039309,0.00008764,0.00008116,-0.00007274,-0.000140
 92,0.00005093,0.00001303,-0.00003336,-0.00000323,-0.00003405,0.2755844
 8,0.00102022,0.00099716,-0.00051352,0.00669315,-0.00467764,-0.00081524
 ,-0.00020916,-0.00006220,0.00002130,0.02619633,-0.01586970,-0.00142419
 ,0.00015904,0.00002062,-0.00000990,-0.00008841,-0.00008095,-0.00002570
 ,0.00004898,-0.00033339,0.00004037,-0.00053247,0.00021269,-0.00034425,
 -0.00016773,-0.00004992,0.00012032,0.00003049,0.00003742,0.00021551,-0
 .00051413,0.00041844,0.00002816,-0.00050814,0.00123873,-0.00071282,0.1
 0048949,-0.09676653,-0.01884418,-0.00065337,-0.00023622,-0.00006279,-0
 .00029220,0.00032569,0.00022088,0.00000988,0.00002257,0.00002157,-0.00
 047020,0.00141510,-0.00040850,-0.00059759,-0.00412008,0.00321877,0.000
 00662,0.00003146,-0.00000328,0.00000028,0.00001235,-0.00000845,-0.0000
 1548,0.00008935,0.00010019,-0.00000609,0.00000578,-0.00007339,-0.00031
 948,-0.00020637,0.00022703,0.00009483,0.00010845,-0.00011405,-0.000074
 44,0.00002390,0.00000624,0.00000536,-0.00000639,-0.00000903,-0.1112541
 2,0.10639366,-0.00010657,-0.00088503,0.00024179,0.03150361,-0.01401505
 ,-0.00732352,-0.00210580,0.00056934,-0.00097220,-0.01810173,0.01061784
 ,0.00096705,0.00009378,-0.00019306,0.00014650,-0.00001282,-0.00002205,
 -0.00010714,0.00013737,0.00001584,-0.00028962,-0.00022098,0.00006029,-
 0.00003095,0.00022763,0.00031985,-0.00006244,-0.00008168,0.00002556,0.
 00020477,-0.00103723,0.00108860,0.00109765,0.00264654,-0.00206402,-0.0
 0788543,0.03155109,-0.01823231,-0.05114628,0.00035029,-0.00010032,0.00
 012068,0.00006061,-0.00018478,-0.00017087,0.00029245,-0.00007639,0.000
 15647,-0.00043237,-0.00065099,0.00076184,0.00002351,0.00392292,-0.0013
 0352,0.00000689,0.00000070,0.00001400,0.00000563,-0.00000341,0.0000188
 7,0.00000054,0.00007445,-0.00002710,-0.00001174,-0.00000342,0.00005228
 ,0.00012721,0.00007259,0.00022912,-0.00000631,0.00003454,0.00000688,-0
 .00005512,0.00001353,-0.00001182,0.00004761,-0.00001140,0.00001114,-0.
 03732505,0.01456542,0.06364468,0.00075795,0.00064968,-0.00000496,0.000
 83614,0.00363453,0.00217250,0.00024628,0.00010954,0.00010494,0.0023133
 5,0.00271969,0.00186470,0.00009718,-0.00005155,0.00002355,0.00004520,0
 .00003031,-0.00001138,-0.00010488,0.00020680,0.00009705,-0.00336776,0.
 00155794,-0.00035702,-0.00011529,0.00010893,-0.00009614,-0.00025672,-0
 .00000930,0.00039614,0.00154217,0.00027530,0.00061756,0.00074684,-0.00
 003708,-0.00043811,-0.18166063,-0.13023013,-0.05483522,0.00025072,0.00
 021849,0.00007614,0.00020500,-0.00001447,-0.00019592,-0.00000603,-0.00
 009175,-0.00013107,-0.00000810,-0.00036216,0.00027805,0.00009776,-0.00
 025643,0.00047773,0.00002133,-0.00003087,-0.00001300,-0.00001080,0.000
 01216,0.00000292,0.00001954,-0.00003836,0.00000500,-0.00002321,-0.0000
 2347,-0.00004416,-0.00311830,0.00148825,0.00040075,-0.00044577,-0.0001
 1729,-0.00000380,-0.00003978,0.00001351,-0.00001735,0.00006986,-0.0000
 2162,0.00001776,-0.01951204,-0.01817567,-0.00834071,0.20149267,0.00174
 450,-0.00341552,0.00437063,-0.00406421,-0.00557209,-0.00167661,0.00004
 147,-0.00050385,-0.00055310,-0.01872406,-0.01655372,-0.00847962,0.0000
 3402,0.00011119,0.00000806,-0.00011863,-0.00016271,-0.00003113,-0.0000
 2191,0.00056053,0.00063067,-0.00055005,0.00084234,-0.00074163,-0.00001
 164,-0.00017650,0.00009863,0.00001423,0.00002190,0.00054686,-0.0003151
 9,0.00095092,-0.00134670,0.00041039,0.00067223,0.00061859,-0.12665753,
 -0.16616126,-0.04955440,-0.00018687,0.00009187,0.00000640,-0.00111406,
 -0.00102237,-0.00074431,0.00004193,0.00007205,0.00016171,0.00010390,0.
 00096918,0.00003494,0.00029699,0.00087971,-0.00067714,-0.00001595,0.00
 008002,-0.00000051,0.00002706,0.00000660,-0.00000762,0.00004652,-0.000
 01289,-0.00005237,-0.00001267,0.00004144,-0.00010234,0.00108011,-0.000
 79521,0.00062495,-0.00009682,0.00018541,-0.00004078,-0.00024300,0.0000
 8145,0.00001827,-0.00001690,-0.00000508,-0.00004542,0.00962068,0.01008
 173,0.00495935,0.13857269,0.17875158,-0.00093645,0.00350407,-0.0023399
 8,-0.02451915,-0.02068238,-0.00336933,0.00032644,-0.00043623,-0.000574
 34,0.01521943,0.01154333,0.00661269,-0.00000692,0.00002934,0.00001670,
 -0.00009678,-0.00005719,-0.00001621,-0.00003301,0.00208247,-0.00119116
 ,0.00012190,-0.00017675,0.00002202,0.00003411,-0.00003448,0.00008000,0
 .00012790,0.00014679,0.00012431,-0.00199299,-0.00472294,-0.00856210,0.
 00064097,0.00111166,0.00238914,-0.05127785,-0.04930729,-0.07120894,-0.
 00013537,-0.00018465,-0.00010409,0.00067180,0.00110337,0.00062894,0.00
 003400,0.00000522,0.00004990,0.00023564,-0.00090724,0.00049959,-0.0004
 6323,-0.00072070,0.00061780,-0.00000765,0.00004671,0.00000412,0.000012
 64,0.00000108,-0.00000417,0.00004507,-0.00023625,0.00017784,0.00000089
 ,-0.00023081,0.00024330,-0.00056194,0.00029135,0.00057200,0.00038855,0
 .00023267,-0.00011303,-0.00006493,0.00001480,0.00001598,-0.00001865,-0
 .00000804,-0.00001863,0.00368471,0.00412109,0.00098805,0.05826227,0.05
 252310,0.07398704,-0.00002646,-0.00006166,-0.00017765,-0.06920496,0.07
 793003,-0.04891323,0.00307047,0.00455518,0.00396582,0.00102628,-0.0005
 6014,-0.00013040,-0.00088679,0.00104488,-0.00052574,0.00014238,0.00007
 135,0.00038805,-0.00042539,-0.00229245,-0.00263263,0.00004025,0.000146
 49,0.00019871,-0.00120845,-0.00096479,-0.00009989,0.00013153,-0.000153
 81,-0.00019401,0.00159100,-0.02832980,0.00896098,-0.04111605,0.0251731
 6,-0.00493057,0.00182225,0.00138024,0.00112774,-0.00004463,0.00007493,
 0.00004585,-0.00000702,0.00009698,0.00011588,-0.00067990,0.00018542,-0
 .00003490,0.00002764,0.00027682,-0.00007667,-0.00000439,-0.00023482,0.
 00019002,-0.00005086,0.00001225,-0.00004615,0.00002074,-0.00000747,-0.
 00005900,0.00005820,-0.00053352,0.00025398,-0.00004366,-0.00076621,0.0
 0034611,0.00000097,-0.00004342,-0.00009995,0.00002392,-0.00012914,-0.0
 0006060,-0.00000282,0.00000705,0.00002047,-0.00011982,0.00001868,-0.00
 005461,0.00083349,-0.00085202,0.00080874,-0.00005833,0.00013207,0.0003
 1652,0.10505099,0.00006524,-0.00034817,-0.00017407,0.07349531,-0.21803
 697,0.09862312,-0.00198272,0.00052295,-0.00154615,-0.00033745,0.000315
 00,-0.00146092,0.00020378,-0.00011652,0.00010079,-0.00004034,-0.000021
 87,-0.00011742,-0.00318133,0.00085356,-0.00467157,0.00008447,-0.000155
 21,-0.00004825,0.00000676,0.00018580,0.00003584,-0.00003036,0.00008216
 ,0.00008365,-0.00411281,-0.03918995,0.01315807,0.01229755,0.00003450,0
 .00126942,-0.00027665,0.00707065,-0.00284284,-0.00001973,0.00005511,0.
 00006812,0.00005444,0.00008068,0.00023893,0.00037816,-0.00010965,0.000
 08321,0.00006543,0.00025100,-0.00029154,-0.00002594,0.00010575,-0.0001
 0441,0.00001643,-0.00000528,0.00001105,-0.00001054,0.00000137,0.000014
 61,0.00021408,-0.00022176,0.00009823,-0.00005033,-0.00135418,0.0007992
 8,0.00000384,0.00001318,0.00002851,-0.00001965,0.00003497,-0.00001169,
 0.00000188,-0.00000298,-0.00000578,0.00004547,-0.00000909,0.00001870,-
 0.00042545,0.00081324,0.00020934,-0.00010398,-0.00008782,0.00092998,-0
 .07628458,0.24927972,-0.00037747,-0.00068308,0.00016904,-0.04971627,0.
 10940318,-0.11697139,0.00048774,-0.00192990,-0.00040746,0.00005444,-0.
 00378260,-0.00469287,0.00020068,-0.00039962,0.00018016,-0.00003995,-0.
 00002082,-0.00011761,-0.00131696,-0.00163200,0.00014364,0.00010355,0.0
 0000550,-0.00009634,0.00068420,0.00039233,-0.00006722,-0.00005140,0.00
 005708,0.00011800,0.00089927,-0.01297272,0.00853421,0.01576528,-0.0112
 0135,0.00840815,-0.00824123,0.02597394,-0.01941965,0.00012387,0.000041
 63,0.00004707,0.00006021,0.00015387,0.00020299,0.00012186,-0.00000808,
 -0.00002097,0.00015452,0.00157511,-0.00110833,-0.00016563,0.00009755,-
 0.00000119,0.00000678,0.00000376,0.00001623,0.00000327,-0.00000278,0.0
 0001844,-0.00000536,-0.00008388,-0.00005267,-0.00002028,-0.00042620,0.
 00028337,0.00010902,0.00002234,0.00012097,-0.00002687,0.00003473,0.000
 04386,-0.00003066,0.00000807,-0.00000448,0.00003212,-0.00001096,0.0000
 0798,0.00018803,0.00048431,0.00056557,-0.00033918,-0.00051954,0.000483
 69,0.04137900,-0.10449306,0.12353651,-0.00013188,0.00008038,0.00003906
 ,-0.00020809,0.00005331,0.00014692,0.00373807,0.00071499,-0.00267367,-
 0.00011428,0.00039324,0.00111257,-0.04111224,-0.00581235,0.02261226,0.
 00197905,0.00128443,0.00613281,-0.00081147,-0.00053871,-0.00091540,-0.
 00020940,-0.00037282,0.00021213,-0.10298602,-0.04208322,0.09491689,-0.
 00029049,-0.00015620,-0.00073132,0.00014091,-0.00012927,0.00017622,0.0
 0126100,-0.00156352,0.00083366,0.00016868,-0.00004247,-0.00004925,0.00
 003541,-0.00007700,0.00001331,0.00004201,-0.00011587,0.00004289,0.0000
 0777,0.00135157,-0.00014959,-0.00019804,0.00001940,-0.00001533,-0.0014
 0309,0.00166061,0.00158182,0.00025849,0.00023564,-0.00044255,0.0005337
 7,-0.00012915,-0.00134395,-0.00285396,-0.00006112,-0.00116957,-0.00011
 548,0.00010679,0.00007563,-0.00001420,-0.00017892,-0.00005140,-0.00000
 238,-0.00001329,-0.00006229,0.00002149,0.00012551,-0.00000725,0.000080
 90,-0.00027606,-0.00007831,-0.00002269,-0.00005039,-0.00001789,-0.0000
 2012,-0.00001331,0.00000185,0.00005117,-0.00000660,-0.00003265,0.13575
 542,0.00027890,0.00020979,-0.00005999,-0.00042605,-0.00015887,0.000703
 74,-0.01968200,-0.00984972,0.02810287,0.00091087,-0.00021774,0.0002951
 3,0.00889619,0.00606040,-0.00773831,-0.00107090,-0.00046201,-0.0006538
 7,0.00003439,-0.00032121,-0.00002666,0.00025480,0.00211243,0.00140178,
 -0.04203724,-0.08020934,0.06611759,0.00000597,-0.00013135,0.00007215,0
 .00044469,0.00032797,-0.00008078,0.00212765,0.00115644,-0.00179648,-0.
 00003590,-0.00024670,0.00004619,-0.00012304,-0.00008328,-0.00004737,0.
 00002387,-0.00009401,0.00000852,0.00020903,-0.00628548,0.00066502,-0.0
 0039872,0.00017346,0.00003481,0.00073440,-0.00013532,-0.00155339,0.000
 02452,-0.00005858,-0.00010342,-0.00048787,-0.00021083,0.00013715,-0.00
 042578,0.00041296,-0.00011524,-0.00012496,0.00004825,-0.00003204,-0.00
 007115,-0.00009849,-0.00095762,0.00041846,0.00024548,-0.00026754,0.000
 14149,0.00002726,-0.00002066,-0.00006746,0.00009586,-0.00004825,-0.000
 05332,0.00013327,-0.00011859,0.00002649,0.00001140,-0.00001846,0.00013
 275,-0.00003335,-0.00007770,0.04247823,0.08163764,-0.00013562,-0.00008
 518,0.00021424,0.00073297,0.00058943,-0.00035004,0.00330703,-0.0000384
 2,-0.00343395,0.00007269,-0.00032634,-0.00129718,-0.00000554,-0.003127
 94,0.00677393,-0.00213284,-0.00055721,0.00322615,-0.00062064,0.0013914
 5,0.00060637,-0.00051655,-0.00027624,0.00067964,0.09800338,0.06572853,
 -0.21928949,0.00003430,-0.00017204,-0.00015475,-0.00007971,-0.00084559
 ,0.00004952,-0.00169184,0.00048776,0.00039291,-0.00027275,0.00018756,0
 .00006028,0.00006823,0.00001795,-0.00015616,-0.00006173,0.00011925,-0.
 00003328,-0.00024964,0.00090621,0.00111218,0.00034035,-0.00017457,-0.0
 0004377,0.00233421,-0.00196312,-0.00095791,0.00006669,-0.00001790,0.00
 030601,0.00125456,0.00072343,0.00058035,0.00012625,-0.00047002,-0.0003
 8162,0.00045056,-0.00020566,-0.00007389,0.00026159,0.00033151,0.000465
 63,-0.00011158,0.00011612,0.00004970,-0.00002874,0.00007416,-0.0002487
 5,0.00008563,-0.00001315,0.00000371,0.00003256,0.00001374,0.00006239,0
 .00003819,-0.00004876,-0.00003191,-0.00013619,-0.00002919,0.00007447,-
 0.11334293,-0.07123316,0.23067980,0.00010499,0.00005054,0.00004845,-0.
 00003153,0.00015598,0.00011214,0.00084014,-0.00023338,0.00200165,0.000
 09850,-0.00005345,0.00020405,-0.02253688,-0.01633025,-0.03478612,-0.00
 464564,0.00294710,0.00277786,-0.00025641,0.00022707,0.00018919,0.00038
 726,0.00150458,0.00010336,-0.06760483,-0.03601731,-0.05480051,-0.00039
 638,0.00004527,-0.00052733,0.00014156,-0.00018945,-0.00005463,0.000979
 49,-0.00027997,0.00081247,-0.00003880,-0.00001091,0.00001631,-0.000006
 75,-0.00001422,-0.00005213,-0.00000013,-0.00000584,-0.00000392,0.00016
 995,-0.00022897,-0.00035047,-0.00011315,0.00004363,0.00000544,-0.00006
 213,0.00002289,-0.00012853,-0.00080133,-0.00079952,-0.00142034,0.00016
 444,0.00006492,-0.00040955,-0.00051806,-0.00003470,0.00054505,0.000055
 41,-0.00002423,-0.00002773,-0.00005586,-0.00015088,-0.00032158,0.00035
 974,0.00023424,0.00018264,0.00002203,-0.00003137,0.00006044,0.00006697
 ,-0.00027100,0.00003921,-0.00000532,0.00002641,-0.00002751,0.00000579,
 -0.00000377,-0.00000977,-0.00001174,-0.00002437,-0.00000992,0.00641968
 ,0.00786169,0.01217712,0.08726899,-0.00000886,0.00004581,-0.00002155,0
 .00019637,-0.00009134,0.00000599,-0.01005685,-0.01716582,-0.02889400,0
 .00000977,0.00000971,0.00014047,0.00366622,0.00677026,0.00956413,0.002
 21789,-0.00000576,0.00077978,0.00008290,-0.00005786,0.00015259,0.00132
 265,-0.00606333,0.00288278,-0.04142456,-0.11663193,-0.10967137,0.00073
 043,0.00010867,0.00035005,0.00009869,0.00002859,-0.00001305,-0.0005312
 7,0.00299747,0.00049788,-0.00011684,-0.00001724,-0.00000735,-0.0000045
 5,0.00001416,0.00001580,0.00000548,-0.00000059,0.00000200,-0.00015200,
 0.00154240,0.00025655,-0.00003621,0.00002983,0.00000328,-0.00006284,-0
 .00006726,-0.00003732,0.00037582,0.00036580,0.00027935,-0.00002200,-0.
 00007893,-0.00023133,0.00015254,0.00010712,-0.00004086,-0.00002831,-0.
 00000732,-0.00000002,0.00012891,0.00010671,0.00003630,-0.00087464,-0.0
 0111664,-0.00165747,-0.00012314,0.00005826,0.00001443,-0.00013019,0.00
 013138,-0.00007677,0.00003374,0.00002778,0.00001066,-0.00006014,0.0000
 5748,0.00003637,-0.00002445,-0.00000681,-0.00000912,0.00311618,0.00594
 370,0.00889740,0.04151925,0.12296572,-0.00027694,0.00002198,-0.0001048
 3,-0.00036600,-0.00037461,-0.00015894,0.00112873,0.00390228,0.00395677
 ,-0.00034855,0.00002983,-0.00026815,-0.00483505,-0.00027087,-0.0022600
 2,-0.00028922,0.00129622,0.00213206,0.00039043,-0.00060458,0.00016932,
 -0.00025656,0.00087924,0.00077818,-0.06412025,-0.10846444,-0.23389802,
 0.00008263,0.00004561,-0.00011307,0.00008690,0.00040266,-0.00003971,0.
 00159895,-0.00057840,0.00072832,0.00009914,0.00004582,-0.00005650,0.00
 002523,0.00006443,0.00014483,0.00000310,0.00001309,0.00001082,0.000053
 58,-0.00055987,0.00077902,0.00017744,-0.00005523,0.00000811,0.00016031
 ,-0.00009536,0.00017795,-0.00032388,-0.00037408,-0.00011734,0.00014255
 ,0.00003643,0.00040548,0.00018093,0.00022371,-0.00022080,-0.00018064,0
 .00006414,0.00005629,0.00005806,0.00021429,0.00028439,-0.00006769,0.00
 011426,0.00022714,-0.00000379,-0.00003548,0.00001347,-0.00003346,-0.00
 005033,-0.00004890,0.00002699,-0.00003560,0.00004116,-0.00000726,0.000
 01984,0.00002078,0.00005433,0.00002603,0.00000581,-0.00681463,-0.01263
 544,-0.01888457,0.07365465,0.11673442,0.24623094\\0.00000319,-0.000008
 87,0.00000064,-0.00024601,0.00000998,-0.00042110,-0.00008568,-0.000412
 34,-0.00008605,0.00000928,-0.00000272,0.00000737,-0.00000046,-0.000007
 54,-0.00000543,0.00000370,0.00000270,0.00000858,-0.00000479,-0.0000021
 8,-0.00000080,-0.00001733,0.00000994,0.00001103,-0.00000650,-0.0000140
 2,0.00000766,0.00000640,-0.00000484,-0.00000807,0.00012718,-0.00021620
 ,0.00028255,0.00021560,0.00062783,0.00020352,-0.00000819,-0.00000130,-
 0.00000495,0.00000467,-0.00000126,0.00000366,-0.00000244,-0.00000221,0
 .00000244,-0.00000984,0.00000468,0.00000935,0.00000464,-0.00000218,0.0
 0000137,-0.00000570,-0.00000054,-0.00000649,-0.00000196,0.00000654,-0.
 00000229,0.00000617,0.00000575,-0.00000746,0.00000366,-0.00000254,0.00
 000358,0.00000187,0.00000432,0.00000163,0.00000566,0.00000279,-0.00000
 459,0.00000360,-0.00000148,0.00000392,-0.00000210,0.00000129,0.0000014
 8,0.00000088,0.00000460,-0.00000200,0.00000470,-0.00000663,0.00000483,
 -0.00000470,0.00000438,-0.00000603,0.00000312,-0.00000889,0.00000715,-
 0.00000396,0.00000587,-0.00000831,-0.00000465,0.00000508,0.00000279\\\
 @


 IT IS THE GODS' CUSTOM TO BRING LOW ALL THINGS OF SURPASSING GREATNESS.
     -- HERODOTUS
 IT IS THE LOFTY PINE THAT BY THE STORM IS OFTENER TOSSED;
 TOWERS FALL WITH HEAVIER CRASH WHICH HIGHER SOAR.
     -- HORACE
 THE BIGGER THEY COME, THE HARDER THEY FALL.
     -- BOB FITZSIMONS HEAVYWEIGHT CHAMPION, 1897-1899
 Job cpu time:       0 days 15 hours 35 minutes 54.4 seconds.
 Elapsed time:       0 days  0 hours 58 minutes 31.6 seconds.
 File lengths (MBytes):  RWF=    686 Int=      0 D2E=      0 Chk=     32 Scr=      1
 Normal termination of Gaussian 16 at Sun Nov  4 23:16:00 2018.
