 Entering Gaussian System, Link 0=g16
 Initial command:
 /apps/gaussian/g16a03/g16/l1.exe "/jobfs/local/2011939.r-man2/Gau-29809.inp" -scrdir="/jobfs/local/2011939.r-man2/"
 Entering Link 1 = /apps/gaussian/g16a03/g16/l1.exe PID=     29810.
  
 Copyright (c) 1988,1990,1992,1993,1995,1998,2003,2009,2016,
            Gaussian, Inc.  All Rights Reserved.
  
 This is part of the Gaussian(R) 16 program.  It is based on
 the Gaussian(R) 09 system (copyright 2009, Gaussian, Inc.),
 the Gaussian(R) 03 system (copyright 2003, Gaussian, Inc.),
 the Gaussian(R) 98 system (copyright 1998, Gaussian, Inc.),
 the Gaussian(R) 94 system (copyright 1995, Gaussian, Inc.),
 the Gaussian 92(TM) system (copyright 1992, Gaussian, Inc.),
 the Gaussian 90(TM) system (copyright 1990, Gaussian, Inc.),
 the Gaussian 88(TM) system (copyright 1988, Gaussian, Inc.),
 the Gaussian 86(TM) system (copyright 1986, Carnegie Mellon
 University), and the Gaussian 82(TM) system (copyright 1983,
 Carnegie Mellon University). Gaussian is a federally registered
 trademark of Gaussian, Inc.
  
 This software contains proprietary and confidential information,
 including trade secrets, belonging to Gaussian, Inc.
  
 This software is provided under written license and may be
 used, copied, transmitted, or stored only in accord with that
 written license.
  
 The following legend is applicable only to US Government
 contracts under FAR:
  
                    RESTRICTED RIGHTS LEGEND
  
 Use, reproduction and disclosure by the US Government is
 subject to restrictions as set forth in subparagraphs (a)
 and (c) of the Commercial Computer Software - Restricted
 Rights clause in FAR 52.227-19.
  
 Gaussian, Inc.
 340 Quinnipiac St., Bldg. 40, Wallingford CT 06492
  
  
 ---------------------------------------------------------------
 Warning -- This program may not be used in any manner that
 competes with the business of Gaussian, Inc. or will provide
 assistance to any competitor of Gaussian, Inc.  The licensee
 of this program is prohibited from giving any competitor of
 Gaussian, Inc. access to this program.  By using this program,
 the user acknowledges that Gaussian, Inc. is engaged in the
 business of creating and licensing software in the field of
 computational chemistry and represents and warrants to the
 licensee that it is not a competitor of Gaussian, Inc. and that
 it will not use this program in any manner prohibited above.
 ---------------------------------------------------------------
  

 Cite this work as:
 Gaussian 16, Revision A.03,
 M. J. Frisch, G. W. Trucks, H. B. Schlegel, G. E. Scuseria, 
 M. A. Robb, J. R. Cheeseman, G. Scalmani, V. Barone, 
 G. A. Petersson, H. Nakatsuji, X. Li, M. Caricato, A. V. Marenich, 
 J. Bloino, B. G. Janesko, R. Gomperts, B. Mennucci, H. P. Hratchian, 
 J. V. Ortiz, A. F. Izmaylov, J. L. Sonnenberg, D. Williams-Young, 
 F. Ding, F. Lipparini, F. Egidi, J. Goings, B. Peng, A. Petrone, 
 T. Henderson, D. Ranasinghe, V. G. Zakrzewski, J. Gao, N. Rega, 
 G. Zheng, W. Liang, M. Hada, M. Ehara, K. Toyota, R. Fukuda, 
 J. Hasegawa, M. Ishida, T. Nakajima, Y. Honda, O. Kitao, H. Nakai, 
 T. Vreven, K. Throssell, J. A. Montgomery, Jr., J. E. Peralta, 
 F. Ogliaro, M. J. Bearpark, J. J. Heyd, E. N. Brothers, K. N. Kudin, 
 V. N. Staroverov, T. A. Keith, R. Kobayashi, J. Normand, 
 K. Raghavachari, A. P. Rendell, J. C. Burant, S. S. Iyengar, 
 J. Tomasi, M. Cossi, J. M. Millam, M. Klene, C. Adamo, R. Cammi, 
 J. W. Ochterski, R. L. Martin, K. Morokuma, O. Farkas, 
 J. B. Foresman, and D. J. Fox, Gaussian, Inc., Wallingford CT, 2016.
 
 ******************************************
 Gaussian 16:  ES64L-G16RevA.03 25-Dec-2016
                 4-Nov-2018 
 ******************************************
 %mem=6000mb
 %nproc=24
 Will use up to   24 processors via shared memory.
 %chk=D_1a_4e_D_PHI.inp_extract_20.chk
 ----------------------------------------------------------------------
 #M062X/6-311++G(2d,2p) opt=ModRedundant freq=noraman SCRF=(Solvent=Wat
 er)
 ----------------------------------------------------------------------
 1/18=120,19=15,26=3,38=1/1,3;
 2/9=110,12=2,17=6,18=5,40=1/2;
 3/5=4,6=6,7=1212,11=2,25=1,30=1,70=2201,71=1,72=1,74=-55/1,2,3;
 4//1;
 5/5=2,38=5,53=1/2;
 6/7=2,8=2,9=2,10=2,28=1/1;
 7//1,2,3,16;
 1/18=20,19=15,26=3/3(2);
 2/9=110/2;
 99//99;
 2/9=110/2;
 3/5=4,6=6,7=1212,11=2,25=1,30=1,70=2205,71=1,72=1,74=-55/1,2,3;
 4/5=5,16=3,69=1/1;
 5/5=2,38=5,53=1/2;
 7//1,2,3,16;
 1/18=20,19=15,26=3/3(-5);
 2/9=110/2;
 6/7=2,8=2,9=2,10=2,19=2,28=1/1;
 99/9=1/99;
 ----------------------------
 D_1a_4e_D_PHI.inp_extract_20
 ----------------------------
 Symbolic Z-matrix:
 Charge =  0 Multiplicity = 1
 C                    -2.86853   0.76382  -1.17646 
 C                    -1.4154   -0.19472   1.14067 
 C                     1.03579  -0.6873    0.58058 
 C                    -2.91687  -0.72254  -0.82984 
 O                     2.88525   0.80036   0.74827 
 C                     3.32281   0.56002  -0.57775 
 C                    -1.55129   1.35774  -0.71092 
 C                     1.42822  -1.06918  -0.84203 
 C                     1.47791   0.74611   0.88274 
 C                     2.93071  -0.83671  -1.03419 
 O                    -1.30761   1.11313   0.67128 
 O                    -0.31861  -1.03267   0.84222 
 C                    -2.68397  -0.89037   0.66958 
 H                    -3.69418   1.28202  -0.69448 
 H                    -2.96241   0.92357  -2.24673 
 H                     1.60624  -1.31404   1.25866 
 H                    -3.8757   -1.15141  -1.10383 
 H                    -2.15529  -1.25639  -1.39291 
 H                     4.3968    0.68662  -0.57249 
 H                     2.8922    1.31366  -1.23315 
 H                    -0.73471   0.9571   -1.2975 
 H                    -1.54245   2.43392  -0.81299 
 H                     0.86648  -0.47316  -1.5542 
 H                     1.18071  -2.11108  -1.0199 
 H                     3.49183  -1.56752  -0.45735 
 H                     3.20625  -0.9657   -2.07667 
 H                    -3.51379  -0.44468   1.21179 
 H                    -2.63449  -1.93476   0.95583 
 H                    -1.44099  -0.07848   2.21599 
 H                     1.03688   1.46734   0.21014 
 H                     1.24809   1.02521   1.90129 
 
 The following ModRedundant input section has been read:
 D      11       2      12       3 F                                           
 

 GradGradGradGradGradGradGradGradGradGradGradGradGradGradGradGradGradGrad
 Berny optimization.
 Initialization pass.
                           ----------------------------
                           !    Initial Parameters    !
                           ! (Angstroms and Degrees)  !
 --------------------------                            --------------------------
 ! Name  Definition              Value          Derivative Info.                !
 --------------------------------------------------------------------------------
 ! R1    R(1,4)                  1.527          estimate D2E/DX2                !
 ! R2    R(1,7)                  1.5181         estimate D2E/DX2                !
 ! R3    R(1,14)                 1.0875         estimate D2E/DX2                !
 ! R4    R(1,15)                 1.0862         estimate D2E/DX2                !
 ! R5    R(2,11)                 1.3937         estimate D2E/DX2                !
 ! R6    R(2,12)                 1.4122         estimate D2E/DX2                !
 ! R7    R(2,13)                 1.5216         estimate D2E/DX2                !
 ! R8    R(2,29)                 1.0819         estimate D2E/DX2                !
 ! R9    R(3,8)                  1.5244         estimate D2E/DX2                !
 ! R10   R(3,9)                  1.5302         estimate D2E/DX2                !
 ! R11   R(3,12)                 1.422          estimate D2E/DX2                !
 ! R12   R(3,16)                 1.0854         estimate D2E/DX2                !
 ! R13   R(4,13)                 1.5267         estimate D2E/DX2                !
 ! R14   R(4,17)                 1.0855         estimate D2E/DX2                !
 ! R15   R(4,18)                 1.0872         estimate D2E/DX2                !
 ! R16   R(5,6)                  1.4169         estimate D2E/DX2                !
 ! R17   R(5,9)                  1.4148         estimate D2E/DX2                !
 ! R18   R(6,10)                 1.5208         estimate D2E/DX2                !
 ! R19   R(6,19)                 1.0814         estimate D2E/DX2                !
 ! R20   R(6,20)                 1.0876         estimate D2E/DX2                !
 ! R21   R(7,11)                 1.4247         estimate D2E/DX2                !
 ! R22   R(7,21)                 1.0823         estimate D2E/DX2                !
 ! R23   R(7,22)                 1.081          estimate D2E/DX2                !
 ! R24   R(8,10)                 1.5325         estimate D2E/DX2                !
 ! R25   R(8,23)                 1.0853         estimate D2E/DX2                !
 ! R26   R(8,24)                 1.0856         estimate D2E/DX2                !
 ! R27   R(9,30)                 1.0803         estimate D2E/DX2                !
 ! R28   R(9,31)                 1.0808         estimate D2E/DX2                !
 ! R29   R(10,25)                1.0871         estimate D2E/DX2                !
 ! R30   R(10,26)                1.086          estimate D2E/DX2                !
 ! R31   R(13,27)                1.0868         estimate D2E/DX2                !
 ! R32   R(13,28)                1.084          estimate D2E/DX2                !
 ! A1    A(4,1,7)              109.7966         estimate D2E/DX2                !
 ! A2    A(4,1,14)             109.8284         estimate D2E/DX2                !
 ! A3    A(4,1,15)             111.3517         estimate D2E/DX2                !
 ! A4    A(7,1,14)             109.6608         estimate D2E/DX2                !
 ! A5    A(7,1,15)             108.64           estimate D2E/DX2                !
 ! A6    A(14,1,15)            107.5181         estimate D2E/DX2                !
 ! A7    A(11,2,12)            115.1875         estimate D2E/DX2                !
 ! A8    A(11,2,13)            112.9071         estimate D2E/DX2                !
 ! A9    A(11,2,29)            103.6362         estimate D2E/DX2                !
 ! A10   A(12,2,13)            108.1083         estimate D2E/DX2                !
 ! A11   A(12,2,29)            106.9886         estimate D2E/DX2                !
 ! A12   A(13,2,29)            109.7026         estimate D2E/DX2                !
 ! A13   A(8,3,9)              110.1562         estimate D2E/DX2                !
 ! A14   A(8,3,12)             110.8588         estimate D2E/DX2                !
 ! A15   A(8,3,16)             107.6424         estimate D2E/DX2                !
 ! A16   A(9,3,12)             117.7995         estimate D2E/DX2                !
 ! A17   A(9,3,16)             105.4087         estimate D2E/DX2                !
 ! A18   A(12,3,16)            104.2057         estimate D2E/DX2                !
 ! A19   A(1,4,13)             108.9731         estimate D2E/DX2                !
 ! A20   A(1,4,17)             110.8083         estimate D2E/DX2                !
 ! A21   A(1,4,18)             109.7684         estimate D2E/DX2                !
 ! A22   A(13,4,17)            109.8292         estimate D2E/DX2                !
 ! A23   A(13,4,18)            110.3535         estimate D2E/DX2                !
 ! A24   A(17,4,18)            107.0983         estimate D2E/DX2                !
 ! A25   A(6,5,9)              112.9319         estimate D2E/DX2                !
 ! A26   A(5,6,10)             110.9189         estimate D2E/DX2                !
 ! A27   A(5,6,19)             106.3967         estimate D2E/DX2                !
 ! A28   A(5,6,20)             108.9141         estimate D2E/DX2                !
 ! A29   A(10,6,19)            111.4083         estimate D2E/DX2                !
 ! A30   A(10,6,20)            110.6983         estimate D2E/DX2                !
 ! A31   A(19,6,20)            108.3605         estimate D2E/DX2                !
 ! A32   A(1,7,11)             112.2572         estimate D2E/DX2                !
 ! A33   A(1,7,21)             110.0979         estimate D2E/DX2                !
 ! A34   A(1,7,22)             111.5686         estimate D2E/DX2                !
 ! A35   A(11,7,21)            109.4637         estimate D2E/DX2                !
 ! A36   A(11,7,22)            105.1372         estimate D2E/DX2                !
 ! A37   A(21,7,22)            108.1293         estimate D2E/DX2                !
 ! A38   A(3,8,10)             109.3551         estimate D2E/DX2                !
 ! A39   A(3,8,23)             109.9713         estimate D2E/DX2                !
 ! A40   A(3,8,24)             109.5518         estimate D2E/DX2                !
 ! A41   A(10,8,23)            109.9906         estimate D2E/DX2                !
 ! A42   A(10,8,24)            110.4013         estimate D2E/DX2                !
 ! A43   A(23,8,24)            107.5505         estimate D2E/DX2                !
 ! A44   A(3,9,5)              107.7321         estimate D2E/DX2                !
 ! A45   A(3,9,30)             112.6123         estimate D2E/DX2                !
 ! A46   A(3,9,31)             111.5035         estimate D2E/DX2                !
 ! A47   A(5,9,30)             108.7427         estimate D2E/DX2                !
 ! A48   A(5,9,31)             106.9288         estimate D2E/DX2                !
 ! A49   A(30,9,31)            109.1187         estimate D2E/DX2                !
 ! A50   A(6,10,8)             110.7605         estimate D2E/DX2                !
 ! A51   A(6,10,25)            108.9708         estimate D2E/DX2                !
 ! A52   A(6,10,26)            109.3769         estimate D2E/DX2                !
 ! A53   A(8,10,25)            109.7286         estimate D2E/DX2                !
 ! A54   A(8,10,26)            110.5555         estimate D2E/DX2                !
 ! A55   A(25,10,26)           107.3717         estimate D2E/DX2                !
 ! A56   A(2,11,7)             118.336          estimate D2E/DX2                !
 ! A57   A(2,12,3)             129.3839         estimate D2E/DX2                !
 ! A58   A(2,13,4)             112.3969         estimate D2E/DX2                !
 ! A59   A(2,13,27)            107.1344         estimate D2E/DX2                !
 ! A60   A(2,13,28)            108.7027         estimate D2E/DX2                !
 ! A61   A(4,13,27)            109.1729         estimate D2E/DX2                !
 ! A62   A(4,13,28)            111.8536         estimate D2E/DX2                !
 ! A63   A(27,13,28)           107.3494         estimate D2E/DX2                !
 ! D1    D(7,1,4,13)            55.7583         estimate D2E/DX2                !
 ! D2    D(7,1,4,17)           176.715          estimate D2E/DX2                !
 ! D3    D(7,1,4,18)           -65.1983         estimate D2E/DX2                !
 ! D4    D(14,1,4,13)          -64.8998         estimate D2E/DX2                !
 ! D5    D(14,1,4,17)           56.0569         estimate D2E/DX2                !
 ! D6    D(14,1,4,18)          174.1436         estimate D2E/DX2                !
 ! D7    D(15,1,4,13)          176.1192         estimate D2E/DX2                !
 ! D8    D(15,1,4,17)          -62.9241         estimate D2E/DX2                !
 ! D9    D(15,1,4,18)           55.1626         estimate D2E/DX2                !
 ! D10   D(4,1,7,11)           -54.1322         estimate D2E/DX2                !
 ! D11   D(4,1,7,21)            68.0849         estimate D2E/DX2                !
 ! D12   D(4,1,7,22)          -171.8537         estimate D2E/DX2                !
 ! D13   D(14,1,7,11)           66.6272         estimate D2E/DX2                !
 ! D14   D(14,1,7,21)         -171.1557         estimate D2E/DX2                !
 ! D15   D(14,1,7,22)          -51.0943         estimate D2E/DX2                !
 ! D16   D(15,1,7,11)         -176.1242         estimate D2E/DX2                !
 ! D17   D(15,1,7,21)          -53.9071         estimate D2E/DX2                !
 ! D18   D(15,1,7,22)           66.1543         estimate D2E/DX2                !
 ! D19   D(12,2,11,7)           77.5059         estimate D2E/DX2                !
 ! D20   D(13,2,11,7)          -47.3564         estimate D2E/DX2                !
 ! D21   D(29,2,11,7)         -165.985          estimate D2E/DX2                !
 ! D22   D(11,2,12,3)           25.0602         Frozen                          !
 ! D23   D(13,2,12,3)          152.3857         estimate D2E/DX2                !
 ! D24   D(29,2,12,3)          -89.5282         estimate D2E/DX2                !
 ! D25   D(11,2,13,4)           47.9464         estimate D2E/DX2                !
 ! D26   D(11,2,13,27)         -71.9719         estimate D2E/DX2                !
 ! D27   D(11,2,13,28)         172.3183         estimate D2E/DX2                !
 ! D28   D(12,2,13,4)          -80.6827         estimate D2E/DX2                !
 ! D29   D(12,2,13,27)         159.399          estimate D2E/DX2                !
 ! D30   D(12,2,13,28)          43.6892         estimate D2E/DX2                !
 ! D31   D(29,2,13,4)          162.9818         estimate D2E/DX2                !
 ! D32   D(29,2,13,27)          43.0634         estimate D2E/DX2                !
 ! D33   D(29,2,13,28)         -72.6464         estimate D2E/DX2                !
 ! D34   D(9,3,8,10)            54.4601         estimate D2E/DX2                !
 ! D35   D(9,3,8,23)           -66.4161         estimate D2E/DX2                !
 ! D36   D(9,3,8,24)           175.5801         estimate D2E/DX2                !
 ! D37   D(12,3,8,10)         -173.3559         estimate D2E/DX2                !
 ! D38   D(12,3,8,23)           65.7679         estimate D2E/DX2                !
 ! D39   D(12,3,8,24)          -52.2358         estimate D2E/DX2                !
 ! D40   D(16,3,8,10)          -59.9801         estimate D2E/DX2                !
 ! D41   D(16,3,8,23)          179.1438         estimate D2E/DX2                !
 ! D42   D(16,3,8,24)           61.14           estimate D2E/DX2                !
 ! D43   D(8,3,9,5)            -60.513          estimate D2E/DX2                !
 ! D44   D(8,3,9,30)            59.3958         estimate D2E/DX2                !
 ! D45   D(8,3,9,31)          -177.5494         estimate D2E/DX2                !
 ! D46   D(12,3,9,5)           171.002          estimate D2E/DX2                !
 ! D47   D(12,3,9,30)          -69.0892         estimate D2E/DX2                !
 ! D48   D(12,3,9,31)           53.9656         estimate D2E/DX2                !
 ! D49   D(16,3,9,5)            55.3391         estimate D2E/DX2                !
 ! D50   D(16,3,9,30)          175.2479         estimate D2E/DX2                !
 ! D51   D(16,3,9,31)          -61.6973         estimate D2E/DX2                !
 ! D52   D(8,3,12,2)          -116.2912         estimate D2E/DX2                !
 ! D53   D(9,3,12,2)            11.8612         estimate D2E/DX2                !
 ! D54   D(16,3,12,2)          128.1764         estimate D2E/DX2                !
 ! D55   D(1,4,13,2)           -53.0956         estimate D2E/DX2                !
 ! D56   D(1,4,13,27)           65.6327         estimate D2E/DX2                !
 ! D57   D(1,4,13,28)         -175.7078         estimate D2E/DX2                !
 ! D58   D(17,4,13,2)         -174.6497         estimate D2E/DX2                !
 ! D59   D(17,4,13,27)         -55.9213         estimate D2E/DX2                !
 ! D60   D(17,4,13,28)          62.7382         estimate D2E/DX2                !
 ! D61   D(18,4,13,2)           67.5022         estimate D2E/DX2                !
 ! D62   D(18,4,13,27)        -173.7695         estimate D2E/DX2                !
 ! D63   D(18,4,13,28)         -55.1099         estimate D2E/DX2                !
 ! D64   D(9,5,6,10)           -62.1206         estimate D2E/DX2                !
 ! D65   D(9,5,6,19)           176.5598         estimate D2E/DX2                !
 ! D66   D(9,5,6,20)            59.9497         estimate D2E/DX2                !
 ! D67   D(6,5,9,3)             64.8255         estimate D2E/DX2                !
 ! D68   D(6,5,9,30)           -57.503          estimate D2E/DX2                !
 ! D69   D(6,5,9,31)          -175.201          estimate D2E/DX2                !
 ! D70   D(5,6,10,8)            53.3846         estimate D2E/DX2                !
 ! D71   D(5,6,10,25)          -67.4159         estimate D2E/DX2                !
 ! D72   D(5,6,10,26)          175.4822         estimate D2E/DX2                !
 ! D73   D(19,6,10,8)          171.7091         estimate D2E/DX2                !
 ! D74   D(19,6,10,25)          50.9086         estimate D2E/DX2                !
 ! D75   D(19,6,10,26)         -66.1933         estimate D2E/DX2                !
 ! D76   D(20,6,10,8)          -67.6391         estimate D2E/DX2                !
 ! D77   D(20,6,10,25)         171.5604         estimate D2E/DX2                !
 ! D78   D(20,6,10,26)          54.4585         estimate D2E/DX2                !
 ! D79   D(1,7,11,2)            51.1724         estimate D2E/DX2                !
 ! D80   D(21,7,11,2)          -71.4042         estimate D2E/DX2                !
 ! D81   D(22,7,11,2)          172.6522         estimate D2E/DX2                !
 ! D82   D(3,8,10,6)           -50.4905         estimate D2E/DX2                !
 ! D83   D(3,8,10,25)           69.8595         estimate D2E/DX2                !
 ! D84   D(3,8,10,26)         -171.8962         estimate D2E/DX2                !
 ! D85   D(23,8,10,6)           70.3739         estimate D2E/DX2                !
 ! D86   D(23,8,10,25)        -169.2761         estimate D2E/DX2                !
 ! D87   D(23,8,10,26)         -51.0318         estimate D2E/DX2                !
 ! D88   D(24,8,10,6)         -171.0938         estimate D2E/DX2                !
 ! D89   D(24,8,10,25)         -50.7438         estimate D2E/DX2                !
 ! D90   D(24,8,10,26)          67.5005         estimate D2E/DX2                !
 --------------------------------------------------------------------------------
 Trust Radius=3.00D-01 FncErr=1.00D-07 GrdErr=1.00D-06 EigMax=2.50D+02 EigMin=1.00D-04
 Number of steps in this run=    186 maximum allowed number of steps=    186.
 GradGradGradGradGradGradGradGradGradGradGradGradGradGradGradGradGradGrad

                          Input orientation:                          
 ---------------------------------------------------------------------
 Center     Atomic      Atomic             Coordinates (Angstroms)
 Number     Number       Type             X           Y           Z
 ---------------------------------------------------------------------
      1          6           0       -2.868525    0.763816   -1.176458
      2          6           0       -1.415399   -0.194722    1.140672
      3          6           0        1.035787   -0.687300    0.580583
      4          6           0       -2.916872   -0.722535   -0.829841
      5          8           0        2.885250    0.800362    0.748272
      6          6           0        3.322808    0.560020   -0.577746
      7          6           0       -1.551292    1.357742   -0.710918
      8          6           0        1.428221   -1.069184   -0.842033
      9          6           0        1.477908    0.746110    0.882740
     10          6           0        2.930712   -0.836710   -1.034187
     11          8           0       -1.307607    1.113134    0.671278
     12          8           0       -0.318611   -1.032672    0.842224
     13          6           0       -2.683971   -0.890372    0.669576
     14          1           0       -3.694182    1.282025   -0.694483
     15          1           0       -2.962405    0.923572   -2.246734
     16          1           0        1.606244   -1.314037    1.258657
     17          1           0       -3.875704   -1.151410   -1.103831
     18          1           0       -2.155287   -1.256393   -1.392913
     19          1           0        4.396804    0.686620   -0.572491
     20          1           0        2.892202    1.313660   -1.233149
     21          1           0       -0.734713    0.957096   -1.297504
     22          1           0       -1.542449    2.433922   -0.812994
     23          1           0        0.866477   -0.473163   -1.554199
     24          1           0        1.180713   -2.111078   -1.019899
     25          1           0        3.491831   -1.567521   -0.457349
     26          1           0        3.206254   -0.965703   -2.076671
     27          1           0       -3.513791   -0.444675    1.211785
     28          1           0       -2.634487   -1.934761    0.955834
     29          1           0       -1.440986   -0.078483    2.215995
     30          1           0        1.036879    1.467335    0.210136
     31          1           0        1.248087    1.025215    1.901288
 ---------------------------------------------------------------------
                    Distance matrix (angstroms):
                    1          2          3          4          5
     1  C    0.000000
     2  C    2.898182   0.000000
     3  C    4.520684   2.562156   0.000000
     4  C    1.526997   2.532968   4.196910   0.000000
     5  O    6.067277   4.431676   2.379448   6.202764   0.000000
     6  C    6.223551   5.096391   2.850964   6.375116   1.416879
     7  C    1.518084   2.420123   3.541631   2.491286   4.703489
     8  C    4.683349   3.575189   1.524361   4.358916   2.854331
     9  C    4.809583   3.053346   1.530175   4.940035   1.414792
    10  C    6.017730   4.902126   2.494102   5.852267   2.420585
    11  O    2.443894   1.393713   2.956566   2.865794   4.205212
    12  O    3.715442   1.412153   1.422017   3.105309   3.692366
    13  C    2.485606   1.521557   3.726360   1.526651   5.820739
    14  H    1.087451   3.277412   5.279833   2.154250   6.752960
    15  H    1.086198   3.888229   5.155014   2.172401   6.571173
    16  H    5.501892   3.224455   1.085359   5.016999   2.523298
    17  H    2.165127   3.464989   5.213002   1.085524   7.276689
    18  H    2.153324   2.844931   3.794932   1.087229   5.849951
    19  H    7.290798   6.123185   3.809681   7.452637   2.010509
    20  H    5.787186   5.144479   3.277154   6.168800   2.046840
    21  H    2.145964   2.781137   3.060379   2.793150   4.160997
    22  H    2.163293   3.277609   4.281517   3.442752   4.970975
    23  H    3.952600   3.542149   2.152165   3.860131   3.316426
    24  H    4.968486   3.883334   2.147019   4.330632   3.808984
    25  H    6.812223   5.340333   2.807890   6.474892   2.725497
    26  H    6.380012   5.683783   3.442301   6.253510   3.346989
    27  H    2.753275   2.114423   4.599559   2.145170   6.535494
    28  H    3.447283   2.132622   3.894597   2.176665   6.163723
    29  H    3.775721   1.081890   3.029791   3.445310   4.652193
    30  H    4.203542   3.105157   2.186249   4.637804   2.037380
    31  H    5.146586   3.026705   2.173026   5.278312   2.015020
                    6          7          8          9         10
     6  C    0.000000
     7  C    4.940743   0.000000
     8  C    2.512690   3.845082   0.000000
     9  C    2.360361   3.477052   2.504517   0.000000
    10  C    1.520833   5.000848   1.532464   2.879335   0.000000
    11  O    4.827705   1.424669   3.812791   2.817537   4.967278
    12  O    4.220535   3.105774   2.426824   2.528475   3.757315
    13  C    6.304034   2.871018   4.384867   4.477136   5.867738
    14  H    7.055003   2.144290   5.638171   5.433724   6.963739
    15  H    6.513186   2.130370   5.022137   5.435207   6.268787
    16  H    3.135452   4.581229   2.122391   2.098092   2.690574
    17  H    7.417839   3.442835   5.311019   6.017326   6.814043
    18  H    5.828669   2.768326   3.630433   4.731672   5.115878
    19  H    1.081445   5.987438   3.459478   3.262084   2.164053
    20  H    1.087634   4.474294   2.823855   2.607552   2.159898
    21  H    4.139951   1.082313   2.998591   3.113466   4.089305
    22  H    5.218963   1.081046   4.593199   3.853152   5.545731
    23  H    2.838043   3.147847   1.085347   2.792695   2.159547
    24  H    3.452367   4.426289   1.085560   3.445560   2.164882
    25  H    2.137638   5.835628   2.157500   3.347329   1.087052
    26  H    2.142006   5.467899   2.167127   3.830874   1.085972
    27  H    7.137991   3.285863   5.388104   5.142305   6.835913
    28  H    6.638160   3.846030   4.526273   4.909603   6.011434
    29  H    5.559353   3.262166   4.308755   3.313226   5.500030
    30  H    2.582528   2.749360   2.773831   1.080309   3.231651
    31  H    3.265958   3.843269   3.456120   1.080813   3.861995
                   11         12         13         14         15
    11  O    0.000000
    12  O    2.368928   0.000000
    13  C    2.430724   2.375918   0.000000
    14  H    2.754917   4.371930   2.756899   0.000000
    15  H    3.359923   4.512006   3.445690   1.753131   0.000000
    16  H    3.837538   1.989384   4.351144   6.216817   6.177962
    17  H    3.856721   4.056370   2.152520   2.474292   2.538876
    18  H    3.254859   2.901597   2.160403   3.049519   2.476428
    19  H    5.853988   5.214645   7.359824   8.113781   7.550973
    20  H    4.615783   4.485729   6.290614   6.608450   5.954490
    21  H    2.056370   2.951399   3.328986   3.037708   2.421729
    22  H    2.000674   4.031724   3.814711   2.443536   2.520524
    23  H    3.492238   2.731360   4.210097   4.961795   4.134103
    24  H    4.409916   2.622677   4.390926   5.948415   5.280119
    25  H    5.611980   4.061332   6.314192   7.734011   7.145950
    26  H    5.678708   4.577019   6.499408   7.387743   6.453730
    27  H    2.754299   3.269785   1.086848   2.578351   3.759984
    28  H    3.336352   2.487962   1.084039   3.767521   4.305118
    29  H    1.955477   2.014311   2.143732   3.924125   4.820247
    30  H    2.415518   2.913232   4.428836   4.820333   4.725057
    31  H    2.837644   2.794827   4.543971   5.588381   5.911401
                   16         17         18         19         20
    16  H    0.000000
    17  H    5.971562   0.000000
    18  H    4.602528   1.747691   0.000000
    19  H    3.891395   8.490881   6.883189   0.000000
    20  H    3.842860   7.204016   5.666378   1.758828   0.000000
    21  H    4.143921   3.788025   2.631856   5.189534   3.644968
    22  H    5.315374   4.287572   3.785538   6.195614   4.593217
    23  H    3.027620   4.811562   3.125783   3.843443   2.720179
    24  H    2.451157   5.147364   3.463888   4.286086   3.834514
    25  H    2.562102   7.407541   5.732541   2.431745   3.043456
    26  H    3.715613   7.150876   5.412776   2.531825   2.450644
    27  H    5.193529   2.447965   3.047765   8.187856   7.078573
    28  H    4.296603   2.529126   2.491270   7.658098   6.774081
    29  H    3.424719   4.254441   3.862889   6.514663   5.710619
    30  H    3.026484   5.719948   4.492036   3.537106   2.355613
    31  H    2.452213   6.326268   5.257419   4.018538   3.551198
                   21         22         23         24         25
    21  H    0.000000
    22  H    1.751629   0.000000
    23  H    2.162254   3.847526   0.000000
    24  H    3.627618   5.302400   1.751281   0.000000
    25  H    4.994319   6.440652   3.048472   2.439915   0.000000
    26  H    4.453704   5.975325   2.447474   2.555674   1.750983
    27  H    3.998096   4.033886   5.180562   5.458542   7.288726
    28  H    4.129105   4.838046   4.548987   4.300042   6.297914
    29  H    3.730405   3.936654   4.437851   4.634194   5.804885
    30  H    2.381567   2.938370   2.628202   3.786649   3.960136
    31  H    3.764094   4.139912   3.785651   4.286514   4.161711
                   26         27         28         29         30
    26  H    0.000000
    27  H    7.499628   0.000000
    28  H    6.652023   1.749012   0.000000
    29  H    6.388347   2.332178   2.541302   0.000000
    30  H    3.981877   5.036634   5.060558   3.542999   0.000000
    31  H    4.860281   5.031051   4.972899   2.923748   1.760703
                   31
    31  H    0.000000
 Stoichiometry    C10H18O3
 Framework group  C1[X(C10H18O3)]
 Deg. of freedom    87
 Full point group                 C1      NOp   1
 Largest Abelian subgroup         C1      NOp   1
 Largest concise Abelian subgroup C1      NOp   1
                         Standard orientation:                         
 ---------------------------------------------------------------------
 Center     Atomic      Atomic             Coordinates (Angstroms)
 Number     Number       Type             X           Y           Z
 ---------------------------------------------------------------------
      1          6           0        2.868525    0.763816    1.176458
      2          6           0        1.415399   -0.194722   -1.140672
      3          6           0       -1.035787   -0.687300   -0.580583
      4          6           0        2.916872   -0.722535    0.829841
      5          8           0       -2.885250    0.800362   -0.748272
      6          6           0       -3.322808    0.560020    0.577746
      7          6           0        1.551292    1.357742    0.710918
      8          6           0       -1.428221   -1.069184    0.842033
      9          6           0       -1.477908    0.746110   -0.882740
     10          6           0       -2.930712   -0.836710    1.034187
     11          8           0        1.307607    1.113134   -0.671278
     12          8           0        0.318611   -1.032672   -0.842224
     13          6           0        2.683971   -0.890372   -0.669576
     14          1           0        3.694182    1.282025    0.694483
     15          1           0        2.962405    0.923572    2.246734
     16          1           0       -1.606244   -1.314037   -1.258657
     17          1           0        3.875704   -1.151410    1.103831
     18          1           0        2.155287   -1.256393    1.392913
     19          1           0       -4.396804    0.686620    0.572491
     20          1           0       -2.892202    1.313660    1.233149
     21          1           0        0.734713    0.957096    1.297504
     22          1           0        1.542449    2.433922    0.812994
     23          1           0       -0.866477   -0.473163    1.554199
     24          1           0       -1.180713   -2.111078    1.019899
     25          1           0       -3.491831   -1.567521    0.457349
     26          1           0       -3.206254   -0.965703    2.076671
     27          1           0        3.513791   -0.444675   -1.211785
     28          1           0        2.634487   -1.934761   -0.955834
     29          1           0        1.440986   -0.078483   -2.215995
     30          1           0       -1.036879    1.467335   -0.210136
     31          1           0       -1.248087    1.025215   -1.901288
 ---------------------------------------------------------------------
 Rotational constants (GHZ):           1.6099198           0.4689441           0.4641506
 Standard basis: 6-311++G(2d,2p) (5D, 7F)
 There are   557 symmetry adapted cartesian basis functions of A   symmetry.
 There are   531 symmetry adapted basis functions of A   symmetry.
   531 basis functions,   762 primitive gaussians,   557 cartesian basis functions
    51 alpha electrons       51 beta electrons
       nuclear repulsion energy       909.8365461456 Hartrees.
 NAtoms=   31 NActive=   31 NUniq=   31 SFac= 1.00D+00 NAtFMM=   60 NAOKFM=F Big=F
 Integral buffers will be    131072 words long.
 Raffenetti 2 integral format.
 Two-electron integral symmetry is turned on.
 ------------------------------------------------------------------------------
 Polarizable Continuum Model (PCM)
 =================================
 Model                : PCM.
 Atomic radii         : UFF (Universal Force Field).
 Polarization charges : Total charges.
 Charge compensation  : None.
 Solution method      : On-the-fly selection.
 Cavity type          : Scaled VdW (van der Waals Surface) (Alpha=1.100).
 Cavity algorithm     : GePol (No added spheres)
                        Default sphere list used, NSphG=   31.
                        Lebedev-Laikov grids with approx.  5.0 points / Ang**2.
                        Smoothing algorithm: York/Karplus (Gamma=1.0000).
                        Polarization charges: spherical gaussians, with
                                              point-specific exponents (IZeta= 3).
                        Self-potential: point-specific (ISelfS= 7).
                        Self-field    : sphere-specific E.n sum rule (ISelfD= 2).
 1st derivatives      : Analytical E(r).r(x)/FMM algorithm (CHGder, D1EAlg=3).
                        Cavity 1st derivative terms included.
 Solvent              : Water, Eps=  78.355300 Eps(inf)=   1.777849
 ------------------------------------------------------------------------------
 One-electron integrals computed using PRISM.
 NBasis=   531 RedAO= T EigKep=  4.23D-06  NBF=   531
 NBsUse=   531 1.00D-06 EigRej= -1.00D+00 NBFU=   531
 ExpMin= 3.60D-02 ExpMax= 8.59D+03 ExpMxC= 1.30D+03 IAcc=3 IRadAn=         5 AccDes= 0.00D+00
 Harris functional with IExCor= 1009 and IRadAn=       5 diagonalized for initial guess.
 HarFok:  IExCor= 1009 AccDes= 0.00D+00 IRadAn=         5 IDoV= 1 UseB2=F ITyADJ=14
 ICtDFT=  3500011 ScaDFX=  1.000000  1.000000  1.000000  1.000000
 FoFCou: FMM=F IPFlag=           0 FMFlag=      100000 FMFlg1=           0
         NFxFlg=           0 DoJE=T BraDBF=F KetDBF=T FulRan=T
         wScrn=  0.000000 ICntrl=       500 IOpCl=  0 I1Cent=   200000004 NGrid=           0
         NMat0=    1 NMatS0=      1 NMatT0=    0 NMatD0=    1 NMtDS0=    0 NMtDT0=    0
 Petite list used in FoFCou.
 Requested convergence on RMS density matrix=1.00D-08 within 128 cycles.
 Requested convergence on MAX density matrix=1.00D-06.
 Requested convergence on             energy=1.00D-06.
 No special actions if energy rises.
 Inv3:  Mode=1 IEnd=    12644427.
 Iteration    1 A*A^-1 deviation from unit magnitude is 4.88D-15 for   2038.
 Iteration    1 A*A^-1 deviation from orthogonality  is 1.86D-15 for   2019    858.
 Iteration    1 A^-1*A deviation from unit magnitude is 5.11D-15 for   2038.
 Iteration    1 A^-1*A deviation from orthogonality  is 7.61D-14 for   1358   1340.
 Error on total polarization charges =  0.01462
 SCF Done:  E(RM062X) =  -617.485869292     A.U. after   12 cycles
            NFock= 12  Conv=0.46D-08     -V/T= 2.0035

 **********************************************************************

            Population analysis using the SCF density.

 **********************************************************************

 Orbital symmetries:
       Occupied  (A) (A) (A) (A) (A) (A) (A) (A) (A) (A) (A) (A)
                 (A) (A) (A) (A) (A) (A) (A) (A) (A) (A) (A) (A)
                 (A) (A) (A) (A) (A) (A) (A) (A) (A) (A) (A) (A)
                 (A) (A) (A) (A) (A) (A) (A) (A) (A) (A) (A) (A)
                 (A) (A) (A)
       Virtual   (A) (A) (A) (A) (A) (A) (A) (A) (A) (A) (A) (A)
                 (A) (A) (A) (A) (A) (A) (A) (A) (A) (A) (A) (A)
                 (A) (A) (A) (A) (A) (A) (A) (A) (A) (A) (A) (A)
                 (A) (A) (A) (A) (A) (A) (A) (A) (A) (A) (A) (A)
                 (A) (A) (A) (A) (A) (A) (A) (A) (A) (A) (A) (A)
                 (A) (A) (A) (A) (A) (A) (A) (A) (A) (A) (A) (A)
                 (A) (A) (A) (A) (A) (A) (A) (A) (A) (A) (A) (A)
                 (A) (A) (A) (A) (A) (A) (A) (A) (A) (A) (A) (A)
                 (A) (A) (A) (A) (A) (A) (A) (A) (A) (A) (A) (A)
                 (A) (A) (A) (A) (A) (A) (A) (A) (A) (A) (A) (A)
                 (A) (A) (A) (A) (A) (A) (A) (A) (A) (A) (A) (A)
                 (A) (A) (A) (A) (A) (A) (A) (A) (A) (A) (A) (A)
                 (A) (A) (A) (A) (A) (A) (A) (A) (A) (A) (A) (A)
                 (A) (A) (A) (A) (A) (A) (A) (A) (A) (A) (A) (A)
                 (A) (A) (A) (A) (A) (A) (A) (A) (A) (A) (A) (A)
                 (A) (A) (A) (A) (A) (A) (A) (A) (A) (A) (A) (A)
                 (A) (A) (A) (A) (A) (A) (A) (A) (A) (A) (A) (A)
                 (A) (A) (A) (A) (A) (A) (A) (A) (A) (A) (A) (A)
                 (A) (A) (A) (A) (A) (A) (A) (A) (A) (A) (A) (A)
                 (A) (A) (A) (A) (A) (A) (A) (A) (A) (A) (A) (A)
                 (A) (A) (A) (A) (A) (A) (A) (A) (A) (A) (A) (A)
                 (A) (A) (A) (A) (A) (A) (A) (A) (A) (A) (A) (A)
                 (A) (A) (A) (A) (A) (A) (A) (A) (A) (A) (A) (A)
                 (A) (A) (A) (A) (A) (A) (A) (A) (A) (A) (A) (A)
                 (A) (A) (A) (A) (A) (A) (A) (A) (A) (A) (A) (A)
                 (A) (A) (A) (A) (A) (A) (A) (A) (A) (A) (A) (A)
                 (A) (A) (A) (A) (A) (A) (A) (A) (A) (A) (A) (A)
                 (A) (A) (A) (A) (A) (A) (A) (A) (A) (A) (A) (A)
                 (A) (A) (A) (A) (A) (A) (A) (A) (A) (A) (A) (A)
                 (A) (A) (A) (A) (A) (A) (A) (A) (A) (A) (A) (A)
                 (A) (A) (A) (A) (A) (A) (A) (A) (A) (A) (A) (A)
                 (A) (A) (A) (A) (A) (A) (A) (A) (A) (A) (A) (A)
                 (A) (A) (A) (A) (A) (A) (A) (A) (A) (A) (A) (A)
                 (A) (A) (A) (A) (A) (A) (A) (A) (A) (A) (A) (A)
                 (A) (A) (A) (A) (A) (A) (A) (A) (A) (A) (A) (A)
                 (A) (A) (A) (A) (A) (A) (A) (A) (A) (A) (A) (A)
                 (A) (A) (A) (A) (A) (A) (A) (A) (A) (A) (A) (A)
                 (A) (A) (A) (A) (A) (A) (A) (A) (A) (A) (A) (A)
                 (A) (A) (A) (A) (A) (A) (A) (A) (A) (A) (A) (A)
                 (A) (A) (A) (A) (A) (A) (A) (A) (A) (A) (A) (A)
 The electronic state is 1-A.
 Alpha  occ. eigenvalues --  -19.63308 -19.62757 -19.62200 -10.63740 -10.58922
 Alpha  occ. eigenvalues --  -10.58033 -10.57811 -10.57807 -10.53081 -10.53054
 Alpha  occ. eigenvalues --  -10.52965 -10.52960 -10.52935  -1.19642  -1.16619
 Alpha  occ. eigenvalues --   -1.13287  -0.91084  -0.90052  -0.87555  -0.84747
 Alpha  occ. eigenvalues --   -0.75422  -0.74289  -0.73497  -0.70599  -0.66879
 Alpha  occ. eigenvalues --   -0.62971  -0.59610  -0.59426  -0.56935  -0.56399
 Alpha  occ. eigenvalues --   -0.53647  -0.53391  -0.51789  -0.51256  -0.50338
 Alpha  occ. eigenvalues --   -0.49163  -0.46907  -0.45866  -0.45482  -0.45196
 Alpha  occ. eigenvalues --   -0.44337  -0.41995  -0.41469  -0.40086  -0.39709
 Alpha  occ. eigenvalues --   -0.38706  -0.37545  -0.36170  -0.34574  -0.32763
 Alpha  occ. eigenvalues --   -0.31440
 Alpha virt. eigenvalues --   -0.00149   0.00760   0.00831   0.01043   0.02256
 Alpha virt. eigenvalues --    0.02592   0.02699   0.03243   0.03362   0.04649
 Alpha virt. eigenvalues --    0.04954   0.05066   0.05741   0.05897   0.07268
 Alpha virt. eigenvalues --    0.07532   0.07870   0.08428   0.08820   0.09676
 Alpha virt. eigenvalues --    0.10318   0.11037   0.11108   0.11529   0.12039
 Alpha virt. eigenvalues --    0.12514   0.12613   0.13218   0.13509   0.13662
 Alpha virt. eigenvalues --    0.13914   0.13951   0.14422   0.14612   0.14753
 Alpha virt. eigenvalues --    0.15006   0.15426   0.15625   0.15993   0.16482
 Alpha virt. eigenvalues --    0.16601   0.16899   0.16986   0.17598   0.17977
 Alpha virt. eigenvalues --    0.18115   0.18304   0.18626   0.19063   0.19431
 Alpha virt. eigenvalues --    0.19643   0.20414   0.20954   0.21285   0.21470
 Alpha virt. eigenvalues --    0.21723   0.22178   0.22392   0.22930   0.23886
 Alpha virt. eigenvalues --    0.25070   0.25363   0.26354   0.26778   0.27375
 Alpha virt. eigenvalues --    0.27652   0.28175   0.28278   0.29077   0.30084
 Alpha virt. eigenvalues --    0.30435   0.30865   0.31706   0.32025   0.32454
 Alpha virt. eigenvalues --    0.32757   0.33425   0.33797   0.33966   0.34347
 Alpha virt. eigenvalues --    0.35038   0.35574   0.35702   0.35717   0.36197
 Alpha virt. eigenvalues --    0.36394   0.37267   0.37859   0.38131   0.38425
 Alpha virt. eigenvalues --    0.38639   0.39332   0.39508   0.39660   0.40368
 Alpha virt. eigenvalues --    0.41161   0.41645   0.42414   0.43056   0.45374
 Alpha virt. eigenvalues --    0.47372   0.47753   0.49274   0.50237   0.51488
 Alpha virt. eigenvalues --    0.51786   0.52883   0.53798   0.54511   0.54960
 Alpha virt. eigenvalues --    0.55551   0.56976   0.57881   0.59370   0.59918
 Alpha virt. eigenvalues --    0.60557   0.61343   0.61482   0.61833   0.61948
 Alpha virt. eigenvalues --    0.62561   0.63211   0.63854   0.64016   0.64806
 Alpha virt. eigenvalues --    0.65205   0.65683   0.66130   0.66273   0.67092
 Alpha virt. eigenvalues --    0.68625   0.69151   0.69381   0.70034   0.70584
 Alpha virt. eigenvalues --    0.71525   0.71781   0.72326   0.72802   0.73600
 Alpha virt. eigenvalues --    0.74001   0.74696   0.75228   0.75786   0.76246
 Alpha virt. eigenvalues --    0.76919   0.77374   0.78127   0.78600   0.79531
 Alpha virt. eigenvalues --    0.80111   0.81942   0.82183   0.84760   0.85608
 Alpha virt. eigenvalues --    0.87105   0.87818   0.88281   0.89024   0.91071
 Alpha virt. eigenvalues --    0.91645   0.92317   0.92706   0.93266   0.95869
 Alpha virt. eigenvalues --    0.97235   0.98004   1.00332   1.01617   1.02885
 Alpha virt. eigenvalues --    1.02997   1.05051   1.05352   1.06001   1.07083
 Alpha virt. eigenvalues --    1.07780   1.08212   1.09449   1.10375   1.11223
 Alpha virt. eigenvalues --    1.13017   1.14040   1.15228   1.16015   1.16409
 Alpha virt. eigenvalues --    1.17141   1.18565   1.19115   1.20170   1.21308
 Alpha virt. eigenvalues --    1.21345   1.22240   1.22933   1.23552   1.24947
 Alpha virt. eigenvalues --    1.25563   1.26350   1.27149   1.27787   1.28181
 Alpha virt. eigenvalues --    1.28538   1.29612   1.30601   1.31181   1.32360
 Alpha virt. eigenvalues --    1.32529   1.33808   1.34476   1.35503   1.35849
 Alpha virt. eigenvalues --    1.36151   1.36461   1.37393   1.37604   1.38310
 Alpha virt. eigenvalues --    1.39798   1.39987   1.40815   1.41549   1.42168
 Alpha virt. eigenvalues --    1.42707   1.43846   1.44566   1.45227   1.45456
 Alpha virt. eigenvalues --    1.45635   1.46563   1.47279   1.47994   1.49028
 Alpha virt. eigenvalues --    1.49402   1.49620   1.50474   1.52148   1.52685
 Alpha virt. eigenvalues --    1.53680   1.54518   1.54806   1.55291   1.56515
 Alpha virt. eigenvalues --    1.57516   1.57821   1.58393   1.59415   1.59607
 Alpha virt. eigenvalues --    1.60444   1.60621   1.61232   1.63032   1.63851
 Alpha virt. eigenvalues --    1.64271   1.64394   1.65106   1.66158   1.66953
 Alpha virt. eigenvalues --    1.67713   1.69437   1.70390   1.71482   1.72595
 Alpha virt. eigenvalues --    1.74448   1.75119   1.75668   1.77370   1.77945
 Alpha virt. eigenvalues --    1.79210   1.79864   1.81299   1.82111   1.84069
 Alpha virt. eigenvalues --    1.86174   1.87673   1.89765   1.95753   1.99093
 Alpha virt. eigenvalues --    2.01267   2.05352   2.14725   2.17201   2.21037
 Alpha virt. eigenvalues --    2.24417   2.27653   2.29001   2.32077   2.39471
 Alpha virt. eigenvalues --    2.41952   2.43187   2.45619   2.49197   2.53326
 Alpha virt. eigenvalues --    2.56210   2.76399   2.77569   2.80814   2.82472
 Alpha virt. eigenvalues --    2.83405   2.89557   2.91895   2.94152   2.95222
 Alpha virt. eigenvalues --    2.96175   2.99749   3.02020   3.02908   3.04768
 Alpha virt. eigenvalues --    3.06570   3.07834   3.09232   3.09503   3.10579
 Alpha virt. eigenvalues --    3.13332   3.14556   3.16397   3.19889   3.20889
 Alpha virt. eigenvalues --    3.23440   3.27307   3.32069   3.33290   3.34921
 Alpha virt. eigenvalues --    3.35958   3.38531   3.39026   3.39816   3.42131
 Alpha virt. eigenvalues --    3.43156   3.44546   3.45342   3.46307   3.47715
 Alpha virt. eigenvalues --    3.48798   3.49443   3.50943   3.51775   3.52364
 Alpha virt. eigenvalues --    3.53297   3.53683   3.54566   3.55971   3.56169
 Alpha virt. eigenvalues --    3.57380   3.57817   3.58474   3.58873   3.59404
 Alpha virt. eigenvalues --    3.60904   3.62817   3.63333   3.64202   3.64887
 Alpha virt. eigenvalues --    3.65158   3.66447   3.67624   3.69143   3.70094
 Alpha virt. eigenvalues --    3.70611   3.71684   3.72719   3.73490   3.73809
 Alpha virt. eigenvalues --    3.75324   3.76255   3.76643   3.77613   3.78751
 Alpha virt. eigenvalues --    3.79287   3.79766   3.81710   3.83969   3.84468
 Alpha virt. eigenvalues --    3.85802   3.87816   3.88248   3.90181   3.90754
 Alpha virt. eigenvalues --    3.92802   3.94960   3.95764   3.96878   3.97450
 Alpha virt. eigenvalues --    4.00198   4.01606   4.02172   4.03976   4.04642
 Alpha virt. eigenvalues --    4.05719   4.06131   4.06595   4.07232   4.08113
 Alpha virt. eigenvalues --    4.09125   4.10414   4.11280   4.11822   4.12253
 Alpha virt. eigenvalues --    4.12952   4.13788   4.15382   4.16102   4.16233
 Alpha virt. eigenvalues --    4.16711   4.17415   4.18625   4.20384   4.21259
 Alpha virt. eigenvalues --    4.23123   4.24581   4.25970   4.27134   4.27731
 Alpha virt. eigenvalues --    4.29567   4.29886   4.30910   4.32185   4.33641
 Alpha virt. eigenvalues --    4.34672   4.36235   4.37065   4.39841   4.41967
 Alpha virt. eigenvalues --    4.42078   4.43577   4.45699   4.47741   4.50683
 Alpha virt. eigenvalues --    4.58438   4.61639   4.75449   4.77621   4.83841
 Alpha virt. eigenvalues --    4.86099   4.92896   4.94980   4.99028   5.00464
 Alpha virt. eigenvalues --    5.06985   5.07797   5.07992   5.08929   5.12511
 Alpha virt. eigenvalues --    5.13490   5.14789   5.16876   5.32444   5.39984
 Alpha virt. eigenvalues --    5.42433   5.54208   5.59291   5.63549   5.83621
 Alpha virt. eigenvalues --    5.88996   6.04632   7.01012   7.03275   7.06294
 Alpha virt. eigenvalues --    7.09779   7.11240   7.12958   7.14404   7.18692
 Alpha virt. eigenvalues --    7.29978   7.36665   7.40785   7.47600   7.53347
 Alpha virt. eigenvalues --    7.55181   7.60589  23.95576  23.97645  24.07442
 Alpha virt. eigenvalues --   24.08372  24.10473  24.11536  24.15023  24.15130
 Alpha virt. eigenvalues --   24.16833  24.17771  50.16829  50.19868  50.24224
          Condensed to atoms (all electrons):
               1          2          3          4          5          6
     1  C    6.345808   0.144475   0.131591  -0.170357  -0.001442   0.020467
     2  C    0.144475   6.969802  -0.750629   0.109054  -0.000191   0.003634
     3  C    0.131591  -0.750629   8.583134   0.048016  -0.056591   0.139571
     4  C   -0.170357   0.109054   0.048016   5.809674   0.000227  -0.005375
     5  O   -0.001442  -0.000191  -0.056591   0.000227   8.368591   0.114481
     6  C    0.020467   0.003634   0.139571  -0.005375   0.114481   5.485076
     7  C   -0.407682  -0.456194   0.017638   0.040234   0.002932  -0.008933
     8  C    0.001947   0.186128  -1.573791  -0.015575   0.008049  -0.035778
     9  C   -0.063381   0.130310  -0.779021   0.002260   0.174696  -0.226068
    10  C   -0.003705  -0.085846  -0.075714  -0.030654  -0.052371  -0.019274
    11  O   -0.076156   0.309333   0.098609   0.001252  -0.001813   0.009665
    12  O   -0.054966   0.231400  -0.171677  -0.045489   0.006513  -0.007631
    13  C   -0.081062  -0.975612   0.082407  -0.347997   0.001063  -0.002033
    14  H    0.470125   0.040834   0.000202   0.004476  -0.000038   0.000055
    15  H    0.432977  -0.007296  -0.004744  -0.049971   0.000000   0.000265
    16  H    0.000357  -0.035091   0.528177   0.001997   0.005209  -0.007057
    17  H   -0.025816   0.009225   0.002206   0.409923  -0.000011  -0.000274
    18  H   -0.097816  -0.005064   0.001106   0.566230   0.000145  -0.000696
    19  H    0.000329   0.000360  -0.003506  -0.000103  -0.073314   0.415927
    20  H    0.000067  -0.003471   0.023990   0.000956  -0.036260   0.470372
    21  H   -0.164027  -0.016560  -0.031180   0.025651   0.000232  -0.018392
    22  H   -0.007652  -0.013566   0.002502   0.010007   0.001496   0.000189
    23  H    0.027101   0.008295   0.066480  -0.013733   0.000492   0.009846
    24  H    0.002425   0.024002  -0.040933   0.004957  -0.001404   0.009844
    25  H   -0.000665  -0.005719  -0.022372   0.000707  -0.007193  -0.079330
    26  H   -0.000838  -0.001806   0.021668   0.000615   0.007387  -0.040246
    27  H   -0.032299  -0.123553   0.020848   0.003951  -0.000068   0.000251
    28  H   -0.001337  -0.040776  -0.035841  -0.045559   0.000112  -0.000152
    29  H   -0.006923   0.507270  -0.031314   0.005453   0.000619  -0.001626
    30  H   -0.030644  -0.018810   0.165140  -0.004780  -0.047711  -0.014918
    31  H   -0.003206  -0.004141  -0.068681  -0.000652  -0.065380  -0.002556
               7          8          9         10         11         12
     1  C   -0.407682   0.001947  -0.063381  -0.003705  -0.076156  -0.054966
     2  C   -0.456194   0.186128   0.130310  -0.085846   0.309333   0.231400
     3  C    0.017638  -1.573791  -0.779021  -0.075714   0.098609  -0.171677
     4  C    0.040234  -0.015575   0.002260  -0.030654   0.001252  -0.045489
     5  O    0.002932   0.008049   0.174696  -0.052371  -0.001813   0.006513
     6  C   -0.008933  -0.035778  -0.226068  -0.019274   0.009665  -0.007631
     7  C    5.715048  -0.038127   0.035719   0.008470   0.095622   0.079636
     8  C   -0.038127   6.752832   0.433403  -0.198088  -0.050120  -0.003915
     9  C    0.035719   0.433403   5.820396   0.052065  -0.067893   0.106775
    10  C    0.008470  -0.198088   0.052065   5.932099   0.005384   0.013371
    11  O    0.095622  -0.050120  -0.067893   0.005384   8.197609  -0.054731
    12  O    0.079636  -0.003915   0.106775   0.013371  -0.054731   8.404529
    13  C    0.243812  -0.007609  -0.010909   0.043132  -0.065423  -0.049621
    14  H   -0.089527  -0.000891   0.000083  -0.000478  -0.001737  -0.002118
    15  H   -0.032236   0.003374   0.000505   0.000232   0.008334   0.001639
    16  H    0.007459  -0.057869  -0.096534  -0.004364   0.005215  -0.088900
    17  H    0.009847   0.000792   0.000113  -0.000562  -0.004564  -0.001718
    18  H    0.008691   0.011736  -0.001040  -0.007982   0.001580  -0.000504
    19  H   -0.000349  -0.001885   0.023181  -0.022574   0.000282   0.000348
    20  H    0.004611   0.022928  -0.031969  -0.077492  -0.000325  -0.000940
    21  H    0.518339  -0.019557   0.034150   0.019967  -0.030368   0.001097
    22  H    0.439616   0.004117  -0.000503  -0.002653  -0.063872   0.004182
    23  H   -0.021918   0.449865  -0.056781  -0.091779  -0.001957  -0.010848
    24  H   -0.007209   0.424238   0.007869  -0.012827   0.000100  -0.002165
    25  H    0.000849   0.001811   0.009329   0.467272  -0.000484   0.000423
    26  H    0.001068  -0.059001  -0.001722   0.443263  -0.000328  -0.002543
    27  H    0.022937  -0.007988  -0.002746   0.000452  -0.012011   0.007548
    28  H    0.009372   0.016511   0.004295  -0.000452   0.009202  -0.001538
    29  H   -0.002696   0.004271   0.009869  -0.004422  -0.055894  -0.049739
    30  H    0.020004  -0.142519   0.354410   0.015927   0.004635  -0.014128
    31  H    0.000169   0.003444   0.470181   0.022076  -0.017769   0.006909
              13         14         15         16         17         18
     1  C   -0.081062   0.470125   0.432977   0.000357  -0.025816  -0.097816
     2  C   -0.975612   0.040834  -0.007296  -0.035091   0.009225  -0.005064
     3  C    0.082407   0.000202  -0.004744   0.528177   0.002206   0.001106
     4  C   -0.347997   0.004476  -0.049971   0.001997   0.409923   0.566230
     5  O    0.001063  -0.000038   0.000000   0.005209  -0.000011   0.000145
     6  C   -0.002033   0.000055   0.000265  -0.007057  -0.000274  -0.000696
     7  C    0.243812  -0.089527  -0.032236   0.007459   0.009847   0.008691
     8  C   -0.007609  -0.000891   0.003374  -0.057869   0.000792   0.011736
     9  C   -0.010909   0.000083   0.000505  -0.096534   0.000113  -0.001040
    10  C    0.043132  -0.000478   0.000232  -0.004364  -0.000562  -0.007982
    11  O   -0.065423  -0.001737   0.008334   0.005215  -0.004564   0.001580
    12  O   -0.049621  -0.002118   0.001639  -0.088900  -0.001718  -0.000504
    13  C    6.799048  -0.056714   0.013453   0.008352  -0.031929  -0.092678
    14  H   -0.056714   0.482377  -0.011010   0.000235  -0.001928   0.001359
    15  H    0.013453  -0.011010   0.483533  -0.000221  -0.005779  -0.003233
    16  H    0.008352   0.000235  -0.000221   0.480594  -0.000250   0.001370
    17  H   -0.031929  -0.001928  -0.005779  -0.000250   0.458869  -0.005937
    18  H   -0.092678   0.001359  -0.003233   0.001370  -0.005937   0.469734
    19  H    0.000017  -0.000010   0.000025  -0.002384  -0.000003  -0.000226
    20  H   -0.001236   0.000027   0.000068   0.004137  -0.000011   0.000697
    21  H    0.011395   0.002722   0.000263  -0.000261  -0.002880   0.005427
    22  H   -0.003912  -0.006722  -0.008234   0.000012   0.002131  -0.002073
    23  H    0.002240   0.000436  -0.001550   0.008235  -0.000035  -0.005769
    24  H   -0.016556   0.000267  -0.000124  -0.011255  -0.000087  -0.000750
    25  H    0.001063  -0.000020  -0.000002   0.000293   0.000036   0.000375
    26  H   -0.000605  -0.000022   0.000055  -0.001492   0.000022   0.000224
    27  H    0.502504  -0.005602  -0.001234   0.000463  -0.001560   0.000485
    28  H    0.453144  -0.001921   0.001023  -0.001391  -0.008810  -0.000857
    29  H   -0.085182   0.001356   0.001103   0.001452   0.002217  -0.000998
    30  H   -0.003606   0.000754   0.000380   0.009404  -0.000188  -0.000512
    31  H   -0.000285  -0.000302   0.000091  -0.010795   0.000098  -0.000560
              19         20         21         22         23         24
     1  C    0.000329   0.000067  -0.164027  -0.007652   0.027101   0.002425
     2  C    0.000360  -0.003471  -0.016560  -0.013566   0.008295   0.024002
     3  C   -0.003506   0.023990  -0.031180   0.002502   0.066480  -0.040933
     4  C   -0.000103   0.000956   0.025651   0.010007  -0.013733   0.004957
     5  O   -0.073314  -0.036260   0.000232   0.001496   0.000492  -0.001404
     6  C    0.415927   0.470372  -0.018392   0.000189   0.009846   0.009844
     7  C   -0.000349   0.004611   0.518339   0.439616  -0.021918  -0.007209
     8  C   -0.001885   0.022928  -0.019557   0.004117   0.449865   0.424238
     9  C    0.023181  -0.031969   0.034150  -0.000503  -0.056781   0.007869
    10  C   -0.022574  -0.077492   0.019967  -0.002653  -0.091779  -0.012827
    11  O    0.000282  -0.000325  -0.030368  -0.063872  -0.001957   0.000100
    12  O    0.000348  -0.000940   0.001097   0.004182  -0.010848  -0.002165
    13  C    0.000017  -0.001236   0.011395  -0.003912   0.002240  -0.016556
    14  H   -0.000010   0.000027   0.002722  -0.006722   0.000436   0.000267
    15  H    0.000025   0.000068   0.000263  -0.008234  -0.001550  -0.000124
    16  H   -0.002384   0.004137  -0.000261   0.000012   0.008235  -0.011255
    17  H   -0.000003  -0.000011  -0.002880   0.002131  -0.000035  -0.000087
    18  H   -0.000226   0.000697   0.005427  -0.002073  -0.005769  -0.000750
    19  H    0.467959  -0.010663  -0.000188   0.000078  -0.001079   0.001065
    20  H   -0.010663   0.506007  -0.004318  -0.000086  -0.003678  -0.000327
    21  H   -0.000188  -0.004318   0.575118  -0.030075  -0.033506   0.001635
    22  H    0.000078  -0.000086  -0.030075   0.465298   0.003585  -0.000073
    23  H   -0.001079  -0.003678  -0.033506   0.003585   0.512453  -0.022390
    24  H    0.001065  -0.000327   0.001635  -0.000073  -0.022390   0.475127
    25  H   -0.004122   0.001337   0.000816   0.000090   0.000882  -0.006833
    26  H   -0.009009   0.007328   0.000739  -0.000079  -0.008680  -0.009455
    27  H    0.000007  -0.000050  -0.000593   0.001331  -0.000085  -0.000255
    28  H   -0.000013   0.000064   0.000063   0.000819  -0.000003   0.000297
    29  H   -0.000017  -0.000227  -0.001973   0.000532  -0.000369   0.000752
    30  H   -0.000813  -0.004013  -0.011884  -0.008468  -0.000402  -0.001719
    31  H    0.002916  -0.002620   0.004061   0.000863  -0.003411  -0.000323
              25         26         27         28         29         30
     1  C   -0.000665  -0.000838  -0.032299  -0.001337  -0.006923  -0.030644
     2  C   -0.005719  -0.001806  -0.123553  -0.040776   0.507270  -0.018810
     3  C   -0.022372   0.021668   0.020848  -0.035841  -0.031314   0.165140
     4  C    0.000707   0.000615   0.003951  -0.045559   0.005453  -0.004780
     5  O   -0.007193   0.007387  -0.000068   0.000112   0.000619  -0.047711
     6  C   -0.079330  -0.040246   0.000251  -0.000152  -0.001626  -0.014918
     7  C    0.000849   0.001068   0.022937   0.009372  -0.002696   0.020004
     8  C    0.001811  -0.059001  -0.007988   0.016511   0.004271  -0.142519
     9  C    0.009329  -0.001722  -0.002746   0.004295   0.009869   0.354410
    10  C    0.467272   0.443263   0.000452  -0.000452  -0.004422   0.015927
    11  O   -0.000484  -0.000328  -0.012011   0.009202  -0.055894   0.004635
    12  O    0.000423  -0.002543   0.007548  -0.001538  -0.049739  -0.014128
    13  C    0.001063  -0.000605   0.502504   0.453144  -0.085182  -0.003606
    14  H   -0.000020  -0.000022  -0.005602  -0.001921   0.001356   0.000754
    15  H   -0.000002   0.000055  -0.001234   0.001023   0.001103   0.000380
    16  H    0.000293  -0.001492   0.000463  -0.001391   0.001452   0.009404
    17  H    0.000036   0.000022  -0.001560  -0.008810   0.002217  -0.000188
    18  H    0.000375   0.000224   0.000485  -0.000857  -0.000998  -0.000512
    19  H   -0.004122  -0.009009   0.000007  -0.000013  -0.000017  -0.000813
    20  H    0.001337   0.007328  -0.000050   0.000064  -0.000227  -0.004013
    21  H    0.000816   0.000739  -0.000593   0.000063  -0.001973  -0.011884
    22  H    0.000090  -0.000079   0.001331   0.000819   0.000532  -0.008468
    23  H    0.000882  -0.008680  -0.000085  -0.000003  -0.000369  -0.000402
    24  H   -0.006833  -0.009455  -0.000255   0.000297   0.000752  -0.001719
    25  H    0.475095  -0.006871   0.000005  -0.000040  -0.000107  -0.002825
    26  H   -0.006871   0.491199  -0.000024   0.000054  -0.000168  -0.000767
    27  H    0.000005  -0.000024   0.440141  -0.004188  -0.005816  -0.000111
    28  H   -0.000040   0.000054  -0.004188   0.473866  -0.012434  -0.000844
    29  H   -0.000107  -0.000168  -0.005816  -0.012434   0.480647   0.004450
    30  H   -0.002825  -0.000767  -0.000111  -0.000844   0.004450   0.514576
    31  H   -0.000373   0.001761   0.000023   0.000604  -0.004407  -0.018392
              31
     1  C   -0.003206
     2  C   -0.004141
     3  C   -0.068681
     4  C   -0.000652
     5  O   -0.065380
     6  C   -0.002556
     7  C    0.000169
     8  C    0.003444
     9  C    0.470181
    10  C    0.022076
    11  O   -0.017769
    12  O    0.006909
    13  C   -0.000285
    14  H   -0.000302
    15  H    0.000091
    16  H   -0.010795
    17  H    0.000098
    18  H   -0.000560
    19  H    0.002916
    20  H   -0.002620
    21  H    0.004061
    22  H    0.000863
    23  H   -0.003411
    24  H   -0.000323
    25  H   -0.000373
    26  H    0.001761
    27  H    0.000023
    28  H    0.000604
    29  H   -0.004407
    30  H   -0.018392
    31  H    0.459115
 Mulliken charges:
               1
     1  C   -0.347694
     2  C   -0.129798
     3  C   -0.287291
     4  C   -0.315395
     5  O   -0.348456
     6  C   -0.209306
     7  C   -0.217199
     8  C   -0.112731
     9  C   -0.331043
    10  C   -0.332475
    11  O   -0.241378
    12  O   -0.301198
    13  C   -0.328661
    14  H    0.173732
    15  H    0.178313
    16  H    0.254903
    17  H    0.196861
    18  H    0.157537
    19  H    0.217762
    20  H    0.135093
    21  H    0.164091
    22  H    0.211119
    23  H    0.188061
    24  H    0.182105
    25  H    0.176575
    26  H    0.168272
    27  H    0.197236
    28  H    0.186730
    29  H    0.244321
    30  H    0.238374
    31  H    0.231541
 Sum of Mulliken charges =  -0.00000
 Mulliken charges with hydrogens summed into heavy atoms:
               1
     1  C    0.004350
     2  C    0.114524
     3  C   -0.032388
     4  C    0.039003
     5  O   -0.348456
     6  C    0.143548
     7  C    0.158012
     8  C    0.257435
     9  C    0.138872
    10  C    0.012372
    11  O   -0.241378
    12  O   -0.301198
    13  C    0.055305
 Electronic spatial extent (au):  <R**2>=           2726.6562
 Charge=              0.0000 electrons
 Dipole moment (field-independent basis, Debye):
    X=              1.5533    Y=             -0.2668    Z=              3.0295  Tot=              3.4149
 Quadrupole moment (field-independent basis, Debye-Ang):
   XX=            -77.2034   YY=            -82.7172   ZZ=            -78.5683
   XY=              2.6640   XZ=             -4.5236   YZ=              2.7405
 Traceless Quadrupole moment (field-independent basis, Debye-Ang):
   XX=              2.2929   YY=             -3.2209   ZZ=              0.9280
   XY=              2.6640   XZ=             -4.5236   YZ=              2.7405
 Octapole moment (field-independent basis, Debye-Ang**2):
  XXX=             17.2287  YYY=              4.7961  ZZZ=             -7.7382  XYY=             -0.1333
  XXY=            -10.8611  XXZ=             20.7704  XZZ=              2.9935  YZZ=              1.2266
  YYZ=              5.2494  XYZ=             -0.3150
 Hexadecapole moment (field-independent basis, Debye-Ang**3):
 XXXX=          -2518.3578 YYYY=           -527.7900 ZZZZ=           -500.1560 XXXY=             15.0011
 XXXZ=            -69.1496 YYYX=              7.6170 YYYZ=              7.2505 ZZZX=             -4.2504
 ZZZY=             -1.2027 XXYY=           -525.0931 XXZZ=           -520.8140 YYZZ=           -179.9230
 XXYZ=             22.3789 YYXZ=              3.1601 ZZXY=              2.6017
 N-N= 9.098365461456D+02 E-N=-3.261379173600D+03  KE= 6.153257885072D+02
 D1PCM: PCM CHGder 1st derivatives, ID1Alg=3 FixD1E=F DoIter=F DoCFld=F I1PDM=0.
 Calling FoFJK, ICntrl=      2127 FMM=F ISym2X=0 I1Cent= 0 IOpClX= 0 NMat=1 NMatS=1 NMatT=0.
 ***** Axes restored to original set *****
 -------------------------------------------------------------------
 Center     Atomic                   Forces (Hartrees/Bohr)
 Number     Number              X              Y              Z
 -------------------------------------------------------------------
      1        6           0.002347548   -0.001831932   -0.000391644
      2        6           0.004247980    0.002958276    0.003427628
      3        6          -0.004666770    0.005433829    0.002976168
      4        6           0.001084034    0.002927320    0.002787619
      5        8           0.006562632    0.001863935    0.006794353
      6        6          -0.004706527   -0.004763013    0.002076155
      7        6          -0.005315621   -0.005247828    0.002770832
      8        6           0.003969739    0.001276765    0.003521790
      9        6           0.003426053   -0.006047927   -0.003294200
     10        6          -0.002038195    0.002075820   -0.000839480
     11        8           0.000209260    0.006705404    0.001689746
     12        8          -0.005035603   -0.011043095   -0.016337892
     13        6           0.001386594   -0.000040251   -0.002380821
     14        1          -0.001987828    0.001570374    0.002068374
     15        1          -0.000490851    0.000203710   -0.002763500
     16        1           0.004717116   -0.002561944    0.003335666
     17        1          -0.002247695   -0.000930049   -0.000650290
     18        1           0.003401355   -0.001445594   -0.001218976
     19        1           0.004357460    0.000381744    0.000049402
     20        1          -0.002811898    0.003426281   -0.004472799
     21        1           0.005571024   -0.003400910   -0.004513291
     22        1           0.000211672    0.004488754   -0.000604566
     23        1          -0.002713712    0.003199987   -0.002403819
     24        1          -0.001298420   -0.002744509   -0.000106039
     25        1           0.001378598   -0.001804359    0.002256452
     26        1           0.000655631   -0.000733746   -0.002845854
     27        1          -0.002491390    0.001901911    0.001599351
     28        1           0.000778943   -0.003084543    0.000737292
     29        1          -0.000987806    0.001934412    0.007283168
     30        1          -0.005307230    0.004179979   -0.005101956
     31        1          -0.002206094    0.001151198    0.004551131
 -------------------------------------------------------------------
 Cartesian Forces:  Max     0.016337892 RMS     0.003812904

 GradGradGradGradGradGradGradGradGradGradGradGradGradGradGradGradGradGrad
 Berny optimization.
 FormGI is forming the generalized inverse of G from B-inverse, IUseBI=4.
 Internal  Forces:  Max     0.020620309 RMS     0.002503086
 Search for a local minimum.
 Step number   1 out of a maximum of  186
 All quantities printed in internal units (Hartrees-Bohrs-Radians)
 Mixed Optimization -- RFO/linear search
 Second derivative matrix not updated -- first step.
 ITU=  0
     Eigenvalues ---    0.00623   0.00660   0.00724   0.00736   0.01358
     Eigenvalues ---    0.01401   0.01448   0.02666   0.02688   0.03080
     Eigenvalues ---    0.03145   0.03959   0.04116   0.04658   0.04717
     Eigenvalues ---    0.04821   0.04850   0.05072   0.05163   0.05261
     Eigenvalues ---    0.05264   0.05665   0.05753   0.06111   0.06161
     Eigenvalues ---    0.06317   0.06362   0.06809   0.07369   0.07757
     Eigenvalues ---    0.07790   0.07908   0.08007   0.08068   0.08179
     Eigenvalues ---    0.08320   0.08939   0.09555   0.10581   0.11503
     Eigenvalues ---    0.11665   0.11700   0.11793   0.12492   0.12521
     Eigenvalues ---    0.14851   0.14880   0.16424   0.16814   0.17959
     Eigenvalues ---    0.19288   0.21833   0.22032   0.25000   0.28242
     Eigenvalues ---    0.28557   0.28653   0.28993   0.29134   0.29172
     Eigenvalues ---    0.29974   0.30390   0.35087   0.35109   0.35135
     Eigenvalues ---    0.35156   0.35179   0.35256   0.35282   0.35331
     Eigenvalues ---    0.35335   0.35354   0.35356   0.35511   0.35716
     Eigenvalues ---    0.35767   0.35820   0.35868   0.35896   0.35957
     Eigenvalues ---    0.40510   0.41396   0.41685   0.42158   0.43664
     Eigenvalues ---    0.451211000.000001000.000001000.000001000.00000
     Eigenvalues --- 1000.000001000.000001000.000001000.000001000.00000
     Eigenvalues --- 1000.000001000.000001000.000001000.000001000.00000
     Eigenvalues --- 1000.000001000.000001000.000001000.000001000.00000
     Eigenvalues --- 1000.000001000.000001000.000001000.000001000.00000
     Eigenvalues --- 1000.000001000.000001000.000001000.000001000.00000
     Eigenvalues --- 1000.000001000.000001000.000001000.000001000.00000
     Eigenvalues --- 1000.000001000.000001000.000001000.000001000.00000
     Eigenvalues --- 1000.000001000.000001000.000001000.000001000.00000
     Eigenvalues --- 1000.000001000.000001000.000001000.000001000.00000
     Eigenvalues --- 1000.000001000.000001000.000001000.000001000.00000
     Eigenvalues --- 1000.000001000.000001000.000001000.000001000.00000
     Eigenvalues --- 1000.000001000.000001000.000001000.000001000.00000
     Eigenvalues --- 1000.000001000.000001000.000001000.000001000.00000
     Eigenvalues --- 1000.000001000.000001000.000001000.000001000.00000
     Eigenvalues --- 1000.000001000.000001000.000001000.000001000.00000
     Eigenvalues --- 1000.000001000.000001000.000001000.000001000.00000
     Eigenvalues --- 1000.000001000.000001000.000001000.000001000.00000
     Eigenvalues --- 1000.000001000.000001000.000001000.000001000.00000
     Eigenvalues --- 1000.000001000.000001000.000001000.000001000.00000
 RFO step:  Lambda=-5.38228915D-03 EMin= 6.22792879D-03
 Linear search not attempted -- first point.
 Iteration  1 RMS(Cart)=  0.11865934 RMS(Int)=  0.00221261
 Iteration  2 RMS(Cart)=  0.00522417 RMS(Int)=  0.00009729
 Iteration  3 RMS(Cart)=  0.00001361 RMS(Int)=  0.00009708
 Iteration  4 RMS(Cart)=  0.00000000 RMS(Int)=  0.00009708
 Iteration  1 RMS(Cart)=  0.00013648 RMS(Int)=  0.00002598
 Iteration  2 RMS(Cart)=  0.00007087 RMS(Int)=  0.00002905
 Iteration  3 RMS(Cart)=  0.00003680 RMS(Int)=  0.00003262
 Iteration  4 RMS(Cart)=  0.00001911 RMS(Int)=  0.00003485
 Iteration  5 RMS(Cart)=  0.00000992 RMS(Int)=  0.00003609
 Iteration  6 RMS(Cart)=  0.00000515 RMS(Int)=  0.00003675
 Iteration  7 RMS(Cart)=  0.00000268 RMS(Int)=  0.00003710
 Iteration  8 RMS(Cart)=  0.00000139 RMS(Int)=  0.00003728
 Iteration  9 RMS(Cart)=  0.00000072 RMS(Int)=  0.00003737
 Variable       Old X    -DE/DX   Delta X   Delta X   Delta X     New X
                                 (Linear)    (Quad)   (Total)
    R1        2.88561  -0.00110   0.00000  -0.00247  -0.00254   2.88307
    R2        2.86876  -0.00024   0.00000  -0.00057  -0.00065   2.86811
    R3        2.05498   0.00318   0.00000   0.00891   0.00891   2.06389
    R4        2.05262   0.00280   0.00000   0.00781   0.00781   2.06043
    R5        2.63374   0.00404   0.00000   0.00785   0.00792   2.64166
    R6        2.66858   0.00164   0.00000   0.00371   0.00371   2.67229
    R7        2.87533  -0.00079   0.00000  -0.00286  -0.00278   2.87255
    R8        2.04448   0.00747   0.00000   0.02057   0.02057   2.06505
    R9        2.88062  -0.00175   0.00000  -0.00573  -0.00571   2.87491
   R10        2.89161  -0.00028   0.00000  -0.00065  -0.00063   2.89098
   R11        2.68722  -0.00080   0.00000  -0.00188  -0.00188   2.68534
   R12        2.05103   0.00604   0.00000   0.01684   0.01684   2.06787
   R13        2.88495  -0.00114   0.00000  -0.00367  -0.00365   2.88130
   R14        2.05134   0.00252   0.00000   0.00701   0.00701   2.05836
   R15        2.05456   0.00372   0.00000   0.01043   0.01043   2.06500
   R16        2.67751   0.00321   0.00000   0.00741   0.00739   2.68491
   R17        2.67357   0.00393   0.00000   0.00892   0.00897   2.68254
   R18        2.87396   0.00056   0.00000   0.00153   0.00151   2.87547
   R19        2.04363   0.00437   0.00000   0.01203   0.01203   2.05566
   R20        2.05533   0.00618   0.00000   0.01735   0.01735   2.07268
   R21        2.69223   0.00258   0.00000   0.00596   0.00595   2.69818
   R22        2.04528   0.00791   0.00000   0.02181   0.02181   2.06709
   R23        2.04288   0.00453   0.00000   0.01244   0.01244   2.05532
   R24        2.89594  -0.00084   0.00000  -0.00278  -0.00283   2.89311
   R25        2.05101   0.00474   0.00000   0.01321   0.01321   2.06421
   R26        2.05141   0.00295   0.00000   0.00822   0.00822   2.05963
   R27        2.04149   0.00813   0.00000   0.02228   0.02228   2.06377
   R28        2.04244   0.00506   0.00000   0.01388   0.01388   2.05632
   R29        2.05423   0.00312   0.00000   0.00875   0.00875   2.06298
   R30        2.05219   0.00299   0.00000   0.00834   0.00834   2.06053
   R31        2.05384   0.00348   0.00000   0.00974   0.00974   2.06359
   R32        2.04854   0.00320   0.00000   0.00888   0.00888   2.05741
    A1        1.91631  -0.00129   0.00000  -0.00496  -0.00516   1.91115
    A2        1.91687   0.00093   0.00000   0.00176   0.00182   1.91869
    A3        1.94345  -0.00026   0.00000  -0.00075  -0.00072   1.94274
    A4        1.91394   0.00014   0.00000  -0.00327  -0.00324   1.91070
    A5        1.89613   0.00056   0.00000   0.00387   0.00396   1.90008
    A6        1.87655  -0.00004   0.00000   0.00348   0.00345   1.88000
    A7        2.01040  -0.00142   0.00000  -0.02587  -0.02597   1.98443
    A8        1.97060   0.00276   0.00000   0.00856   0.00787   1.97847
    A9        1.80879  -0.00022   0.00000   0.00265   0.00283   1.81163
   A10        1.88685  -0.00429   0.00000  -0.02514  -0.02548   1.86137
   A11        1.86730   0.00407   0.00000   0.03556   0.03585   1.90315
   A12        1.91467  -0.00049   0.00000   0.00959   0.00962   1.92429
   A13        1.92259  -0.00030   0.00000  -0.01055  -0.01072   1.91186
   A14        1.93485  -0.00009   0.00000  -0.00656  -0.00701   1.92785
   A15        1.87871   0.00042   0.00000   0.00639   0.00642   1.88514
   A16        2.05599  -0.00125   0.00000  -0.01649  -0.01672   2.03927
   A17        1.83973   0.00013   0.00000   0.00658   0.00666   1.84639
   A18        1.81873   0.00136   0.00000   0.02602   0.02613   1.84486
   A19        1.90194   0.00237   0.00000   0.00246   0.00250   1.90444
   A20        1.93397  -0.00027   0.00000   0.00155   0.00155   1.93551
   A21        1.91582  -0.00113   0.00000  -0.00334  -0.00337   1.91245
   A22        1.91688  -0.00074   0.00000   0.00196   0.00196   1.91884
   A23        1.92603  -0.00098   0.00000  -0.00738  -0.00742   1.91861
   A24        1.86922   0.00069   0.00000   0.00464   0.00466   1.87388
   A25        1.97103  -0.00454   0.00000  -0.02732  -0.02723   1.94380
   A26        1.93590   0.00209   0.00000   0.00958   0.00964   1.94554
   A27        1.85697  -0.00125   0.00000  -0.00341  -0.00340   1.85357
   A28        1.90091   0.00061   0.00000   0.00597   0.00597   1.90688
   A29        1.94444  -0.00033   0.00000  -0.00267  -0.00269   1.94175
   A30        1.93205  -0.00171   0.00000  -0.01038  -0.01042   1.92163
   A31        1.89125   0.00060   0.00000   0.00128   0.00125   1.89250
   A32        1.95926   0.00222   0.00000   0.00555   0.00540   1.96465
   A33        1.92157  -0.00120   0.00000  -0.00423  -0.00421   1.91736
   A34        1.94724  -0.00026   0.00000  -0.00187  -0.00183   1.94541
   A35        1.91050  -0.00002   0.00000   0.00211   0.00219   1.91269
   A36        1.83499  -0.00113   0.00000  -0.00164  -0.00161   1.83338
   A37        1.88721   0.00037   0.00000   0.00015   0.00013   1.88734
   A38        1.90861   0.00137   0.00000  -0.00097  -0.00095   1.90765
   A39        1.91936  -0.00096   0.00000  -0.00669  -0.00667   1.91269
   A40        1.91204  -0.00073   0.00000  -0.00367  -0.00371   1.90833
   A41        1.91970  -0.00044   0.00000   0.00134   0.00128   1.92098
   A42        1.92687   0.00035   0.00000   0.00742   0.00744   1.93431
   A43        1.87711   0.00036   0.00000   0.00256   0.00253   1.87964
   A44        1.88028   0.00150   0.00000   0.01041   0.01048   1.89076
   A45        1.96546  -0.00238   0.00000  -0.01739  -0.01750   1.94795
   A46        1.94610  -0.00054   0.00000  -0.00732  -0.00747   1.93863
   A47        1.89792   0.00157   0.00000   0.01474   0.01483   1.91274
   A48        1.86626  -0.00042   0.00000   0.00616   0.00615   1.87241
   A49        1.90448   0.00044   0.00000  -0.00451  -0.00474   1.89974
   A50        1.93314  -0.00107   0.00000  -0.00655  -0.00663   1.92650
   A51        1.90190   0.00000   0.00000  -0.00090  -0.00086   1.90104
   A52        1.90899   0.00073   0.00000   0.00435   0.00434   1.91332
   A53        1.91513   0.00071   0.00000   0.00033   0.00033   1.91546
   A54        1.92956  -0.00028   0.00000  -0.00001   0.00003   1.92959
   A55        1.87399  -0.00004   0.00000   0.00309   0.00307   1.87706
   A56        2.06535  -0.00476   0.00000  -0.03228  -0.03206   2.03329
   A57        2.25817  -0.02062   0.00000  -0.08074  -0.08074   2.17743
   A58        1.96170  -0.00145   0.00000  -0.01477  -0.01477   1.94693
   A59        1.86985  -0.00003   0.00000   0.00678   0.00681   1.87666
   A60        1.89722   0.00059   0.00000  -0.00509  -0.00525   1.89196
   A61        1.90543   0.00146   0.00000   0.01251   0.01258   1.91801
   A62        1.95221  -0.00054   0.00000  -0.00512  -0.00536   1.94686
   A63        1.87360   0.00005   0.00000   0.00721   0.00723   1.88083
    D1        0.97317   0.00001   0.00000   0.00220   0.00214   0.97531
    D2        3.08426   0.00045   0.00000   0.00720   0.00719   3.09145
    D3       -1.13793   0.00043   0.00000   0.01179   0.01177  -1.12616
    D4       -1.13271   0.00007   0.00000   0.00827   0.00825  -1.12447
    D5        0.97838   0.00051   0.00000   0.01327   0.01329   0.99167
[...]
 0017388,-0.00007456,-0.00000687,0.00001194,0.00000039,-0.00000708,-0.0
 0000100,-0.00000144,-0.00000073,-0.00000044,-0.00000278,0.00024134,0.0
 0013775,0.00017073,-0.00000510,-0.00000065,-0.00000122,-0.00000329,0.0
 0000528,0.00000428,0.00026748,0.00071937,0.00027152,-0.00014657,-0.001
 88536,0.00046873,-0.00001472,0.00000956,0.00001676,0.00000040,0.000004
 67,0.00000167,0.00064045,-0.00024615,0.00081253,-0.00039999,-0.0000716
 2,0.00027207,0.08321680,-0.10492576,0.14051157,0.00000921,-0.00000392,
 -0.00000493,0.00075764,-0.00119982,0.00028124,-0.00410495,-0.00215670,
 -0.00345689,-0.00001895,-0.00001778,0.00001790,0.00139196,-0.00237678,
 -0.00145272,0.00099476,0.00124060,-0.00728555,0.00008595,-0.00004841,0
 .00012115,-0.00981091,0.00614511,0.03327030,-0.00065355,-0.00070543,-0
 .00018309,-0.06417428,0.00969842,0.06692309,-0.00007771,0.00036902,-0.
 00017725,-0.00314475,0.00098674,0.00215145,-0.00007165,0.00012389,0.00
 006908,-0.00001194,0.00000043,0.00000342,-0.00000974,0.00000389,-0.000
 01512,0.00021598,-0.00017450,0.00012386,-0.00001914,0.00000033,-0.0000
 2114,0.00000467,0.00001342,0.00001023,-0.00009404,0.00066456,0.0002821
 7,0.00028158,0.00015006,0.00016987,0.00001463,-0.00002663,0.00001328,-
 0.00001367,0.00002158,-0.00001577,0.00144361,0.00045691,-0.00045076,0.
 00134532,-0.00028691,-0.00049770,0.00423370,-0.00346326,-0.01557829,0.
 07139868,0.00000310,-0.00000416,0.00000016,0.00000060,-0.00028966,0.00
 003782,-0.00112956,0.00017802,-0.00004339,0.00000074,-0.00000548,0.000
 00236,-0.00031537,-0.00761169,-0.00565755,0.01023043,0.00042936,-0.028
 17566,0.00000722,0.00001371,-0.00002304,-0.00048970,0.00037196,0.00631
 361,-0.00203645,-0.00015434,0.00044777,0.00948312,-0.05463462,-0.03428
 712,0.00009634,0.00007908,0.00000373,-0.00070063,0.00056967,0.00043597
 ,-0.00003013,0.00004198,0.00002420,0.00000020,0.00000122,0.00000106,0.
 00000119,0.00000186,0.00000022,-0.00009815,-0.00011165,-0.00044695,-0.
 00000147,0.00000128,-0.00000274,0.00000065,0.00000242,0.00000033,-0.00
 053710,0.00094671,0.00052325,0.00060775,0.00097547,0.00097015,-0.00000
 313,-0.00001382,-0.00000740,-0.00000514,0.00000344,0.00000032,0.000169
 69,0.00022764,-0.00038029,0.00053650,0.00005145,0.00023729,-0.00643169
 ,0.00335817,0.01998923,-0.00979787,0.05539686,-0.00000017,-0.00000752,
 -0.00000548,-0.00035032,0.00033022,0.00006492,-0.00016644,0.00023954,0
 .00175828,0.00000638,0.00000853,-0.00000430,0.00007118,-0.00325275,-0.
 00046655,0.00224325,0.00176512,-0.00819491,-0.00005923,0.00003632,-0.0
 0004219,-0.00008140,0.00030813,-0.00110645,-0.00087877,0.00037648,0.00
 026578,0.06792751,-0.03625523,-0.29201446,0.00012429,-0.00010852,0.000
 04843,0.00062495,-0.00037219,-0.00027983,0.00002740,-0.00004523,-0.000
 03084,0.00001269,0.00000229,0.00000011,0.00000550,-0.00000026,0.000008
 69,-0.00004861,0.00005430,0.00032186,0.00001103,0.00000044,0.00000696,
 -0.00000276,-0.00000947,-0.00000839,-0.00027466,-0.00017468,0.00011882
 ,0.00000496,-0.00032975,0.00046400,-0.00000069,0.00000853,-0.00002660,
 0.00001274,-0.00001408,0.00000256,0.00033133,-0.00005423,0.00058839,0.
 00028717,0.00025109,0.00004257,0.00425562,-0.00264880,-0.01630694,-0.0
 7434852,0.03998465,0.31491627,0.00013865,-0.00020045,-0.00003589,-0.01
 893062,0.01509939,0.01451011,0.00100148,0.00106367,-0.00115542,0.00415
 564,-0.00212720,-0.00273240,-0.00030931,-0.00028471,0.00006679,0.00004
 411,0.00004706,-0.00013269,-0.00024145,-0.00003169,-0.00008889,-0.0002
 6828,-0.00009909,-0.00015020,0.00000013,0.00041026,0.00008483,0.000058
 53,0.00004609,0.00017054,0.00176654,-0.00027178,-0.00040909,-0.0086282
 5,-0.00252813,-0.00005560,-0.20266039,0.08398380,0.09437289,-0.0001572
 0,-0.00026191,0.00019056,0.00005202,-0.00018932,0.00001849,-0.00063438
 ,-0.00008061,0.00009321,0.00062463,-0.00027022,0.00053688,0.00088113,0
 .00040464,-0.00142141,-0.00002405,-0.00001449,0.00001029,0.00001015,-0
 .00000892,0.00002114,0.00002150,0.00008674,-0.00002013,0.00001200,-0.0
 0002846,0.00002982,0.00002834,-0.00000861,0.00003087,0.00001884,0.0000
 2107,0.00000568,-0.00000447,-0.00000081,-0.00000793,-0.00007780,-0.000
 01812,0.00003074,0.22191212,-0.00082873,0.00070149,0.00062266,-0.01150
 630,0.00440202,0.00748065,-0.00033950,0.00078116,-0.00012833,-0.002882
 21,0.00055311,0.00122026,0.00002130,-0.00000646,0.00000674,0.00000475,
 0.00001026,-0.00000109,-0.00022862,0.00001667,0.00005062,-0.00005541,-
 0.00000993,-0.00005347,0.00009459,0.00004218,-0.00002495,0.00000209,0.
 00000806,0.00003379,0.00051950,0.00064516,-0.00051514,-0.00249727,-0.0
 0035561,-0.00039408,0.08828242,-0.09904776,-0.05350574,0.00019189,0.00
 016100,0.00015752,-0.00001389,0.00008759,-0.00008732,-0.00019595,-0.00
 002781,0.00004860,0.00004619,0.00010499,-0.00036814,-0.00029177,0.0008
 6598,0.00070101,-0.00000097,-0.00000141,-0.00000067,0.00000019,-0.0000
 0168,0.00000062,0.00006181,-0.00004147,-0.00004788,0.00002404,0.000016
 35,0.00001125,0.00000865,-0.00000249,0.00001948,0.00000181,0.00000356,
 0.00000250,0.00000586,-0.00000103,0.00000001,-0.00001161,-0.00000521,0
 .00000514,-0.09482697,0.10238598,0.00059093,-0.00136209,0.00138865,-0.
 00722658,0.00508289,0.00325877,-0.00011068,0.00031260,0.00008604,0.025
 94917,-0.01443562,-0.01884489,-0.00009331,-0.00010087,0.00002306,0.000
 01547,0.00001576,-0.00004367,-0.00008322,0.00010980,-0.00024906,-0.000
 19124,-0.00002635,-0.00007559,-0.00000601,0.00015392,0.00003153,0.0000
 2485,0.00001671,0.00010508,0.00043832,0.00037587,0.00002056,-0.0041688
 0,-0.00098236,0.00078323,0.09658937,-0.05369448,-0.10566287,-0.0003362
 9,0.00082965,0.00008250,-0.00050317,-0.00005618,0.00025054,-0.00015326
 ,-0.00000472,0.00001000,-0.00034474,-0.00020280,0.00152139,-0.00104313
 ,0.00144436,-0.00616526,-0.00000641,-0.00000326,0.00000327,0.00000244,
 -0.00000350,0.00000614,-0.00009824,-0.00004436,-0.00001770,0.00007687,
 0.00004486,0.00005865,-0.00001032,-0.00001623,0.00002852,0.00000501,0.
 00001217,0.00000075,0.00000754,0.00000180,-0.00000387,-0.00003712,-0.0
 0000840,0.00001169,-0.10248787,0.05933299,0.11942610,0.00061545,0.0001
 0674,-0.00137794,0.00147755,-0.02604440,0.00910039,0.00023477,-0.00004
 735,0.00018562,-0.00110037,0.00392817,0.00013283,-0.00004434,0.0001144
 6,0.00001508,-0.00000286,-0.00001596,-0.00001840,-0.00018413,0.0004655
 4,-0.00170285,0.00003019,0.00001466,0.00004729,0.00015345,-0.00014951,
 0.00004512,-0.00000510,-0.00000453,-0.00002272,-0.00559369,-0.00580680
 ,-0.00063955,0.00061786,-0.00007291,-0.00028336,-0.04840279,0.00985348
 ,-0.00262218,0.00008242,-0.00049400,0.00000958,0.00041025,0.00038596,-
 0.00026432,0.00008742,0.00002531,-0.00001507,-0.00000865,0.00024188,0.
 00029940,0.00026372,-0.00039549,-0.00003148,-0.00000153,0.00000383,0.0
 0000362,0.00000291,0.00000164,-0.00000120,0.00000350,0.00000653,0.0001
 8768,0.00009597,-0.00000588,0.00016666,-0.00000351,-0.00000188,-0.0000
 2464,-0.00000786,0.00000625,-0.00000023,-0.00000160,0.00000085,-0.0000
 0035,0.00001186,0.00000453,-0.00000239,0.00032554,0.02381177,-0.006859
 06,0.05032519,0.00008353,0.00137213,0.00066400,0.00346400,-0.01485176,
 0.00473443,-0.00016928,0.00051864,0.00012696,0.00022427,-0.00027087,0.
 00008823,-0.00004655,0.00011848,0.00000740,-0.00000119,-0.00001098,-0.
 00001499,0.00038392,0.00050817,-0.00119926,0.00000569,0.00000091,0.000
 02141,0.00021990,-0.00017391,-0.00000105,-0.00000454,0.00000174,-0.000
 01236,-0.00355566,-0.00182756,-0.00077068,0.00188605,0.00114159,-0.000
 32979,0.00465007,-0.30170685,0.06596877,-0.00000564,0.00020018,-0.0000
 9360,-0.00017929,-0.00020110,-0.00010538,-0.00002333,0.00000256,0.0000
 1998,0.00020167,0.00024200,0.00041640,-0.00005447,0.00031471,0.0003780
 5,-0.00000365,0.00000109,0.00000383,0.00000398,0.00000147,-0.00000084,
 -0.00004936,0.00000139,0.00015824,0.00000584,-0.00006512,0.00007891,0.
 00000272,-0.00000010,-0.00003020,-0.00001348,0.00000504,0.00000040,-0.
 00000496,-0.00000090,-0.00000067,0.00000306,0.00000171,0.00000198,-0.0
 0002007,-0.01179264,0.00263048,-0.00673771,0.32604165,-0.00082796,-0.0
 0098946,-0.00710904,0.00280304,-0.00929206,0.00199864,0.00014561,-0.00
 003878,0.00011622,-0.00026472,0.03307451,-0.00702934,-0.00003517,0.000
 00740,0.00001046,0.00000071,0.00000264,-0.00001375,-0.00073111,-0.0001
 7864,-0.00104898,-0.00004642,0.00000826,-0.00001878,0.00001287,-0.0000
 0361,0.00002993,0.00000308,-0.00000314,0.00001931,-0.00293893,-0.00262
 096,0.00109134,0.00012683,0.00004129,0.00006836,-0.00237028,0.06549098
 ,-0.06494074,-0.00017134,-0.00003010,0.00013318,0.00030336,0.00212921,
 -0.00046405,0.00001369,0.00001561,-0.00000525,-0.00025576,-0.00052874,
 0.00146124,0.00054550,-0.00044168,0.00138771,-0.00000174,-0.00000044,0
 .00000144,0.00000161,-0.00000130,0.00000084,0.00006230,-0.00002817,0.0
 0013997,0.00011156,0.00003276,0.00021218,-0.00000199,-0.00000331,0.000
 00959,0.00000365,-0.00000538,0.00000303,0.00000180,0.00000101,-0.00000
 065,-0.00000573,0.00000039,0.00000064,-0.00106298,-0.01474468,0.003466
 79,0.00390726,-0.07235579,0.07044987,0.00011755,-0.00042245,0.00054326
 ,-0.05253606,-0.00677916,-0.00894629,0.00395237,0.00156576,0.00228118,
 -0.00421631,-0.00337998,-0.00005452,-0.00024225,-0.00021736,-0.0000579
 5,0.00003996,0.00009315,-0.00007728,0.00110876,-0.00117627,-0.00054914
 ,-0.00162497,-0.00039703,0.00001031,0.00004845,0.00005880,-0.00004653,
 0.00004652,0.00008618,0.00049885,0.00378751,-0.00195272,0.00704577,-0.
 01425343,0.01669484,0.03162666,-0.00090553,-0.00163601,-0.02852453,-0.
 00003736,0.00011344,0.00004509,0.00012014,0.00018156,0.00000860,0.0000
 0551,0.00018356,-0.00016471,-0.00029614,0.00025374,-0.00170146,0.00012
 134,-0.00009371,-0.00017555,-0.00002663,-0.00003972,-0.00001025,0.0000
 1264,-0.00001737,0.00001441,-0.00006988,0.00009396,-0.00026008,0.00013
 186,-0.00003882,0.00036836,0.00006280,-0.00005448,-0.00004204,0.000047
 66,-0.00006549,-0.00012845,-0.00002646,0.00001110,-0.00002338,-0.00020
 384,-0.00002990,0.00005555,0.00089420,0.00060344,0.00007328,0.00060371
 ,-0.00029988,0.00067204,0.06351995,-0.00020745,-0.00039847,0.00028405,
 -0.00840549,-0.04509334,-0.02768298,-0.00331628,-0.00137972,-0.0019266
 5,-0.00287279,-0.00122993,0.00013110,0.00013397,0.00025491,-0.00006058
 ,-0.00000598,-0.00009804,0.00003923,-0.00282169,-0.00428097,-0.0008237
 9,0.00133269,0.00038424,0.00003312,0.00015614,-0.00035346,-0.00000909,
 -0.00002873,-0.00006725,-0.00041020,0.00087508,-0.01518635,0.04708362,
 0.01789813,-0.00707135,-0.02013369,-0.00159535,0.00249900,-0.01587011,
 0.00011332,0.00008878,-0.00004239,0.00024843,0.00025004,-0.00000153,0.
 00020365,-0.00006174,0.00011293,-0.00011159,0.00019493,-0.00108595,0.0
 0014537,-0.00007298,0.00013439,0.00002266,0.00002952,0.00000643,-0.000
 00655,0.00001428,-0.00001402,-0.00002147,-0.00013692,0.00080463,0.0002
 0057,-0.00039803,0.00151874,-0.00005010,0.00003407,-0.00002999,-0.0000
 5296,0.00004322,0.00007551,0.00002341,-0.00000857,0.00001462,0.0001678
 7,0.00002475,-0.00003907,0.00020374,0.00053935,0.00061933,0.00075076,0
 .00034805,0.00046467,-0.00301818,0.07104486,0.00026670,-0.00012818,0.0
 0007946,-0.00648681,-0.01677996,-0.30048553,-0.00209068,-0.00104932,-0
 .00042682,-0.00186608,-0.00104707,0.00138374,0.00042022,0.00026038,0.0
 0002310,-0.00005585,-0.00007394,0.00010940,0.00104362,0.00175079,0.004
 06627,0.00059289,0.00038301,0.00004564,0.00008708,-0.00051471,-0.00041
 702,-0.00006448,-0.00004152,-0.00024862,-0.00093428,0.01132735,-0.0181
 6314,0.01285318,-0.01013985,-0.00425170,-0.00123544,-0.00111226,-0.009
 47900,-0.00007053,0.00004181,0.00002215,-0.00004297,-0.00002718,-0.000
 07826,0.00041958,0.00012490,-0.00021015,-0.00000297,0.00014210,-0.0007
 0942,0.00014408,-0.00001757,0.00013244,0.00002971,0.00002655,0.0000004
 7,-0.00001719,0.00001018,-0.00002440,0.00007818,-0.00009539,-0.0001428
 9,-0.00011527,0.00019453,-0.00083479,-0.00002836,0.00000940,-0.0000135
 3,-0.00002642,0.00000126,0.00007717,0.00003190,-0.00000066,0.00001667,
 0.00012114,0.00001890,-0.00003833,-0.00040474,0.00017544,0.00050581,-0
 .00020846,-0.00037344,0.00003558,-0.00249621,0.01679654,0.32883674,-0.
 00012574,0.00002472,-0.00012273,-0.00010021,-0.00134986,0.00038240,0.0
 0674951,-0.00604017,0.00689202,0.00009946,-0.00002726,0.00004971,-0.03
 799140,0.02138547,-0.01900239,0.00152463,0.00077895,-0.00614672,-0.002
 95117,-0.00047611,-0.00017505,-0.00014491,0.00058512,0.00042508,-0.078
 31464,0.06359842,-0.06326531,-0.00018981,-0.00005009,0.00069506,-0.005
 83630,0.00015738,0.00057432,-0.00030319,0.00168661,-0.00041662,-0.0000
 7528,0.00002132,0.00003682,0.00008353,0.00001080,-0.00003313,0.0000321
 4,-0.00000658,0.00003806,-0.00015520,-0.00260027,-0.00076358,0.0000143
 2,0.00006681,-0.00000158,-0.00001584,-0.00000701,-0.00000335,0.0002631
 0,-0.00043986,0.00024728,0.00054814,-0.00065343,0.00124992,-0.00095649
 ,-0.00037103,-0.00073328,0.00004206,0.00023385,-0.00008192,-0.00002093
 ,0.00021831,-0.00015088,-0.00005416,0.00003857,0.00002574,-0.00003644,
 -0.00012268,-0.00004333,0.00012985,0.00019886,0.00012558,-0.00000614,0
 .00000157,-0.00000828,0.00000497,0.00002576,-0.00000828,-0.00000575,0.
 00008445,-0.00004554,0.11383838,0.00027085,-0.00032874,-0.00034783,0.0
 0050683,-0.00195809,0.00016535,0.01396957,-0.01969603,0.02164536,-0.00
 000348,-0.00006134,-0.00000006,0.00063021,0.00623247,-0.00244883,-0.00
 010094,0.00018928,-0.00061740,-0.00041961,0.00121955,0.00038314,0.0002
 0583,0.00170622,0.00171583,0.06331036,-0.16172608,0.11037972,0.0000672
 7,-0.00010864,-0.00011809,0.00159906,0.00146257,-0.00084026,-0.0024383
 2,0.00081099,-0.00015671,-0.00016789,0.00026898,0.00011820,0.00019230,
 0.00009004,0.00004413,-0.00000992,0.00001212,0.00002283,-0.00118129,-0
 .00541685,-0.00150056,0.00001866,0.00003079,-0.00000904,-0.00001209,-0
 .00000617,-0.00000072,-0.00009086,0.00013690,-0.00027949,0.00056191,-0
 .00036887,-0.00044133,-0.00007700,-0.00035648,-0.00071465,-0.00002937,
 -0.00022346,0.00003731,-0.00013934,0.00008454,-0.00106686,-0.00039149,
 0.00037050,-0.00011610,-0.00010966,0.00002025,0.00008905,0.00009373,0.
 00005377,-0.00003365,-0.00007408,-0.00002055,-0.00002997,0.00005052,0.
 00006925,0.00000376,-0.00002929,0.00008560,0.00002795,-0.07254851,0.17
 056210,-0.00013345,0.00002723,0.00001037,-0.00032098,0.00093247,-0.000
 36949,0.00183103,-0.00509412,0.00377544,0.00001605,0.00004608,0.000040
 83,-0.00172627,-0.00177009,0.00346644,0.00250309,-0.00210272,0.0025057
 5,-0.00116188,-0.00053175,0.00108048,0.00039931,-0.00031074,0.00109634
 ,-0.06478237,0.11114067,-0.16913195,-0.00005735,-0.00006555,-0.0001895
 7,-0.00119522,-0.00065224,-0.00058030,0.00050871,0.00051149,0.00000749
 ,0.00003183,-0.00021021,0.00005386,-0.00003008,-0.00002438,-0.00002455
 ,-0.00001066,-0.00001885,-0.00001778,0.00004066,-0.00139489,0.00079193
 ,-0.00000546,-0.00000437,-0.00000092,0.00000385,-0.00000987,-0.0000070
 7,-0.00003021,-0.00017984,0.00029889,-0.00051432,0.00050623,0.00085172
 ,-0.00119678,-0.00018515,-0.00059489,0.00019604,0.00007695,-0.00010886
 ,-0.00024640,0.00015412,0.00026418,0.00005262,0.00013326,0.00004878,-0
 .00002093,0.00014978,-0.00019387,-0.00007074,0.00003116,-0.00001760,0.
 00001989,0.00000511,0.00000402,-0.00005681,-0.00004015,-0.00001639,0.0
 0000168,-0.00004619,0.00004811,0.07611263,-0.11978805,0.17441482,-0.00
 007818,0.00009766,0.00005764,-0.00027599,-0.00017149,-0.00014738,0.003
 44435,-0.00077759,-0.00959052,0.00005085,0.00004660,-0.00002605,-0.020
 02658,0.00906935,0.03977035,-0.00542639,-0.00023273,-0.00338654,-0.000
 22818,-0.00011726,-0.00058351,-0.00033867,-0.00289426,-0.00033881,-0.0
 5715858,0.01468060,0.04743434,-0.00055487,-0.00013201,0.00065325,-0.00
 106708,0.00024467,-0.00092177,0.00102353,0.00110749,0.00042177,-0.0000
 7774,0.00001271,0.00012072,-0.00004979,-0.00001407,-0.00000390,0.00000
 293,-0.00000066,-0.00000492,0.00023889,0.00037481,0.00054371,0.0000015
 5,-0.00001162,0.00002758,0.00000463,0.00000274,0.00000069,-0.00070163,
 0.00043310,0.00169551,0.00021560,-0.00026796,0.00021493,-0.00012384,0.
 00002905,0.00014052,0.00000660,-0.00000001,0.00001893,-0.00005464,0.00
 007535,0.00032720,0.00041912,-0.00040411,-0.00075094,0.00005333,0.0000
 3761,-0.00003489,0.00016750,0.00028349,0.00005605,-0.00000319,-0.00000
 270,-0.00000551,0.00000967,0.00000861,0.00000749,-0.00017635,-0.000045
 65,0.00010402,0.00395351,-0.00365397,-0.01015749,0.07674962,0.00006007
 ,-0.00007360,-0.00004999,-0.00052526,-0.00052122,-0.00004010,0.0078741
 9,-0.00821683,-0.03164561,0.00004966,-0.00001406,0.00000049,-0.0000367
 5,0.00218661,0.00379027,-0.00128176,0.00013527,0.00073700,0.00022486,0
 .00022116,0.00025887,-0.00211561,-0.00584051,0.00090658,0.01823815,-0.
 07342640,-0.07071168,-0.00049514,0.00007064,0.00023621,-0.00024125,-0.
 00011535,0.00017229,0.00013313,0.00202386,0.00134848,-0.00008861,0.000
 01602,0.00011582,0.00004651,0.00001559,0.00000610,0.00000979,0.0000009
 6,0.00001373,0.00037769,0.00150517,0.00059116,0.00000180,0.00001251,0.
 00001107,-0.00000520,0.00000602,0.00000115,-0.00028546,0.00033577,0.00
 016676,-0.00005972,0.00012516,-0.00041307,0.00009770,-0.00011594,-0.00
 011095,-0.00004151,0.00001167,0.00002229,-0.00014129,0.00009535,-0.000
 12461,0.00047812,-0.00056187,-0.00183536,0.00010671,0.00003149,0.00002
 078,0.00013004,0.00010012,-0.00002733,-0.00002082,-0.00001088,-0.00001
 198,0.00000353,0.00001103,-0.00000627,-0.00029173,0.00000150,0.0001099
 5,-0.00442409,0.00686539,0.01871461,-0.01777776,0.07512536,-0.00005298
 ,0.00006546,0.00030020,-0.00004007,-0.00124465,-0.00028482,0.00086941,
 0.00016764,-0.00408844,0.00000252,-0.00002034,-0.00001843,0.00401734,0
 .00081023,0.00029133,0.00003356,0.00040300,0.00245178,0.00023562,-0.00
 001291,-0.00089816,-0.00035506,-0.00142426,0.00122176,0.05707251,-0.07
 002052,-0.29108817,-0.00026818,0.00020903,0.00009935,0.00108983,0.0003
 4906,0.00096672,-0.00142635,-0.00034745,0.00025286,-0.00005915,0.00008
 911,0.00002925,-0.00006602,-0.00002908,-0.00002111,0.00005169,0.000023
 59,0.00002379,0.00001766,-0.00038297,0.00073443,-0.00000334,-0.0000041
 8,0.00000967,0.00000024,0.00001265,0.00001535,0.00018674,-0.00029221,-
 0.00016169,-0.00005192,-0.00011867,0.00030437,-0.00011641,0.00011105,0
 .00024147,0.00000606,-0.00001250,0.00003464,-0.00002981,0.00014380,0.0
 0035537,0.00029619,-0.00016279,-0.00035438,0.00002559,-0.00003552,0.00
 001001,0.00004313,0.00000999,-0.00007706,-0.00002748,-0.00000294,-0.00
 001018,0.00003047,0.00002875,0.00001064,0.00001332,0.00005732,0.000140
 85,0.00414736,-0.00612304,-0.01750617,-0.06564247,0.07775336,0.3070147
 5\\0.00000928,-0.00000934,0.00001396,-0.00558985,-0.00162006,-0.012937
 40,-0.00172993,0.00095568,-0.00748364,-0.00000830,0.00001401,-0.000002
 20,0.00000194,0.00001807,0.00001737,0.00000029,-0.00002379,-0.00000929
 ,0.00000391,-0.00000597,0.00000511,-0.00001148,0.00000009,-0.00000188,
 0.00000299,0.00000043,-0.00000543,0.00000441,0.00000928,0.00000353,0.0
 0321399,0.00157537,0.00599055,0.00407134,-0.00087101,0.01444946,0.0000
 0543,-0.00000201,-0.00000890,-0.00000175,0.00000404,-0.00000256,-0.000
 00106,-0.00000498,-0.00001139,-0.00000354,-0.00001138,-0.00000501,-0.0
 0000265,0.00000164,-0.00000197,0.00001094,-0.00000744,0.00000662,0.000
 01268,-0.00000565,-0.00000755,-0.00000564,-0.00000230,-0.00000295,0.00
 000624,0.00000130,-0.00000259,-0.00000320,0.00001449,-0.00001201,0.000
 00923,-0.00000372,-0.00000573,-0.00000323,-0.00001112,0.00000056,0.000
 00521,-0.00000280,0.00000384,0.00000304,-0.00000776,-0.00000806,0.0000
 0620,0.00000603,0.00000253,-0.00000557,-0.00001301,0.00000638,0.000016
 53,-0.00000652,0.00000595,-0.00000139,0.00000002,-0.00000879,-0.000016
 06,0.00000841,0.00001150\\\@


  DISAPPOINTMENT IS THE NURSE OF WISDOM.               
                              SIR BOYLE ROCHE                 
 Job cpu time:       0 days 14 hours 55 minutes 28.2 seconds.
 Elapsed time:       0 days  0 hours 55 minutes 59.2 seconds.
 File lengths (MBytes):  RWF=    684 Int=      0 D2E=      0 Chk=     33 Scr=      1
 Normal termination of Gaussian 16 at Sun Nov  4 23:03:35 2018.
