 Entering Gaussian System, Link 0=g16
 Initial command:
 /apps/gaussian/g16a03/g16/l1.exe "/jobfs/local/2011933.r-man2/Gau-2498.inp" -scrdir="/jobfs/local/2011933.r-man2/"
 Entering Link 1 = /apps/gaussian/g16a03/g16/l1.exe PID=      2499.
  
 Copyright (c) 1988,1990,1992,1993,1995,1998,2003,2009,2016,
            Gaussian, Inc.  All Rights Reserved.
  
 This is part of the Gaussian(R) 16 program.  It is based on
 the Gaussian(R) 09 system (copyright 2009, Gaussian, Inc.),
 the Gaussian(R) 03 system (copyright 2003, Gaussian, Inc.),
 the Gaussian(R) 98 system (copyright 1998, Gaussian, Inc.),
 the Gaussian(R) 94 system (copyright 1995, Gaussian, Inc.),
 the Gaussian 92(TM) system (copyright 1992, Gaussian, Inc.),
 the Gaussian 90(TM) system (copyright 1990, Gaussian, Inc.),
 the Gaussian 88(TM) system (copyright 1988, Gaussian, Inc.),
 the Gaussian 86(TM) system (copyright 1986, Carnegie Mellon
 University), and the Gaussian 82(TM) system (copyright 1983,
 Carnegie Mellon University). Gaussian is a federally registered
 trademark of Gaussian, Inc.
  
 This software contains proprietary and confidential information,
 including trade secrets, belonging to Gaussian, Inc.
  
 This software is provided under written license and may be
 used, copied, transmitted, or stored only in accord with that
 written license.
  
 The following legend is applicable only to US Government
 contracts under FAR:
  
                    RESTRICTED RIGHTS LEGEND
  
 Use, reproduction and disclosure by the US Government is
 subject to restrictions as set forth in subparagraphs (a)
 and (c) of the Commercial Computer Software - Restricted
 Rights clause in FAR 52.227-19.
  
 Gaussian, Inc.
 340 Quinnipiac St., Bldg. 40, Wallingford CT 06492
  
  
 ---------------------------------------------------------------
 Warning -- This program may not be used in any manner that
 competes with the business of Gaussian, Inc. or will provide
 assistance to any competitor of Gaussian, Inc.  The licensee
 of this program is prohibited from giving any competitor of
 Gaussian, Inc. access to this program.  By using this program,
 the user acknowledges that Gaussian, Inc. is engaged in the
 business of creating and licensing software in the field of
 computational chemistry and represents and warrants to the
 licensee that it is not a competitor of Gaussian, Inc. and that
 it will not use this program in any manner prohibited above.
 ---------------------------------------------------------------
  

 Cite this work as:
 Gaussian 16, Revision A.03,
 M. J. Frisch, G. W. Trucks, H. B. Schlegel, G. E. Scuseria, 
 M. A. Robb, J. R. Cheeseman, G. Scalmani, V. Barone, 
 G. A. Petersson, H. Nakatsuji, X. Li, M. Caricato, A. V. Marenich, 
 J. Bloino, B. G. Janesko, R. Gomperts, B. Mennucci, H. P. Hratchian, 
 J. V. Ortiz, A. F. Izmaylov, J. L. Sonnenberg, D. Williams-Young, 
 F. Ding, F. Lipparini, F. Egidi, J. Goings, B. Peng, A. Petrone, 
 T. Henderson, D. Ranasinghe, V. G. Zakrzewski, J. Gao, N. Rega, 
 G. Zheng, W. Liang, M. Hada, M. Ehara, K. Toyota, R. Fukuda, 
 J. Hasegawa, M. Ishida, T. Nakajima, Y. Honda, O. Kitao, H. Nakai, 
 T. Vreven, K. Throssell, J. A. Montgomery, Jr., J. E. Peralta, 
 F. Ogliaro, M. J. Bearpark, J. J. Heyd, E. N. Brothers, K. N. Kudin, 
 V. N. Staroverov, T. A. Keith, R. Kobayashi, J. Normand, 
 K. Raghavachari, A. P. Rendell, J. C. Burant, S. S. Iyengar, 
 J. Tomasi, M. Cossi, J. M. Millam, M. Klene, C. Adamo, R. Cammi, 
 J. W. Ochterski, R. L. Martin, K. Morokuma, O. Farkas, 
 J. B. Foresman, and D. J. Fox, Gaussian, Inc., Wallingford CT, 2016.
 
 ******************************************
 Gaussian 16:  ES64L-G16RevA.03 25-Dec-2016
                 4-Nov-2018 
 ******************************************
 %mem=6000mb
 %nproc=24
 Will use up to   24 processors via shared memory.
 %chk=D_1a_4e_D_PHI.inp_extract_15.chk
 ----------------------------------------------------------------------
 #M062X/6-311++G(2d,2p) opt=ModRedundant freq=noraman SCRF=(Solvent=Wat
 er)
 ----------------------------------------------------------------------
 1/18=120,19=15,26=3,38=1/1,3;
 2/9=110,12=2,17=6,18=5,40=1/2;
 3/5=4,6=6,7=1212,11=2,25=1,30=1,70=2201,71=1,72=1,74=-55/1,2,3;
 4//1;
 5/5=2,38=5,53=1/2;
 6/7=2,8=2,9=2,10=2,28=1/1;
 7//1,2,3,16;
 1/18=20,19=15,26=3/3(2);
 2/9=110/2;
 99//99;
 2/9=110/2;
 3/5=4,6=6,7=1212,11=2,25=1,30=1,70=2205,71=1,72=1,74=-55/1,2,3;
 4/5=5,16=3,69=1/1;
 5/5=2,38=5,53=1/2;
 7//1,2,3,16;
 1/18=20,19=15,26=3/3(-5);
 2/9=110/2;
 6/7=2,8=2,9=2,10=2,19=2,28=1/1;
 99/9=1/99;
 ----------------------------
 D_1a_4e_D_PHI.inp_extract_15
 ----------------------------
 Symbolic Z-matrix:
 Charge =  0 Multiplicity = 1
 C                    -2.75983   0.95644   1.04177 
 C                    -1.45447  -1.09608  -0.57785 
 C                     1.06649  -0.63981  -0.77593 
 C                    -2.45006   1.32005  -0.40548 
 O                     2.94878  -0.62128   0.71459 
 C                     3.0385    0.79239   0.70279 
 C                    -1.65257   0.07422   1.58133 
 C                     1.09565   0.87921  -0.88552 
 C                     1.62513  -1.0969    0.57055 
 C                     2.52527   1.36072  -0.61104 
 O                    -1.49701  -1.11822   0.82025 
 O                    -0.15445  -1.28413  -1.10037 
 C                    -2.26014   0.04413  -1.22845 
 H                    -3.70984   0.43058   1.10504 
 H                    -2.83407   1.84465   1.66242 
 H                     1.73827  -1.03111  -1.53097 
 H                    -3.26057   1.89697  -0.8402 
 H                    -1.56715   1.94726  -0.43891 
 H                     4.0819    1.03236   0.85559 
 H                     2.46957   1.19036   1.54011 
 H                    -0.71792   0.62031   1.606 
 H                    -1.86798  -0.26552   2.58492 
 H                     0.42997   1.3265   -0.15992 
 H                     0.76966   1.19061  -1.8728 
 H                     3.18504   1.04768  -1.41619 
 H                     2.55612   2.44543  -0.56845 
 H                    -3.2467   -0.37063  -1.41545 
 H                    -1.82578   0.25824  -2.1978 
 H                    -1.92313  -2.02074  -0.87324 
 H                     1.02674  -0.74357   1.40058 
 H                     1.67357  -2.17655   0.61055 
 
 The following ModRedundant input section has been read:
 D      11       2      12       3 F                                           
 

 GradGradGradGradGradGradGradGradGradGradGradGradGradGradGradGradGradGrad
 Berny optimization.
 Initialization pass.
                           ----------------------------
                           !    Initial Parameters    !
                           ! (Angstroms and Degrees)  !
 --------------------------                            --------------------------
 ! Name  Definition              Value          Derivative Info.                !
 --------------------------------------------------------------------------------
 ! R1    R(1,4)                  1.524          estimate D2E/DX2                !
 ! R2    R(1,7)                  1.5151         estimate D2E/DX2                !
 ! R3    R(1,14)                 1.0877         estimate D2E/DX2                !
 ! R4    R(1,15)                 1.0861         estimate D2E/DX2                !
 ! R5    R(2,11)                 1.3989         estimate D2E/DX2                !
 ! R6    R(2,12)                 1.4137         estimate D2E/DX2                !
 ! R7    R(2,13)                 1.5403         estimate D2E/DX2                !
 ! R8    R(2,29)                 1.0779         estimate D2E/DX2                !
 ! R9    R(3,8)                  1.5232         estimate D2E/DX2                !
 ! R10   R(3,9)                  1.5277         estimate D2E/DX2                !
 ! R11   R(3,12)                 1.4181         estimate D2E/DX2                !
 ! R12   R(3,16)                 1.0837         estimate D2E/DX2                !
 ! R13   R(4,13)                 1.5301         estimate D2E/DX2                !
 ! R14   R(4,17)                 1.0857         estimate D2E/DX2                !
 ! R15   R(4,18)                 1.0835         estimate D2E/DX2                !
 ! R16   R(5,6)                  1.4166         estimate D2E/DX2                !
 ! R17   R(5,9)                  1.4139         estimate D2E/DX2                !
 ! R18   R(6,10)                 1.5207         estimate D2E/DX2                !
 ! R19   R(6,19)                 1.0815         estimate D2E/DX2                !
 ! R20   R(6,20)                 1.0877         estimate D2E/DX2                !
 ! R21   R(7,11)                 1.4231         estimate D2E/DX2                !
 ! R22   R(7,21)                 1.0828         estimate D2E/DX2                !
 ! R23   R(7,22)                 1.0812         estimate D2E/DX2                !
 ! R24   R(8,10)                 1.5333         estimate D2E/DX2                !
 ! R25   R(8,23)                 1.0815         estimate D2E/DX2                !
 ! R26   R(8,24)                 1.0853         estimate D2E/DX2                !
 ! R27   R(9,30)                 1.0825         estimate D2E/DX2                !
 ! R28   R(9,31)                 1.0815         estimate D2E/DX2                !
 ! R29   R(10,25)                1.087          estimate D2E/DX2                !
 ! R30   R(10,26)                1.086          estimate D2E/DX2                !
 ! R31   R(13,27)                1.0864         estimate D2E/DX2                !
 ! R32   R(13,28)                1.0836         estimate D2E/DX2                !
 ! A1    A(4,1,7)              109.1818         estimate D2E/DX2                !
 ! A2    A(4,1,14)             110.3719         estimate D2E/DX2                !
 ! A3    A(4,1,15)             111.1881         estimate D2E/DX2                !
 ! A4    A(7,1,14)             109.6387         estimate D2E/DX2                !
 ! A5    A(7,1,15)             108.8229         estimate D2E/DX2                !
 ! A6    A(14,1,15)            107.6037         estimate D2E/DX2                !
 ! A7    A(11,2,12)            113.2823         estimate D2E/DX2                !
 ! A8    A(11,2,13)            114.7055         estimate D2E/DX2                !
 ! A9    A(11,2,29)            104.3049         estimate D2E/DX2                !
 ! A10   A(12,2,13)            115.0473         estimate D2E/DX2                !
 ! A11   A(12,2,29)            100.6281         estimate D2E/DX2                !
 ! A12   A(13,2,29)            106.968          estimate D2E/DX2                !
 ! A13   A(8,3,9)              110.7794         estimate D2E/DX2                !
 ! A14   A(8,3,12)             116.9435         estimate D2E/DX2                !
 ! A15   A(8,3,16)             107.3419         estimate D2E/DX2                !
 ! A16   A(9,3,12)             112.3655         estimate D2E/DX2                !
 ! A17   A(9,3,16)             106.221          estimate D2E/DX2                !
 ! A18   A(12,3,16)            102.1359         estimate D2E/DX2                !
 ! A19   A(1,4,13)             109.6955         estimate D2E/DX2                !
 ! A20   A(1,4,17)             110.8101         estimate D2E/DX2                !
 ! A21   A(1,4,18)             109.4526         estimate D2E/DX2                !
 ! A22   A(13,4,17)            108.6874         estimate D2E/DX2                !
 ! A23   A(13,4,18)            111.4045         estimate D2E/DX2                !
 ! A24   A(17,4,18)            106.7601         estimate D2E/DX2                !
 ! A25   A(6,5,9)              113.2131         estimate D2E/DX2                !
 ! A26   A(5,6,10)             111.0257         estimate D2E/DX2                !
 ! A27   A(5,6,19)             106.3417         estimate D2E/DX2                !
 ! A28   A(5,6,20)             109.0009         estimate D2E/DX2                !
 ! A29   A(10,6,19)            111.3922         estimate D2E/DX2                !
 ! A30   A(10,6,20)            110.5974         estimate D2E/DX2                !
 ! A31   A(19,6,20)            108.3413         estimate D2E/DX2                !
 ! A32   A(1,7,11)             112.1684         estimate D2E/DX2                !
 ! A33   A(1,7,21)             110.1995         estimate D2E/DX2                !
 ! A34   A(1,7,22)             111.5879         estimate D2E/DX2                !
 ! A35   A(11,7,21)            109.9023         estimate D2E/DX2                !
 ! A36   A(11,7,22)            104.7669         estimate D2E/DX2                !
 ! A37   A(21,7,22)            108.0169         estimate D2E/DX2                !
 ! A38   A(3,8,10)             108.5505         estimate D2E/DX2                !
 ! A39   A(3,8,23)             110.6328         estimate D2E/DX2                !
 ! A40   A(3,8,24)             110.2314         estimate D2E/DX2                !
 ! A41   A(10,8,23)            108.899          estimate D2E/DX2                !
 ! A42   A(10,8,24)            110.6578         estimate D2E/DX2                !
 ! A43   A(23,8,24)            107.8637         estimate D2E/DX2                !
 ! A44   A(3,9,5)              109.3583         estimate D2E/DX2                !
 ! A45   A(3,9,30)             112.0861         estimate D2E/DX2                !
 ! A46   A(3,9,31)             110.3451         estimate D2E/DX2                !
 ! A47   A(5,9,30)             109.2436         estimate D2E/DX2                !
 ! A48   A(5,9,31)             106.865          estimate D2E/DX2                !
 ! A49   A(30,9,31)            108.7982         estimate D2E/DX2                !
 ! A50   A(6,10,8)             110.6077         estimate D2E/DX2                !
 ! A51   A(6,10,25)            109.1151         estimate D2E/DX2                !
 ! A52   A(6,10,26)            109.258          estimate D2E/DX2                !
 ! A53   A(8,10,25)            110.0531         estimate D2E/DX2                !
 ! A54   A(8,10,26)            110.3147         estimate D2E/DX2                !
 ! A55   A(25,10,26)           107.4247         estimate D2E/DX2                !
 ! A56   A(2,11,7)             121.6368         estimate D2E/DX2                !
 ! A57   A(2,12,3)             130.2958         estimate D2E/DX2                !
 ! A58   A(2,13,4)             117.066          estimate D2E/DX2                !
 ! A59   A(2,13,27)            105.372          estimate D2E/DX2                !
 ! A60   A(2,13,28)            108.3278         estimate D2E/DX2                !
 ! A61   A(4,13,27)            107.35           estimate D2E/DX2                !
 ! A62   A(4,13,28)            111.4773         estimate D2E/DX2                !
 ! A63   A(27,13,28)           106.5871         estimate D2E/DX2                !
 ! D1    D(7,1,4,13)            56.1394         estimate D2E/DX2                !
 ! D2    D(7,1,4,17)           176.147          estimate D2E/DX2                !
 ! D3    D(7,1,4,18)           -66.3756         estimate D2E/DX2                !
 ! D4    D(14,1,4,13)          -64.4424         estimate D2E/DX2                !
 ! D5    D(14,1,4,17)           55.5652         estimate D2E/DX2                !
 ! D6    D(14,1,4,18)          173.0426         estimate D2E/DX2                !
 ! D7    D(15,1,4,13)          176.2206         estimate D2E/DX2                !
 ! D8    D(15,1,4,17)          -63.7718         estimate D2E/DX2                !
 ! D9    D(15,1,4,18)           53.7056         estimate D2E/DX2                !
 ! D10   D(4,1,7,11)           -58.7215         estimate D2E/DX2                !
 ! D11   D(4,1,7,21)            64.0703         estimate D2E/DX2                !
 ! D12   D(4,1,7,22)          -175.9291         estimate D2E/DX2                !
 ! D13   D(14,1,7,11)           62.308          estimate D2E/DX2                !
 ! D14   D(14,1,7,21)         -174.9002         estimate D2E/DX2                !
 ! D15   D(14,1,7,22)          -54.8996         estimate D2E/DX2                !
 ! D16   D(15,1,7,11)          179.7528         estimate D2E/DX2                !
 ! D17   D(15,1,7,21)          -57.4554         estimate D2E/DX2                !
 ! D18   D(15,1,7,22)           62.5451         estimate D2E/DX2                !
 ! D19   D(12,2,11,7)          104.9929         estimate D2E/DX2                !
 ! D20   D(13,2,11,7)          -29.861          estimate D2E/DX2                !
 ! D21   D(29,2,11,7)         -146.5297         estimate D2E/DX2                !
 ! D22   D(11,2,12,3)          -49.9398         Frozen                          !
 ! D23   D(13,2,12,3)           84.7543         estimate D2E/DX2                !
 ! D24   D(29,2,12,3)         -160.6982         estimate D2E/DX2                !
 ! D25   D(11,2,13,4)           27.3913         estimate D2E/DX2                !
 ! D26   D(11,2,13,27)         -91.8039         estimate D2E/DX2                !
 ! D27   D(11,2,13,28)         154.4331         estimate D2E/DX2                !
 ! D28   D(12,2,13,4)         -106.6553         estimate D2E/DX2                !
 ! D29   D(12,2,13,27)         134.1495         estimate D2E/DX2                !
 ! D30   D(12,2,13,28)          20.3865         estimate D2E/DX2                !
 ! D31   D(29,2,13,4)          142.5248         estimate D2E/DX2                !
 ! D32   D(29,2,13,27)          23.3296         estimate D2E/DX2                !
 ! D33   D(29,2,13,28)         -90.4334         estimate D2E/DX2                !
 ! D34   D(9,3,8,10)            54.2698         estimate D2E/DX2                !
 ! D35   D(9,3,8,23)           -65.1644         estimate D2E/DX2                !
 ! D36   D(9,3,8,24)           175.6198         estimate D2E/DX2                !
 ! D37   D(12,3,8,10)         -175.2329         estimate D2E/DX2                !
 ! D38   D(12,3,8,23)           65.333          estimate D2E/DX2                !
 ! D39   D(12,3,8,24)          -53.8829         estimate D2E/DX2                !
 ! D40   D(16,3,8,10)          -61.2928         estimate D2E/DX2                !
 ! D41   D(16,3,8,23)          179.2731         estimate D2E/DX2                !
 ! D42   D(16,3,8,24)           60.0572         estimate D2E/DX2                !
 ! D43   D(8,3,9,5)            -58.2897         estimate D2E/DX2                !
 ! D44   D(8,3,9,30)            63.0134         estimate D2E/DX2                !
 ! D45   D(8,3,9,31)          -175.5633         estimate D2E/DX2                !
 ! D46   D(12,3,9,5)           168.8519         estimate D2E/DX2                !
 ! D47   D(12,3,9,30)          -69.845          estimate D2E/DX2                !
 ! D48   D(12,3,9,31)           51.5783         estimate D2E/DX2                !
 ! D49   D(16,3,9,5)            57.9688         estimate D2E/DX2                !
 ! D50   D(16,3,9,30)          179.2718         estimate D2E/DX2                !
 ! D51   D(16,3,9,31)          -59.3049         estimate D2E/DX2                !
 ! D52   D(8,3,12,2)           -55.869          estimate D2E/DX2                !
 ! D53   D(9,3,12,2)            73.8843         estimate D2E/DX2                !
 ! D54   D(16,3,12,2)         -172.6968         estimate D2E/DX2                !
 ! D55   D(1,4,13,2)           -41.8244         estimate D2E/DX2                !
 ! D56   D(1,4,13,27)           76.3085         estimate D2E/DX2                !
 ! D57   D(1,4,13,28)         -167.3116         estimate D2E/DX2                !
 ! D58   D(17,4,13,2)         -163.118          estimate D2E/DX2                !
 ! D59   D(17,4,13,27)         -44.9851         estimate D2E/DX2                !
 ! D60   D(17,4,13,28)          71.3948         estimate D2E/DX2                !
 ! D61   D(18,4,13,2)           79.524          estimate D2E/DX2                !
 ! D62   D(18,4,13,27)        -162.3431         estimate D2E/DX2                !
 ! D63   D(18,4,13,28)         -45.9632         estimate D2E/DX2                !
 ! D64   D(9,5,6,10)           -60.7109         estimate D2E/DX2                !
 ! D65   D(9,5,6,19)           177.962          estimate D2E/DX2                !
 ! D66   D(9,5,6,20)            61.3602         estimate D2E/DX2                !
 ! D67   D(6,5,9,3)             61.5242         estimate D2E/DX2                !
 ! D68   D(6,5,9,30)           -61.4845         estimate D2E/DX2                !
 ! D69   D(6,5,9,31)          -179.0314         estimate D2E/DX2                !
 ! D70   D(5,6,10,8)            55.3107         estimate D2E/DX2                !
 ! D71   D(5,6,10,25)          -65.8897         estimate D2E/DX2                !
 ! D72   D(5,6,10,26)          176.9298         estimate D2E/DX2                !
 ! D73   D(19,6,10,8)          173.6255         estimate D2E/DX2                !
 ! D74   D(19,6,10,25)          52.4251         estimate D2E/DX2                !
 ! D75   D(19,6,10,26)         -64.7555         estimate D2E/DX2                !
 ! D76   D(20,6,10,8)          -65.8263         estimate D2E/DX2                !
 ! D77   D(20,6,10,25)         172.9734         estimate D2E/DX2                !
 ! D78   D(20,6,10,26)          55.7928         estimate D2E/DX2                !
 ! D79   D(1,7,11,2)            46.6905         estimate D2E/DX2                !
 ! D80   D(21,7,11,2)          -76.2691         estimate D2E/DX2                !
 ! D81   D(22,7,11,2)          167.9067         estimate D2E/DX2                !
 ! D82   D(3,8,10,6)           -52.487          estimate D2E/DX2                !
 ! D83   D(3,8,10,25)           68.1562         estimate D2E/DX2                !
 ! D84   D(3,8,10,26)         -173.481          estimate D2E/DX2                !
 ! D85   D(23,8,10,6)           68.0274         estimate D2E/DX2                !
 ! D86   D(23,8,10,25)        -171.3293         estimate D2E/DX2                !
 ! D87   D(23,8,10,26)         -52.9665         estimate D2E/DX2                !
 ! D88   D(24,8,10,6)         -173.5747         estimate D2E/DX2                !
 ! D89   D(24,8,10,25)         -52.9315         estimate D2E/DX2                !
 ! D90   D(24,8,10,26)          65.4313         estimate D2E/DX2                !
 --------------------------------------------------------------------------------
 Trust Radius=3.00D-01 FncErr=1.00D-07 GrdErr=1.00D-06 EigMax=2.50D+02 EigMin=1.00D-04
 Number of steps in this run=    186 maximum allowed number of steps=    186.
 GradGradGradGradGradGradGradGradGradGradGradGradGradGradGradGradGradGrad

                          Input orientation:                          
 ---------------------------------------------------------------------
 Center     Atomic      Atomic             Coordinates (Angstroms)
 Number     Number       Type             X           Y           Z
 ---------------------------------------------------------------------
      1          6           0       -2.759831    0.956436    1.041769
      2          6           0       -1.454471   -1.096080   -0.577850
      3          6           0        1.066487   -0.639806   -0.775926
      4          6           0       -2.450063    1.320053   -0.405483
      5          8           0        2.948781   -0.621282    0.714587
      6          6           0        3.038501    0.792390    0.702787
      7          6           0       -1.652571    0.074217    1.581328
      8          6           0        1.095651    0.879205   -0.885516
      9          6           0        1.625125   -1.096896    0.570545
     10          6           0        2.525270    1.360721   -0.611038
     11          8           0       -1.497011   -1.118221    0.820250
     12          8           0       -0.154447   -1.284132   -1.100369
     13          6           0       -2.260144    0.044134   -1.228454
     14          1           0       -3.709839    0.430576    1.105036
     15          1           0       -2.834074    1.844645    1.662421
     16          1           0        1.738271   -1.031113   -1.530974
     17          1           0       -3.260571    1.896974   -0.840197
     18          1           0       -1.567145    1.947261   -0.438914
     19          1           0        4.081896    1.032361    0.855588
     20          1           0        2.469565    1.190363    1.540113
     21          1           0       -0.717916    0.620311    1.606002
     22          1           0       -1.867977   -0.265523    2.584919
     23          1           0        0.429973    1.326500   -0.159918
     24          1           0        0.769655    1.190607   -1.872803
     25          1           0        3.185038    1.047685   -1.416185
     26          1           0        2.556119    2.445426   -0.568450
     27          1           0       -3.246702   -0.370626   -1.415453
     28          1           0       -1.825779    0.258238   -2.197798
     29          1           0       -1.923133   -2.020736   -0.873241
     30          1           0        1.026739   -0.743567    1.400583
     31          1           0        1.673571   -2.176548    0.610554
 ---------------------------------------------------------------------
                    Distance matrix (angstroms):
                    1          2          3          4          5
     1  C    0.000000
     2  C    2.922320   0.000000
     3  C    4.526888   2.569562   0.000000
     4  C    1.524045   2.618895   4.042821   0.000000
     5  O    5.931652   4.613508   2.401042   5.845584   0.000000
     6  C    5.810548   5.039161   2.850722   5.624147   1.416565
     7  C    1.515077   2.463917   3.668753   2.476998   4.733645
     8  C    4.311048   3.240298   1.523238   3.605117   2.871564
     9  C    4.864778   3.286750   1.527741   4.837502   1.413868
    10  C    5.552253   4.677105   2.481400   4.979743   2.421772
    11  O    2.438849   1.398922   3.057479   2.890659   4.474727
    12  O    4.049312   1.413666   1.418132   3.540409   3.655607
    13  C    2.497177   1.540287   3.426227   1.530137   5.599204
    14  H    1.087679   3.201479   5.243761   2.158674   6.752487
    15  H    1.086111   3.945882   5.228041   2.167692   6.357719
    16  H    5.549980   3.332607   1.083749   4.933240   2.583765
    17  H    2.162672   3.505595   5.016255   1.085697   6.878591
    18  H    2.143981   3.048594   3.707089   1.083537   5.321801
    19  H    6.844681   6.102161   3.814534   6.658795   2.009569
    20  H    5.258294   5.011152   3.268361   5.291966   2.047730
    21  H    2.144937   2.873625   3.231961   2.745186   3.972511
    22  H    2.160995   3.296046   4.477326   3.434440   5.179369
    23  H    3.428680   3.097530   2.156612   2.890493   3.301970
    24  H    4.583322   3.442757   2.154451   3.540673   3.837463
    25  H    6.433610   5.179148   2.783131   5.731498   2.716884
    26  H    5.750584   5.350438   3.432303   5.133701   3.347397
    27  H    2.834798   2.107120   4.368644   2.124398   6.556211
    28  H    3.443070   2.143893   3.345655   2.174759   5.661445
    29  H    3.637428   1.077909   3.294581   3.414282   5.311800
    30  H    4.166158   3.192940   2.179343   4.428155   2.044453
    31  H    5.445786   3.516299   2.156955   5.501173   2.013911
                    6          7          8          9         10
     6  C    0.000000
     7  C    4.826361   0.000000
     8  C    2.510958   3.779689   0.000000
     9  C    2.363159   3.624428   2.511062   0.000000
    10  C    1.520705   4.890390   1.533299   2.871634   0.000000
    11  O    4.922916   1.423147   3.690697   3.132178   4.936850
    12  O    4.214052   3.358718   2.507775   2.448242   3.796785
    13  C    5.689044   2.874878   3.475099   4.430989   5.001479
    14  H    6.769993   2.141541   5.220757   5.575006   6.533503
    15  H    6.042787   2.130010   4.781924   5.452459   5.841692
    16  H    3.163139   4.733496   2.116339   2.105591   2.680768
    17  H    6.578694   3.431019   4.473765   5.901142   5.815156
    18  H    4.883563   2.756260   2.903563   4.525095   4.137815
    19  H    1.081484   5.859083   3.460139   3.263542   2.163769
    20  H    1.087743   4.270771   2.805020   2.623870   2.158605
    21  H    3.867309   1.082778   3.092525   3.083960   3.997715
    22  H    5.360516   1.081211   4.705041   4.117116   5.670928
    23  H    2.798920   2.989505   1.081523   2.799074   2.143583
    24  H    3.455416   4.364003   1.085348   3.454627   2.168680
    25  H    2.139320   5.773663   2.162298   3.313556   1.086990
    26  H    2.140389   5.287461   2.164843   3.835636   1.085979
    27  H    6.733745   3.423424   4.549609   5.310965   6.079499
    28  H    5.688579   3.787566   3.262275   4.626970   4.760767
    29  H    5.917377   3.238355   4.186032   3.940575   5.593862
    30  H    2.625504   2.807159   2.804351   1.082530   3.274178
    31  H    3.268965   4.131775   3.451064   1.081479   3.837962
                   11         12         13         14         15
    11  O    0.000000
    12  O    2.349209   0.000000
    13  C    2.476011   2.492921   0.000000
    14  H    2.715968   4.521598   2.774190   0.000000
    15  H    3.357911   4.960106   3.453751   1.754205   0.000000
    16  H    4.000361   1.957504   4.151505   6.226314   6.274878
    17  H    3.867639   4.453665   2.141171   2.477115   2.539239
    18  H    3.314754   3.588194   2.173825   3.045530   2.455860
    19  H    5.979168   5.209463   6.748429   7.818920   7.010095
    20  H    4.645588   4.469979   5.599013   6.241122   5.345244
    21  H    2.060798   3.356910   3.277894   3.039502   2.445466
    22  H    1.994685   4.189880   3.845971   2.463141   2.497430
    23  H    3.263534   2.835735   3.165906   4.420501   3.774042
    24  H    4.209631   2.752263   3.302918   5.432406   5.090426
    25  H    5.622666   4.085250   5.540069   7.367273   6.807545
    26  H    5.572785   4.641089   5.422010   6.791348   5.864461
    27  H    2.935760   3.239724   1.086412   2.685011   3.814577
    28  H    3.333368   2.525194   1.083578   3.806323   4.293558
    29  H    1.965712   1.929358   2.122131   3.621440   4.711748
    30  H    2.616575   2.818186   4.282045   4.888878   4.655457
    31  H    3.349122   2.658066   4.877242   6.001892   6.131499
                   16         17         18         19         20
    16  H    0.000000
    17  H    5.834320   0.000000
    18  H    4.581384   1.741048   0.000000
    19  H    3.930163   7.585187   5.867235   0.000000
    20  H    3.860223   6.244969   4.558999   1.758735   0.000000
    21  H    4.312850   3.752180   2.581408   4.875562   3.238724
    22  H    5.525552   4.283355   3.759053   6.330567   4.693133
    23  H    3.024860   3.795831   2.109897   3.801883   2.658679
    24  H    2.447673   4.219947   2.844151   4.294194   3.812832
    25  H    2.535293   6.526786   4.934323   2.442446   3.044989
    26  H    3.698872   5.848806   4.155268   2.520443   2.455344
    27  H    5.029865   2.339470   3.024424   7.799638   6.621765
    28  H    3.848316   2.566547   2.452216   6.695002   5.769819
    29  H    3.849395   4.139841   4.007539   6.954899   5.952414
    30  H    3.030344   5.511314   4.165638   3.575601   2.416878
    31  H    2.429475   6.560794   5.348778   4.019598   3.582426
                   21         22         23         24         25
    21  H    0.000000
    22  H    1.750891   0.000000
    23  H    2.221447   3.917811   0.000000
    24  H    3.826250   5.380400   1.751521   0.000000
    25  H    4.954726   6.577713   3.040777   2.462316   0.000000
    26  H    4.333427   6.071705   2.437086   2.543101   1.751535
    27  H    4.062746   4.232600   4.239640   4.333329   6.586265
    28  H    3.978360   4.811495   3.222197   2.776907   5.132488
    29  H    3.817633   3.878490   4.153303   4.308475   5.983595
    30  H    2.224001   3.163947   2.660164   3.810797   3.975050
    31  H    3.812158   4.482488   3.796249   4.280404   4.097302
                   26         27         28         29         30
    26  H    0.000000
    27  H    6.505405   0.000000
    28  H    5.161356   1.739700   0.000000
    29  H    6.332709   2.183733   2.637736   0.000000
    30  H    4.047934   5.131417   4.699874   3.937408   0.000000
    31  H    4.850937   5.619177   5.104946   3.893868   1.759537
                   31
    31  H    0.000000
 Stoichiometry    C10H18O3
 Framework group  C1[X(C10H18O3)]
 Deg. of freedom    87
 Full point group                 C1      NOp   1
 Largest Abelian subgroup         C1      NOp   1
 Largest concise Abelian subgroup C1      NOp   1
                         Standard orientation:                         
 ---------------------------------------------------------------------
 Center     Atomic      Atomic             Coordinates (Angstroms)
 Number     Number       Type             X           Y           Z
 ---------------------------------------------------------------------
      1          6           0       -2.759831    0.956436    1.041769
      2          6           0       -1.454471   -1.096080   -0.577850
      3          6           0        1.066487   -0.639806   -0.775926
      4          6           0       -2.450063    1.320053   -0.405483
      5          8           0        2.948781   -0.621282    0.714587
      6          6           0        3.038501    0.792390    0.702787
      7          6           0       -1.652571    0.074217    1.581328
      8          6           0        1.095651    0.879205   -0.885516
      9          6           0        1.625125   -1.096896    0.570545
     10          6           0        2.525270    1.360721   -0.611038
     11          8           0       -1.497011   -1.118221    0.820250
     12          8           0       -0.154447   -1.284132   -1.100369
     13          6           0       -2.260144    0.044134   -1.228454
     14          1           0       -3.709839    0.430576    1.105036
     15          1           0       -2.834074    1.844645    1.662421
     16          1           0        1.738271   -1.031113   -1.530974
     17          1           0       -3.260571    1.896974   -0.840197
     18          1           0       -1.567145    1.947261   -0.438914
     19          1           0        4.081896    1.032361    0.855588
     20          1           0        2.469565    1.190363    1.540113
     21          1           0       -0.717916    0.620311    1.606002
     22          1           0       -1.867977   -0.265523    2.584919
     23          1           0        0.429973    1.326500   -0.159918
     24          1           0        0.769655    1.190607   -1.872803
     25          1           0        3.185038    1.047685   -1.416185
     26          1           0        2.556119    2.445426   -0.568450
     27          1           0       -3.246702   -0.370626   -1.415453
     28          1           0       -1.825779    0.258238   -2.197798
     29          1           0       -1.923133   -2.020736   -0.873241
     30          1           0        1.026739   -0.743567    1.400583
     31          1           0        1.673571   -2.176548    0.610554
 ---------------------------------------------------------------------
 Rotational constants (GHZ):           1.3882601           0.5148548           0.5045738
 Standard basis: 6-311++G(2d,2p) (5D, 7F)
 There are   557 symmetry adapted cartesian basis functions of A   symmetry.
 There are   531 symmetry adapted basis functions of A   symmetry.
   531 basis functions,   762 primitive gaussians,   557 cartesian basis functions
    51 alpha electrons       51 beta electrons
       nuclear repulsion energy       913.7431142522 Hartrees.
 NAtoms=   31 NActive=   31 NUniq=   31 SFac= 1.00D+00 NAtFMM=   60 NAOKFM=F Big=F
 Integral buffers will be    131072 words long.
 Raffenetti 2 integral format.
 Two-electron integral symmetry is turned on.
 ------------------------------------------------------------------------------
 Polarizable Continuum Model (PCM)
 =================================
 Model                : PCM.
 Atomic radii         : UFF (Universal Force Field).
 Polarization charges : Total charges.
 Charge compensation  : None.
 Solution method      : On-the-fly selection.
 Cavity type          : Scaled VdW (van der Waals Surface) (Alpha=1.100).
 Cavity algorithm     : GePol (No added spheres)
                        Default sphere list used, NSphG=   31.
                        Lebedev-Laikov grids with approx.  5.0 points / Ang**2.
                        Smoothing algorithm: York/Karplus (Gamma=1.0000).
                        Polarization charges: spherical gaussians, with
                                              point-specific exponents (IZeta= 3).
                        Self-potential: point-specific (ISelfS= 7).
                        Self-field    : sphere-specific E.n sum rule (ISelfD= 2).
 1st derivatives      : Analytical E(r).r(x)/FMM algorithm (CHGder, D1EAlg=3).
                        Cavity 1st derivative terms included.
 Solvent              : Water, Eps=  78.355300 Eps(inf)=   1.777849
 ------------------------------------------------------------------------------
 One-electron integrals computed using PRISM.
 NBasis=   531 RedAO= T EigKep=  3.29D-06  NBF=   531
 NBsUse=   531 1.00D-06 EigRej= -1.00D+00 NBFU=   531
 ExpMin= 3.60D-02 ExpMax= 8.59D+03 ExpMxC= 1.30D+03 IAcc=3 IRadAn=         5 AccDes= 0.00D+00
 Harris functional with IExCor= 1009 and IRadAn=       5 diagonalized for initial guess.
 HarFok:  IExCor= 1009 AccDes= 0.00D+00 IRadAn=         5 IDoV= 1 UseB2=F ITyADJ=14
 ICtDFT=  3500011 ScaDFX=  1.000000  1.000000  1.000000  1.000000
 FoFCou: FMM=F IPFlag=           0 FMFlag=      100000 FMFlg1=           0
         NFxFlg=           0 DoJE=T BraDBF=F KetDBF=T FulRan=T
         wScrn=  0.000000 ICntrl=       500 IOpCl=  0 I1Cent=   200000004 NGrid=           0
         NMat0=    1 NMatS0=      1 NMatT0=    0 NMatD0=    1 NMtDS0=    0 NMtDT0=    0
 Petite list used in FoFCou.
 Requested convergence on RMS density matrix=1.00D-08 within 128 cycles.
 Requested convergence on MAX density matrix=1.00D-06.
 Requested convergence on             energy=1.00D-06.
 No special actions if energy rises.
 Inv3:  Mode=1 IEnd=    11784972.
 Iteration    1 A*A^-1 deviation from unit magnitude is 4.66D-15 for   1965.
 Iteration    1 A*A^-1 deviation from orthogonality  is 3.18D-15 for   1977    865.
 Iteration    1 A^-1*A deviation from unit magnitude is 4.66D-15 for   1965.
 Iteration    1 A^-1*A deviation from orthogonality  is 1.46D-15 for   1964    869.
 Error on total polarization charges =  0.01444
 SCF Done:  E(RM062X) =  -617.479632656     A.U. after   12 cycles
            NFock= 12  Conv=0.51D-08     -V/T= 2.0035

 **********************************************************************

            Population analysis using the SCF density.

 **********************************************************************

 Orbital symmetries:
       Occupied  (A) (A) (A) (A) (A) (A) (A) (A) (A) (A) (A) (A)
                 (A) (A) (A) (A) (A) (A) (A) (A) (A) (A) (A) (A)
                 (A) (A) (A) (A) (A) (A) (A) (A) (A) (A) (A) (A)
                 (A) (A) (A) (A) (A) (A) (A) (A) (A) (A) (A) (A)
                 (A) (A) (A)
       Virtual   (A) (A) (A) (A) (A) (A) (A) (A) (A) (A) (A) (A)
                 (A) (A) (A) (A) (A) (A) (A) (A) (A) (A) (A) (A)
                 (A) (A) (A) (A) (A) (A) (A) (A) (A) (A) (A) (A)
                 (A) (A) (A) (A) (A) (A) (A) (A) (A) (A) (A) (A)
                 (A) (A) (A) (A) (A) (A) (A) (A) (A) (A) (A) (A)
                 (A) (A) (A) (A) (A) (A) (A) (A) (A) (A) (A) (A)
                 (A) (A) (A) (A) (A) (A) (A) (A) (A) (A) (A) (A)
                 (A) (A) (A) (A) (A) (A) (A) (A) (A) (A) (A) (A)
                 (A) (A) (A) (A) (A) (A) (A) (A) (A) (A) (A) (A)
                 (A) (A) (A) (A) (A) (A) (A) (A) (A) (A) (A) (A)
                 (A) (A) (A) (A) (A) (A) (A) (A) (A) (A) (A) (A)
                 (A) (A) (A) (A) (A) (A) (A) (A) (A) (A) (A) (A)
                 (A) (A) (A) (A) (A) (A) (A) (A) (A) (A) (A) (A)
                 (A) (A) (A) (A) (A) (A) (A) (A) (A) (A) (A) (A)
                 (A) (A) (A) (A) (A) (A) (A) (A) (A) (A) (A) (A)
                 (A) (A) (A) (A) (A) (A) (A) (A) (A) (A) (A) (A)
                 (A) (A) (A) (A) (A) (A) (A) (A) (A) (A) (A) (A)
                 (A) (A) (A) (A) (A) (A) (A) (A) (A) (A) (A) (A)
                 (A) (A) (A) (A) (A) (A) (A) (A) (A) (A) (A) (A)
                 (A) (A) (A) (A) (A) (A) (A) (A) (A) (A) (A) (A)
                 (A) (A) (A) (A) (A) (A) (A) (A) (A) (A) (A) (A)
                 (A) (A) (A) (A) (A) (A) (A) (A) (A) (A) (A) (A)
                 (A) (A) (A) (A) (A) (A) (A) (A) (A) (A) (A) (A)
                 (A) (A) (A) (A) (A) (A) (A) (A) (A) (A) (A) (A)
                 (A) (A) (A) (A) (A) (A) (A) (A) (A) (A) (A) (A)
                 (A) (A) (A) (A) (A) (A) (A) (A) (A) (A) (A) (A)
                 (A) (A) (A) (A) (A) (A) (A) (A) (A) (A) (A) (A)
                 (A) (A) (A) (A) (A) (A) (A) (A) (A) (A) (A) (A)
                 (A) (A) (A) (A) (A) (A) (A) (A) (A) (A) (A) (A)
                 (A) (A) (A) (A) (A) (A) (A) (A) (A) (A) (A) (A)
                 (A) (A) (A) (A) (A) (A) (A) (A) (A) (A) (A) (A)
                 (A) (A) (A) (A) (A) (A) (A) (A) (A) (A) (A) (A)
                 (A) (A) (A) (A) (A) (A) (A) (A) (A) (A) (A) (A)
                 (A) (A) (A) (A) (A) (A) (A) (A) (A) (A) (A) (A)
                 (A) (A) (A) (A) (A) (A) (A) (A) (A) (A) (A) (A)
                 (A) (A) (A) (A) (A) (A) (A) (A) (A) (A) (A) (A)
                 (A) (A) (A) (A) (A) (A) (A) (A) (A) (A) (A) (A)
                 (A) (A) (A) (A) (A) (A) (A) (A) (A) (A) (A) (A)
                 (A) (A) (A) (A) (A) (A) (A) (A) (A) (A) (A) (A)
                 (A) (A) (A) (A) (A) (A) (A) (A) (A) (A) (A) (A)
 The electronic state is 1-A.
 Alpha  occ. eigenvalues --  -19.63242 -19.62791 -19.62332 -10.63977 -10.58909
 Alpha  occ. eigenvalues --  -10.58169 -10.57882 -10.57608 -10.53281 -10.53243
 Alpha  occ. eigenvalues --  -10.53212 -10.53149 -10.53017  -1.19310  -1.16618
 Alpha  occ. eigenvalues --   -1.13357  -0.90784  -0.90466  -0.87843  -0.84739
 Alpha  occ. eigenvalues --   -0.75789  -0.74470  -0.73915  -0.70556  -0.67294
 Alpha  occ. eigenvalues --   -0.62427  -0.60075  -0.58435  -0.56725  -0.56285
 Alpha  occ. eigenvalues --   -0.54451  -0.53377  -0.52094  -0.51751  -0.50938
 Alpha  occ. eigenvalues --   -0.49286  -0.47649  -0.46050  -0.45326  -0.45254
 Alpha  occ. eigenvalues --   -0.43019  -0.42919  -0.40801  -0.40640  -0.39334
 Alpha  occ. eigenvalues --   -0.38352  -0.37234  -0.36737  -0.34412  -0.33656
 Alpha  occ. eigenvalues --   -0.31168
 Alpha virt. eigenvalues --   -0.00244   0.00644   0.00815   0.01063   0.02376
 Alpha virt. eigenvalues --    0.02616   0.02745   0.03170   0.03337   0.04856
 Alpha virt. eigenvalues --    0.05103   0.05504   0.05636   0.05921   0.06905
 Alpha virt. eigenvalues --    0.07780   0.08114   0.08636   0.09179   0.09532
 Alpha virt. eigenvalues --    0.10499   0.10660   0.11002   0.11502   0.11845
 Alpha virt. eigenvalues --    0.12374   0.12566   0.13170   0.13560   0.13701
 Alpha virt. eigenvalues --    0.13815   0.14072   0.14369   0.14481   0.15148
 Alpha virt. eigenvalues --    0.15337   0.15554   0.15856   0.16239   0.16326
 Alpha virt. eigenvalues --    0.16644   0.16903   0.16981   0.17593   0.17645
 Alpha virt. eigenvalues --    0.18068   0.18199   0.18330   0.18807   0.19383
 Alpha virt. eigenvalues --    0.19678   0.20041   0.20521   0.20584   0.20676
 Alpha virt. eigenvalues --    0.21898   0.22201   0.22655   0.22980   0.24608
 Alpha virt. eigenvalues --    0.25304   0.25979   0.26612   0.26887   0.27110
 Alpha virt. eigenvalues --    0.27889   0.28014   0.28543   0.29194   0.29998
 Alpha virt. eigenvalues --    0.30764   0.31038   0.31893   0.32198   0.32384
 Alpha virt. eigenvalues --    0.32639   0.33438   0.33980   0.34619   0.34793
 Alpha virt. eigenvalues --    0.35148   0.35840   0.36024   0.36350   0.36746
 Alpha virt. eigenvalues --    0.36872   0.37796   0.38053   0.38353   0.38515
 Alpha virt. eigenvalues --    0.38873   0.39283   0.39406   0.40095   0.40673
 Alpha virt. eigenvalues --    0.41096   0.41377   0.42139   0.42963   0.43321
 Alpha virt. eigenvalues --    0.44678   0.46482   0.49177   0.50064   0.51033
 Alpha virt. eigenvalues --    0.51458   0.53519   0.53859   0.54471   0.55387
 Alpha virt. eigenvalues --    0.55713   0.57022   0.58001   0.58732   0.59838
 Alpha virt. eigenvalues --    0.60704   0.61122   0.61431   0.61734   0.62312
 Alpha virt. eigenvalues --    0.63136   0.63459   0.64353   0.64542   0.64873
 Alpha virt. eigenvalues --    0.65684   0.66759   0.66929   0.67602   0.68052
 Alpha virt. eigenvalues --    0.69265   0.69440   0.69604   0.70077   0.70731
 Alpha virt. eigenvalues --    0.71442   0.72242   0.72543   0.73419   0.73528
 Alpha virt. eigenvalues --    0.74095   0.75115   0.75469   0.75965   0.76235
 Alpha virt. eigenvalues --    0.76837   0.77215   0.77530   0.78023   0.79204
 Alpha virt. eigenvalues --    0.79621   0.80907   0.82955   0.83665   0.86033
 Alpha virt. eigenvalues --    0.87332   0.87536   0.87938   0.89476   0.90496
 Alpha virt. eigenvalues --    0.90987   0.92007   0.92996   0.93895   0.95790
 Alpha virt. eigenvalues --    0.96802   0.98134   0.98658   1.00696   1.02477
 Alpha virt. eigenvalues --    1.02678   1.03065   1.03830   1.04812   1.06151
 Alpha virt. eigenvalues --    1.07399   1.09184   1.10696   1.11089   1.12088
 Alpha virt. eigenvalues --    1.13047   1.13919   1.15918   1.16177   1.16975
 Alpha virt. eigenvalues --    1.18553   1.19267   1.20046   1.20492   1.21185
 Alpha virt. eigenvalues --    1.21238   1.22910   1.23311   1.24011   1.24430
 Alpha virt. eigenvalues --    1.25554   1.26004   1.27033   1.27320   1.27705
 Alpha virt. eigenvalues --    1.28813   1.30560   1.31296   1.32166   1.32985
 Alpha virt. eigenvalues --    1.33266   1.33801   1.34397   1.35346   1.35818
 Alpha virt. eigenvalues --    1.36414   1.36962   1.37621   1.37860   1.38869
 Alpha virt. eigenvalues --    1.39479   1.39574   1.40658   1.41100   1.41922
 Alpha virt. eigenvalues --    1.43029   1.43795   1.44333   1.45359   1.46025
 Alpha virt. eigenvalues --    1.46330   1.47512   1.48048   1.48234   1.48959
 Alpha virt. eigenvalues --    1.49776   1.50588   1.51679   1.52135   1.53410
 Alpha virt. eigenvalues --    1.53943   1.54097   1.54398   1.55503   1.55628
 Alpha virt. eigenvalues --    1.56788   1.57495   1.58119   1.58630   1.59911
 Alpha virt. eigenvalues --    1.60743   1.60961   1.62069   1.63435   1.63644
 Alpha virt. eigenvalues --    1.64054   1.65205   1.65753   1.66226   1.67000
 Alpha virt. eigenvalues --    1.67133   1.68315   1.70114   1.70495   1.71713
 Alpha virt. eigenvalues --    1.72458   1.74078   1.75415   1.76852   1.77700
 Alpha virt. eigenvalues --    1.78536   1.80784   1.81204   1.82698   1.86052
 Alpha virt. eigenvalues --    1.87016   1.87719   1.92367   1.93219   1.98056
 Alpha virt. eigenvalues --    2.02187   2.06172   2.09406   2.19263   2.19948
 Alpha virt. eigenvalues --    2.21299   2.24115   2.27270   2.30366   2.39529
 Alpha virt. eigenvalues --    2.42145   2.43356   2.45200   2.46728   2.54364
 Alpha virt. eigenvalues --    2.57311   2.76293   2.79347   2.80395   2.84167
 Alpha virt. eigenvalues --    2.85886   2.89335   2.93129   2.93818   2.95188
 Alpha virt. eigenvalues --    2.95798   2.97092   3.01409   3.02753   3.04587
 Alpha virt. eigenvalues --    3.06181   3.06492   3.09607   3.09939   3.11396
 Alpha virt. eigenvalues --    3.12882   3.14339   3.17126   3.19456   3.22064
 Alpha virt. eigenvalues --    3.24423   3.25781   3.30367   3.33775   3.35208
 Alpha virt. eigenvalues --    3.36853   3.37294   3.38222   3.39578   3.41063
 Alpha virt. eigenvalues --    3.42236   3.43973   3.45137   3.45274   3.47409
 Alpha virt. eigenvalues --    3.48031   3.49879   3.50237   3.51458   3.51825
 Alpha virt. eigenvalues --    3.52884   3.53480   3.54682   3.55232   3.55930
 Alpha virt. eigenvalues --    3.56479   3.58732   3.59056   3.59171   3.60526
 Alpha virt. eigenvalues --    3.60970   3.61615   3.62902   3.63332   3.64713
 Alpha virt. eigenvalues --    3.65572   3.66511   3.67887   3.68766   3.69085
 Alpha virt. eigenvalues --    3.70460   3.71093   3.71957   3.72901   3.74174
 Alpha virt. eigenvalues --    3.75009   3.76234   3.76978   3.77414   3.77994
 Alpha virt. eigenvalues --    3.79612   3.80589   3.81485   3.82959   3.84802
 Alpha virt. eigenvalues --    3.86604   3.88168   3.88781   3.89511   3.92344
 Alpha virt. eigenvalues --    3.94175   3.94941   3.95981   3.97555   3.98039
 Alpha virt. eigenvalues --    3.99433   4.01137   4.01927   4.02028   4.04582
 Alpha virt. eigenvalues --    4.04884   4.05228   4.07412   4.08081   4.08287
 Alpha virt. eigenvalues --    4.09137   4.09953   4.10902   4.11690   4.12475
 Alpha virt. eigenvalues --    4.12957   4.14513   4.14864   4.16375   4.17613
 Alpha virt. eigenvalues --    4.18373   4.18497   4.19211   4.20490   4.23124
 Alpha virt. eigenvalues --    4.23707   4.24504   4.25338   4.27204   4.27868
 Alpha virt. eigenvalues --    4.28320   4.29605   4.31345   4.32536   4.34987
 Alpha virt. eigenvalues --    4.35407   4.35983   4.36721   4.41379   4.41878
 Alpha virt. eigenvalues --    4.44175   4.44935   4.47594   4.50894   4.55933
 Alpha virt. eigenvalues --    4.58915   4.62421   4.75017   4.76394   4.84907
 Alpha virt. eigenvalues --    4.86692   4.92007   4.93033   4.99984   5.00973
 Alpha virt. eigenvalues --    5.07009   5.07816   5.08583   5.09294   5.12808
 Alpha virt. eigenvalues --    5.13425   5.16336   5.19082   5.31318   5.37124
 Alpha virt. eigenvalues --    5.40754   5.54894   5.58682   5.59315   5.85414
 Alpha virt. eigenvalues --    5.88575   6.00345   6.98610   7.03513   7.05812
 Alpha virt. eigenvalues --    7.08588   7.08895   7.12145   7.14014   7.16903
 Alpha virt. eigenvalues --    7.28814   7.36690   7.42185   7.51783   7.53948
 Alpha virt. eigenvalues --    7.56940   7.61800  23.94690  23.98010  24.05782
 Alpha virt. eigenvalues --   24.07170  24.08203  24.11112  24.14012  24.15531
 Alpha virt. eigenvalues --   24.16955  24.19218  50.17022  50.18289  50.19910
          Condensed to atoms (all electrons):
               1          2          3          4          5          6
     1  C    6.333385  -0.027246   0.194412  -0.232253  -0.001809   0.017687
     2  C   -0.027246   7.482571  -1.328157   0.156515   0.002242   0.004819
     3  C    0.194412  -1.328157   9.481491   0.042761  -0.055030   0.114146
     4  C   -0.232253   0.156515   0.042761   5.908504   0.000659   0.004662
     5  O   -0.001809   0.002242  -0.055030   0.000659   8.331020   0.122662
     6  C    0.017687   0.004819   0.114146   0.004662   0.122662   5.452525
     7  C   -0.329735  -0.353912   0.096927   0.071453   0.002546  -0.024157
     8  C   -0.073096   0.495342  -2.062488   0.016744  -0.025123  -0.064419
     9  C   -0.015249   0.194051  -0.976063  -0.041895   0.194212  -0.205422
    10  C   -0.043905   0.033803  -0.235437   0.035294  -0.013177   0.049065
    11  O   -0.119060   0.233914   0.093147   0.002721  -0.000587   0.004129
    12  O   -0.034120   0.175546  -0.060704  -0.036017   0.001647  -0.016195
    13  C    0.155647  -1.261612   0.512876  -0.478040  -0.002076  -0.009126
    14  H    0.432791   0.019671  -0.003075   0.006168  -0.000000  -0.000119
    15  H    0.444017  -0.008580   0.003565  -0.052559  -0.000089   0.000630
    16  H    0.000327  -0.051236   0.619522   0.003500   0.002609   0.007458
    17  H   -0.022257  -0.008361   0.005769   0.421308  -0.000026   0.000372
    18  H   -0.182468   0.025469  -0.054154   0.618760   0.000285  -0.004179
    19  H    0.000538   0.002796  -0.003897   0.000864  -0.072607   0.423252
    20  H   -0.000893  -0.006536   0.046043   0.004435  -0.042304   0.463753
    21  H   -0.155566   0.009602  -0.123286   0.047188  -0.000431  -0.022942
    22  H   -0.009876  -0.011202   0.022445   0.004683   0.000766   0.000002
    23  H    0.099158  -0.057501   0.272935  -0.088821  -0.007318   0.044918
    24  H    0.012912   0.033870  -0.050846  -0.005308   0.000283   0.007714
    25  H   -0.000034  -0.006455  -0.002251   0.002527  -0.010487  -0.076515
    26  H   -0.001767  -0.002716   0.000152   0.000617   0.007458  -0.044720
    27  H   -0.024311  -0.077737   0.026387  -0.013706  -0.000074  -0.000383
    28  H   -0.009078  -0.080428  -0.046230  -0.056601   0.000023  -0.000586
    29  H   -0.001181   0.478826   0.007523  -0.006085  -0.000362   0.001676
    30  H   -0.028927  -0.041961   0.073845  -0.011114  -0.047365  -0.011991
    31  H   -0.000585   0.011429  -0.112384   0.001989  -0.062109  -0.007626
               7          8          9         10         11         12
     1  C   -0.329735  -0.073096  -0.015249  -0.043905  -0.119060  -0.034120
     2  C   -0.353912   0.495342   0.194051   0.033803   0.233914   0.175546
     3  C    0.096927  -2.062488  -0.976063  -0.235437   0.093147  -0.060704
     4  C    0.071453   0.016744  -0.041895   0.035294   0.002721  -0.036017
     5  O    0.002546  -0.025123   0.194212  -0.013177  -0.000587   0.001647
     6  C   -0.024157  -0.064419  -0.205422   0.049065   0.004129  -0.016195
     7  C    5.552001  -0.034674  -0.033025   0.029757   0.212224   0.034547
     8  C   -0.034674   7.360367   0.512067  -0.315422  -0.061375   0.049276
     9  C   -0.033025   0.512067   5.826259   0.064386  -0.006623   0.017743
    10  C    0.029757  -0.315422   0.064386   6.085807   0.002680   0.036677
    11  O    0.212224  -0.061375  -0.006623   0.002680   8.115532  -0.012781
    12  O    0.034547   0.049276   0.017743   0.036677  -0.012781   8.362840
    13  C    0.153909  -0.259478  -0.026318  -0.095597  -0.012493  -0.030419
    14  H   -0.054274   0.000166   0.001644  -0.000316  -0.005859   0.000425
    15  H   -0.031825  -0.002572  -0.001715   0.000932   0.008767  -0.000497
    16  H    0.010213  -0.061009  -0.120845  -0.043488   0.003239  -0.106884
    17  H    0.009433  -0.002448  -0.002303  -0.000127  -0.002043  -0.001446
    18  H    0.032837   0.059978   0.007146   0.012061   0.003012   0.000973
    19  H   -0.001906  -0.001239   0.019825  -0.028678   0.000114  -0.000051
    20  H    0.006340   0.020081  -0.027741  -0.072152   0.000438  -0.002587
    21  H    0.485068   0.042356   0.048299   0.027772  -0.039165   0.017802
    22  H    0.426418  -0.008355  -0.009362  -0.002218  -0.058631  -0.002077
    23  H   -0.042781   0.229832  -0.086546  -0.136442   0.004547  -0.017647
    24  H   -0.012166   0.395641   0.004419   0.034420  -0.001749  -0.002307
    25  H    0.000534   0.003136   0.000937   0.453127   0.000156   0.000732
    26  H    0.001334  -0.058822   0.008401   0.469937  -0.000060  -0.000087
    27  H    0.016265  -0.008136  -0.003553  -0.001526  -0.008436  -0.004859
    28  H    0.009165   0.030894   0.006893   0.001700   0.008921   0.003753
    29  H   -0.018459  -0.010753   0.001456  -0.007286  -0.063907  -0.105118
    30  H    0.027939  -0.100921   0.389169   0.029923   0.000860  -0.014493
    31  H   -0.005353   0.027430   0.487301   0.011705  -0.009910   0.021324
              13         14         15         16         17         18
     1  C    0.155647   0.432791   0.444017   0.000327  -0.022257  -0.182468
     2  C   -1.261612   0.019671  -0.008580  -0.051236  -0.008361   0.025469
     3  C    0.512876  -0.003075   0.003565   0.619522   0.005769  -0.054154
     4  C   -0.478040   0.006168  -0.052559   0.003500   0.421308   0.618760
     5  O   -0.002076  -0.000000  -0.000089   0.002609  -0.000026   0.000285
     6  C   -0.009126  -0.000119   0.000630   0.007458   0.000372  -0.004179
     7  C    0.153909  -0.054274  -0.031825   0.010213   0.009433   0.032837
     8  C   -0.259478   0.000166  -0.002572  -0.061009  -0.002448   0.059978
     9  C   -0.026318   0.001644  -0.001715  -0.120845  -0.002303   0.007146
    10  C   -0.095597  -0.000316   0.000932  -0.043488  -0.000127   0.012061
    11  O   -0.012493  -0.005859   0.008767   0.003239  -0.002043   0.003012
    12  O   -0.030419   0.000425  -0.000497  -0.106884  -0.001446   0.000973
    13  C    6.822517  -0.029993   0.017355   0.023689  -0.039705  -0.148053
    14  H   -0.029993   0.467177  -0.007325   0.000002   0.000346   0.001417
    15  H    0.017355  -0.007325   0.477097   0.000079  -0.004639  -0.007267
    16  H    0.023689   0.000002   0.000079   0.450881  -0.000082  -0.000049
    17  H   -0.039705   0.000346  -0.004639  -0.000082   0.456851  -0.007453
    18  H   -0.148053   0.001417  -0.007267  -0.000049  -0.007453   0.525632
    19  H   -0.001394  -0.000010   0.000048  -0.003169   0.000061  -0.000586
    20  H   -0.004219   0.000051   0.000135   0.004180  -0.000047   0.004645
    21  H   -0.026251   0.002246  -0.001623  -0.004039  -0.000007   0.017764
    22  H    0.015080  -0.002747  -0.010743   0.000594   0.002173  -0.004540
    23  H    0.110826  -0.002180   0.001792   0.005459   0.003473  -0.072353
    24  H   -0.028507   0.000273  -0.000253  -0.002894  -0.001820  -0.003367
    25  H    0.000971  -0.000003  -0.000006   0.000126   0.000080   0.001489
    26  H   -0.001738  -0.000034  -0.000029  -0.001813   0.000025   0.001520
    27  H    0.466729  -0.004839  -0.002096   0.001263  -0.010736   0.003877
    28  H    0.488915  -0.001694   0.000985  -0.001956  -0.003804  -0.003462
    29  H   -0.026554   0.003612   0.000010   0.003873   0.002253  -0.002486
    30  H    0.011788   0.001084  -0.000337   0.009031  -0.000833  -0.000127
    31  H   -0.006499   0.000041  -0.000024  -0.011199   0.000085   0.000488
              19         20         21         22         23         24
     1  C    0.000538  -0.000893  -0.155566  -0.009876   0.099158   0.012912
     2  C    0.002796  -0.006536   0.009602  -0.011202  -0.057501   0.033870
     3  C   -0.003897   0.046043  -0.123286   0.022445   0.272935  -0.050846
     4  C    0.000864   0.004435   0.047188   0.004683  -0.088821  -0.005308
     5  O   -0.072607  -0.042304  -0.000431   0.000766  -0.007318   0.000283
     6  C    0.423252   0.463753  -0.022942   0.000002   0.044918   0.007714
     7  C   -0.001906   0.006340   0.485068   0.426418  -0.042781  -0.012166
     8  C   -0.001239   0.020081   0.042356  -0.008355   0.229832   0.395641
     9  C    0.019825  -0.027741   0.048299  -0.009362  -0.086546   0.004419
    10  C   -0.028678  -0.072152   0.027772  -0.002218  -0.136442   0.034420
    11  O    0.000114   0.000438  -0.039165  -0.058631   0.004547  -0.001749
    12  O   -0.000051  -0.002587   0.017802  -0.002077  -0.017647  -0.002307
    13  C   -0.001394  -0.004219  -0.026251   0.015080   0.110826  -0.028507
    14  H   -0.000010   0.000051   0.002246  -0.002747  -0.002180   0.000273
    15  H    0.000048   0.000135  -0.001623  -0.010743   0.001792  -0.000253
    16  H   -0.003169   0.004180  -0.004039   0.000594   0.005459  -0.002894
    17  H    0.000061  -0.000047  -0.000007   0.002173   0.003473  -0.001820
    18  H   -0.000586   0.004645   0.017764  -0.004540  -0.072353  -0.003367
    19  H    0.463620  -0.012404   0.000028  -0.000004   0.003253   0.001479
    20  H   -0.012404   0.516324  -0.005713  -0.000275  -0.035552   0.002534
    21  H    0.000028  -0.005713   0.616954  -0.030000  -0.055990   0.000712
    22  H   -0.000004  -0.000275  -0.030000   0.454205   0.007594  -0.000425
    23  H    0.003253  -0.035552  -0.055990   0.007594   0.674969  -0.028422
    24  H    0.001479   0.002534   0.000712  -0.000425  -0.028422   0.453420
    25  H   -0.004493   0.002565   0.001044   0.000008  -0.008529  -0.005327
    26  H   -0.008181   0.005728   0.002158  -0.000103  -0.014276  -0.010608
    27  H   -0.000015  -0.000016  -0.000403   0.000596   0.000400  -0.000736
    28  H   -0.000153  -0.000328   0.003498   0.000192   0.004169  -0.006849
    29  H    0.000115  -0.000282  -0.007426   0.002945   0.002963  -0.000611
    30  H   -0.003382  -0.000985  -0.015049  -0.003422  -0.006240  -0.000682
    31  H    0.002959  -0.002365   0.006577  -0.000543  -0.004352  -0.001197
              25         26         27         28         29         30
     1  C   -0.000034  -0.001767  -0.024311  -0.009078  -0.001181  -0.028927
     2  C   -0.006455  -0.002716  -0.077737  -0.080428   0.478826  -0.041961
     3  C   -0.002251   0.000152   0.026387  -0.046230   0.007523   0.073845
     4  C    0.002527   0.000617  -0.013706  -0.056601  -0.006085  -0.011114
     5  O   -0.010487   0.007458  -0.000074   0.000023  -0.000362  -0.047365
     6  C   -0.076515  -0.044720  -0.000383  -0.000586   0.001676  -0.011991
     7  C    0.000534   0.001334   0.016265   0.009165  -0.018459   0.027939
     8  C    0.003136  -0.058822  -0.008136   0.030894  -0.010753  -0.100921
     9  C    0.000937   0.008401  -0.003553   0.006893   0.001456   0.389169
    10  C    0.453127   0.469937  -0.001526   0.001700  -0.007286   0.029923
    11  O    0.000156  -0.000060  -0.008436   0.008921  -0.063907   0.000860
    12  O    0.000732  -0.000087  -0.004859   0.003753  -0.105118  -0.014493
    13  C    0.000971  -0.001738   0.466729   0.488915  -0.026554   0.011788
    14  H   -0.000003  -0.000034  -0.004839  -0.001694   0.003612   0.001084
    15  H   -0.000006  -0.000029  -0.002096   0.000985   0.000010  -0.000337
    16  H    0.000126  -0.001813   0.001263  -0.001956   0.003873   0.009031
    17  H    0.000080   0.000025  -0.010736  -0.003804   0.002253  -0.000833
    18  H    0.001489   0.001520   0.003877  -0.003462  -0.002486  -0.000127
    19  H   -0.004493  -0.008181  -0.000015  -0.000153   0.000115  -0.003382
    20  H    0.002565   0.005728  -0.000016  -0.000328  -0.000282  -0.000985
    21  H    0.001044   0.002158  -0.000403   0.003498  -0.007426  -0.015049
    22  H    0.000008  -0.000103   0.000596   0.000192   0.002945  -0.003422
    23  H   -0.008529  -0.014276   0.000400   0.004169   0.002963  -0.006240
    24  H   -0.005327  -0.010608  -0.000736  -0.006849  -0.000611  -0.000682
    25  H    0.476115  -0.009378   0.000058  -0.000257  -0.000251  -0.004520
    26  H   -0.009378   0.488952  -0.000030   0.000644  -0.000304  -0.001571
    27  H    0.000058  -0.000030   0.445320  -0.004949  -0.011958  -0.001074
    28  H   -0.000257   0.000644  -0.004949   0.473803  -0.013380   0.000968
    29  H   -0.000251  -0.000304  -0.011958  -0.013380   0.519304   0.003304
    30  H   -0.004520  -0.001571  -0.001074   0.000968   0.003304   0.535196
    31  H    0.000567   0.001902  -0.000081   0.000384  -0.002147  -0.023768
              31
     1  C   -0.000585
     2  C    0.011429
     3  C   -0.112384
     4  C    0.001989
     5  O   -0.062109
     6  C   -0.007626
     7  C   -0.005353
     8  C    0.027430
     9  C    0.487301
    10  C    0.011705
    11  O   -0.009910
    12  O    0.021324
    13  C   -0.006499
    14  H    0.000041
    15  H   -0.000024
    16  H   -0.011199
    17  H    0.000085
    18  H    0.000488
    19  H    0.002959
    20  H   -0.002365
    21  H    0.006577
    22  H   -0.000543
    23  H   -0.004352
    24  H   -0.001197
    25  H    0.000567
    26  H    0.001902
    27  H   -0.000081
    28  H    0.000384
    29  H   -0.002147
    30  H   -0.023768
    31  H    0.473445
 Mulliken charges:
               1
     1  C   -0.377456
     2  C   -0.036826
     3  C   -0.499945
     4  C   -0.328955
     5  O   -0.325437
     6  C   -0.231092
     7  C   -0.236644
     8  C   -0.092980
     9  C   -0.227548
    10  C   -0.383277
    11  O   -0.291723
    12  O   -0.274995
    13  C   -0.292229
    14  H    0.175352
    15  H    0.176767
    16  H    0.262615
    17  H    0.205908
    18  H    0.173188
    19  H    0.223218
    20  H    0.137144
    21  H    0.158824
    22  H    0.216820
    23  H    0.198661
    24  H    0.216397
    25  H    0.184334
    26  H    0.167410
    27  H    0.218761
    28  H    0.194847
    29  H    0.250688
    30  H    0.235654
    31  H    0.202517
 Sum of Mulliken charges =  -0.00000
 Mulliken charges with hydrogens summed into heavy atoms:
               1
     1  C   -0.025337
     2  C    0.213863
     3  C   -0.237329
     4  C    0.050141
     5  O   -0.325437
     6  C    0.129270
     7  C    0.139000
     8  C    0.322078
     9  C    0.210624
    10  C   -0.031532
    11  O   -0.291723
    12  O   -0.274995
    13  C    0.121379
 Electronic spatial extent (au):  <R**2>=           2583.9968
 Charge=             -0.0000 electrons
 Dipole moment (field-independent basis, Debye):
    X=             -2.0094    Y=              4.4324    Z=             -0.0346  Tot=              4.8668
 Quadrupole moment (field-independent basis, Debye-Ang):
   XX=            -79.9257   YY=            -82.1748   ZZ=            -79.6370
   XY=              3.2364   XZ=             -1.7280   YZ=              1.3832
 Traceless Quadrupole moment (field-independent basis, Debye-Ang):
   XX=              0.6534   YY=             -1.5956   ZZ=              0.9422
   XY=              3.2364   XZ=             -1.7280   YZ=              1.3832
 Octapole moment (field-independent basis, Debye-Ang**2):
  XXX=            -28.8134  YYY=             -2.7092  ZZZ=              7.2163  XYY=              4.1837
  XXY=             19.9010  XXZ=            -10.5775  XZZ=             -3.6133  YZZ=              4.0281
  YYZ=              0.8341  XYZ=             -0.2577
 Hexadecapole moment (field-independent basis, Debye-Ang**3):
 XXXX=          -2252.5972 YYYY=           -608.2180 ZZZZ=           -555.8647 XXXY=             70.7673
 XXXZ=            -10.4233 YYYX=             -0.3810 YYYZ=              2.4133 ZZZX=            -15.2169
 ZZZY=             -4.2583 XXYY=           -469.6477 XXZZ=           -462.5348 YYZZ=           -204.2253
 XXYZ=             25.1629 YYXZ=              6.7032 ZZXY=              0.6382
 N-N= 9.137431142522D+02 E-N=-3.269013903106D+03  KE= 6.153126491248D+02
 D1PCM: PCM CHGder 1st derivatives, ID1Alg=3 FixD1E=F DoIter=F DoCFld=F I1PDM=0.
 Calling FoFJK, ICntrl=      2127 FMM=F ISym2X=0 I1Cent= 0 IOpClX= 0 NMat=1 NMatS=1 NMatT=0.
 ***** Axes restored to original set *****
 -------------------------------------------------------------------
 Center     Atomic                   Forces (Hartrees/Bohr)
 Number     Number              X              Y              Z
 -------------------------------------------------------------------
      1        6           0.002792295    0.000974810   -0.000812731
      2        6           0.003053820    0.011916621    0.003258400
      3        6          -0.008187866    0.004056308    0.005876081
      4        6          -0.000424014   -0.004429895    0.001294781
      5        8           0.007615418   -0.005048935    0.000686418
      6        6          -0.004211693   -0.002552497   -0.005169549
      7        6          -0.004766575   -0.000153363   -0.007254017
      8        6           0.004490316   -0.003768244   -0.000206656
      9        6           0.003188394    0.005281778   -0.004607408
     10        6          -0.002002036    0.000603577    0.002525274
     11        8           0.000504969   -0.007038846    0.004789497
     12        8           0.002108650   -0.006768561   -0.007859342
     13        6           0.001233657    0.001494543    0.003421693
     14        1          -0.002323468   -0.002222375   -0.000037908
     15        1          -0.000339146    0.002399008    0.001343370
     16        1           0.004708207   -0.001509003   -0.003491818
     17        1          -0.001729016    0.001628635   -0.000913282
     18        1           0.004062041    0.002288715   -0.000075936
     19        1           0.004168717    0.001007457    0.000441799
     20        1          -0.003890237    0.003119606    0.004067012
     21        1           0.006503396    0.004946301    0.000145574
     22        1          -0.000705719   -0.001077466    0.004285625
     23        1          -0.004176498    0.001665082    0.004981478
     24        1          -0.001781866    0.000688988   -0.003066250
     25        1           0.001644833   -0.001659397   -0.002161836
     26        1           0.000049330    0.003006272   -0.000235388
     27        1          -0.003394962   -0.001013782   -0.000434722
     28        1           0.002106513    0.000265125   -0.002910506
     29        1          -0.002968794   -0.006213118   -0.002248161
     30        1          -0.006618096    0.002732253    0.004734186
     31        1          -0.000710570   -0.004619596   -0.000365679
 -------------------------------------------------------------------
 Cartesian Forces:  Max     0.011916621 RMS     0.003748361

 GradGradGradGradGradGradGradGradGradGradGradGradGradGradGradGradGradGrad
 Berny optimization.
 FormGI is forming the generalized inverse of G from B-inverse, IUseBI=4.
 Internal  Forces:  Max     0.031449445 RMS     0.003065642
 Search for a local minimum.
 Step number   1 out of a maximum of  186
 All quantities printed in internal units (Hartrees-Bohrs-Radians)
 Mixed Optimization -- RFO/linear search
 Second derivative matrix not updated -- first step.
 ITU=  0
     Eigenvalues ---    0.00439   0.00638   0.00728   0.00762   0.01244
     Eigenvalues ---    0.01430   0.01452   0.02450   0.02596   0.02962
     Eigenvalues ---    0.03159   0.03798   0.03941   0.04124   0.04641
     Eigenvalues ---    0.04780   0.04866   0.04938   0.05081   0.05178
     Eigenvalues ---    0.05264   0.05635   0.05672   0.05747   0.06129
     Eigenvalues ---    0.06241   0.06410   0.06803   0.07520   0.07649
     Eigenvalues ---    0.07832   0.07881   0.08000   0.08027   0.08723
     Eigenvalues ---    0.08987   0.09570   0.09624   0.10728   0.11572
     Eigenvalues ---    0.11710   0.11765   0.12022   0.12517   0.12584
     Eigenvalues ---    0.15028   0.16370   0.16734   0.17446   0.18262
     Eigenvalues ---    0.20195   0.21964   0.22081   0.25000   0.27722
     Eigenvalues ---    0.28401   0.28478   0.28916   0.29251   0.29289
     Eigenvalues ---    0.30034   0.30104   0.35075   0.35082   0.35163
     Eigenvalues ---    0.35231   0.35266   0.35281   0.35315   0.35356
     Eigenvalues ---    0.35545   0.35565   0.35570   0.35661   0.35690
     Eigenvalues ---    0.35811   0.35816   0.35816   0.35848   0.36248
     Eigenvalues ---    0.40745   0.41464   0.41904   0.42743   0.43429
     Eigenvalues ---    0.445101000.000001000.000001000.000001000.00000
     Eigenvalues --- 1000.000001000.000001000.000001000.000001000.00000
     Eigenvalues --- 1000.000001000.000001000.000001000.000001000.00000
     Eigenvalues --- 1000.000001000.000001000.000001000.000001000.00000
     Eigenvalues --- 1000.000001000.000001000.000001000.000001000.00000
     Eigenvalues --- 1000.000001000.000001000.000001000.000001000.00000
     Eigenvalues --- 1000.000001000.000001000.000001000.000001000.00000
     Eigenvalues --- 1000.000001000.000001000.000001000.000001000.00000
     Eigenvalues --- 1000.000001000.000001000.000001000.000001000.00000
     Eigenvalues --- 1000.000001000.000001000.000001000.000001000.00000
     Eigenvalues --- 1000.000001000.000001000.000001000.000001000.00000
     Eigenvalues --- 1000.000001000.000001000.000001000.000001000.00000
     Eigenvalues --- 1000.000001000.000001000.000001000.000001000.00000
     Eigenvalues --- 1000.000001000.000001000.000001000.000001000.00000
     Eigenvalues --- 1000.000001000.000001000.000001000.000001000.00000
     Eigenvalues --- 1000.000001000.000001000.000001000.000001000.00000
     Eigenvalues --- 1000.000001000.000001000.000001000.000001000.00000
     Eigenvalues --- 1000.000001000.000001000.000001000.000001000.00000
     Eigenvalues --- 1000.000001000.000001000.000001000.000001000.00000
     Eigenvalues --- 1000.000001000.000001000.000001000.000001000.00000
 RFO step:  Lambda=-7.98574570D-03 EMin= 4.38837489D-03
 Linear search not attempted -- first point.
 Iteration  1 RMS(Cart)=  0.19858789 RMS(Int)=  0.00534524
 Iteration  2 RMS(Cart)=  0.02819674 RMS(Int)=  0.00018622
 Iteration  3 RMS(Cart)=  0.00015086 RMS(Int)=  0.00016739
 Iteration  4 RMS(Cart)=  0.00000004 RMS(Int)=  0.00016739
 Iteration  1 RMS(Cart)=  0.00021133 RMS(Int)=  0.00003999
 Iteration  2 RMS(Cart)=  0.00011169 RMS(Int)=  0.00004469
 Iteration  3 RMS(Cart)=  0.00005903 RMS(Int)=  0.00005030
 Iteration  4 RMS(Cart)=  0.00003120 RMS(Int)=  0.00005386
 Iteration  5 RMS(Cart)=  0.00001649 RMS(Int)=  0.00005588
 Iteration  6 RMS(Cart)=  0.00000871 RMS(Int)=  0.00005698
 Iteration  7 RMS(Cart)=  0.00000460 RMS(Int)=  0.00005757
 Iteration  8 RMS(Cart)=  0.00000243 RMS(Int)=  0.00005788
 Iteration  9 RMS(Cart)=  0.00000129 RMS(Int)=  0.00005805
 Iteration 10 RMS(Cart)=  0.00000068 RMS(Int)=  0.00005814
 Variable       Old X    -DE/DX   Delta X   Delta X   Delta X     New X
                                 (Linear)    (Quad)   (Total)
    R1        2.88003  -0.00087   0.00000  -0.00373  -0.00390   2.87613
    R2        2.86308   0.00011   0.00000  -0.00131  -0.00146   2.86162
    R3        2.05542   0.00310   0.00000   0.00864   0.00864   2.06406
    R4        2.05245   0.00275   0.00000   0.00763   0.00763   2.06009
    R5        2.64358   0.00330   0.00000   0.00778   0.00795   2.65152
    R6        2.67144  -0.00139   0.00000  -0.00314  -0.00314   2.66831
    R7        2.91072  -0.00055   0.00000  -0.00024  -0.00006   2.91066
    R8        2.03695   0.00724   0.00000   0.01953   0.01953   2.05649
    R9        2.87850  -0.00170   0.00000  -0.00471  -0.00465   2.87385
   R10        2.88701  -0.00054   0.00000  -0.00155  -0.00148   2.88553
   R11        2.67988  -0.00264   0.00000  -0.00607  -0.00607   2.67381
   R12        2.04799   0.00590   0.00000   0.01622   0.01622   2.06421
   R13        2.89154  -0.00084   0.00000  -0.00271  -0.00270   2.88884
   R14        2.05167   0.00252   0.00000   0.00698   0.00698   2.05865
   R15        2.04759   0.00464   0.00000   0.01275   0.01275   2.06034
   R16        2.67692   0.00343   0.00000   0.00729   0.00723   2.68415
   R17        2.67182   0.00345   0.00000   0.00789   0.00789   2.67971
   R18        2.87372   0.00038   0.00000   0.00095   0.00087   2.87458
   R19        2.04371   0.00431   0.00000   0.01177   0.01177   2.05547
   R20        2.05554   0.00631   0.00000   0.01758   0.01758   2.07311
   R21        2.68936   0.00304   0.00000   0.00707   0.00706   2.69642
   R22        2.04615   0.00811   0.00000   0.02225   0.02225   2.06840
   R23        2.04319   0.00446   0.00000   0.01216   0.01216   2.05536
   R24        2.89752  -0.00080   0.00000  -0.00277  -0.00278   2.89473
   R25        2.04378   0.00660   0.00000   0.01803   0.01803   2.06182
   R26        2.05101   0.00352   0.00000   0.00974   0.00974   2.06075
   R27        2.04568   0.00818   0.00000   0.02241   0.02241   2.06810
   R28        2.04370   0.00457   0.00000   0.01247   0.01247   2.05617
   R29        2.05411   0.00308   0.00000   0.00856   0.00856   2.06267
   R30        2.05220   0.00300   0.00000   0.00830   0.00830   2.06050
   R31        2.05302   0.00354   0.00000   0.00984   0.00984   2.06286
   R32        2.04767   0.00350   0.00000   0.00963   0.00963   2.05729
    A1        1.90558  -0.00100   0.00000  -0.00598  -0.00614   1.89944
    A2        1.92635   0.00087   0.00000   0.00182   0.00185   1.92820
    A3        1.94060  -0.00039   0.00000  -0.00051  -0.00046   1.94014
    A4        1.91356  -0.00003   0.00000  -0.00284  -0.00282   1.91073
    A5        1.89932   0.00054   0.00000   0.00377   0.00385   1.90317
    A6        1.87804   0.00003   0.00000   0.00387   0.00384   1.88188
    A7        1.97715  -0.00134   0.00000  -0.02613  -0.02676   1.95039
    A8        2.00199   0.00298   0.00000   0.00588   0.00504   2.00703
    A9        1.82046  -0.00053   0.00000   0.01531   0.01542   1.83588
   A10        2.00795  -0.00379   0.00000  -0.02850  -0.02922   1.97873
   A11        1.75629   0.00259   0.00000   0.02884   0.02941   1.78571
   A12        1.86694   0.00056   0.00000   0.01777   0.01772   1.88466
   A13        1.93347  -0.00042   0.00000  -0.01251  -0.01286   1.92061
   A14        2.04105  -0.00284   0.00000  -0.02694  -0.02746   2.01359
   A15        1.87347   0.00122   0.00000   0.01644   0.01666   1.89013
   A16        1.96115   0.00098   0.00000  -0.00806  -0.00899   1.95216
   A17        1.85391  -0.00005   0.00000   0.01072   0.01075   1.86465
   A18        1.78261   0.00158   0.00000   0.02991   0.03019   1.81280
   A19        1.91455   0.00141   0.00000  -0.00092  -0.00091   1.91364
   A20        1.93400  -0.00000   0.00000   0.00110   0.00108   1.93508
   A21        1.91031  -0.00087   0.00000  -0.00118  -0.00117   1.90914
   A22        1.89695  -0.00033   0.00000   0.00266   0.00268   1.89964
   A23        1.94437  -0.00053   0.00000  -0.00243  -0.00246   1.94191
   A24        1.86331   0.00027   0.00000   0.00085   0.00086   1.86417
   A25        1.97594  -0.00496   0.00000  -0.02674  -0.02675   1.94919
   A26        1.93776   0.00239   0.00000   0.01003   0.01007   1.94784
   A27        1.85601  -0.00126   0.00000  -0.00295  -0.00294   1.85307
   A28        1.90242   0.00051   0.00000   0.00588   0.00589   1.90832
   A29        1.94416  -0.00047   0.00000  -0.00326  -0.00326   1.94090
   A30        1.93029  -0.00181   0.00000  -0.01074  -0.01081   1.91948
   A31        1.89091   0.00067   0.00000   0.00144   0.00140   1.89232
   A32        1.95771   0.00249   0.00000   0.01010   0.01001   1.96772
   A33        1.92334  -0.00166   0.00000  -0.00770  -0.00767   1.91568
   A34        1.94758  -0.00034   0.00000  -0.00381  -0.00386   1.94372
   A35        1.91816   0.00035   0.00000   0.00524   0.00529   1.92345
   A36        1.82853  -0.00121   0.00000  -0.00174  -0.00170   1.82683
   A37        1.88525   0.00037   0.00000  -0.00200  -0.00204   1.88321
   A38        1.89456   0.00136   0.00000   0.00231   0.00241   1.89697
   A39        1.93091  -0.00124   0.00000  -0.01039  -0.01040   1.92051
   A40        1.92390  -0.00047   0.00000  -0.00165  -0.00175   1.92215
   A41        1.90065  -0.00027   0.00000  -0.00093  -0.00097   1.89968
   A42        1.93134   0.00027   0.00000   0.00928   0.00924   1.94058
   A43        1.88258   0.00033   0.00000   0.00133   0.00132   1.88390
   A44        1.90866   0.00173   0.00000   0.00929   0.00946   1.91813
   A45        1.95627  -0.00261   0.00000  -0.01875  -0.01882   1.93745
   A46        1.92589  -0.00097   0.00000  -0.00882  -0.00902   1.91687
   A47        1.90666   0.00135   0.00000   0.01415   0.01416   1.92083
   A48        1.86515  -0.00012   0.00000   0.00621   0.00619   1.87134
   A49        1.89889   0.00076   0.00000  -0.00070  -0.00093   1.89796
   A50        1.93047  -0.00116   0.00000  -0.00786  -0.00790   1.92257
   A51        1.90442   0.00006   0.00000   0.00027   0.00029   1.90471
   A52        1.90691   0.00075   0.00000   0.00412   0.00410   1.91101
   A53        1.92079   0.00055   0.00000  -0.00089  -0.00091   1.91988
   A54        1.92536  -0.00013   0.00000   0.00127   0.00130   1.92666
   A55        1.87492  -0.00003   0.00000   0.00346   0.00345   1.87837
   A56        2.12296  -0.00518   0.00000  -0.02452  -0.02403   2.09894
   A57        2.27409  -0.03145   0.00000  -0.12190  -0.12190   2.15219
   A58        2.04319  -0.00088   0.00000  -0.00455  -0.00434   2.03885
   A59        1.83909   0.00031   0.00000   0.01106   0.01099   1.85008
   A60        1.89068   0.00002   0.00000  -0.01146  -0.01169   1.87898
   A61        1.87361   0.00096   0.00000   0.01014   0.01007   1.88369
   A62        1.94565  -0.00032   0.00000  -0.00696  -0.00722   1.93843
   A63        1.86030   0.00004   0.00000   0.00425   0.00437   1.86466
    D1        0.97982  -0.00009   0.00000   0.00364   0.00358   0.98340
    D2        3.07434   0.00041   0.00000   0.00705   0.00701   3.08135
    D3       -1.15847   0.00022   0.00000   0.00802   0.00798  -1.15049
    D4       -1.12473   0.00005   0.00000   0.00982   0.00981  -1.11492
[...]
 24,-0.00001621,-0.00003867,0.00066977,0.00268110,-0.00312523,-0.000809
 98,0.00994474,0.00348557,0.00003234,-0.00012074,-0.00007024,-0.0010837
 9,-0.03377249,-0.00024306,-0.00091236,-0.00006100,-0.00055009,-0.04580
 880,0.00186326,0.00013435,-0.00012449,0.00009530,0.00034789,-0.0014108
 4,-0.00313538,0.00008004,-0.00002809,0.00004094,0.00005813,-0.00000647
 ,-0.00000272,-0.00000470,-0.00000842,0.00000994,0.00000667,0.00014077,
 -0.00004486,-0.00020896,-0.00000728,0.00003045,0.00000800,0.00002838,0
 .00000403,0.00000122,-0.00005248,-0.00040766,0.00054033,0.00034598,-0.
 00025221,0.00003181,0.00001209,0.00001097,-0.00001915,-0.00001016,0.00
 001364,0.00002179,0.00143175,0.00054757,0.00041888,0.00131740,0.000852
 49,-0.00007112,-0.00016435,0.01953614,-0.00044989,0.05097755,-0.000003
 58,-0.00000297,-0.00000396,0.00061943,-0.00014744,-0.00036169,-0.00163
 082,0.00223680,-0.00034943,0.00000237,0.00003597,-0.00004135,0.0007320
 5,-0.00164871,0.00350494,-0.00070714,-0.01095723,-0.00335427,0.0000724
 5,-0.00006825,-0.00004844,-0.00028863,-0.00900125,-0.00040902,0.000930
 68,0.00085355,-0.00039781,0.00085530,-0.31520304,-0.01038831,-0.000162
 38,0.00007790,0.00022657,-0.00075621,-0.00102782,0.00019182,-0.0000334
 2,0.00003637,0.00004077,-0.00001429,-0.00000131,0.00000173,-0.00000768
 ,0.00001203,0.00000875,0.00001083,0.00023055,-0.00003596,-0.00003015,0
 .00001139,0.00000653,-0.00002912,-0.00005745,-0.00000212,0.00029366,0.
 00020368,0.00019577,-0.00017879,0.00048192,0.00026746,-0.00000803,-0.0
 0002856,-0.00002322,-0.00002243,0.00000054,0.00002086,-0.00007177,0.00
 050793,0.00021499,-0.00006695,0.00033627,-0.00027476,0.00035805,-0.007
 96377,-0.00041693,0.00040844,0.34120671,0.00000696,0.00000458,-0.00000
 388,0.00020143,-0.00016778,-0.00018635,-0.00132079,-0.00006903,0.00012
 501,0.00000048,0.00002041,-0.00001892,-0.00199205,0.00633158,-0.005752
 48,0.00226736,0.02750046,0.00499719,0.00002044,-0.00000558,0.00001489,
 0.00093986,-0.00668341,-0.00093320,-0.00165154,-0.00087325,-0.00038611
 ,0.00032719,-0.01223311,-0.05019198,0.00001344,0.00000782,0.00010687,-
 0.00060402,-0.00068513,0.00037402,0.00000010,0.00001257,0.00002082,-0.
 00000325,-0.00000222,0.00000197,-0.00000145,0.00000201,0.00000311,-0.0
 0025710,0.00045614,0.00001368,-0.00001257,0.00000130,0.00000190,-0.000
 00080,-0.00001771,0.00000468,-0.00027795,-0.00073980,0.00086097,0.0008
 4588,-0.00087461,0.00083545,-0.00001940,0.00000124,-0.00000926,-0.0000
 1131,-0.00000116,0.00000549,0.00003475,0.00047220,0.00027037,0.0005094
 0,-0.00012786,-0.00001785,-0.00078387,-0.02373443,-0.00038836,0.001413
 34,0.01132167,0.05007999,0.00030973,0.00021588,-0.00032627,-0.01515842
 ,-0.00751223,-0.00170592,0.00128391,0.00075576,0.00017609,0.00377753,0
 .00176398,0.00148476,-0.00020317,-0.00005583,-0.00015208,-0.00004722,0
 .00001532,0.00006598,-0.00008477,0.00042592,0.00037228,-0.00001576,-0.
 00029680,-0.00000417,-0.00000021,-0.00010830,0.00014113,0.00010018,0.0
 0009528,-0.00001941,0.00002878,0.00098362,-0.00125315,-0.00282887,0.00
 374695,-0.00109327,-0.26835590,-0.08636337,-0.04756908,-0.00016277,-0.
 00006418,-0.00036926,0.00003728,0.00001219,-0.00020602,-0.00014300,-0.
 00003670,-0.00000697,0.00139036,-0.00006577,0.00010359,0.00124195,0.00
 094437,0.00077055,-0.00002427,-0.00000147,-0.00003319,0.00001727,-0.00
 000502,-0.00000783,-0.00002426,-0.00007641,0.00000124,0.00000930,-0.00
 000999,-0.00005759,0.00004213,0.00002099,0.00011644,0.00003808,0.00002
 195,-0.00013770,-0.00005525,-0.00000110,-0.00000099,-0.00003506,-0.000
 03409,-0.00000740,0.29046513,-0.00006850,0.00039673,0.00103209,0.02346
 352,0.00459584,0.00510669,-0.00056727,-0.00111835,-0.00025451,-0.02546
 968,-0.01658973,-0.00685131,0.00012943,0.00006631,0.00012841,-0.000013
 22,-0.00008212,-0.00000528,0.00011064,-0.00043390,-0.00006926,-0.00001
 800,0.00010197,0.00006739,0.00005261,0.00009788,-0.00011856,-0.0000400
 0,0.00007300,-0.00002646,-0.00065304,-0.00066137,0.00097793,0.00443800
 ,-0.00304002,0.00093289,-0.08934863,-0.07624639,-0.01722400,0.00030043
 ,0.00038238,-0.00033433,0.00037230,0.00009647,0.00008702,0.00020885,0.
 00016719,0.00004293,-0.00041173,0.00091941,0.00044700,0.00094458,-0.00
 381435,-0.00405955,-0.00000061,0.00001687,-0.00000273,-0.00000218,0.00
 000742,0.00000568,0.00006011,-0.00001675,0.00004797,-0.00003250,0.0001
 2597,0.00001361,0.00021708,0.00002966,0.00007484,0.00001585,0.00004675
 ,-0.00007334,-0.00002254,-0.00000984,-0.00000164,0.00002334,0.00000975
 ,0.00000444,0.09004386,0.09728794,-0.00084403,-0.00009851,0.00084318,-
 0.01525023,-0.00603055,-0.00352544,0.00021638,0.00049498,0.00002922,-0
 .01741864,-0.00935797,-0.00430901,-0.00005776,-0.00003081,-0.00002939,
 0.00005607,0.00007011,-0.00001458,-0.00016913,0.00034351,0.00034844,0.
 00019347,0.00010255,-0.00038346,0.00001348,-0.00004004,0.00001729,-0.0
 0002906,-0.00006345,0.00017782,0.00048363,0.00149371,-0.00113292,-0.00
 113791,0.00108075,0.00006518,-0.04676586,-0.01726853,-0.05946857,0.000
 32111,0.00017057,-0.00028664,0.00036360,0.00009025,0.00011643,-0.00007
 465,-0.00005500,-0.00000679,0.00028246,0.00091716,0.00110843,0.0006371
 7,-0.00273039,-0.00140764,0.00000552,-0.00001286,0.00001893,0.00000087
 ,-0.00000222,0.00000274,0.00006925,-0.00001059,0.00006449,0.00000288,-
 0.00001764,-0.00001824,0.00004396,-0.00002934,0.00001056,0.00002102,-0
 .00007654,0.00020445,-0.00001072,-0.00000311,-0.00000807,-0.00000208,0
 .00000297,-0.00000149,0.05216095,0.02092794,0.05927686,0.00060487,0.00
 069456,-0.00026045,0.00543223,0.00433995,-0.01598237,-0.00033427,0.000
 07599,-0.00031548,-0.00081019,-0.00093466,0.00018501,0.00003093,0.0000
 1509,0.00006020,0.00001234,0.00000214,-0.00003741,-0.00004677,0.000719
 29,0.00063340,-0.00016365,-0.00019191,0.00005183,0.00000315,-0.0000625
 1,-0.00010869,-0.00001471,-0.00003152,-0.00004187,-0.00204092,0.002432
 54,-0.00360963,0.00133333,-0.00010071,-0.00065636,-0.09819795,-0.02515
 148,0.10823198,0.00013504,0.00011114,-0.00034881,0.00026590,-0.0000622
 0,0.00027985,0.00008515,0.00002293,0.00001526,-0.00017973,0.00001289,0
 .00004562,0.00047419,0.00039772,-0.00021532,0.00001207,-0.00000923,0.0
 0001736,-0.00000809,0.00000161,0.00000229,-0.00001095,-0.00010480,-0.0
 0005006,0.00005467,-0.00009602,0.00000136,0.00012838,-0.00000338,0.000
 01631,-0.00081769,-0.00032846,-0.00009550,0.00004185,0.00000627,0.0000
 0429,0.00001987,0.00002106,0.00000505,-0.01264597,-0.00595702,0.026484
 17,0.10657353,0.00074658,-0.00549408,-0.00220277,-0.01152328,-0.004389
 11,0.01928069,0.00053115,0.00010312,0.00004560,0.01226131,0.00722895,-
 0.02617322,0.00002821,0.00000966,-0.00003101,0.00000432,-0.00000934,-0
 .00000811,0.00008088,-0.00113943,-0.00078563,0.00004950,-0.00000789,0.
 00000600,-0.00010502,-0.00001658,0.00002837,0.00000521,-0.00000990,0.0
 0000214,0.00257694,-0.00276648,0.00330821,-0.00071077,0.00200369,-0.00
 018278,-0.02305150,-0.05819324,0.04882308,0.00011536,0.00003520,0.0000
 7986,0.00011075,0.00037395,-0.00181753,0.00004991,0.00002219,0.0000179
 4,0.00014839,0.00053088,0.00083658,-0.00050153,0.00149900,0.00073305,0
 .00000362,-0.00000311,0.00000353,-0.00000399,-0.00000055,0.00000001,-0
 .00002317,0.00014627,0.00006153,-0.00008432,0.00019483,0.00006188,0.00
 004794,-0.00003254,-0.00002112,-0.00032183,-0.00001860,-0.00004708,0.0
 0000994,0.00000186,-0.00000137,-0.00000178,0.00000367,-0.00000016,-0.0
 0482098,-0.00293766,0.01046914,0.02381793,0.06368390,0.00025191,-0.003
 94863,-0.00023659,0.00766232,0.00233148,-0.01478971,-0.00075423,-0.000
 09303,0.00004027,0.00665563,0.00329368,-0.01426071,0.00003675,-0.00002
 112,0.00013441,0.00011104,0.00009569,-0.00008727,0.00044178,0.00043671
 ,0.00092404,0.00018808,0.00031125,-0.00042791,0.00012083,0.00002436,-0
 .00018900,-0.00007770,-0.00017025,0.00022937,-0.00168923,0.00274347,-0
 .00166609,0.00164776,-0.00238531,0.00200487,0.10377038,0.04946606,-0.2
 5547385,0.00004796,0.00006686,0.00014365,0.00006491,0.00038637,-0.0010
 1978,-0.00000032,-0.00006106,-0.00001158,0.00007839,-0.00021215,0.0001
 4437,-0.00032770,0.00046167,0.00072967,0.00002859,-0.00001867,0.000051
 92,-0.00000944,0.00000344,0.00001195,-0.00011745,-0.00012647,-0.000070
 68,-0.00003025,0.00000129,-0.00006683,-0.00008554,0.00001788,-0.000144
 18,-0.00010106,-0.00010384,0.00039320,0.00004033,0.00000093,-0.0000083
 9,0.00001907,0.00002943,0.00000270,-0.00272431,-0.00137122,0.00726476,
 -0.11466148,-0.05177225,0.27654665,-0.00001998,-0.00015290,-0.00019028
 ,-0.09753253,-0.10337155,-0.03196301,0.00070293,0.00122524,0.00524093,
 0.00031310,0.00158727,-0.00139862,-0.00046913,-0.00015708,-0.00050147,
 0.00002863,0.00024300,0.00015738,0.00059069,0.00131065,0.00045166,-0.0
 0083201,0.00031717,-0.00007739,0.00031916,-0.00022648,0.00067927,0.000
 21302,-0.00048691,-0.00002511,0.00469674,-0.00134676,-0.00150895,-0.04
 739565,-0.02598041,-0.00005673,0.00354367,0.01497160,0.00066814,-0.000
 06664,-0.00003609,0.00003240,0.00005163,-0.00003427,0.00003537,-0.0014
 7664,-0.00052576,-0.00022857,-0.00017566,0.00027695,0.00011240,0.00001
 244,0.00036199,0.00025478,-0.00003963,-0.00002775,-0.00003036,0.000029
 93,-0.00002350,-0.00002369,-0.00002136,0.00024812,0.00009335,0.0000745
 4,-0.00021305,-0.00011052,0.00008651,-0.00011035,-0.00010814,0.0000327
 6,-0.00005212,0.00005298,0.00003258,0.00002021,-0.00000134,-0.00017078
 ,-0.00011130,-0.00007653,0.00103760,0.00222870,0.00039490,0.00004515,0
 .00057125,-0.00061663,0.13645071,-0.00033366,0.00000569,0.00030301,-0.
 11120162,-0.24891685,-0.05119979,0.00230365,0.00186751,0.00026874,0.00
 173470,-0.00092652,0.00328305,-0.00007755,-0.00000837,0.00002095,-0.00
 000537,-0.00000420,0.00000467,-0.00058797,0.00227887,0.00116566,0.0005
 1888,-0.00005793,-0.00009576,0.00003468,-0.00005131,-0.00008790,-0.000
 05656,0.00019266,0.00003562,0.00164221,0.00335396,-0.00670286,0.001948
 72,0.00717361,0.00051165,-0.00626365,-0.02303363,-0.00431162,0.0000981
 6,0.00008757,-0.00006331,0.00000712,-0.00003645,-0.00010543,-0.0000799
 5,-0.00003005,-0.00004369,0.00027798,-0.00093834,-0.00065452,-0.000109
 45,-0.00009635,-0.00004592,-0.00001073,0.00000203,-0.00000529,0.000007
 71,0.00000117,0.00000562,-0.00004548,-0.00012813,0.00008341,-0.0000154
 0,-0.00009433,-0.00011185,-0.00002167,0.00009290,0.00012960,0.00001443
 ,0.00001508,-0.00002295,-0.00004841,-0.00001338,-0.00000966,0.00003757
 ,0.00001493,0.00001308,0.00040668,0.00051840,-0.00032876,0.00035835,-0
 .00079275,0.00060770,0.10942682,0.25952891,-0.00002297,-0.00004056,-0.
 00026609,-0.03085707,-0.04544262,-0.05718151,0.00068042,-0.00008395,0.
 00015066,-0.00067827,0.00134237,-0.00207366,0.00007765,-0.00000203,0.0
 0033569,-0.00000614,-0.00005860,-0.00007750,-0.00550942,0.00357692,-0.
 00168158,0.00020292,-0.00015666,0.00005940,0.00024651,0.00015701,-0.00
 060031,-0.00007705,0.00013627,0.00000255,-0.01041129,-0.03617372,-0.03
 627835,0.01506436,0.00710140,0.00555750,0.00135473,0.01395893,0.007193
 31,0.00011930,-0.00002441,0.00012039,0.00010169,-0.00012421,0.00018070
 ,0.00026747,0.00003584,0.00002114,-0.00023852,0.00063404,0.00045419,0.
 00003270,0.00020780,0.00007688,0.00000529,0.00000305,0.00001263,0.0000
 0596,0.00001385,0.00001545,-0.00006587,-0.00143858,-0.00085202,0.00018
 439,-0.00077496,-0.00064565,-0.00004214,0.00006411,-0.00003477,-0.0000
 5938,0.00003552,0.00001797,-0.00001029,-0.00000891,-0.00000249,0.00005
 413,0.00002782,0.00002051,0.00028060,0.00048294,0.00102833,0.00029150,
 -0.00068478,-0.00026115,0.02895999,0.05726370,0.08450886,-0.00009934,0
 .00007862,-0.00002834,-0.00007785,-0.00015129,-0.00121426,0.00912441,-
 0.00334649,-0.00977938,0.00004759,0.00001904,-0.00001157,-0.03903075,0
 .00068221,0.02157070,0.00074367,0.00548440,0.00117919,-0.00258622,0.00
 028527,-0.00017824,0.00015069,-0.00083365,0.00042835,-0.11978476,0.048
 67503,0.10710441,-0.00006700,-0.00064939,-0.00019980,-0.00366690,0.000
 36082,0.00070660,0.00050832,0.00003148,0.00269300,-0.00005746,0.000015
 12,0.00003003,0.00004353,0.00003894,0.00002356,0.00002779,-0.00002216,
 -0.00001556,-0.00054025,0.00108871,-0.00298148,0.00000416,-0.00001976,
 0.00003042,-0.00001579,-0.00000259,-0.00000906,0.00027694,-0.00016084,
 -0.00049804,0.00078530,-0.00108177,-0.00071017,-0.00095468,0.00086457,
 0.00011879,0.00009081,-0.00004168,0.00012087,-0.00002509,-0.00001312,0
 .00030628,-0.00004409,-0.00005293,0.00008232,-0.00006840,0.00008604,-0
 .00005076,0.00015677,-0.00012499,0.00018103,0.00001653,-0.00000331,0.0
 0001090,-0.00000019,-0.00001380,0.00002564,-0.00002982,0.00003752,0.00
 005823,0.15431076,-0.00001951,-0.00013309,0.00001891,0.00012731,0.0000
 1465,-0.00032388,-0.00476904,0.00361093,0.00883529,0.00000226,0.000031
 31,-0.00000543,-0.01168525,0.00357375,0.00843458,-0.00247345,0.0029683
 1,0.00272379,0.00122567,0.00081888,0.00042635,-0.00081806,0.00105223,0
 .00019328,0.05156081,-0.08636567,-0.06804674,0.00010925,-0.00041270,0.
 00001443,0.00025180,-0.00066519,-0.00014199,-0.00010109,0.00008734,-0.
 00041135,-0.00003614,0.00001192,0.00007289,-0.00003850,-0.00000054,-0.
 00001472,0.00000554,-0.00001100,0.00001362,0.00019314,0.00031172,0.001
 86415,-0.00001694,-0.00000225,-0.00000765,0.00000892,-0.00003102,0.000
 00580,0.00010167,0.00014853,-0.00000388,0.00058792,0.00063770,-0.00054
 728,0.00114545,-0.00078845,-0.00015378,-0.00016307,-0.00005576,-0.0000
 3370,0.00022862,0.00015593,-0.00007255,0.00003530,0.00007687,-0.000222
 30,0.00006222,-0.00009453,-0.00020165,0.00009671,-0.00003656,0.0000206
 6,-0.00000732,-0.00000326,-0.00000189,0.00001747,-0.00001781,0.0000193
 1,0.00000207,-0.00000222,-0.00000860,-0.05264875,0.08405098,0.00028595
 ,0.00025290,-0.00009187,0.00028073,-0.00069306,-0.00233178,0.01939603,
 -0.01084047,-0.02295762,-0.00001706,0.00004643,-0.00007155,-0.00190785
 ,0.00237361,0.00893519,-0.00073641,0.00100423,0.00078075,-0.00024347,-
 0.00007339,0.00087149,0.00055563,-0.00169163,0.00117605,0.10684367,-0.
 06712348,-0.20155133,0.00006015,0.00002871,-0.00009306,0.00214654,-0.0
 0021092,0.00119830,-0.00262410,0.00006374,0.00166555,-0.00016839,0.000
 03039,0.00011558,0.00013279,-0.00010128,0.00008175,0.00000557,-0.00004
 741,0.00001000,-0.00206951,0.00225520,-0.00452080,0.00002211,-0.000004
 97,0.00003781,-0.00001720,0.00002066,-0.00000459,-0.00012713,0.0002499
 1,0.00017756,0.00060320,0.00083140,-0.00035032,0.00033099,0.00036120,0
 .00023797,0.00005344,0.00010994,-0.00019091,-0.00030790,0.00103136,0.0
 0027437,-0.00041251,-0.00001056,0.00035725,-0.00008827,-0.00013015,-0.
 00002843,0.00008731,0.00003860,0.00005826,-0.00000768,0.00002661,0.000
 00575,0.00002888,-0.00004129,0.00007511,-0.00016241,0.00006805,0.00014
 874,-0.12043315,0.07150972,0.21375971,-0.00008713,-0.00015006,0.000017
 87,-0.00006874,0.00008977,0.00005358,-0.00021309,0.01108020,0.00117224
 ,0.00001358,0.00002306,0.00000734,-0.00542839,-0.04297628,-0.00045125,
 -0.00572659,0.00072693,-0.00024370,0.00013660,0.00043461,0.00005168,-0
 .00073246,0.00054044,-0.00307126,-0.04986112,0.03088853,0.00113483,-0.
 00042815,-0.00072029,-0.00019382,0.00035298,-0.00017148,-0.00000843,0.
 00091451,0.00023017,0.00069591,0.00002617,-0.00001646,0.00000939,-0.00
 005995,0.00003010,-0.00002669,0.00000365,0.00000455,0.00000800,0.00048
 445,-0.00064465,0.00009672,-0.00002010,-0.00000191,-0.00001136,0.00001
 213,-0.00003938,-0.00000222,-0.00013378,-0.00174675,0.00001940,0.00019
 725,-0.00023622,-0.00031153,-0.00008546,-0.00021401,-0.00007227,-0.000
 03954,-0.00002685,0.00001245,0.00006558,-0.00043177,0.00000278,0.00025
 165,0.00098684,-0.00022812,0.00005941,0.00004218,0.00004053,0.00017250
 ,-0.00002255,0.00025333,-0.00001084,-0.00000107,-0.00000171,0.00001843
 ,0.00000277,0.00000396,-0.00003199,0.00000230,-0.00000945,0.00076131,0
 .01701498,-0.00150995,0.05945713,0.00003688,0.00007715,0.00001866,-0.0
 0003119,0.00000818,0.00007775,0.00033441,-0.01038208,-0.00042072,-0.00
 000518,-0.00003506,0.00000665,-0.00602224,-0.01307614,-0.00112545,-0.0
 0227201,0.00311525,0.00004485,-0.00023234,-0.00013591,-0.00002326,0.00
 046136,0.00108680,0.00224340,0.01991539,-0.31798683,0.00924825,0.00024
 207,0.00004732,-0.00021176,0.00023434,0.00011891,0.00005242,0.00087215
 ,0.00176619,-0.00032330,-0.00005466,-0.00003431,0.00000398,0.00003122,
 -0.00001717,0.00000961,-0.00000614,-0.00000277,-0.00000636,-0.00019310
 ,0.00061321,0.00018943,0.00002882,0.00000383,0.00000349,-0.00000909,0.
 00004735,0.00000565,-0.00011330,-0.00073314,0.00017186,0.00012132,0.00
 013904,0.00001665,0.00001938,0.00013712,0.00006060,0.00004152,0.000027
 38,-0.00001337,-0.00001851,0.00024698,-0.00008336,-0.00009009,-0.00067
 807,0.00006522,-0.00005314,0.00000833,0.00004182,-0.00001786,-0.000115
 61,0.00004507,0.00000683,0.00001382,-0.00000545,-0.00001306,-0.0000081
 0,-0.00001359,0.00006524,-0.00000249,-0.00001897,0.00141871,-0.0089309
 8,0.00066595,-0.01469773,0.34468181,0.00010276,0.00015795,-0.00002484,
 -0.00032228,-0.00011900,-0.00008321,-0.00307991,0.03206995,-0.00197309
 ,0.00004417,0.00002953,-0.00002197,-0.00015992,-0.00587705,0.00093795,
 -0.00135230,-0.00030166,-0.00004561,-0.00009899,-0.00038502,0.00002020
 ,-0.00235651,0.00024885,-0.00532021,0.00115768,0.00845747,-0.05193132,
 -0.00035689,-0.00045232,-0.00001070,-0.00006601,0.00014717,-0.00000394
 ,0.00204817,-0.00102135,0.00209798,0.00007969,-0.00001267,-0.00004438,
 0.00005520,-0.00004020,0.00004088,-0.00000431,-0.00000435,-0.00000177,
 0.00057597,-0.00045518,0.00144586,-0.00001958,-0.00001879,0.00001526,0
 .00000259,-0.00003849,-0.00001532,-0.00022196,-0.00040064,0.00034287,-
 0.00008864,0.00042358,0.00018858,0.00007441,0.00022984,-0.00000486,0.0
 0000455,0.00000901,-0.00001437,-0.00013710,0.00013040,0.00005336,-0.00
 007498,0.00187203,-0.00011554,0.00011513,0.00000337,0.00003421,0.00009
 385,0.00000659,0.00009203,0.00000867,-0.00001421,0.00000937,0.00002909
 ,0.00001147,0.00001680,-0.00005378,0.00002482,0.00005017,0.00143948,-0
 .02395539,0.00222505,0.00256176,-0.01072571,0.05204055\\-0.00000267,0.
 00001007,0.00001351,-0.00012177,-0.00157331,0.00042658,0.00016481,-0.0
 0070013,0.00068093,-0.00000130,0.00000201,-0.00000500,0.00001545,0.000
 00219,-0.00000840,-0.00000290,0.00000057,0.00000641,0.00001291,-0.0000
 0795,0.00000067,-0.00000049,0.00001198,-0.00000124,-0.00002723,-0.0000
 0975,0.00000568,-0.00000395,0.00001055,-0.00000439,0.00014553,0.000855
 56,-0.00000310,-0.00019344,0.00141811,-0.00109541,-0.00000085,-0.00001
 020,-0.00000967,-0.00000074,-0.00000676,-0.00000235,-0.00000561,-0.000
 00264,-0.00000430,-0.00000348,-0.00000500,0.00000593,0.00000083,-0.000
 00386,-0.00000202,0.00000709,-0.00000259,0.00000097,0.00000085,0.00000
 637,-0.00000250,0.00000181,0.00000489,-0.00000427,-0.00000268,0.000007
 08,-0.00000513,0.00000630,0.00000399,0.00000133,-0.00000517,-0.0000016
 4,0.00000086,0.00000362,-0.00000172,-0.00000414,-0.00000180,-0.0000018
 4,-0.00000079,-0.00000584,0.00000219,-0.00000811,-0.00000147,-0.000006
 34,0.00000405,0.00000103,-0.00000383,0.00000266,0.00000540,-0.00000631
 ,0.00000038,0.00000861,0.00000648,0.00000314,0.00000715,0.00000185,0.0
 0000770\\\@


 10 WHATSOEVER THY HAND FINDETH TO DO, DO IT WITH THY  
 MIGHT. FOR THERE IS NO WORK, NOR DEVICE, NOR KNOWLEDGE, NOR  
 WISDOM, IN THE GRAVE, WHITHER THOU GOEST.                    
 11 I RETURNED AND SAW UNDER THE SUN, THAT THE RACE IS NOT TO 
 THE SWIFT, NOR THE BATTLE TO THE STRONG, NEITHER YET BREAD TO
 THE WISE, NOR YET RICHES TO MEN OF UNDERSTANDING, NOR YET    
 FAVOR TO MEN OF SKILL. BUT TIME AND CHANCE HAPPEN TO THEM ALL.
 12 FOR MAN ALSO KNOWETH NOT HIS TIME. AS THE FISHES   
 THAT ARE TAKEN IN AN EVIL NET, AND AS THE BIRDS THAT ARE     
 CAUGHT IN THE SNARE. SO ARE THE SONS OF MEN SNARED IN AN EVIL
 TIME, WHEN IT FALLETH SUDDENLY UPON THEM.
                                         ECCLESIASTES 9
 Job cpu time:       0 days 14 hours 44 minutes 22.2 seconds.
 Elapsed time:       0 days  0 hours 55 minutes 17.9 seconds.
 File lengths (MBytes):  RWF=    687 Int=      0 D2E=      0 Chk=     32 Scr=      1
 Normal termination of Gaussian 16 at Sun Nov  4 23:17:00 2018.
