 Entering Gaussian System, Link 0=g16
 Initial command:
 /apps/gaussian/g16a03/g16/l1.exe "/jobfs/local/2011934.r-man2/Gau-21607.inp" -scrdir="/jobfs/local/2011934.r-man2/"
 Entering Link 1 = /apps/gaussian/g16a03/g16/l1.exe PID=     21608.
  
 Copyright (c) 1988,1990,1992,1993,1995,1998,2003,2009,2016,
            Gaussian, Inc.  All Rights Reserved.
  
 This is part of the Gaussian(R) 16 program.  It is based on
 the Gaussian(R) 09 system (copyright 2009, Gaussian, Inc.),
 the Gaussian(R) 03 system (copyright 2003, Gaussian, Inc.),
 the Gaussian(R) 98 system (copyright 1998, Gaussian, Inc.),
 the Gaussian(R) 94 system (copyright 1995, Gaussian, Inc.),
 the Gaussian 92(TM) system (copyright 1992, Gaussian, Inc.),
 the Gaussian 90(TM) system (copyright 1990, Gaussian, Inc.),
 the Gaussian 88(TM) system (copyright 1988, Gaussian, Inc.),
 the Gaussian 86(TM) system (copyright 1986, Carnegie Mellon
 University), and the Gaussian 82(TM) system (copyright 1983,
 Carnegie Mellon University). Gaussian is a federally registered
 trademark of Gaussian, Inc.
  
 This software contains proprietary and confidential information,
 including trade secrets, belonging to Gaussian, Inc.
  
 This software is provided under written license and may be
 used, copied, transmitted, or stored only in accord with that
 written license.
  
 The following legend is applicable only to US Government
 contracts under FAR:
  
                    RESTRICTED RIGHTS LEGEND
  
 Use, reproduction and disclosure by the US Government is
 subject to restrictions as set forth in subparagraphs (a)
 and (c) of the Commercial Computer Software - Restricted
 Rights clause in FAR 52.227-19.
  
 Gaussian, Inc.
 340 Quinnipiac St., Bldg. 40, Wallingford CT 06492
  
  
 ---------------------------------------------------------------
 Warning -- This program may not be used in any manner that
 competes with the business of Gaussian, Inc. or will provide
 assistance to any competitor of Gaussian, Inc.  The licensee
 of this program is prohibited from giving any competitor of
 Gaussian, Inc. access to this program.  By using this program,
 the user acknowledges that Gaussian, Inc. is engaged in the
 business of creating and licensing software in the field of
 computational chemistry and represents and warrants to the
 licensee that it is not a competitor of Gaussian, Inc. and that
 it will not use this program in any manner prohibited above.
 ---------------------------------------------------------------
  

 Cite this work as:
 Gaussian 16, Revision A.03,
 M. J. Frisch, G. W. Trucks, H. B. Schlegel, G. E. Scuseria, 
 M. A. Robb, J. R. Cheeseman, G. Scalmani, V. Barone, 
 G. A. Petersson, H. Nakatsuji, X. Li, M. Caricato, A. V. Marenich, 
 J. Bloino, B. G. Janesko, R. Gomperts, B. Mennucci, H. P. Hratchian, 
 J. V. Ortiz, A. F. Izmaylov, J. L. Sonnenberg, D. Williams-Young, 
 F. Ding, F. Lipparini, F. Egidi, J. Goings, B. Peng, A. Petrone, 
 T. Henderson, D. Ranasinghe, V. G. Zakrzewski, J. Gao, N. Rega, 
 G. Zheng, W. Liang, M. Hada, M. Ehara, K. Toyota, R. Fukuda, 
 J. Hasegawa, M. Ishida, T. Nakajima, Y. Honda, O. Kitao, H. Nakai, 
 T. Vreven, K. Throssell, J. A. Montgomery, Jr., J. E. Peralta, 
 F. Ogliaro, M. J. Bearpark, J. J. Heyd, E. N. Brothers, K. N. Kudin, 
 V. N. Staroverov, T. A. Keith, R. Kobayashi, J. Normand, 
 K. Raghavachari, A. P. Rendell, J. C. Burant, S. S. Iyengar, 
 J. Tomasi, M. Cossi, J. M. Millam, M. Klene, C. Adamo, R. Cammi, 
 J. W. Ochterski, R. L. Martin, K. Morokuma, O. Farkas, 
 J. B. Foresman, and D. J. Fox, Gaussian, Inc., Wallingford CT, 2016.
 
 ******************************************
 Gaussian 16:  ES64L-G16RevA.03 25-Dec-2016
                 4-Nov-2018 
 ******************************************
 %mem=6000mb
 %nproc=24
 Will use up to   24 processors via shared memory.
 %chk=D_1a_4e_D_PHI.inp_extract_16.chk
 ----------------------------------------------------------------------
 #M062X/6-311++G(2d,2p) opt=ModRedundant freq=noraman SCRF=(Solvent=Wat
 er)
 ----------------------------------------------------------------------
 1/18=120,19=15,26=3,38=1/1,3;
 2/9=110,12=2,17=6,18=5,40=1/2;
 3/5=4,6=6,7=1212,11=2,25=1,30=1,70=2201,71=1,72=1,74=-55/1,2,3;
 4//1;
 5/5=2,38=5,53=1/2;
 6/7=2,8=2,9=2,10=2,28=1/1;
 7//1,2,3,16;
 1/18=20,19=15,26=3/3(2);
 2/9=110/2;
 99//99;
 2/9=110/2;
 3/5=4,6=6,7=1212,11=2,25=1,30=1,70=2205,71=1,72=1,74=-55/1,2,3;
 4/5=5,16=3,69=1/1;
 5/5=2,38=5,53=1/2;
 7//1,2,3,16;
 1/18=20,19=15,26=3/3(-5);
 2/9=110/2;
 6/7=2,8=2,9=2,10=2,19=2,28=1/1;
 99/9=1/99;
 ----------------------------
 D_1a_4e_D_PHI.inp_extract_16
 ----------------------------
 Symbolic Z-matrix:
 Charge =  0 Multiplicity = 1
 C                    -2.71591   1.16358   0.87061 
 C                    -1.46911  -1.18981  -0.33435 
 C                     1.04483  -0.71884  -0.68561 
 C                    -2.51448   1.1656   -0.64071 
 O                     2.94911  -0.5622    0.75831 
 C                     3.0846    0.83322   0.55588 
 C                    -1.57712   0.41408   1.53341 
 C                     1.12035   0.76856  -1.009 
 C                     1.60604  -1.00248   0.70697 
 C                     2.56721   1.23835  -0.81585 
 O                    -1.42649  -0.91177   1.03348 
 O                    -0.19717  -1.35421  -0.93778 
 C                    -2.40993  -0.27693  -1.13089 
 H                    -3.66211   0.68852   1.11939 
 H                    -2.7423    2.174     1.26818 
 H                     1.70162  -1.22983  -1.37999 
 H                    -3.34899   1.64933  -1.13915 
 H                    -1.62523   1.73209  -0.89313 
 H                     4.13781   1.05533   0.66105 
 H                     2.54408   1.35875   1.33997 
 H                    -0.65044   0.95807   1.40892 
 H                    -1.75056   0.28928   2.59325 
 H                     0.47267   1.33731  -0.35527 
 H                     0.79483   0.94228  -2.02999 
 H                     3.20519   0.80009  -1.57913 
 H                     2.63179   2.31754  -0.91898 
 H                    -3.39706  -0.72514  -1.05139 
 H                    -2.12619  -0.32683  -2.17573 
 H                    -1.86539  -2.19121  -0.39164 
 H                     1.04217  -0.50987   1.48755 
 H                     1.61566  -2.06643   0.90113 
 
 The following ModRedundant input section has been read:
 D      11       2      12       3 F                                           
 

 GradGradGradGradGradGradGradGradGradGradGradGradGradGradGradGradGradGrad
 Berny optimization.
 Initialization pass.
                           ----------------------------
                           !    Initial Parameters    !
                           ! (Angstroms and Degrees)  !
 --------------------------                            --------------------------
 ! Name  Definition              Value          Derivative Info.                !
 --------------------------------------------------------------------------------
 ! R1    R(1,4)                  1.5247         estimate D2E/DX2                !
 ! R2    R(1,7)                  1.5159         estimate D2E/DX2                !
 ! R3    R(1,14)                 1.0876         estimate D2E/DX2                !
 ! R4    R(1,15)                 1.0861         estimate D2E/DX2                !
 ! R5    R(2,11)                 1.3965         estimate D2E/DX2                !
 ! R6    R(2,12)                 1.4174         estimate D2E/DX2                !
 ! R7    R(2,13)                 1.5339         estimate D2E/DX2                !
 ! R8    R(2,29)                 1.0785         estimate D2E/DX2                !
 ! R9    R(3,8)                  1.524          estimate D2E/DX2                !
 ! R10   R(3,9)                  1.528          estimate D2E/DX2                !
 ! R11   R(3,12)                 1.4177         estimate D2E/DX2                !
 ! R12   R(3,16)                 1.0838         estimate D2E/DX2                !
 ! R13   R(4,13)                 1.5271         estimate D2E/DX2                !
 ! R14   R(4,17)                 1.0857         estimate D2E/DX2                !
 ! R15   R(4,18)                 1.0842         estimate D2E/DX2                !
 ! R16   R(5,6)                  1.4165         estimate D2E/DX2                !
 ! R17   R(5,9)                  1.4143         estimate D2E/DX2                !
 ! R18   R(6,10)                 1.521          estimate D2E/DX2                !
 ! R19   R(6,19)                 1.0815         estimate D2E/DX2                !
 ! R20   R(6,20)                 1.0877         estimate D2E/DX2                !
 ! R21   R(7,11)                 1.425          estimate D2E/DX2                !
 ! R22   R(7,21)                 1.0817         estimate D2E/DX2                !
 ! R23   R(7,22)                 1.0812         estimate D2E/DX2                !
 ! R24   R(8,10)                 1.5334         estimate D2E/DX2                !
 ! R25   R(8,23)                 1.0818         estimate D2E/DX2                !
 ! R26   R(8,24)                 1.0856         estimate D2E/DX2                !
 ! R27   R(9,30)                 1.0816         estimate D2E/DX2                !
 ! R28   R(9,31)                 1.0816         estimate D2E/DX2                !
 ! R29   R(10,25)                1.0871         estimate D2E/DX2                !
 ! R30   R(10,26)                1.086          estimate D2E/DX2                !
 ! R31   R(13,27)                1.087          estimate D2E/DX2                !
 ! R32   R(13,28)                1.0838         estimate D2E/DX2                !
 ! A1    A(4,1,7)              109.5614         estimate D2E/DX2                !
 ! A2    A(4,1,14)             110.0145         estimate D2E/DX2                !
 ! A3    A(4,1,15)             111.3958         estimate D2E/DX2                !
 ! A4    A(7,1,14)             109.7303         estimate D2E/DX2                !
 ! A5    A(7,1,15)             108.5518         estimate D2E/DX2                !
 ! A6    A(14,1,15)            107.5459         estimate D2E/DX2                !
 ! A7    A(11,2,12)            114.3758         estimate D2E/DX2                !
 ! A8    A(11,2,13)            114.1333         estimate D2E/DX2                !
 ! A9    A(11,2,29)            104.3664         estimate D2E/DX2                !
 ! A10   A(12,2,13)            113.4748         estimate D2E/DX2                !
 ! A11   A(12,2,29)            101.5035         estimate D2E/DX2                !
 ! A12   A(13,2,29)            107.4353         estimate D2E/DX2                !
 ! A13   A(8,3,9)              110.8772         estimate D2E/DX2                !
 ! A14   A(8,3,12)             116.2992         estimate D2E/DX2                !
 ! A15   A(8,3,16)             107.1079         estimate D2E/DX2                !
 ! A16   A(9,3,12)             113.6217         estimate D2E/DX2                !
 ! A17   A(9,3,16)             105.8918         estimate D2E/DX2                !
 ! A18   A(12,3,16)            101.8665         estimate D2E/DX2                !
 ! A19   A(1,4,13)             109.0238         estimate D2E/DX2                !
 ! A20   A(1,4,17)             110.7383         estimate D2E/DX2                !
 ! A21   A(1,4,18)             109.8671         estimate D2E/DX2                !
 ! A22   A(13,4,17)            109.0329         estimate D2E/DX2                !
 ! A23   A(13,4,18)            111.2656         estimate D2E/DX2                !
 ! A24   A(17,4,18)            106.9025         estimate D2E/DX2                !
 ! A25   A(6,5,9)              113.0985         estimate D2E/DX2                !
 ! A26   A(5,6,10)             111.0222         estimate D2E/DX2                !
 ! A27   A(5,6,19)             106.354          estimate D2E/DX2                !
 ! A28   A(5,6,20)             108.9902         estimate D2E/DX2                !
 ! A29   A(10,6,19)            111.3624         estimate D2E/DX2                !
 ! A30   A(10,6,20)            110.6324         estimate D2E/DX2                !
 ! A31   A(19,6,20)            108.3371         estimate D2E/DX2                !
 ! A32   A(1,7,11)             112.7091         estimate D2E/DX2                !
 ! A33   A(1,7,21)             110.1571         estimate D2E/DX2                !
 ! A34   A(1,7,22)             111.4186         estimate D2E/DX2                !
 ! A35   A(11,7,21)            109.6924         estimate D2E/DX2                !
 ! A36   A(11,7,22)            104.6829         estimate D2E/DX2                !
 ! A37   A(21,7,22)            107.9564         estimate D2E/DX2                !
 ! A38   A(3,8,10)             108.6039         estimate D2E/DX2                !
 ! A39   A(3,8,23)             110.8064         estimate D2E/DX2                !
 ! A40   A(3,8,24)             109.9305         estimate D2E/DX2                !
 ! A41   A(10,8,23)            109.1299         estimate D2E/DX2                !
 ! A42   A(10,8,24)            110.6317         estimate D2E/DX2                !
 ! A43   A(23,8,24)            107.7384         estimate D2E/DX2                !
 ! A44   A(3,9,5)              108.9097         estimate D2E/DX2                !
 ! A45   A(3,9,30)             112.4396         estimate D2E/DX2                !
 ! A46   A(3,9,31)             110.4558         estimate D2E/DX2                !
 ! A47   A(5,9,30)             109.0917         estimate D2E/DX2                !
 ! A48   A(5,9,31)             106.9338         estimate D2E/DX2                !
 ! A49   A(30,9,31)            108.8508         estimate D2E/DX2                !
 ! A50   A(6,10,8)             110.6684         estimate D2E/DX2                !
 ! A51   A(6,10,25)            109.0391         estimate D2E/DX2                !
 ! A52   A(6,10,26)            109.2748         estimate D2E/DX2                !
 ! A53   A(8,10,25)            109.9863         estimate D2E/DX2                !
 ! A54   A(8,10,26)            110.4008         estimate D2E/DX2                !
 ! A55   A(25,10,26)           107.4            estimate D2E/DX2                !
 ! A56   A(2,11,7)             121.714          estimate D2E/DX2                !
 ! A57   A(2,12,3)             131.1827         estimate D2E/DX2                !
 ! A58   A(2,13,4)             115.942          estimate D2E/DX2                !
 ! A59   A(2,13,27)            105.8792         estimate D2E/DX2                !
 ! A60   A(2,13,28)            108.218          estimate D2E/DX2                !
 ! A61   A(4,13,27)            107.6887         estimate D2E/DX2                !
 ! A62   A(4,13,28)            111.7677         estimate D2E/DX2                !
 ! A63   A(27,13,28)           106.8134         estimate D2E/DX2                !
 ! D1    D(7,1,4,13)            56.84           estimate D2E/DX2                !
 ! D2    D(7,1,4,17)           176.8004         estimate D2E/DX2                !
 ! D3    D(7,1,4,18)           -65.3353         estimate D2E/DX2                !
 ! D4    D(14,1,4,13)          -63.8724         estimate D2E/DX2                !
 ! D5    D(14,1,4,17)           56.088          estimate D2E/DX2                !
 ! D6    D(14,1,4,18)          173.9523         estimate D2E/DX2                !
 ! D7    D(15,1,4,13)          176.9633         estimate D2E/DX2                !
 ! D8    D(15,1,4,17)          -63.0763         estimate D2E/DX2                !
 ! D9    D(15,1,4,18)           54.7879         estimate D2E/DX2                !
 ! D10   D(4,1,7,11)           -55.7068         estimate D2E/DX2                !
 ! D11   D(4,1,7,21)            67.1638         estimate D2E/DX2                !
 ! D12   D(4,1,7,22)          -173.0499         estimate D2E/DX2                !
 ! D13   D(14,1,7,11)           65.178          estimate D2E/DX2                !
 ! D14   D(14,1,7,21)         -171.9514         estimate D2E/DX2                !
 ! D15   D(14,1,7,22)          -52.1652         estimate D2E/DX2                !
 ! D16   D(15,1,7,11)         -177.5517         estimate D2E/DX2                !
 ! D17   D(15,1,7,21)          -54.681          estimate D2E/DX2                !
 ! D18   D(15,1,7,22)           65.1052         estimate D2E/DX2                !
 ! D19   D(12,2,11,7)          100.0477         estimate D2E/DX2                !
 ! D20   D(13,2,11,7)          -32.9695         estimate D2E/DX2                !
 ! D21   D(29,2,11,7)         -149.9493         estimate D2E/DX2                !
 ! D22   D(11,2,12,3)          -34.9398         Frozen                          !
 ! D23   D(13,2,12,3)           98.387          estimate D2E/DX2                !
 ! D24   D(29,2,12,3)         -146.6681         estimate D2E/DX2                !
 ! D25   D(11,2,13,4)           34.1357         estimate D2E/DX2                !
 ! D26   D(11,2,13,27)         -85.184          estimate D2E/DX2                !
 ! D27   D(11,2,13,28)         160.5968         estimate D2E/DX2                !
 ! D28   D(12,2,13,4)          -99.3067         estimate D2E/DX2                !
 ! D29   D(12,2,13,27)         141.3735         estimate D2E/DX2                !
 ! D30   D(12,2,13,28)          27.1543         estimate D2E/DX2                !
 ! D31   D(29,2,13,4)          149.3297         estimate D2E/DX2                !
 ! D32   D(29,2,13,27)          30.0099         estimate D2E/DX2                !
 ! D33   D(29,2,13,28)         -84.2093         estimate D2E/DX2                !
 ! D34   D(9,3,8,10)            54.1856         estimate D2E/DX2                !
 ! D35   D(9,3,8,23)           -65.6698         estimate D2E/DX2                !
 ! D36   D(9,3,8,24)           175.3522         estimate D2E/DX2                !
 ! D37   D(12,3,8,10)         -173.9889         estimate D2E/DX2                !
 ! D38   D(12,3,8,23)           66.1557         estimate D2E/DX2                !
 ! D39   D(12,3,8,24)          -52.8223         estimate D2E/DX2                !
 ! D40   D(16,3,8,10)          -60.9032         estimate D2E/DX2                !
 ! D41   D(16,3,8,23)          179.2414         estimate D2E/DX2                !
 ! D42   D(16,3,8,24)           60.2634         estimate D2E/DX2                !
 ! D43   D(8,3,9,5)            -58.7419         estimate D2E/DX2                !
 ! D44   D(8,3,9,30)            62.2914         estimate D2E/DX2                !
 ! D45   D(8,3,9,31)          -175.8959         estimate D2E/DX2                !
 ! D46   D(12,3,9,5)           168.0726         estimate D2E/DX2                !
 ! D47   D(12,3,9,30)          -70.8941         estimate D2E/DX2                !
 ! D48   D(12,3,9,31)           50.9186         estimate D2E/DX2                !
 ! D49   D(16,3,9,5)            57.1033         estimate D2E/DX2                !
 ! D50   D(16,3,9,30)          178.1366         estimate D2E/DX2                !
 ! D51   D(16,3,9,31)          -60.0507         estimate D2E/DX2                !
 ! D52   D(8,3,12,2)           -66.3989         estimate D2E/DX2                !
 ! D53   D(9,3,12,2)            64.1431         estimate D2E/DX2                !
 ! D54   D(16,3,12,2)          177.5516         estimate D2E/DX2                !
 ! D55   D(1,4,13,2)           -47.2485         estimate D2E/DX2                !
 ! D56   D(1,4,13,27)           71.0795         estimate D2E/DX2                !
 ! D57   D(1,4,13,28)         -171.9023         estimate D2E/DX2                !
 ! D58   D(17,4,13,2)         -168.2568         estimate D2E/DX2                !
 ! D59   D(17,4,13,27)         -49.9288         estimate D2E/DX2                !
 ! D60   D(17,4,13,28)          67.0893         estimate D2E/DX2                !
 ! D61   D(18,4,13,2)           74.079          estimate D2E/DX2                !
 ! D62   D(18,4,13,27)        -167.593          estimate D2E/DX2                !
 ! D63   D(18,4,13,28)         -50.5749         estimate D2E/DX2                !
 ! D64   D(9,5,6,10)           -61.2045         estimate D2E/DX2                !
 ! D65   D(9,5,6,19)           177.4989         estimate D2E/DX2                !
 ! D66   D(9,5,6,20)            60.9009         estimate D2E/DX2                !
 ! D67   D(6,5,9,3)             62.2545         estimate D2E/DX2                !
 ! D68   D(6,5,9,30)           -60.8071         estimate D2E/DX2                !
 ! D69   D(6,5,9,31)          -178.3743         estimate D2E/DX2                !
 ! D70   D(5,6,10,8)            55.0215         estimate D2E/DX2                !
 ! D71   D(5,6,10,25)          -66.0848         estimate D2E/DX2                !
 ! D72   D(5,6,10,26)          176.7981         estimate D2E/DX2                !
 ! D73   D(19,6,10,8)          173.3301         estimate D2E/DX2                !
 ! D74   D(19,6,10,25)          52.2238         estimate D2E/DX2                !
 ! D75   D(19,6,10,26)         -64.8933         estimate D2E/DX2                !
 ! D76   D(20,6,10,8)          -66.1232         estimate D2E/DX2                !
 ! D77   D(20,6,10,25)         172.7705         estimate D2E/DX2                !
 ! D78   D(20,6,10,26)          55.6534         estimate D2E/DX2                !
 ! D79   D(1,7,11,2)            44.9162         estimate D2E/DX2                !
 ! D80   D(21,7,11,2)          -78.2138         estimate D2E/DX2                !
 ! D81   D(22,7,11,2)          166.174          estimate D2E/DX2                !
 ! D82   D(3,8,10,6)           -51.9064         estimate D2E/DX2                !
 ! D83   D(3,8,10,25)           68.6374         estimate D2E/DX2                !
 ! D84   D(3,8,10,26)         -173.0187         estimate D2E/DX2                !
 ! D85   D(23,8,10,6)           68.9882         estimate D2E/DX2                !
 ! D86   D(23,8,10,25)        -170.468          estimate D2E/DX2                !
 ! D87   D(23,8,10,26)         -52.124          estimate D2E/DX2                !
 ! D88   D(24,8,10,6)         -172.641          estimate D2E/DX2                !
 ! D89   D(24,8,10,25)         -52.0972         estimate D2E/DX2                !
 ! D90   D(24,8,10,26)          66.2468         estimate D2E/DX2                !
 --------------------------------------------------------------------------------
 Trust Radius=3.00D-01 FncErr=1.00D-07 GrdErr=1.00D-06 EigMax=2.50D+02 EigMin=1.00D-04
 Number of steps in this run=    186 maximum allowed number of steps=    186.
 GradGradGradGradGradGradGradGradGradGradGradGradGradGradGradGradGradGrad

                          Input orientation:                          
 ---------------------------------------------------------------------
 Center     Atomic      Atomic             Coordinates (Angstroms)
 Number     Number       Type             X           Y           Z
 ---------------------------------------------------------------------
      1          6           0       -2.715908    1.163577    0.870608
      2          6           0       -1.469106   -1.189810   -0.334346
      3          6           0        1.044835   -0.718840   -0.685605
      4          6           0       -2.514477    1.165600   -0.640708
      5          8           0        2.949105   -0.562195    0.758306
      6          6           0        3.084602    0.833219    0.555882
      7          6           0       -1.577121    0.414083    1.533414
      8          6           0        1.120346    0.768564   -1.008999
      9          6           0        1.606040   -1.002476    0.706972
     10          6           0        2.567205    1.238354   -0.815845
     11          8           0       -1.426490   -0.911768    1.033484
     12          8           0       -0.197172   -1.354205   -0.937782
     13          6           0       -2.409933   -0.276931   -1.130891
     14          1           0       -3.662110    0.688524    1.119392
     15          1           0       -2.742298    2.174002    1.268184
     16          1           0        1.701620   -1.229834   -1.379988
     17          1           0       -3.348985    1.649333   -1.139149
     18          1           0       -1.625225    1.732094   -0.893127
     19          1           0        4.137811    1.055332    0.661053
     20          1           0        2.544075    1.358753    1.339971
     21          1           0       -0.650441    0.958067    1.408919
     22          1           0       -1.750560    0.289279    2.593249
     23          1           0        0.472666    1.337314   -0.355270
     24          1           0        0.794825    0.942282   -2.029994
     25          1           0        3.205193    0.800087   -1.579134
     26          1           0        2.631790    2.317538   -0.918983
     27          1           0       -3.397059   -0.725141   -1.051393
     28          1           0       -2.126192   -0.326825   -2.175730
     29          1           0       -1.865390   -2.191210   -0.391638
     30          1           0        1.042172   -0.509870    1.487546
     31          1           0        1.615664   -2.066430    0.901130
 ---------------------------------------------------------------------
                    Distance matrix (angstroms):
                    1          2          3          4          5
     1  C    0.000000
     2  C    2.923159   0.000000
     3  C    4.484248   2.581685   0.000000
     4  C    1.524682   2.595114   4.027634   0.000000
     5  O    5.923113   4.594385   2.394924   5.898580   0.000000
     6  C    5.818428   5.061759   2.847951   5.735154   1.416515
     7  C    1.515879   2.464278   3.616934   2.483993   4.694745
     8  C    4.290198   3.315968   1.524026   3.674944   2.870304
     9  C    4.837127   3.252070   1.527963   4.847211   1.414322
    10  C    5.546260   4.734937   2.482978   5.085220   2.421936
    11  O    2.448711   1.396454   3.016610   2.881335   4.398154
    12  O    3.994187   1.417384   1.417696   3.436215   3.661018
    13  C    2.484891   1.533945   3.511265   1.527123   5.689440
    14  H    1.087597   3.232763   5.233930   2.154673   6.738163
    15  H    1.086150   3.937557   5.150554   2.170863   6.335520
    16  H    5.505284   3.338933   1.083812   4.905111   2.564032
    17  H    2.162376   3.498912   5.011946   1.085746   6.939534
    18  H    2.150247   2.978948   3.630339   1.084159   5.377312
    19  H    6.857776   6.121193   3.811519   6.779357   2.009695
    20  H    5.284488   5.040251   3.266048   5.435931   2.047541
    21  H    2.144334   2.884885   3.173800   2.778250   3.961215
    22  H    2.159580   3.292071   4.425090   3.436566   5.116530
    23  H    3.420521   3.187048   2.159692   3.005659   3.313750
    24  H    4.559354   3.542093   2.151561   3.596035   3.831317
    25  H    6.418162   5.230512   2.787953   5.807656   2.717539
    26  H    5.756052   5.427766   3.434018   5.280953   3.347663
    27  H    2.779444   2.108809   4.456934   2.126620   6.601163
    28  H    3.442272   2.137101   3.525558   2.175865   5.867078
    29  H    3.683917   1.078483   3.274706   3.428049   5.211087
    30  H    4.159832   3.176181   2.183177   4.470617   2.042284
    31  H    5.403369   3.436665   2.158604   5.466383   2.015239
                    6          7          8          9         10
     6  C    0.000000
     7  C    4.781517   0.000000
     8  C    2.512237   3.723688   0.000000
     9  C    2.361938   3.580804   2.513372   0.000000
    10  C    1.521009   4.834654   1.533431   2.874740   0.000000
    11  O    4.860353   1.424956   3.671733   3.051406   4.898228
    12  O    4.217333   3.337351   2.499415   2.465867   3.791835
    13  C    5.853849   2.875691   3.683855   4.475734   5.212221
    14  H    6.771750   2.143341   5.235298   5.548241   6.546130
    15  H    6.021448   2.127275   4.699025   5.414149   5.780090
    16  H    3.149035   4.684071   2.114026   2.101483   2.675714
    17  H    6.703000   3.436268   4.557150   5.915448   5.939254
    18  H    5.008999   2.761805   2.912040   4.525402   4.222111
    19  H    1.081501   5.816585   3.460694   3.262905   2.163684
    20  H    1.087727   4.232503   2.809446   2.618396   2.159299
    21  H    3.833250   1.081736   3.002986   3.070532   3.921910
    22  H    5.274991   1.081160   4.631199   4.061211   5.582630
    23  H    2.811853   2.936173   1.081817   2.808471   2.146862
    24  H    3.455681   4.313119   1.085621   3.454148   2.168674
    25  H    2.138676   5.719045   2.161628   3.321567   1.087068
    26  H    2.140904   5.229945   2.166076   3.836455   1.086023
    27  H    6.857386   3.360243   4.758140   5.310345   6.283569
    28  H    5.996647   3.822064   3.619551   4.764035   5.130989
    29  H    5.877702   3.252149   4.249237   3.830256   5.620477
    30  H    2.615990   2.777857   2.805930   1.081621   3.269193
    31  H    3.268783   4.092261   3.454146   1.081567   3.843830
                   11         12         13         14         15
    11  O    0.000000
    12  O    2.364923   0.000000
    13  C    2.460629   2.468627   0.000000
    14  H    2.750693   4.517798   2.750241   0.000000
    15  H    3.362798   4.877725   3.445736   1.753522   0.000000
    16  H    3.963721   1.953567   4.227877   6.220659   6.192521
    17  H    3.869827   4.358407   2.142984   2.474310   2.537439
    18  H    3.277397   3.400966   2.169903   3.047650   2.472731
    19  H    5.913513   5.210971   6.918016   7.821981   6.996851
    20  H    4.584167   4.479144   5.772592   6.246166   5.349348
    21  H    2.059001   3.325517   3.327411   3.037537   2.423669
    22  H    1.995095   4.193117   3.824210   2.446564   2.508291
    23  H    3.254812   2.834127   3.393634   4.437559   3.697519
    24  H    4.213863   2.729622   3.544762   5.463268   4.990626
    25  H    5.586475   4.077793   5.735027   7.379318   6.735541
    26  H    5.541677   4.635200   5.674077   6.813357   5.803889
    27  H    2.874836   3.263113   1.087028   2.604037   3.770170
    28  H    3.336285   2.511801   1.083830   3.774627   4.300496
    29  H    1.964835   1.944686   2.123084   3.715411   4.751742
    30  H    2.542044   2.851507   4.339067   4.868465   4.644728
    31  H    3.256603   2.678663   4.851479   5.957542   6.091619
                   16         17         18         19         20
    16  H    0.000000
    17  H    5.818610   0.000000
    18  H    4.480842   1.743194   0.000000
    19  H    3.914442   7.723061   6.007168   0.000000
    20  H    3.848206   6.399893   4.744383   1.758689   0.000000
    21  H    4.254069   3.775267   2.617009   4.847280   3.220285
    22  H    5.478308   4.281998   3.775214   6.244448   4.599823
    23  H    3.025000   3.913673   2.201429   3.813884   2.676759
    24  H    2.441899   4.297056   2.787994   4.293026   3.819684
    25  H    2.533963   6.623598   4.967110   2.439952   3.044726
    26  H    3.696159   6.022013   4.297161   2.521463   2.455572
    27  H    5.134123   2.376581   3.033554   7.929491   6.734858
    28  H    4.012577   2.544587   2.476931   7.013945   6.083808
    29  H    3.824218   4.184447   3.962510   6.905550   5.919805
    30  H    3.029187   5.553732   4.220073   3.565940   2.401925
    31  H    2.431210   6.528198   5.305799   4.020480   3.575809
                   21         22         23         24         25
    21  H    0.000000
    22  H    1.749336   0.000000
    23  H    2.125455   3.838603   0.000000
    24  H    3.730304   5.317873   1.750582   0.000000
    25  H    4.880505   6.498399   3.041901   2.456292   0.000000
    26  H    4.247391   5.971147   2.437299   2.549532   1.751356
    27  H    4.053423   4.125945   4.439941   4.616259   6.796658
    28  H    4.083932   4.823261   3.582945   3.188136   5.481745
    29  H    3.825709   3.882726   4.233002   4.424898   6.005732
    30  H    2.241865   3.108146   2.670655   3.813530   3.974817
    31  H    3.813222   4.443433   3.804006   4.279908   4.110381
                   26         27         28         29         30
    26  H    0.000000
    27  H    6.754439   0.000000
    28  H    5.586632   1.742955   0.000000
    29  H    6.389955   2.220506   2.593633   0.000000
    30  H    4.038874   5.118528   4.846816   3.848656   0.000000
    31  H    4.854328   5.544258   5.147308   3.715448   1.759448
                   31
    31  H    0.000000
 Stoichiometry    C10H18O3
 Framework group  C1[X(C10H18O3)]
 Deg. of freedom    87
 Full point group                 C1      NOp   1
 Largest Abelian subgroup         C1      NOp   1
 Largest concise Abelian subgroup C1      NOp   1
                         Standard orientation:                         
 ---------------------------------------------------------------------
 Center     Atomic      Atomic             Coordinates (Angstroms)
 Number     Number       Type             X           Y           Z
 ---------------------------------------------------------------------
      1          6           0       -2.715908    1.163577    0.870608
      2          6           0       -1.469106   -1.189810   -0.334346
      3          6           0        1.044835   -0.718840   -0.685605
      4          6           0       -2.514477    1.165600   -0.640708
      5          8           0        2.949105   -0.562195    0.758306
      6          6           0        3.084602    0.833219    0.555882
      7          6           0       -1.577121    0.414083    1.533414
      8          6           0        1.120346    0.768564   -1.008999
      9          6           0        1.606040   -1.002476    0.706972
     10          6           0        2.567205    1.238354   -0.815845
     11          8           0       -1.426490   -0.911768    1.033484
     12          8           0       -0.197172   -1.354205   -0.937782
     13          6           0       -2.409933   -0.276931   -1.130891
     14          1           0       -3.662110    0.688524    1.119392
     15          1           0       -2.742298    2.174002    1.268184
     16          1           0        1.701620   -1.229834   -1.379988
     17          1           0       -3.348985    1.649333   -1.139149
     18          1           0       -1.625225    1.732094   -0.893127
     19          1           0        4.137811    1.055332    0.661053
     20          1           0        2.544075    1.358753    1.339971
     21          1           0       -0.650441    0.958067    1.408919
     22          1           0       -1.750560    0.289279    2.593249
     23          1           0        0.472666    1.337314   -0.355270
     24          1           0        0.794825    0.942282   -2.029994
     25          1           0        3.205193    0.800087   -1.579134
     26          1           0        2.631790    2.317538   -0.918983
     27          1           0       -3.397059   -0.725141   -1.051393
     28          1           0       -2.126192   -0.326825   -2.175730
     29          1           0       -1.865390   -2.191210   -0.391638
     30          1           0        1.042172   -0.509870    1.487546
     31          1           0        1.615664   -2.066430    0.901130
 ---------------------------------------------------------------------
 Rotational constants (GHZ):           1.4166836           0.5100647           0.5010824
 Standard basis: 6-311++G(2d,2p) (5D, 7F)
 There are   557 symmetry adapted cartesian basis functions of A   symmetry.
 There are   531 symmetry adapted basis functions of A   symmetry.
   531 basis functions,   762 primitive gaussians,   557 cartesian basis functions
    51 alpha electrons       51 beta electrons
       nuclear repulsion energy       913.6870319127 Hartrees.
 NAtoms=   31 NActive=   31 NUniq=   31 SFac= 1.00D+00 NAtFMM=   60 NAOKFM=F Big=F
 Integral buffers will be    131072 words long.
 Raffenetti 2 integral format.
 Two-electron integral symmetry is turned on.
 ------------------------------------------------------------------------------
 Polarizable Continuum Model (PCM)
 =================================
 Model                : PCM.
 Atomic radii         : UFF (Universal Force Field).
 Polarization charges : Total charges.
 Charge compensation  : None.
 Solution method      : On-the-fly selection.
 Cavity type          : Scaled VdW (van der Waals Surface) (Alpha=1.100).
 Cavity algorithm     : GePol (No added spheres)
                        Default sphere list used, NSphG=   31.
                        Lebedev-Laikov grids with approx.  5.0 points / Ang**2.
                        Smoothing algorithm: York/Karplus (Gamma=1.0000).
                        Polarization charges: spherical gaussians, with
                                              point-specific exponents (IZeta= 3).
                        Self-potential: point-specific (ISelfS= 7).
                        Self-field    : sphere-specific E.n sum rule (ISelfD= 2).
 1st derivatives      : Analytical E(r).r(x)/FMM algorithm (CHGder, D1EAlg=3).
                        Cavity 1st derivative terms included.
 Solvent              : Water, Eps=  78.355300 Eps(inf)=   1.777849
 ------------------------------------------------------------------------------
 One-electron integrals computed using PRISM.
 NBasis=   531 RedAO= T EigKep=  3.44D-06  NBF=   531
 NBsUse=   531 1.00D-06 EigRej= -1.00D+00 NBFU=   531
 ExpMin= 3.60D-02 ExpMax= 8.59D+03 ExpMxC= 1.30D+03 IAcc=3 IRadAn=         5 AccDes= 0.00D+00
 Harris functional with IExCor= 1009 and IRadAn=       5 diagonalized for initial guess.
 HarFok:  IExCor= 1009 AccDes= 0.00D+00 IRadAn=         5 IDoV= 1 UseB2=F ITyADJ=14
 ICtDFT=  3500011 ScaDFX=  1.000000  1.000000  1.000000  1.000000
 FoFCou: FMM=F IPFlag=           0 FMFlag=      100000 FMFlg1=           0
         NFxFlg=           0 DoJE=T BraDBF=F KetDBF=T FulRan=T
         wScrn=  0.000000 ICntrl=       500 IOpCl=  0 I1Cent=   200000004 NGrid=           0
         NMat0=    1 NMatS0=      1 NMatT0=    0 NMatD0=    1 NMtDS0=    0 NMtDT0=    0
 Petite list used in FoFCou.
 Requested convergence on RMS density matrix=1.00D-08 within 128 cycles.
 Requested convergence on MAX density matrix=1.00D-06.
 Requested convergence on             energy=1.00D-06.
 No special actions if energy rises.
 Inv3:  Mode=1 IEnd=    11928108.
 Iteration    1 A*A^-1 deviation from unit magnitude is 4.22D-15 for   1994.
 Iteration    1 A*A^-1 deviation from orthogonality  is 2.52D-15 for   1599    110.
 Iteration    1 A^-1*A deviation from unit magnitude is 4.22D-15 for   1994.
 Iteration    1 A^-1*A deviation from orthogonality  is 2.15D-15 for   1871   1017.
 Error on total polarization charges =  0.01444
 SCF Done:  E(RM062X) =  -617.479153643     A.U. after   12 cycles
            NFock= 12  Conv=0.50D-08     -V/T= 2.0035

 **********************************************************************

            Population analysis using the SCF density.

 **********************************************************************

 Orbital symmetries:
       Occupied  (A) (A) (A) (A) (A) (A) (A) (A) (A) (A) (A) (A)
                 (A) (A) (A) (A) (A) (A) (A) (A) (A) (A) (A) (A)
                 (A) (A) (A) (A) (A) (A) (A) (A) (A) (A) (A) (A)
                 (A) (A) (A) (A) (A) (A) (A) (A) (A) (A) (A) (A)
                 (A) (A) (A)
       Virtual   (A) (A) (A) (A) (A) (A) (A) (A) (A) (A) (A) (A)
                 (A) (A) (A) (A) (A) (A) (A) (A) (A) (A) (A) (A)
                 (A) (A) (A) (A) (A) (A) (A) (A) (A) (A) (A) (A)
                 (A) (A) (A) (A) (A) (A) (A) (A) (A) (A) (A) (A)
                 (A) (A) (A) (A) (A) (A) (A) (A) (A) (A) (A) (A)
                 (A) (A) (A) (A) (A) (A) (A) (A) (A) (A) (A) (A)
                 (A) (A) (A) (A) (A) (A) (A) (A) (A) (A) (A) (A)
                 (A) (A) (A) (A) (A) (A) (A) (A) (A) (A) (A) (A)
                 (A) (A) (A) (A) (A) (A) (A) (A) (A) (A) (A) (A)
                 (A) (A) (A) (A) (A) (A) (A) (A) (A) (A) (A) (A)
                 (A) (A) (A) (A) (A) (A) (A) (A) (A) (A) (A) (A)
                 (A) (A) (A) (A) (A) (A) (A) (A) (A) (A) (A) (A)
                 (A) (A) (A) (A) (A) (A) (A) (A) (A) (A) (A) (A)
                 (A) (A) (A) (A) (A) (A) (A) (A) (A) (A) (A) (A)
                 (A) (A) (A) (A) (A) (A) (A) (A) (A) (A) (A) (A)
                 (A) (A) (A) (A) (A) (A) (A) (A) (A) (A) (A) (A)
                 (A) (A) (A) (A) (A) (A) (A) (A) (A) (A) (A) (A)
                 (A) (A) (A) (A) (A) (A) (A) (A) (A) (A) (A) (A)
                 (A) (A) (A) (A) (A) (A) (A) (A) (A) (A) (A) (A)
                 (A) (A) (A) (A) (A) (A) (A) (A) (A) (A) (A) (A)
                 (A) (A) (A) (A) (A) (A) (A) (A) (A) (A) (A) (A)
                 (A) (A) (A) (A) (A) (A) (A) (A) (A) (A) (A) (A)
                 (A) (A) (A) (A) (A) (A) (A) (A) (A) (A) (A) (A)
                 (A) (A) (A) (A) (A) (A) (A) (A) (A) (A) (A) (A)
                 (A) (A) (A) (A) (A) (A) (A) (A) (A) (A) (A) (A)
                 (A) (A) (A) (A) (A) (A) (A) (A) (A) (A) (A) (A)
                 (A) (A) (A) (A) (A) (A) (A) (A) (A) (A) (A) (A)
                 (A) (A) (A) (A) (A) (A) (A) (A) (A) (A) (A) (A)
                 (A) (A) (A) (A) (A) (A) (A) (A) (A) (A) (A) (A)
                 (A) (A) (A) (A) (A) (A) (A) (A) (A) (A) (A) (A)
                 (A) (A) (A) (A) (A) (A) (A) (A) (A) (A) (A) (A)
                 (A) (A) (A) (A) (A) (A) (A) (A) (A) (A) (A) (A)
                 (A) (A) (A) (A) (A) (A) (A) (A) (A) (A) (A) (A)
                 (A) (A) (A) (A) (A) (A) (A) (A) (A) (A) (A) (A)
                 (A) (A) (A) (A) (A) (A) (A) (A) (A) (A) (A) (A)
                 (A) (A) (A) (A) (A) (A) (A) (A) (A) (A) (A) (A)
                 (A) (A) (A) (A) (A) (A) (A) (A) (A) (A) (A) (A)
                 (A) (A) (A) (A) (A) (A) (A) (A) (A) (A) (A) (A)
                 (A) (A) (A) (A) (A) (A) (A) (A) (A) (A) (A) (A)
                 (A) (A) (A) (A) (A) (A) (A) (A) (A) (A) (A) (A)
 The electronic state is 1-A.
 Alpha  occ. eigenvalues --  -19.63380 -19.62766 -19.62147 -10.63955 -10.58964
 Alpha  occ. eigenvalues --  -10.58215 -10.57864 -10.57602 -10.53223 -10.53157
 Alpha  occ. eigenvalues --  -10.53144 -10.53056 -10.53040  -1.19290  -1.16605
 Alpha  occ. eigenvalues --   -1.13284  -0.90831  -0.90459  -0.87804  -0.84740
 Alpha  occ. eigenvalues --   -0.75763  -0.74382  -0.73908  -0.70562  -0.67304
 Alpha  occ. eigenvalues --   -0.62439  -0.59969  -0.58584  -0.56801  -0.56301
 Alpha  occ. eigenvalues --   -0.54221  -0.53376  -0.51932  -0.51838  -0.50742
 Alpha  occ. eigenvalues --   -0.49336  -0.47513  -0.46016  -0.45405  -0.45216
 Alpha  occ. eigenvalues --   -0.43323  -0.42671  -0.40963  -0.40574  -0.39288
 Alpha  occ. eigenvalues --   -0.38558  -0.37319  -0.36574  -0.34552  -0.33455
 Alpha  occ. eigenvalues --   -0.30945
 Alpha virt. eigenvalues --   -0.00238   0.00671   0.00806   0.01053   0.02354
 Alpha virt. eigenvalues --    0.02633   0.02724   0.03180   0.03308   0.04827
 Alpha virt. eigenvalues --    0.05092   0.05482   0.05662   0.05946   0.06941
 Alpha virt. eigenvalues --    0.07624   0.08046   0.08664   0.09176   0.09522
 Alpha virt. eigenvalues --    0.10619   0.10760   0.10916   0.11598   0.11967
 Alpha virt. eigenvalues --    0.12372   0.12552   0.13206   0.13561   0.13683
 Alpha virt. eigenvalues --    0.14006   0.14066   0.14374   0.14433   0.15049
 Alpha virt. eigenvalues --    0.15261   0.15500   0.15877   0.16086   0.16460
 Alpha virt. eigenvalues --    0.16690   0.16882   0.16967   0.17477   0.17605
 Alpha virt. eigenvalues --    0.18162   0.18310   0.18557   0.18719   0.19274
 Alpha virt. eigenvalues --    0.19777   0.20115   0.20389   0.20529   0.20735
 Alpha virt. eigenvalues --    0.21747   0.22300   0.22548   0.23052   0.24593
 Alpha virt. eigenvalues --    0.25231   0.25647   0.26516   0.26742   0.26965
 Alpha virt. eigenvalues --    0.27973   0.27999   0.28342   0.29483   0.29871
 Alpha virt. eigenvalues --    0.30321   0.30853   0.31711   0.32180   0.32379
 Alpha virt. eigenvalues --    0.32756   0.33425   0.34310   0.34550   0.34836
 Alpha virt. eigenvalues --    0.35149   0.35863   0.36247   0.36323   0.36781
 Alpha virt. eigenvalues --    0.36922   0.37906   0.38092   0.38442   0.38629
 Alpha virt. eigenvalues --    0.38750   0.38974   0.39288   0.39894   0.40821
 Alpha virt. eigenvalues --    0.41332   0.41470   0.41998   0.42630   0.43277
 Alpha virt. eigenvalues --    0.45658   0.46910   0.49093   0.50248   0.51050
 Alpha virt. eigenvalues --    0.51538   0.53215   0.54007   0.54615   0.55005
 Alpha virt. eigenvalues --    0.55548   0.56786   0.58120   0.58651   0.59431
 Alpha virt. eigenvalues --    0.60938   0.61043   0.61272   0.61431   0.62059
 Alpha virt. eigenvalues --    0.63163   0.63317   0.64250   0.64511   0.64751
 Alpha virt. eigenvalues --    0.65485   0.67006   0.67322   0.67712   0.68449
 Alpha virt. eigenvalues --    0.68857   0.69365   0.69616   0.69871   0.70769
 Alpha virt. eigenvalues --    0.71068   0.72033   0.72418   0.73370   0.73731
 Alpha virt. eigenvalues --    0.74096   0.74651   0.75675   0.76091   0.76428
 Alpha virt. eigenvalues --    0.76778   0.77548   0.77995   0.78637   0.79328
 Alpha virt. eigenvalues --    0.79853   0.80526   0.82872   0.84523   0.85299
 Alpha virt. eigenvalues --    0.86514   0.88010   0.88128   0.89037   0.90191
 Alpha virt. eigenvalues --    0.91484   0.92731   0.93156   0.94114   0.95743
 Alpha virt. eigenvalues --    0.96306   0.97623   0.98873   0.99835   1.02133
 Alpha virt. eigenvalues --    1.02838   1.03309   1.04287   1.04834   1.06001
 Alpha virt. eigenvalues --    1.07241   1.08995   1.10201   1.11432   1.12541
 Alpha virt. eigenvalues --    1.13121   1.14009   1.15761   1.16410   1.17296
 Alpha virt. eigenvalues --    1.18388   1.19883   1.20217   1.20669   1.20959
 Alpha virt. eigenvalues --    1.21417   1.22360   1.23182   1.23826   1.24441
 Alpha virt. eigenvalues --    1.25167   1.26580   1.26713   1.27364   1.28324
 Alpha virt. eigenvalues --    1.29401   1.29696   1.31639   1.31748   1.32197
 Alpha virt. eigenvalues --    1.33007   1.33411   1.34273   1.35099   1.35949
 Alpha virt. eigenvalues --    1.36169   1.36685   1.37435   1.37627   1.38661
 Alpha virt. eigenvalues --    1.39236   1.39881   1.40849   1.41079   1.42158
 Alpha virt. eigenvalues --    1.43157   1.43856   1.44144   1.45208   1.45823
 Alpha virt. eigenvalues --    1.46156   1.47067   1.47644   1.47897   1.49003
 Alpha virt. eigenvalues --    1.49281   1.50307   1.51592   1.51838   1.53310
 Alpha virt. eigenvalues --    1.54263   1.54316   1.54905   1.55900   1.56372
 Alpha virt. eigenvalues --    1.57147   1.57809   1.58486   1.59163   1.59870
 Alpha virt. eigenvalues --    1.60357   1.61185   1.61851   1.62978   1.63558
 Alpha virt. eigenvalues --    1.63918   1.65190   1.65407   1.66035   1.66712
 Alpha virt. eigenvalues --    1.67232   1.69257   1.69655   1.70457   1.71110
 Alpha virt. eigenvalues --    1.73196   1.74359   1.75009   1.75916   1.78203
 Alpha virt. eigenvalues --    1.79223   1.80521   1.82095   1.82311   1.84444
 Alpha virt. eigenvalues --    1.87964   1.88776   1.91598   1.93180   1.97992
 Alpha virt. eigenvalues --    2.02020   2.06811   2.09407   2.18545   2.21233
 Alpha virt. eigenvalues --    2.21376   2.23735   2.27108   2.32351   2.39467
 Alpha virt. eigenvalues --    2.41459   2.42688   2.44996   2.48527   2.53346
 Alpha virt. eigenvalues --    2.56962   2.76069   2.78725   2.81331   2.84131
 Alpha virt. eigenvalues --    2.84829   2.88996   2.93262   2.93974   2.94723
 Alpha virt. eigenvalues --    2.95707   2.97837   3.01099   3.03304   3.03809
 Alpha virt. eigenvalues --    3.06145   3.07781   3.08801   3.09816   3.10225
 Alpha virt. eigenvalues --    3.13065   3.14211   3.16587   3.19668   3.20563
 Alpha virt. eigenvalues --    3.25584   3.25790   3.30642   3.33490   3.35751
 Alpha virt. eigenvalues --    3.36773   3.37510   3.38210   3.40441   3.41063
 Alpha virt. eigenvalues --    3.42834   3.43661   3.44462   3.45178   3.47074
 Alpha virt. eigenvalues --    3.48108   3.49936   3.50185   3.50915   3.51743
 Alpha virt. eigenvalues --    3.53065   3.53588   3.54192   3.55317   3.56566
 Alpha virt. eigenvalues --    3.56675   3.58066   3.59290   3.59380   3.60133
 Alpha virt. eigenvalues --    3.60923   3.61975   3.63231   3.63547   3.64440
 Alpha virt. eigenvalues --    3.65181   3.66492   3.67867   3.69127   3.69796
 Alpha virt. eigenvalues --    3.71175   3.71454   3.72150   3.72511   3.74075
 Alpha virt. eigenvalues --    3.74960   3.76167   3.76434   3.76991   3.78154
 Alpha virt. eigenvalues --    3.79458   3.80299   3.80933   3.83051   3.84278
 Alpha virt. eigenvalues --    3.86604   3.88793   3.88965   3.89646   3.92600
 Alpha virt. eigenvalues --    3.94522   3.94864   3.95681   3.96442   3.97849
 Alpha virt. eigenvalues --    3.99615   4.00486   4.01943   4.03751   4.04548
 Alpha virt. eigenvalues --    4.04790   4.05466   4.07611   4.07957   4.08797
 Alpha virt. eigenvalues --    4.09389   4.10585   4.10734   4.12022   4.12377
 Alpha virt. eigenvalues --    4.13002   4.14366   4.14910   4.15607   4.17422
 Alpha virt. eigenvalues --    4.18540   4.18619   4.19115   4.20227   4.22098
 Alpha virt. eigenvalues --    4.23527   4.23769   4.24631   4.26751   4.27934
 Alpha virt. eigenvalues --    4.28993   4.30167   4.30950   4.31591   4.34544
 Alpha virt. eigenvalues --    4.35267   4.35968   4.36154   4.41440   4.42362
 Alpha virt. eigenvalues --    4.43866   4.44733   4.48909   4.50552   4.53824
 Alpha virt. eigenvalues --    4.58642   4.62568   4.74970   4.76450   4.84694
 Alpha virt. eigenvalues --    4.86637   4.92624   4.93208   5.00009   5.00655
 Alpha virt. eigenvalues --    5.06700   5.07793   5.08698   5.09422   5.12967
 Alpha virt. eigenvalues --    5.13808   5.15342   5.19428   5.31636   5.37437
 Alpha virt. eigenvalues --    5.41011   5.54488   5.58749   5.59122   5.85067
 Alpha virt. eigenvalues --    5.88530   6.01223   6.98007   7.02800   7.05898
 Alpha virt. eigenvalues --    7.08797   7.09092   7.12233   7.14368   7.18413
 Alpha virt. eigenvalues --    7.27925   7.36620   7.43229   7.51486   7.54063
 Alpha virt. eigenvalues --    7.57629   7.59436  23.94484  23.97963  24.06088
 Alpha virt. eigenvalues --   24.07369  24.08820  24.10908  24.13680  24.15747
 Alpha virt. eigenvalues --   24.16591  24.19224  50.16698  50.18503  50.20840
          Condensed to atoms (all electrons):
               1          2          3          4          5          6
     1  C    6.445671   0.108917   0.193986  -0.215839  -0.001950   0.023337
     2  C    0.108917   7.465406  -1.171522   0.025112   0.002557   0.010653
     3  C    0.193986  -1.171522   9.299588   0.121739  -0.051449   0.051793
     4  C   -0.215839   0.025112   0.121739   5.862223   0.000294  -0.004120
     5  O   -0.001950   0.002557  -0.051449   0.000294   8.335013   0.123699
     6  C    0.023337   0.010653   0.051793  -0.004120   0.123699   5.469976
     7  C   -0.406493  -0.443774   0.136352   0.096043   0.002553  -0.025391
     8  C   -0.066964   0.411217  -1.979111  -0.015036  -0.025802  -0.005485
     9  C   -0.020103   0.135066  -0.841893  -0.041667   0.187562  -0.205984
    10  C   -0.015836  -0.007915  -0.073301   0.007229  -0.017975   0.040720
    11  O   -0.103541   0.226355   0.069951  -0.002159  -0.000882   0.004365
    12  O   -0.044323   0.221766  -0.106815  -0.034711   0.001032  -0.011887
    13  C   -0.037314  -1.181005   0.266656  -0.376397  -0.001005  -0.006195
    14  H    0.439390   0.023237  -0.003113   0.009350  -0.000003  -0.000019
    15  H    0.452536  -0.012425   0.004834  -0.055830  -0.000104   0.000658
    16  H   -0.000511  -0.049059   0.611721   0.007756   0.002272   0.002526
    17  H   -0.025820  -0.008432   0.006094   0.414570  -0.000029   0.000190
    18  H   -0.167754   0.007363  -0.044277   0.606924   0.000226  -0.003670
    19  H    0.000967   0.001937  -0.000504   0.000268  -0.073728   0.422586
    20  H    0.000389  -0.005509   0.048090   0.004264  -0.041277   0.465719
    21  H   -0.170816  -0.001497  -0.121654   0.037645  -0.000241  -0.026373
    22  H   -0.012854  -0.017697   0.027890   0.010890   0.000764   0.000442
    23  H    0.078765  -0.036407   0.180850  -0.068382  -0.004931   0.026610
    24  H    0.016195   0.034368  -0.040767  -0.008183  -0.000331   0.011011
    25  H   -0.000487  -0.007301  -0.008336   0.002162  -0.010425  -0.079502
    26  H   -0.001583  -0.002961   0.002664   0.000486   0.007546  -0.044433
    27  H   -0.038522  -0.092271   0.026560  -0.001992  -0.000063  -0.000499
    28  H   -0.008009  -0.073724  -0.042677  -0.051597   0.000087  -0.000616
    29  H   -0.007535   0.496539  -0.003162   0.002755  -0.000388   0.002410
    30  H   -0.031518  -0.021927   0.054727  -0.009709  -0.044877  -0.009078
    31  H   -0.000409   0.006037  -0.105113   0.000672  -0.062201  -0.006954
               7          8          9         10         11         12
     1  C   -0.406493  -0.066964  -0.020103  -0.015836  -0.103541  -0.044323
     2  C   -0.443774   0.411217   0.135066  -0.007915   0.226355   0.221766
     3  C    0.136352  -1.979111  -0.841893  -0.073301   0.069951  -0.106815
     4  C    0.096043  -0.015036  -0.041667   0.007229  -0.002159  -0.034711
     5  O    0.002553  -0.025802   0.187562  -0.017975  -0.000882   0.001032
     6  C   -0.025391  -0.005485  -0.205984   0.040720   0.004365  -0.011887
     7  C    5.609364  -0.067743  -0.033192   0.015126   0.199439   0.036214
     8  C   -0.067743   7.263075   0.436981  -0.343583  -0.057964   0.059957
     9  C   -0.033192   0.436981   5.760064   0.057230   0.009350   0.048657
    10  C    0.015126  -0.343583   0.057230   5.943504   0.006261   0.018493
    11  O    0.199439  -0.057964   0.009350   0.006261   8.134739  -0.010402
    12  O    0.036214   0.059957   0.048657   0.018493  -0.010402   8.342117
    13  C    0.245556  -0.122394   0.006487  -0.045220  -0.018164  -0.035815
    14  H   -0.059970   0.000858   0.001282  -0.000257  -0.005264   0.000496
    15  H   -0.038399  -0.002515  -0.001716   0.001591   0.008669  -0.000739
    16  H    0.011761  -0.060905  -0.112100  -0.032948   0.003168  -0.105666
    17  H    0.011110  -0.000657  -0.002018  -0.000961  -0.002587  -0.001313
    18  H    0.028540   0.048717   0.005862   0.001971   0.004837   0.000318
    19  H   -0.001767  -0.003173   0.019514  -0.028320   0.000142   0.000025
    20  H    0.005392   0.013523  -0.027904  -0.073870   0.000442  -0.002745
    21  H    0.495615   0.031899   0.051561   0.024443  -0.038937   0.017015
    22  H    0.431242  -0.010147  -0.010800  -0.003536  -0.057481  -0.001609
    23  H   -0.022793   0.287166  -0.058656  -0.078918   0.001976  -0.016857
    24  H   -0.016177   0.392983   0.000065   0.021220  -0.001737  -0.003628
    25  H    0.000861   0.000078   0.005042   0.461689   0.000090   0.000581
    26  H    0.001163  -0.066730   0.008077   0.473062  -0.000042  -0.000302
    27  H    0.023616  -0.011159  -0.002335  -0.000176  -0.010296  -0.003208
    28  H    0.009895   0.025619   0.006209   0.000171   0.010249   0.003498
    29  H   -0.019112   0.001295  -0.002313  -0.008254  -0.064021  -0.105763
    30  H    0.023317  -0.085534   0.388450   0.024915  -0.002267  -0.015028
    31  H   -0.004545   0.017604   0.486831   0.014572  -0.011032   0.020742
              13         14         15         16         17         18
     1  C   -0.037314   0.439390   0.452536  -0.000511  -0.025820  -0.167754
     2  C   -1.181005   0.023237  -0.012425  -0.049059  -0.008432   0.007363
     3  C    0.266656  -0.003113   0.004834   0.611721   0.006094  -0.044277
     4  C   -0.376397   0.009350  -0.055830   0.007756   0.414570   0.606924
     5  O   -0.001005  -0.000003  -0.000104   0.002272  -0.000029   0.000226
     6  C   -0.006195  -0.000019   0.000658   0.002526   0.000190  -0.003670
     7  C    0.245556  -0.059970  -0.038399   0.011761   0.011110   0.028540
     8  C   -0.122394   0.000858  -0.002515  -0.060905  -0.000657   0.048717
     9  C    0.006487   0.001282  -0.001716  -0.112100  -0.002018   0.005862
    10  C   -0.045220  -0.000257   0.001591  -0.032948  -0.000961   0.001971
    11  O   -0.018164  -0.005264   0.008669   0.003168  -0.002587   0.004837
    12  O   -0.035815   0.000496  -0.000739  -0.105666  -0.001313   0.000318
    13  C    6.772921  -0.038246   0.020056   0.015204  -0.031519  -0.128688
    14  H   -0.038246   0.467392  -0.006741   0.000047   0.000497   0.000737
    15  H    0.020056  -0.006741   0.473740   0.000064  -0.005554  -0.005271
    16  H    0.015204   0.000047   0.000064   0.450535   0.000014   0.000401
    17  H   -0.031519   0.000497  -0.005554   0.000014   0.451233  -0.005258
    18  H   -0.128688   0.000737  -0.005271   0.000401  -0.005258   0.520252
    19  H   -0.000698  -0.000010   0.000063  -0.003076   0.000044  -0.000703
    20  H   -0.005055   0.000067   0.000240   0.004693  -0.000029   0.003291
    21  H   -0.001152   0.002477  -0.002251  -0.004098  -0.000600   0.018255
    22  H    0.010656  -0.003079  -0.009772   0.000648   0.002475  -0.003946
    23  H    0.061379  -0.002132  -0.000124   0.002691   0.000848  -0.048392
    24  H   -0.021442   0.000434  -0.000173  -0.003041  -0.001468  -0.007168
    25  H    0.001145  -0.000013  -0.000006   0.000449   0.000054   0.001546
    26  H   -0.001171  -0.000020  -0.000028  -0.001527   0.000020   0.001681
    27  H    0.480802  -0.005829  -0.001861   0.001039  -0.008115   0.003099
    28  H    0.488249  -0.001585   0.000706  -0.001876  -0.004880   0.000268
    29  H   -0.050068   0.003781  -0.000077   0.003575   0.002576  -0.002015
    30  H    0.006754   0.000956  -0.000287   0.007238  -0.000703  -0.001050
    31  H   -0.004487  -0.000021  -0.000030  -0.011260   0.000069   0.000347
              19         20         21         22         23         24
     1  C    0.000967   0.000389  -0.170816  -0.012854   0.078765   0.016195
     2  C    0.001937  -0.005509  -0.001497  -0.017697  -0.036407   0.034368
     3  C   -0.000504   0.048090  -0.121654   0.027890   0.180850  -0.040767
     4  C    0.000268   0.004264   0.037645   0.010890  -0.068382  -0.008183
     5  O   -0.073728  -0.041277  -0.000241   0.000764  -0.004931  -0.000331
     6  C    0.422586   0.465719  -0.026373   0.000442   0.026610   0.011011
     7  C   -0.001767   0.005392   0.495615   0.431242  -0.022793  -0.016177
     8  C   -0.003173   0.013523   0.031899  -0.010147   0.287166   0.392983
     9  C    0.019514  -0.027904   0.051561  -0.010800  -0.058656   0.000065
    10  C   -0.028320  -0.073870   0.024443  -0.003536  -0.078918   0.021220
    11  O    0.000142   0.000442  -0.038937  -0.057481   0.001976  -0.001737
    12  O    0.000025  -0.002745   0.017015  -0.001609  -0.016857  -0.003628
    13  C   -0.000698  -0.005055  -0.001152   0.010656   0.061379  -0.021442
    14  H   -0.000010   0.000067   0.002477  -0.003079  -0.002132   0.000434
    15  H    0.000063   0.000240  -0.002251  -0.009772  -0.000124  -0.000173
    16  H   -0.003076   0.004693  -0.004098   0.000648   0.002691  -0.003041
    17  H    0.000044  -0.000029  -0.000600   0.002475   0.000848  -0.001468
    18  H   -0.000703   0.003291   0.018255  -0.003946  -0.048392  -0.007168
    19  H    0.465365  -0.012518  -0.000202   0.000051   0.003391   0.001393
    20  H   -0.012518   0.515253  -0.007244  -0.000452  -0.024634   0.001373
    21  H   -0.000202  -0.007244   0.623355  -0.031298  -0.053382  -0.000148
    22  H    0.000051  -0.000452  -0.031298   0.456527   0.008208  -0.000519
    23  H    0.003391  -0.024634  -0.053382   0.008208   0.613165  -0.018546
    24  H    0.001393   0.001373  -0.000148  -0.000519  -0.018546   0.452963
    25  H   -0.004716   0.002021   0.001457   0.000022  -0.006266  -0.006438
    26  H   -0.008243   0.006449   0.002058  -0.000128  -0.014323  -0.011027
    27  H   -0.000011  -0.000053   0.000076   0.000955   0.000796  -0.001046
    28  H   -0.000098  -0.000057   0.003025   0.000252   0.001959  -0.003330
    29  H    0.000089  -0.000296  -0.006339   0.002249  -0.001759   0.000668
    30  H   -0.003126  -0.002163  -0.013779  -0.005023  -0.010832   0.000136
    31  H    0.003008  -0.002370   0.006155  -0.000232  -0.003003  -0.001517
              25         26         27         28         29         30
     1  C   -0.000487  -0.001583  -0.038522  -0.008009  -0.007535  -0.031518
     2  C   -0.007301  -0.002961  -0.092271  -0.073724   0.496539  -0.021927
     3  C   -0.008336   0.002664   0.026560  -0.042677  -0.003162   0.054727
     4  C    0.002162   0.000486  -0.001992  -0.051597   0.002755  -0.009709
     5  O   -0.010425   0.007546  -0.000063   0.000087  -0.000388  -0.044877
     6  C   -0.079502  -0.044433  -0.000499  -0.000616   0.002410  -0.009078
     7  C    0.000861   0.001163   0.023616   0.009895  -0.019112   0.023317
     8  C    0.000078  -0.066730  -0.011159   0.025619   0.001295  -0.085534
     9  C    0.005042   0.008077  -0.002335   0.006209  -0.002313   0.388450
    10  C    0.461689   0.473062  -0.000176   0.000171  -0.008254   0.024915
    11  O    0.000090  -0.000042  -0.010296   0.010249  -0.064021  -0.002267
    12  O    0.000581  -0.000302  -0.003208   0.003498  -0.105763  -0.015028
    13  C    0.001145  -0.001171   0.480802   0.488249  -0.050068   0.006754
    14  H   -0.000013  -0.000020  -0.005829  -0.001585   0.003781   0.000956
    15  H   -0.000006  -0.000028  -0.001861   0.000706  -0.000077  -0.000287
    16  H    0.000449  -0.001527   0.001039  -0.001876   0.003575   0.007238
    17  H    0.000054   0.000020  -0.008115  -0.004880   0.002576  -0.000703
    18  H    0.001546   0.001681   0.003099   0.000268  -0.002015  -0.001050
    19  H   -0.004716  -0.008243  -0.000011  -0.000098   0.000089  -0.003126
    20  H    0.002021   0.006449  -0.000053  -0.000057  -0.000296  -0.002163
    21  H    0.001457   0.002058   0.000076   0.003025  -0.006339  -0.013779
    22  H    0.000022  -0.000128   0.000955   0.000252   0.002249  -0.005023
    23  H   -0.006266  -0.014323   0.000796   0.001959  -0.001759  -0.010832
    24  H   -0.006438  -0.011027  -0.001046  -0.003330   0.000668   0.000136
    25  H    0.475617  -0.008400   0.000051  -0.000021  -0.000348  -0.004428
    26  H   -0.008400   0.489297  -0.000006   0.000336  -0.000237  -0.001291
    27  H    0.000051  -0.000006   0.451135  -0.005137  -0.010632  -0.000684
    28  H   -0.000021   0.000336  -0.005137   0.469912  -0.014910   0.000398
    29  H   -0.000348  -0.000237  -0.010632  -0.014910   0.529482   0.004745
    30  H   -0.004428  -0.001291  -0.000684   0.000398   0.004745   0.529665
    31  H    0.000521   0.001914   0.000024   0.000392  -0.002802  -0.022504
              31
     1  C   -0.000409
     2  C    0.006037
     3  C   -0.105113
     4  C    0.000672
     5  O   -0.062201
     6  C   -0.006954
     7  C   -0.004545
     8  C    0.017604
     9  C    0.486831
    10  C    0.014572
    11  O   -0.011032
    12  O    0.020742
    13  C   -0.004487
    14  H   -0.000021
    15  H   -0.000030
    16  H   -0.011260
    17  H    0.000069
    18  H    0.000347
    19  H    0.003008
    20  H   -0.002370
    21  H    0.006155
    22  H   -0.000232
    23  H   -0.003003
    24  H   -0.001517
    25  H    0.000521
    26  H    0.001914
    27  H    0.000024
    28  H    0.000392
    29  H   -0.002802
    30  H   -0.022504
    31  H    0.471856
 Mulliken charges:
               1
     1  C   -0.381971
     2  C   -0.043104
     3  C   -0.509800
     4  C   -0.324761
     5  O   -0.325943
     6  C   -0.226490
     7  C   -0.243800
     8  C   -0.066071
     9  C   -0.253610
    10  C   -0.381125
    11  O   -0.293258
    12  O   -0.270100
    13  C   -0.269830
    14  H    0.175301
    15  H    0.180743
    16  H    0.260267
    17  H    0.210148
    18  H    0.163557
    19  H    0.222052
    20  H    0.134971
    21  H    0.164975
    22  H    0.215302
    23  H    0.202532
    24  H    0.213876
    25  H    0.183300
    26  H    0.167700
    27  H    0.205743
    28  H    0.187290
    29  H    0.249864
    30  H    0.244505
    31  H    0.207737
 Sum of Mulliken charges =  -0.00000
 Mulliken charges with hydrogens summed into heavy atoms:
               1
     1  C   -0.025926
     2  C    0.206760
     3  C   -0.249534
     4  C    0.048944
     5  O   -0.325943
     6  C    0.130533
     7  C    0.136477
     8  C    0.350337
     9  C    0.198632
    10  C   -0.030125
    11  O   -0.293258
    12  O   -0.270100
    13  C    0.123203
 Electronic spatial extent (au):  <R**2>=           2594.5898
 Charge=             -0.0000 electrons
 Dipole moment (field-independent basis, Debye):
    X=             -2.0267    Y=              4.1476    Z=             -0.4668  Tot=              4.6398
 Quadrupole moment (field-independent basis, Debye-Ang):
   XX=            -79.5728   YY=            -80.8857   ZZ=            -80.7213
   XY=              3.3751   XZ=             -2.2372   YZ=              1.6904
 Traceless Quadrupole moment (field-independent basis, Debye-Ang):
   XX=              0.8205   YY=             -0.4924   ZZ=             -0.3280
   XY=              3.3751   XZ=             -2.2372   YZ=              1.6904
 Octapole moment (field-independent basis, Debye-Ang**2):
  XXX=            -28.1475  YYY=             -4.0083  ZZZ=              5.4305  XYY=              2.2317
  XXY=             18.6053  XXZ=            -12.2927  XZZ=             -2.0122  YZZ=              5.1402
  YYZ=              2.7884  XYZ=             -0.8994
 Hexadecapole moment (field-independent basis, Debye-Ang**3):
 XXXX=          -2279.9866 YYYY=           -592.5608 ZZZZ=           -546.2087 XXXY=             70.7741
 XXXZ=            -20.6266 YYYX=              3.0476 YYYZ=             -2.8086 ZZZX=            -12.5785
 ZZZY=              2.6229 XXYY=           -469.3191 XXZZ=           -475.6486 YYZZ=           -202.2873
 XXYZ=             22.4267 YYXZ=              3.7112 ZZXY=             -4.7939
 N-N= 9.136870319127D+02 E-N=-3.268938980643D+03  KE= 6.153148369641D+02
 D1PCM: PCM CHGder 1st derivatives, ID1Alg=3 FixD1E=F DoIter=F DoCFld=F I1PDM=0.
 Calling FoFJK, ICntrl=      2127 FMM=F ISym2X=0 I1Cent= 0 IOpClX= 0 NMat=1 NMatS=1 NMatT=0.
 ***** Axes restored to original set *****
 -------------------------------------------------------------------
 Center     Atomic                   Forces (Hartrees/Bohr)
 Number     Number              X              Y              Z
 -------------------------------------------------------------------
      1        6           0.002689202    0.000569003   -0.001168898
      2        6           0.001620839    0.012566102    0.001380555
      3        6          -0.008495599    0.004666570    0.005759399
      4        6          -0.000283558   -0.004010255    0.002547020
      5        8           0.007709740   -0.005145215    0.001403877
      6        6          -0.004187802   -0.002929286   -0.004705194
      7        6          -0.004968396   -0.001757516   -0.006984525
      8        6           0.004641636   -0.003750739    0.000417062
      9        6           0.003046657    0.004346070   -0.005567174
     10        6          -0.002053333    0.000950974    0.002291801
     11        8           0.001121117   -0.006486074    0.006181416
     12        8           0.002474868   -0.006554407   -0.007987384
     13        6           0.001186869    0.002012882    0.002049650
     14        1          -0.002385699   -0.002094320    0.000603348
     15        1          -0.000234925    0.002635267    0.000786814
     16        1           0.004660549   -0.002161181   -0.003200367
     17        1          -0.001712959    0.001366491   -0.001165210
     18        1           0.004269713    0.001981562   -0.000881944
     19        1           0.004216039    0.000923572    0.000266030
     20        1          -0.003706157    0.003756594    0.003677077
     21        1           0.006658569    0.004794371   -0.001074460
     22        1          -0.000508202   -0.000163191    0.004474721
     23        1          -0.003900107    0.002562042    0.004480533
     24        1          -0.001658012    0.000230802   -0.002982229
     25        1           0.001549162   -0.001968440   -0.001926667
     26        1           0.000135398    0.002932854   -0.000635474
     27        1          -0.003429074   -0.001132207    0.000500962
     28        1           0.001575212   -0.000478247   -0.002907981
     29        1          -0.002664411   -0.006718011   -0.000422408
     30        1          -0.006468817    0.003666601    0.004445436
     31        1          -0.000898519   -0.004612669    0.000344213
 -------------------------------------------------------------------
 Cartesian Forces:  Max     0.012566102 RMS     0.003771078

 GradGradGradGradGradGradGradGradGradGradGradGradGradGradGradGradGradGrad
 Berny optimization.
 FormGI is forming the generalized inverse of G from B-inverse, IUseBI=4.
 Internal  Forces:  Max     0.029906724 RMS     0.002985320
 Search for a local minimum.
 Step number   1 out of a maximum of  186
 All quantities printed in internal units (Hartrees-Bohrs-Radians)
 Mixed Optimization -- RFO/linear search
 Second derivative matrix not updated -- first step.
 ITU=  0
     Eigenvalues ---    0.00529   0.00629   0.00725   0.00757   0.01249
     Eigenvalues ---    0.01434   0.01458   0.02530   0.02583   0.03001
     Eigenvalues ---    0.03154   0.03902   0.03914   0.04271   0.04642
     Eigenvalues ---    0.04746   0.04860   0.04983   0.05112   0.05188
     Eigenvalues ---    0.05269   0.05685   0.05724   0.05773   0.06126
     Eigenvalues ---    0.06196   0.06410   0.06797   0.07469   0.07660
     Eigenvalues ---    0.07780   0.07887   0.08001   0.08034   0.08584
     Eigenvalues ---    0.08839   0.09424   0.09645   0.10682   0.11552
     Eigenvalues ---    0.11709   0.11805   0.11930   0.12525   0.12615
     Eigenvalues ---    0.15057   0.16028   0.16759   0.17205   0.18333
     Eigenvalues ---    0.20014   0.21992   0.22091   0.25000   0.28138
     Eigenvalues ---    0.28379   0.28471   0.29088   0.29220   0.29234
     Eigenvalues ---    0.30010   0.30167   0.35077   0.35092   0.35154
     Eigenvalues ---    0.35158   0.35261   0.35276   0.35309   0.35324
     Eigenvalues ---    0.35497   0.35536   0.35538   0.35776   0.35785
     Eigenvalues ---    0.35799   0.35806   0.35814   0.35855   0.36178
     Eigenvalues ---    0.40527   0.41462   0.41822   0.42809   0.42857
     Eigenvalues ---    0.448731000.000001000.000001000.000001000.00000
     Eigenvalues --- 1000.000001000.000001000.000001000.000001000.00000
     Eigenvalues --- 1000.000001000.000001000.000001000.000001000.00000
     Eigenvalues --- 1000.000001000.000001000.000001000.000001000.00000
     Eigenvalues --- 1000.000001000.000001000.000001000.000001000.00000
     Eigenvalues --- 1000.000001000.000001000.000001000.000001000.00000
     Eigenvalues --- 1000.000001000.000001000.000001000.000001000.00000
     Eigenvalues --- 1000.000001000.000001000.000001000.000001000.00000
     Eigenvalues --- 1000.000001000.000001000.000001000.000001000.00000
     Eigenvalues --- 1000.000001000.000001000.000001000.000001000.00000
     Eigenvalues --- 1000.000001000.000001000.000001000.000001000.00000
     Eigenvalues --- 1000.000001000.000001000.000001000.000001000.00000
     Eigenvalues --- 1000.000001000.000001000.000001000.000001000.00000
     Eigenvalues --- 1000.000001000.000001000.000001000.000001000.00000
     Eigenvalues --- 1000.000001000.000001000.000001000.000001000.00000
     Eigenvalues --- 1000.000001000.000001000.000001000.000001000.00000
     Eigenvalues --- 1000.000001000.000001000.000001000.000001000.00000
     Eigenvalues --- 1000.000001000.000001000.000001000.000001000.00000
     Eigenvalues --- 1000.000001000.000001000.000001000.000001000.00000
     Eigenvalues --- 1000.000001000.000001000.000001000.000001000.00000
 RFO step:  Lambda=-7.74123302D-03 EMin= 5.28983735D-03
 Linear search not attempted -- first point.
 Iteration  1 RMS(Cart)=  0.19455412 RMS(Int)=  0.00524259
 Iteration  2 RMS(Cart)=  0.02466524 RMS(Int)=  0.00018081
 Iteration  3 RMS(Cart)=  0.00012957 RMS(Int)=  0.00016803
 Iteration  4 RMS(Cart)=  0.00000003 RMS(Int)=  0.00016803
 Iteration  1 RMS(Cart)=  0.00024609 RMS(Int)=  0.00004649
 Iteration  2 RMS(Cart)=  0.00012949 RMS(Int)=  0.00005196
 Iteration  3 RMS(Cart)=  0.00006814 RMS(Int)=  0.00005845
 Iteration  4 RMS(Cart)=  0.00003585 RMS(Int)=  0.00006256
 Iteration  5 RMS(Cart)=  0.00001886 RMS(Int)=  0.00006487
 Iteration  6 RMS(Cart)=  0.00000993 RMS(Int)=  0.00006612
 Iteration  7 RMS(Cart)=  0.00000522 RMS(Int)=  0.00006679
 Iteration  8 RMS(Cart)=  0.00000275 RMS(Int)=  0.00006714
 Iteration  9 RMS(Cart)=  0.00000145 RMS(Int)=  0.00006733
 Iteration 10 RMS(Cart)=  0.00000076 RMS(Int)=  0.00006743
 Variable       Old X    -DE/DX   Delta X   Delta X   Delta X     New X
                                 (Linear)    (Quad)   (Total)
    R1        2.88123  -0.00084   0.00000  -0.00357  -0.00375   2.87748
    R2        2.86460   0.00015   0.00000  -0.00125  -0.00142   2.86317
    R3        2.05526   0.00313   0.00000   0.00872   0.00872   2.06398
    R4        2.05253   0.00275   0.00000   0.00762   0.00762   2.06014
    R5        2.63891   0.00308   0.00000   0.00727   0.00744   2.64636
    R6        2.67847  -0.00061   0.00000  -0.00140  -0.00140   2.67707
    R7        2.89874  -0.00083   0.00000  -0.00112  -0.00093   2.89781
    R8        2.03804   0.00724   0.00000   0.01959   0.01959   2.05763
    R9        2.87999  -0.00146   0.00000  -0.00413  -0.00408   2.87591
   R10        2.88743  -0.00053   0.00000  -0.00147  -0.00141   2.88602
   R11        2.67906  -0.00246   0.00000  -0.00565  -0.00565   2.67341
   R12        2.04811   0.00589   0.00000   0.01623   0.01623   2.06434
   R13        2.88584  -0.00073   0.00000  -0.00256  -0.00253   2.88331
   R14        2.05176   0.00246   0.00000   0.00682   0.00682   2.05858
   R15        2.04876   0.00474   0.00000   0.01308   0.01308   2.06184
   R16        2.67683   0.00349   0.00000   0.00754   0.00750   2.68432
   R17        2.67268   0.00382   0.00000   0.00880   0.00881   2.68149
   R18        2.87429   0.00047   0.00000   0.00123   0.00117   2.87546
   R19        2.04374   0.00432   0.00000   0.01181   0.01181   2.05555
   R20        2.05551   0.00631   0.00000   0.01760   0.01760   2.07310
   R21        2.69278   0.00254   0.00000   0.00607   0.00605   2.69883
   R22        2.04419   0.00824   0.00000   0.02253   0.02253   2.06672
   R23        2.04310   0.00449   0.00000   0.01225   0.01225   2.05535
   R24        2.89777  -0.00079   0.00000  -0.00287  -0.00289   2.89488
   R25        2.04434   0.00639   0.00000   0.01748   0.01748   2.06182
   R26        2.05153   0.00334   0.00000   0.00925   0.00925   2.06077
   R27        2.04397   0.00825   0.00000   0.02256   0.02256   2.06652
   R28        2.04387   0.00459   0.00000   0.01255   0.01255   2.05642
   R29        2.05426   0.00305   0.00000   0.00850   0.00850   2.06276
   R30        2.05229   0.00298   0.00000   0.00827   0.00827   2.06056
   R31        2.05419   0.00362   0.00000   0.01006   0.01006   2.06425
   R32        2.04814   0.00324   0.00000   0.00892   0.00892   2.05706
    A1        1.91221  -0.00102   0.00000  -0.00570  -0.00589   1.90631
    A2        1.92012   0.00077   0.00000   0.00118   0.00122   1.92133
    A3        1.94422  -0.00029   0.00000  -0.00019  -0.00013   1.94409
    A4        1.91515   0.00016   0.00000  -0.00223  -0.00221   1.91295
    A5        1.89459   0.00039   0.00000   0.00337   0.00346   1.89804
    A6        1.87703   0.00002   0.00000   0.00373   0.00370   1.88073
    A7        1.99624  -0.00250   0.00000  -0.03228  -0.03284   1.96339
    A8        1.99200   0.00376   0.00000   0.00685   0.00588   1.99788
    A9        1.82154  -0.00103   0.00000   0.01413   0.01433   1.83587
   A10        1.98051  -0.00315   0.00000  -0.02682  -0.02765   1.95286
   A11        1.77157   0.00280   0.00000   0.03303   0.03363   1.80520
   A12        1.87510   0.00043   0.00000   0.01758   0.01750   1.89260
   A13        1.93517  -0.00058   0.00000  -0.01297  -0.01326   1.92191
   A14        2.02980  -0.00213   0.00000  -0.02200  -0.02251   2.00729
   A15        1.86939   0.00103   0.00000   0.01433   0.01451   1.88390
   A16        1.98307   0.00066   0.00000  -0.00879  -0.00957   1.97351
   A17        1.84816   0.00006   0.00000   0.01060   0.01065   1.85881
   A18        1.77791   0.00142   0.00000   0.02846   0.02869   1.80659
   A19        1.90283   0.00181   0.00000   0.00025   0.00027   1.90309
   A20        1.93275   0.00001   0.00000   0.00137   0.00135   1.93410
   A21        1.91754  -0.00109   0.00000  -0.00183  -0.00182   1.91572
   A22        1.90298  -0.00058   0.00000   0.00222   0.00224   1.90522
   A23        1.94195  -0.00058   0.00000  -0.00337  -0.00340   1.93855
   A24        1.86580   0.00039   0.00000   0.00139   0.00140   1.86720
   A25        1.97394  -0.00485   0.00000  -0.02609  -0.02607   1.94787
   A26        1.93770   0.00227   0.00000   0.00954   0.00959   1.94730
   A27        1.85623  -0.00123   0.00000  -0.00281  -0.00280   1.85342
   A28        1.90224   0.00055   0.00000   0.00588   0.00589   1.90812
   A29        1.94364  -0.00038   0.00000  -0.00285  -0.00285   1.94079
   A30        1.93090  -0.00182   0.00000  -0.01075  -0.01080   1.92010
   A31        1.89084   0.00064   0.00000   0.00138   0.00135   1.89219
   A32        1.96714   0.00236   0.00000   0.00858   0.00847   1.97561
   A33        1.92260  -0.00146   0.00000  -0.00581  -0.00576   1.91684
   A34        1.94462  -0.00030   0.00000  -0.00352  -0.00356   1.94107
   A35        1.91449   0.00018   0.00000   0.00419   0.00423   1.91872
   A36        1.82706  -0.00109   0.00000  -0.00122  -0.00117   1.82589
   A37        1.88419   0.00028   0.00000  -0.00225  -0.00228   1.88191
   A38        1.89550   0.00150   0.00000   0.00241   0.00249   1.89798
   A39        1.93394  -0.00110   0.00000  -0.00836  -0.00836   1.92557
   A40        1.91865  -0.00059   0.00000  -0.00238  -0.00246   1.91619
   A41        1.90468  -0.00043   0.00000  -0.00124  -0.00128   1.90340
   A42        1.93089   0.00023   0.00000   0.00826   0.00824   1.93913
   A43        1.88039   0.00035   0.00000   0.00130   0.00129   1.88168
   A44        1.90083   0.00181   0.00000   0.01046   0.01063   1.91146
   A45        1.96244  -0.00268   0.00000  -0.01950  -0.01959   1.94286
   A46        1.92782  -0.00093   0.00000  -0.00867  -0.00887   1.91895
   A47        1.90401   0.00137   0.00000   0.01430   0.01433   1.91834
   A48        1.86635  -0.00019   0.00000   0.00606   0.00605   1.87240
   A49        1.89980   0.00076   0.00000  -0.00109  -0.00133   1.89847
   A50        1.93153  -0.00113   0.00000  -0.00758  -0.00763   1.92390
   A51        1.90309   0.00007   0.00000   0.00026   0.00028   1.90337
   A52        1.90721   0.00072   0.00000   0.00401   0.00399   1.91119
   A53        1.91962   0.00055   0.00000  -0.00082  -0.00083   1.91879
   A54        1.92686  -0.00015   0.00000   0.00107   0.00111   1.92796
   A55        1.87448  -0.00002   0.00000   0.00342   0.00341   1.87790
   A56        2.12431  -0.00534   0.00000  -0.02496  -0.02445   2.09986
   A57        2.28957  -0.02991   0.00000  -0.11603  -0.11603   2.17354
   A58        2.02357  -0.00180   0.00000  -0.00992  -0.00973   2.01384
   A59        1.84794   0.00046   0.00000   0.01221   0.01217   1.86012
   A60        1.88876   0.00044   0.00000  -0.01050  -0.01079   1.87797
   A61        1.87952   0.00133   0.00000   0.01240   0.01240   1.89192
   A62        1.95071  -0.00020   0.00000  -0.00692  -0.00727   1.94345
   A63        1.86425  -0.00007   0.00000   0.00546   0.00557   1.86982
    D1        0.99205   0.00016   0.00000   0.00515   0.00509   0.99714
    D2        3.08575   0.00059   0.00000   0.00890   0.00887   3.09462
    D3       -1.14032   0.00040   0.00000   0.01032   0.01028  -1.13004
    D4       -1.11478   0.00013   0.00000   0.01079   0.01078  -1.10400
[...]
 15396,0.00000347,0.00000609,0.00000017,0.00000800,0.00000216,-0.000002
 72,0.00000369,-0.00000087,0.00000050,0.00000122,0.00020325,0.00032708,
 -0.00007821,-0.00001351,-0.00000580,0.00000355,-0.00000481,-0.00000972
 ,0.00001483,-0.00016259,-0.00006181,0.00141640,-0.00223138,0.00225483,
 -0.00502874,-0.00001913,0.00000182,-0.00001392,-0.00001656,-0.00000595
 ,0.00000053,-0.00134780,-0.00065448,0.00086373,0.00040784,0.00043294,0
 .00056833,-0.11574895,0.08189776,0.18979360,0.00001626,0.00001506,-0.0
 0000012,0.00091477,-0.00033644,-0.00063566,-0.00538847,0.00212333,-0.0
 0159548,-0.00001839,-0.00003646,-0.00002355,0.00076230,0.00224473,-0.0
 0336507,-0.00032013,0.01024653,0.00203669,0.00004579,-0.00013272,-0.00
 005016,-0.00257977,-0.03386942,0.00451087,-0.00089392,-0.00008248,-0.0
 0057496,-0.04623807,-0.01074352,0.00102292,-0.00012443,0.00015960,0.00
 034728,-0.00173776,-0.00303563,0.00045434,-0.00005464,0.00002622,0.000
 05493,-0.00000794,-0.00000267,-0.00000372,-0.00000740,0.00001204,0.000
 00462,0.00013270,-0.00005378,-0.00020993,-0.00000638,0.00002973,0.0000
 0002,0.00004433,-0.00000551,-0.00000240,-0.00005103,-0.00032628,0.0006
 1244,0.00034308,-0.00024563,0.00008331,0.00001260,0.00000403,-0.000027
 07,-0.00001164,0.00001708,0.00002024,0.00144218,0.00057977,0.00034118,
 0.00130246,0.00077026,-0.00022740,0.00068784,0.01852589,-0.00301451,0.
 05164721,0.00000022,-0.00000699,-0.00000274,0.00059953,-0.00021229,-0.
 00035498,-0.00135946,0.00218527,-0.00050373,-0.00000096,0.00002472,-0.
 00004294,0.00045572,-0.00054966,0.00294014,-0.00074858,-0.00785922,-0.
 00174468,0.00008284,-0.00006545,-0.00002986,-0.00042402,-0.00819693,0.
 00060959,0.00073607,0.00062134,-0.00053429,-0.01163164,-0.31301389,0.0
 2588417,-0.00015467,0.00010534,0.00020310,-0.00087524,-0.00089761,0.00
 035331,-0.00003536,0.00003272,0.00004652,-0.00001541,0.00000052,0.0000
 0157,-0.00000561,0.00001377,0.00000464,-0.00001886,0.00030296,-0.00006
 565,-0.00002978,0.00001020,0.00000496,-0.00000207,-0.00005101,0.000015
 21,0.00026730,0.00015055,0.00026202,-0.00005381,0.00041113,0.00033120,
 -0.00001558,-0.00003570,-0.00002076,-0.00002511,0.00000221,0.00002054,
 -0.00012100,0.00061053,0.00015237,-0.00005236,0.00021259,-0.00029889,-
 0.00030066,-0.01198637,0.00119420,0.01398464,0.33830251,0.00000934,0.0
 0000396,-0.00000448,0.00010021,-0.00017279,-0.00013576,-0.00099570,-0.
 00033798,0.00025255,-0.00000002,0.00000584,-0.00001502,-0.00189743,0.0
 0568903,-0.00694857,0.00373678,0.02896230,0.00144390,0.00001436,0.0000
 1119,0.00002175,0.00081268,-0.00513597,-0.00017041,-0.00179574,-0.0009
 3136,-0.00014760,0.00123669,0.02399847,-0.05188110,0.00004709,0.000004
 22,0.00007353,-0.00053578,-0.00041175,0.00041777,-0.00000299,0.0000018
 6,0.00000902,-0.00000094,-0.00000140,0.00000144,0.00000020,0.00000048,
 0.00000131,-0.00025749,0.00043215,-0.00004384,-0.00000661,0.00000078,0
 .00000146,0.00000695,-0.00000392,0.00000944,-0.00033471,-0.00062491,0.
 00092146,0.00083154,-0.00086082,0.00088884,-0.00001748,0.00000481,-0.0
 0000884,-0.00000845,-0.00000149,0.00000256,0.00006532,0.00041589,0.000
 19048,0.00049748,-0.00018814,0.00002993,-0.00186248,-0.02239620,0.0027
 4995,-0.00003204,-0.02855590,0.05219461,0.00027074,0.00037843,-0.00008
 377,-0.01867929,-0.00945747,0.00465282,0.00128980,0.00138956,0.0000728
 6,0.00090845,-0.00010000,0.00049216,-0.00026554,-0.00010362,-0.0002048
 0,-0.00000876,0.00008308,0.00004541,-0.00016342,0.00039174,0.00014631,
 -0.00001587,-0.00016279,-0.00005400,-0.00005268,-0.00013494,0.00023561
 ,0.00007368,-0.00001648,0.00001192,0.00061308,0.00049341,-0.00127340,-
 0.00468499,0.00322150,-0.00184035,-0.26878056,-0.09037784,0.02417247,-
 0.00004204,-0.00004262,-0.00040456,0.00016174,0.00000940,-0.00017846,-
 0.00025422,-0.00011474,-0.00002311,0.00107204,-0.00017695,-0.00010920,
 0.00136076,0.00049689,0.00028730,-0.00002045,-0.00001268,-0.00001803,0
 .00001440,-0.00001245,-0.00000672,-0.00000022,-0.00006828,0.00004309,0
 .00000045,-0.00001917,-0.00005035,0.00005191,-0.00000054,0.00004400,0.
 00001738,-0.00001395,-0.00003401,-0.00002969,0.00000344,-0.00000018,-0
 .00004351,-0.00003263,-0.00000460,0.29287175,-0.00037274,0.00101402,0.
 00137935,0.01782794,0.00478333,-0.00212225,-0.00031898,-0.00125106,-0.
 00016367,-0.03064994,-0.01848760,0.00313965,0.00015136,0.00008401,0.00
 014796,-0.00000647,-0.00008105,-0.00000170,0.00006776,-0.00022508,-0.0
 0001438,0.00003113,0.00003695,-0.00007772,0.00006985,0.00008746,-0.000
 17283,-0.00006187,0.00009344,0.00001630,-0.00075803,-0.00007225,0.0001
 4321,0.00538300,-0.00165844,0.00150256,-0.09304374,-0.08142833,0.01117
 514,0.00045753,0.00025867,-0.00062867,0.00048331,0.00014592,0.00017308
 ,0.00027341,0.00017634,0.00003443,0.00002933,0.00146266,0.00056290,0.0
 0064373,-0.00567501,-0.00305346,0.00000277,0.00001397,-0.00000103,-0.0
 0000264,0.00000981,0.00000498,0.00007402,-0.00003152,0.00004482,-0.000
 04269,0.00010261,-0.00002458,0.00012211,0.00009099,0.00010702,0.000028
 81,0.00001429,-0.00003707,-0.00003265,-0.00001000,-0.00000178,0.000026
 77,0.00001299,0.00000358,0.09624882,0.09977070,-0.00107660,-0.00028986
 ,0.00069691,-0.01703845,-0.00695171,0.00098942,0.00015585,0.00057171,0
 .00022862,-0.00975641,-0.00465641,0.00058696,-0.00004197,-0.00002643,-
 0.00003887,0.00001275,0.00003571,-0.00000006,-0.00019927,0.00021652,0.
 00004272,0.00000588,-0.00000945,-0.00012343,0.00002431,-0.00000872,0.0
 0005527,0.00000420,-0.00001160,0.00004644,0.00082660,0.00083044,-0.000
 48319,-0.00215411,0.00125651,-0.00003171,0.02641972,0.01061478,-0.0533
 1779,0.00029368,-0.00012612,-0.00011062,0.00016816,0.00009294,0.000115
 49,-0.00015383,-0.00010786,-0.00001468,0.00032399,0.00069256,0.0004430
 7,0.00000335,-0.00189885,0.00013447,-0.00000155,-0.00000416,0.00000256
 ,0.00000244,-0.00000328,-0.00000056,0.00006360,0.00001972,0.00003367,0
 .00000763,-0.00003634,-0.00000495,0.00005684,-0.00004238,0.00000751,-0
 .00000297,-0.00001266,0.00004568,-0.00000377,0.00000010,-0.00000320,-0
 .00000657,-0.00000496,-0.00000192,-0.02705464,-0.01211854,0.05169006,0
 .00067241,0.00024453,-0.00001327,0.00277502,-0.00148295,-0.02059373,-0
 .00035969,-0.00017950,-0.00024211,-0.00061620,-0.00083947,-0.00144560,
 0.00000463,0.00000803,0.00006933,0.00000988,0.00000078,-0.00001936,0.0
 0001571,0.00104984,0.00061091,0.00007480,-0.00002297,-0.00001025,0.000
 07645,-0.00001243,-0.00008701,-0.00002490,-0.00001044,0.00000557,-0.00
 295121,0.00215832,-0.00473473,0.00111248,-0.00030042,-0.00050818,-0.06
 254202,0.00400628,0.06872217,0.00020044,0.00008027,-0.00043703,0.00035
 805,0.00006554,0.00016776,0.00006253,0.00003575,0.00000691,-0.00011971
 ,-0.00002510,0.00017974,0.00027347,0.00040455,-0.00025690,0.00000420,-
 0.00000176,0.00001010,-0.00000103,0.00000232,0.00000344,-0.00001664,-0
 .00013246,-0.00002700,0.00005776,-0.00010175,0.00000311,-0.00002049,0.
 00002753,-0.00003700,0.00001174,-0.00002227,0.00009114,0.00001139,-0.0
 0000109,0.00000223,0.00001259,0.00001006,0.00000255,-0.00646252,0.0019
 0109,0.02891434,0.06721336,0.00001899,-0.00699875,-0.00072043,-0.00645
 082,0.00166064,0.01660189,0.00013749,0.00007799,-0.00007038,0.00794344
 ,-0.00020544,-0.03225833,0.00002914,0.00000741,-0.00002614,0.00000991,
 -0.00001086,-0.00000448,0.00028007,-0.00136694,-0.00032428,0.00003765,
 -0.00001432,-0.00006385,-0.00007296,0.00001790,0.00002070,-0.00001621,
 0.00000752,0.00003073,0.00322541,-0.00119215,0.00373125,-0.00030346,0.
 00089504,-0.00002798,0.00490486,-0.04887699,-0.01588331,0.00015185,0.0
 0008558,0.00011051,0.00000202,-0.00003166,-0.00217422,0.00002615,0.000
 00463,0.00000407,0.00026560,0.00108271,0.00075362,-0.00047764,0.001570
 85,0.00064516,0.00000220,-0.00000072,0.00000350,-0.00000266,0.00000054
 ,0.00000196,-0.00003868,0.00014707,0.00003778,-0.00008702,0.00022963,0
 .00000606,-0.00000614,0.00000843,0.00000670,-0.00001528,-0.00002851,0.
 00004843,-0.00000231,-0.00000226,-0.00000193,0.00000243,0.00000301,0.0
 0000059,-0.00225544,0.00008285,0.01230824,-0.00704603,0.05307162,-0.00
 011913,-0.00224619,0.00103823,0.00591962,-0.00259023,-0.01802537,-0.00
 055910,-0.00040656,0.00032854,0.00168264,-0.00040088,-0.00682301,0.000
 02748,0.00001816,0.00013920,0.00002307,0.00000559,-0.00003395,0.000495
 25,0.00085565,0.00088677,-0.00001836,0.00003238,-0.00015359,0.00019181
 ,0.00004453,-0.00017771,-0.00003061,0.00001329,0.00006032,-0.00259053,
 0.00251797,-0.00231926,0.00222548,-0.00144915,0.00214036,0.06354855,-0
 .01517568,-0.30210983,0.00002212,0.00008207,0.00015881,-0.00005120,0.0
 0017416,-0.00057664,-0.00001992,-0.00003123,-0.00000868,0.00009446,-0.
 00029484,0.00022200,-0.00020282,-0.00000178,0.00037182,0.00000526,0.00
 000054,0.00001071,0.00000055,0.00000528,0.00000694,-0.00009279,-0.0001
 4162,-0.00003853,-0.00000162,-0.00004551,-0.00007508,-0.00001206,0.000
 04395,-0.00001409,-0.00006404,-0.00000464,0.00004009,-0.00000266,-0.00
 000290,-0.00000232,0.00001462,0.00000829,0.,0.00088168,0.00028878,-0.0
 0181900,-0.07088637,0.01814849,0.32656453,0.00005779,-0.00027701,-0.00
 026142,-0.07532438,-0.08637821,-0.00826294,0.00197371,-0.00004027,0.00
 575909,-0.00091060,0.00142377,-0.00262676,-0.00041416,-0.00016791,-0.0
 0036348,0.00003480,0.00021583,0.00013313,0.00062018,0.00152237,-0.0001
 5139,-0.00131699,0.00011400,-0.00018598,0.00042846,-0.00009435,0.00050
 847,0.00021138,-0.00061367,0.00004063,0.00325858,-0.00433365,-0.002296
 54,-0.04274550,-0.02722257,0.00843945,0.00361216,0.01947064,-0.0006898
 2,-0.00005252,-0.00004835,0.00004833,0.00005565,-0.00003847,0.00007661
 ,-0.00116388,-0.00037866,-0.00010324,-0.00020841,0.00075417,0.00021079
 ,0.00006140,0.00033427,0.00007317,-0.00004233,-0.00002331,-0.00003063,
 0.00002931,-0.00002469,-0.00002287,-0.00003319,0.00022800,0.00005252,0
 .00009256,-0.00030894,-0.00009765,0.00007264,-0.00010628,-0.00009359,0
 .00001728,0.00001306,0.00003383,0.00002692,0.00002190,-0.00000078,-0.0
 0021506,-0.00012926,-0.00006363,0.00079087,0.00146549,0.00020578,0.000
 15441,-0.00024843,-0.00051303,0.11099169,-0.00029674,0.00014093,0.0002
 9946,-0.09261445,-0.28175720,-0.00414977,0.00222848,0.00175058,0.00050
 288,0.00259989,0.00015517,0.00284776,-0.00014623,-0.00003290,0.0000049
 9,-0.00000121,0.00002890,0.00000269,-0.00150764,0.00332461,0.00027543,
 0.00038485,-0.00006932,-0.00006909,0.00010871,-0.00011302,-0.00005640,
 -0.00002052,0.00013621,0.00000518,-0.00050931,-0.00735886,-0.01202308,
 -0.00148376,0.00701638,0.00066359,-0.00397463,-0.01986112,0.00045238,0
 .00009951,0.00005484,-0.00005025,0.00000995,-0.00006087,-0.00005682,-0
 .00018992,-0.00009161,-0.00003991,0.00012057,-0.00109498,-0.00046440,-
 0.00013428,0.00009311,0.00003951,-0.00001273,-0.00000426,-0.00000381,0
 .00001088,-0.00000178,0.00000568,-0.00006095,-0.00037379,-0.00002694,0
 .00000854,-0.00032564,-0.00019450,-0.00000953,0.00007192,0.00007443,-0
 .00000045,0.00000305,-0.00001098,-0.00003535,-0.00000657,-0.00000621,0
 .00002467,0.00000684,0.00000503,0.00039033,0.00067158,-0.00032278,0.00
 015897,-0.00020179,0.00052190,0.09480928,0.29789493,-0.00003975,-0.000
 14274,-0.00037876,-0.00630684,0.00355152,-0.04569779,-0.00085656,0.000
 62035,-0.00147432,-0.00235125,0.00086202,-0.00257981,0.00003532,0.0000
 2720,0.00025101,-0.00001104,-0.00004856,-0.00008491,-0.00491469,0.0023
 2970,-0.00255888,0.00053084,-0.00002744,0.00014621,0.00003969,0.000007
 98,-0.00049606,-0.00008786,0.00024247,-0.00002309,-0.00882469,-0.04408
 220,-0.02426542,0.01857395,0.00822399,0.00323580,0.00249770,0.01903365
 ,0.00477030,0.00011055,-0.00000070,0.00013161,0.00013912,-0.00006357,0
 .00024660,0.00032549,0.00006514,0.00001426,-0.00019566,0.00115669,0.00
 045999,0.00009674,-0.00000563,-0.00005965,0.00000999,0.00000202,0.0000
 1651,0.00000220,0.00001169,0.00001533,-0.00007200,-0.00143599,-0.00053
 479,0.00014396,-0.00091561,-0.00048621,-0.00004464,0.00007710,-0.00003
 426,-0.00005020,0.00002792,0.00002182,-0.00001105,-0.00001194,-0.00000
 148,0.00008937,0.00004191,0.00002486,0.00026883,-0.00032898,0.00084158
 ,0.00045904,-0.00088655,0.00012960,0.00040815,0.01166922,0.06819072,-0
 .00008587,0.00008988,-0.00004081,-0.00004683,-0.00044843,-0.00131386,0
 .00921081,-0.00535863,-0.00924120,0.00005237,0.00000157,-0.00001890,-0
 .03903351,0.00580475,0.02251814,0.00084534,0.00566842,0.00052365,-0.00
 282633,0.00031547,-0.00024632,0.00005686,-0.00073514,0.00058638,-0.110
 17851,0.06220184,0.09499978,-0.00008537,-0.00067555,-0.00008564,-0.004
 11843,0.00064369,0.00061698,0.00008536,0.00029750,0.00235149,-0.000083
 13,0.00001475,0.00006315,0.00005822,0.00003245,0.00001740,0.00002467,-
 0.00002566,-0.00001351,-0.00056704,0.00077781,-0.00313433,0.00000604,-
 0.00001216,0.00003926,-0.00001446,-0.00000214,-0.00000681,0.00026707,-
 0.00021596,-0.00047197,0.00074013,-0.00118074,-0.00061593,-0.00134242,
 0.00104318,-0.00010800,0.00010304,-0.00001031,0.00013799,0.00001367,0.
 00012479,0.00020218,-0.00005691,-0.00003333,0.00008754,-0.00006392,0.0
 0006395,-0.00007212,0.00015721,-0.00010261,0.00019397,0.00001048,0.000
 00424,0.00000374,0.00000859,-0.00001048,0.00003616,-0.00003644,0.00004
 122,0.00004959,0.14536354,0.00003287,-0.00009204,0.00002449,0.00017518
 ,-0.00019503,-0.00063737,-0.00236174,0.00323311,0.00570069,0.00000736,
 0.00003418,-0.00002445,-0.00971078,0.00532160,0.00807633,-0.00244802,0
 .00326942,0.00236659,0.00136595,0.00089875,0.00043773,-0.00067779,0.00
 092029,0.00012456,0.06491730,-0.11367896,-0.08785849,0.00010399,-0.000
 37245,0.00004966,0.00059405,-0.00076915,0.00017332,-0.00044602,0.00012
 765,-0.00028969,-0.00006195,0.00002527,0.00010499,-0.00001559,-0.00001
 515,0.00000161,0.00001044,-0.00001694,0.00001861,-0.00003787,0.0007419
 4,0.00131042,-0.00000976,-0.00000578,-0.00000177,0.00001164,-0.0000193
 5,0.00001250,0.00007057,0.00019083,0.00002835,0.00057267,0.00068611,-0
 .00068143,0.00158713,-0.00096371,0.00004050,-0.00017410,-0.00005291,-0
 .00006385,0.00010399,0.00018901,-0.00011214,-0.00001156,0.00004936,-0.
 00018181,0.00004731,-0.00014179,-0.00017589,0.00009699,-0.00002993,0.0
 0002152,-0.00000977,0.00000164,-0.00000501,0.00002644,-0.00002181,0.00
 002980,-0.00001723,0.00000163,0.00000976,-0.06927115,0.11346592,0.0003
 2302,0.00027983,-0.00018496,0.00038670,-0.00096566,-0.00212305,0.01854
 246,-0.01514205,-0.02146884,-0.00000834,0.00001448,-0.00008288,0.00064
 079,0.00266789,0.00694177,-0.00042911,0.00059991,0.00033376,-0.0003580
 2,-0.00017828,0.00096974,0.00050454,-0.00157254,0.00136709,0.09424854,
 -0.08680104,-0.18639632,0.00005044,0.00007070,-0.00010053,0.00196678,0
 .00017465,0.00128150,-0.00276817,0.00021069,0.00128041,-0.00019045,0.0
 0001128,0.00016582,0.00015929,-0.00008940,0.00010844,0.00000142,-0.000
 03793,0.00001863,-0.00199812,0.00157809,-0.00488137,0.00002541,0.00000
 267,0.00003894,-0.00001073,0.00001596,-0.00000854,-0.00012999,0.000258
 31,0.00015384,0.00041730,0.00059480,-0.00043081,0.00025396,0.00058665,
 0.00015630,0.00004878,0.00007353,-0.00022806,-0.00022386,0.00101316,0.
 00007570,-0.00039497,0.00004035,0.00035425,-0.00009327,-0.00011305,0.0
 0001702,0.00007391,0.00005221,0.00004634,-0.00002997,0.00003720,-0.000
 01098,0.00004309,-0.00002578,0.00008301,-0.00016149,0.00006082,0.00013
 709,-0.10729177,0.09379803,0.19711401,-0.00009684,-0.00014874,0.000057
 89,-0.00016976,0.00009878,-0.00000657,0.00031073,0.01148967,-0.0004294
 5,0.00001070,0.00003071,0.00000215,-0.00752124,-0.04290586,0.00560891,
 -0.00582749,0.00111265,-0.00024383,0.00011435,0.00052311,-0.00003434,-
 0.00071284,0.00014862,-0.00314959,-0.04804357,0.01899721,-0.00127942,-
 0.00045417,-0.00073538,-0.00009653,0.00052278,-0.00017973,-0.00000842,
 0.00099486,0.00011704,0.00082868,0.00002233,0.00000988,0.00001690,-0.0
 0006521,0.00002717,-0.00003089,0.00000697,0.00000322,0.00000692,0.0004
 4990,-0.00064341,0.00022285,-0.00001847,-0.00000415,-0.00000986,0.0000
 1632,-0.00003217,0.00001010,-0.00022148,-0.00176330,0.00028149,0.00019
 911,-0.00025654,-0.00028335,-0.00012905,-0.00021574,-0.00002718,-0.000
 03557,-0.00002476,0.00001821,0.00002016,-0.00040102,0.00008603,0.00028
 265,0.00095352,-0.00035341,0.00005922,0.00004576,0.00003607,0.00017722
 ,-0.00000167,0.00026092,-0.00000379,-0.00000272,-0.00000272,0.00000450
 ,-0.00000364,-0.00000450,-0.00002633,0.00000186,-0.00001429,0.00153578
 ,0.01552946,-0.00359816,0.05859828,0.00006321,0.00012998,-0.00001212,-
 0.00002869,-0.00003889,0.00019124,-0.00036964,-0.00648070,0.00018530,-
 0.00000127,-0.00003759,0.00001019,-0.00622102,-0.01135008,0.00070835,-
 0.00201251,0.00305919,-0.00032269,-0.00027551,-0.00027609,0.00000323,0
 .00022524,0.00135418,0.00144070,0.00805354,-0.31229902,0.04490144,0.00
 020925,-0.00002110,-0.00020247,0.00011371,0.00025303,0.00002666,0.0012
 3026,0.00150755,-0.00029374,-0.00002083,-0.00003367,-0.00000548,0.0000
 4526,-0.00002397,0.00002214,-0.00001199,-0.00000041,-0.00000623,-0.000
 14404,0.00059686,0.00028839,0.00002521,0.00000344,0.00000461,-0.000012
 94,0.00003724,-0.00001177,-0.00016202,-0.00065092,0.00031389,0.0000975
 0,0.00021076,0.00003338,0.00006521,0.00019199,0.00002266,0.00004114,0.
 00002853,-0.00002079,-0.00001573,0.00025062,-0.00012615,-0.00010854,-0
 .00044193,0.00013275,-0.00003512,0.00001430,0.00004248,-0.00001922,-0.
 00010417,0.00006092,0.00000576,0.00000611,-0.00000211,-0.00000164,-0.0
 0000117,0.00000037,0.00007848,0.00000303,-0.00001042,0.00095677,-0.012
 78168,0.00278451,-0.00176982,0.33689461,0.00011353,0.00014534,-0.00006
 713,-0.00034962,-0.00014762,-0.00013879,-0.00142992,0.03267097,-0.0063
 1592,0.00003725,0.00003401,-0.00004109,0.00067922,-0.00310254,0.001522
 47,-0.00096233,-0.00072419,0.00006468,-0.00004240,-0.00041163,0.000127
 30,-0.00240860,-0.00059176,-0.00547160,0.00036441,0.04400946,-0.059614
 76,-0.00041397,-0.00040834,0.00008403,-0.00021376,0.00014041,-0.000032
 77,0.00170196,-0.00124389,0.00248173,0.00006558,0.00001978,-0.00002449
 ,0.00005724,-0.00003144,0.00004573,-0.00000411,-0.00000285,-0.00000289
 ,0.00057446,-0.00034568,0.00142660,-0.00002285,-0.00001224,0.00002234,
 0.00001520,-0.00003776,0.00000197,-0.00020899,-0.00020785,0.00035064,-
 0.00010259,0.00042198,0.00014180,0.00011520,0.00020299,-0.00006979,-0.
 00001261,0.00000024,-0.00001414,-0.00012440,0.00012565,0.00003884,0.00
 002450,0.00188254,-0.00041325,0.00011848,0.00000006,0.00002670,0.00010
 191,0.00003343,0.00007634,0.00001569,-0.00001429,0.00000054,0.00000712
 ,0.00000800,-0.00000391,-0.00006473,0.00004401,0.00004213,0.00023379,-
 0.02229758,0.00527269,0.00213536,-0.05015923,0.06048401\\-0.00000894,0
 .00000757,0.00000416,0.00008745,-0.00108130,0.00031834,0.00017913,-0.0
 0044103,0.00040031,0.00001515,0.00000131,0.00001214,0.00000982,0.00000
 654,-0.00000074,-0.00000508,0.00001395,0.00000082,0.00003493,-0.000002
 65,-0.00000085,-0.00003397,0.00000784,-0.00000602,-0.00000883,0.000023
 39,0.00001937,0.00001470,-0.00001202,-0.00000743,-0.00001860,0.0005501
 2,-0.00007225,-0.00025746,0.00093643,-0.00068944,-0.00001333,-0.000015
 29,0.00001696,0.00000403,-0.00000155,-0.00000097,-0.00000398,-0.000002
 77,-0.00000719,-0.00000122,0.00001264,0.00001586,-0.00000560,-0.000000
 70,-0.00000236,-0.00000830,-0.00000759,0.00000128,-0.00000345,0.000000
 29,-0.00000289,0.00000306,-0.00000383,-0.00000636,-0.00001234,-0.00000
 430,-0.00000274,0.00000851,0.00000440,-0.00000081,0.00000814,0.0000006
 6,-0.00001341,-0.00000303,-0.00000761,0.00000082,-0.00000499,0.0000038
 2,-0.00000282,0.00000492,-0.00000018,0.00000041,0.00001547,-0.00000044
 ,0.00000548,0.00000165,-0.00000445,-0.00000164,-0.00001204,0.00001906,
 0.00002989,0.00001416,-0.00000792,-0.00000498,0.00000002,0.00000563,-0
 .00000293\\\@


 TO BEHOLD HARMS OF OUR OWN HANDS DOING,
 WHERE NONE BESIDE US WROUGHT,
 CAUSES SHARP RUING...

                                         SOPHOCLES
 Job cpu time:       0 days 14 hours 42 minutes 28.4 seconds.
 Elapsed time:       0 days  0 hours 55 minutes 10.6 seconds.
 File lengths (MBytes):  RWF=    687 Int=      0 D2E=      0 Chk=     33 Scr=      1
 Normal termination of Gaussian 16 at Sun Nov  4 23:08:52 2018.
