 Entering Gaussian System, Link 0=g16
 Initial command:
 /apps/gaussian/g16a03/g16/l1.exe "/jobfs/local/2011931.r-man2/Gau-31880.inp" -scrdir="/jobfs/local/2011931.r-man2/"
 Entering Link 1 = /apps/gaussian/g16a03/g16/l1.exe PID=     31881.
  
 Copyright (c) 1988,1990,1992,1993,1995,1998,2003,2009,2016,
            Gaussian, Inc.  All Rights Reserved.
  
 This is part of the Gaussian(R) 16 program.  It is based on
 the Gaussian(R) 09 system (copyright 2009, Gaussian, Inc.),
 the Gaussian(R) 03 system (copyright 2003, Gaussian, Inc.),
 the Gaussian(R) 98 system (copyright 1998, Gaussian, Inc.),
 the Gaussian(R) 94 system (copyright 1995, Gaussian, Inc.),
 the Gaussian 92(TM) system (copyright 1992, Gaussian, Inc.),
 the Gaussian 90(TM) system (copyright 1990, Gaussian, Inc.),
 the Gaussian 88(TM) system (copyright 1988, Gaussian, Inc.),
 the Gaussian 86(TM) system (copyright 1986, Carnegie Mellon
 University), and the Gaussian 82(TM) system (copyright 1983,
 Carnegie Mellon University). Gaussian is a federally registered
 trademark of Gaussian, Inc.
  
 This software contains proprietary and confidential information,
 including trade secrets, belonging to Gaussian, Inc.
  
 This software is provided under written license and may be
 used, copied, transmitted, or stored only in accord with that
 written license.
  
 The following legend is applicable only to US Government
 contracts under FAR:
  
                    RESTRICTED RIGHTS LEGEND
  
 Use, reproduction and disclosure by the US Government is
 subject to restrictions as set forth in subparagraphs (a)
 and (c) of the Commercial Computer Software - Restricted
 Rights clause in FAR 52.227-19.
  
 Gaussian, Inc.
 340 Quinnipiac St., Bldg. 40, Wallingford CT 06492
  
  
 ---------------------------------------------------------------
 Warning -- This program may not be used in any manner that
 competes with the business of Gaussian, Inc. or will provide
 assistance to any competitor of Gaussian, Inc.  The licensee
 of this program is prohibited from giving any competitor of
 Gaussian, Inc. access to this program.  By using this program,
 the user acknowledges that Gaussian, Inc. is engaged in the
 business of creating and licensing software in the field of
 computational chemistry and represents and warrants to the
 licensee that it is not a competitor of Gaussian, Inc. and that
 it will not use this program in any manner prohibited above.
 ---------------------------------------------------------------
  

 Cite this work as:
 Gaussian 16, Revision A.03,
 M. J. Frisch, G. W. Trucks, H. B. Schlegel, G. E. Scuseria, 
 M. A. Robb, J. R. Cheeseman, G. Scalmani, V. Barone, 
 G. A. Petersson, H. Nakatsuji, X. Li, M. Caricato, A. V. Marenich, 
 J. Bloino, B. G. Janesko, R. Gomperts, B. Mennucci, H. P. Hratchian, 
 J. V. Ortiz, A. F. Izmaylov, J. L. Sonnenberg, D. Williams-Young, 
 F. Ding, F. Lipparini, F. Egidi, J. Goings, B. Peng, A. Petrone, 
 T. Henderson, D. Ranasinghe, V. G. Zakrzewski, J. Gao, N. Rega, 
 G. Zheng, W. Liang, M. Hada, M. Ehara, K. Toyota, R. Fukuda, 
 J. Hasegawa, M. Ishida, T. Nakajima, Y. Honda, O. Kitao, H. Nakai, 
 T. Vreven, K. Throssell, J. A. Montgomery, Jr., J. E. Peralta, 
 F. Ogliaro, M. J. Bearpark, J. J. Heyd, E. N. Brothers, K. N. Kudin, 
 V. N. Staroverov, T. A. Keith, R. Kobayashi, J. Normand, 
 K. Raghavachari, A. P. Rendell, J. C. Burant, S. S. Iyengar, 
 J. Tomasi, M. Cossi, J. M. Millam, M. Klene, C. Adamo, R. Cammi, 
 J. W. Ochterski, R. L. Martin, K. Morokuma, O. Farkas, 
 J. B. Foresman, and D. J. Fox, Gaussian, Inc., Wallingford CT, 2016.
 
 ******************************************
 Gaussian 16:  ES64L-G16RevA.03 25-Dec-2016
                 4-Nov-2018 
 ******************************************
 %mem=6000mb
 %nproc=24
 Will use up to   24 processors via shared memory.
 %chk=D_1a_4e_D_PHI.inp_extract_13.chk
 ----------------------------------------------------------------------
 #M062X/6-311++G(2d,2p) opt=ModRedundant freq=noraman SCRF=(Solvent=Wat
 er)
 ----------------------------------------------------------------------
 1/18=120,19=15,26=3,38=1/1,3;
 2/9=110,12=2,17=6,18=5,40=1/2;
 3/5=4,6=6,7=1212,11=2,25=1,30=1,70=2201,71=1,72=1,74=-55/1,2,3;
 4//1;
 5/5=2,38=5,53=1/2;
 6/7=2,8=2,9=2,10=2,28=1/1;
 7//1,2,3,16;
 1/18=20,19=15,26=3/3(2);
 2/9=110/2;
 99//99;
 2/9=110/2;
 3/5=4,6=6,7=1212,11=2,25=1,30=1,70=2205,71=1,72=1,74=-55/1,2,3;
 4/5=5,16=3,69=1/1;
 5/5=2,38=5,53=1/2;
 7//1,2,3,16;
 1/18=20,19=15,26=3/3(-5);
 2/9=110/2;
 6/7=2,8=2,9=2,10=2,19=2,28=1/1;
 99/9=1/99;
 ----------------------------
 D_1a_4e_D_PHI.inp_extract_13
 ----------------------------
 Symbolic Z-matrix:
 Charge =  0 Multiplicity = 1
 C                    -2.76587  -0.88902   1.07347 
 C                    -1.48425   0.9262   -0.83938 
 C                     1.07002   0.5273   -0.83452 
 C                    -1.8003    0.16116   1.61026 
 O                     2.46068  -1.3786   -0.44874 
 C                     3.01892  -0.83902   0.73642 
 C                    -2.29634  -1.36527  -0.28715 
 C                     1.61687   1.21823   0.41206 
 C                     1.11922  -0.98662  -0.66146 
 C                     3.02509   0.68107   0.69249 
 O                    -2.0648   -0.30019  -1.20454 
 O                    -0.1617    1.04567  -1.31692 
 C                    -1.73914   1.32086   0.61893 
 H                    -3.7641   -0.46526   0.99255 
 H                    -2.82768  -1.74764   1.73568 
 H                     1.74267   0.7587   -1.65172 
 H                    -2.13422   0.53441   2.57349 
 H                    -0.82285  -0.28366   1.76291 
 H                     4.02217  -1.23622   0.80806 
 H                     2.44735  -1.19558   1.59029 
 H                    -1.39869  -1.95944  -0.18636 
 H                    -3.04544  -1.98138  -0.76548 
 H                     0.98461   1.02166   1.26958 
 H                     1.64152   2.29243   0.25772 
 H                     3.70966   1.01135  -0.0846 
 H                     3.39632   1.06567   1.63781 
 H                    -2.7113    1.80631   0.62454 
 H                    -1.0177    2.07311   0.90947 
 H                    -1.98524   1.64602  -1.46549 
 H                     0.52345  -1.31181   0.18091 
 H                     0.78058  -1.49308  -1.55445 
 
 The following ModRedundant input section has been read:
 D      11       2      12       3 F                                           
 

 GradGradGradGradGradGradGradGradGradGradGradGradGradGradGradGradGradGrad
 Berny optimization.
 Initialization pass.
                           ----------------------------
                           !    Initial Parameters    !
                           ! (Angstroms and Degrees)  !
 --------------------------                            --------------------------
 ! Name  Definition              Value          Derivative Info.                !
 --------------------------------------------------------------------------------
 ! R1    R(1,4)                  1.5243         estimate D2E/DX2                !
 ! R2    R(1,7)                  1.5161         estimate D2E/DX2                !
 ! R3    R(1,14)                 1.0875         estimate D2E/DX2                !
 ! R4    R(1,15)                 1.0861         estimate D2E/DX2                !
 ! R5    R(2,11)                 1.4051         estimate D2E/DX2                !
 ! R6    R(2,12)                 1.4112         estimate D2E/DX2                !
 ! R7    R(2,13)                 1.5321         estimate D2E/DX2                !
 ! R8    R(2,29)                 1.0776         estimate D2E/DX2                !
 ! R9    R(3,8)                  1.5266         estimate D2E/DX2                !
 ! R10   R(3,9)                  1.5246         estimate D2E/DX2                !
 ! R11   R(3,12)                 1.4208         estimate D2E/DX2                !
 ! R12   R(3,16)                 1.0834         estimate D2E/DX2                !
 ! R13   R(4,13)                 1.5269         estimate D2E/DX2                !
 ! R14   R(4,17)                 1.0857         estimate D2E/DX2                !
 ! R15   R(4,18)                 1.0847         estimate D2E/DX2                !
 ! R16   R(5,6)                  1.4168         estimate D2E/DX2                !
 ! R17   R(5,9)                  1.4137         estimate D2E/DX2                !
 ! R18   R(6,10)                 1.5207         estimate D2E/DX2                !
 ! R19   R(6,19)                 1.0814         estimate D2E/DX2                !
 ! R20   R(6,20)                 1.0876         estimate D2E/DX2                !
 ! R21   R(7,11)                 1.4247         estimate D2E/DX2                !
 ! R22   R(7,21)                 1.0812         estimate D2E/DX2                !
 ! R23   R(7,22)                 1.0815         estimate D2E/DX2                !
 ! R24   R(8,10)                 1.5331         estimate D2E/DX2                !
 ! R25   R(8,23)                 1.0834         estimate D2E/DX2                !
 ! R26   R(8,24)                 1.0855         estimate D2E/DX2                !
 ! R27   R(9,30)                 1.0818         estimate D2E/DX2                !
 ! R28   R(9,31)                 1.081          estimate D2E/DX2                !
 ! R29   R(10,25)                1.087          estimate D2E/DX2                !
 ! R30   R(10,26)                1.086          estimate D2E/DX2                !
 ! R31   R(13,27)                1.0866         estimate D2E/DX2                !
 ! R32   R(13,28)                1.082          estimate D2E/DX2                !
 ! A1    A(4,1,7)              109.6508         estimate D2E/DX2                !
 ! A2    A(4,1,14)             109.8293         estimate D2E/DX2                !
 ! A3    A(4,1,15)             111.4703         estimate D2E/DX2                !
 ! A4    A(7,1,14)             109.8711         estimate D2E/DX2                !
 ! A5    A(7,1,15)             108.4499         estimate D2E/DX2                !
 ! A6    A(14,1,15)            107.53           estimate D2E/DX2                !
 ! A7    A(11,2,12)            111.9104         estimate D2E/DX2                !
 ! A8    A(11,2,13)            113.7936         estimate D2E/DX2                !
 ! A9    A(11,2,29)            103.883          estimate D2E/DX2                !
 ! A10   A(12,2,13)            117.1429         estimate D2E/DX2                !
 ! A11   A(12,2,29)            100.5183         estimate D2E/DX2                !
 ! A12   A(13,2,29)            107.6753         estimate D2E/DX2                !
 ! A13   A(8,3,9)              110.1932         estimate D2E/DX2                !
 ! A14   A(8,3,12)             115.0049         estimate D2E/DX2                !
 ! A15   A(8,3,16)             107.2695         estimate D2E/DX2                !
 ! A16   A(9,3,12)             115.3927         estimate D2E/DX2                !
 ! A17   A(9,3,16)             106.121          estimate D2E/DX2                !
 ! A18   A(12,3,16)            101.7836         estimate D2E/DX2                !
 ! A19   A(1,4,13)             108.6644         estimate D2E/DX2                !
 ! A20   A(1,4,17)             110.7616         estimate D2E/DX2                !
 ! A21   A(1,4,18)             109.747          estimate D2E/DX2                !
 ! A22   A(13,4,17)            109.1007         estimate D2E/DX2                !
 ! A23   A(13,4,18)            111.5153         estimate D2E/DX2                !
 ! A24   A(17,4,18)            107.0548         estimate D2E/DX2                !
 ! A25   A(6,5,9)              113.2136         estimate D2E/DX2                !
 ! A26   A(5,6,10)             110.9842         estimate D2E/DX2                !
 ! A27   A(5,6,19)             106.3244         estimate D2E/DX2                !
 ! A28   A(5,6,20)             108.9536         estimate D2E/DX2                !
 ! A29   A(10,6,19)            111.4259         estimate D2E/DX2                !
 ! A30   A(10,6,20)            110.6403         estimate D2E/DX2                !
 ! A31   A(19,6,20)            108.3681         estimate D2E/DX2                !
 ! A32   A(1,7,11)             113.166          estimate D2E/DX2                !
 ! A33   A(1,7,21)             110.2487         estimate D2E/DX2                !
 ! A34   A(1,7,22)             111.1856         estimate D2E/DX2                !
 ! A35   A(11,7,21)            109.6293         estimate D2E/DX2                !
 ! A36   A(11,7,22)            104.6951         estimate D2E/DX2                !
 ! A37   A(21,7,22)            107.6523         estimate D2E/DX2                !
 ! A38   A(3,8,10)             108.6533         estimate D2E/DX2                !
 ! A39   A(3,8,23)             110.8034         estimate D2E/DX2                !
 ! A40   A(3,8,24)             109.8719         estimate D2E/DX2                !
 ! A41   A(10,8,23)            109.1302         estimate D2E/DX2                !
 ! A42   A(10,8,24)            110.6028         estimate D2E/DX2                !
 ! A43   A(23,8,24)            107.7786         estimate D2E/DX2                !
 ! A44   A(3,9,5)              108.8474         estimate D2E/DX2                !
 ! A45   A(3,9,30)             111.6618         estimate D2E/DX2                !
 ! A46   A(3,9,31)             111.1832         estimate D2E/DX2                !
 ! A47   A(5,9,30)             108.789          estimate D2E/DX2                !
 ! A48   A(5,9,31)             106.9567         estimate D2E/DX2                !
 ! A49   A(30,9,31)            109.261          estimate D2E/DX2                !
 ! A50   A(6,10,8)             110.5972         estimate D2E/DX2                !
 ! A51   A(6,10,25)            109.0814         estimate D2E/DX2                !
 ! A52   A(6,10,26)            109.2831         estimate D2E/DX2                !
 ! A53   A(8,10,25)            109.9535         estimate D2E/DX2                !
 ! A54   A(8,10,26)            110.4354         estimate D2E/DX2                !
 ! A55   A(25,10,26)           107.4221         estimate D2E/DX2                !
 ! A56   A(2,11,7)             123.5255         estimate D2E/DX2                !
 ! A57   A(2,12,3)             131.8131         estimate D2E/DX2                !
 ! A58   A(2,13,4)             115.4033         estimate D2E/DX2                !
 ! A59   A(2,13,27)            105.595          estimate D2E/DX2                !
 ! A60   A(2,13,28)            108.889          estimate D2E/DX2                !
 ! A61   A(4,13,27)            107.4653         estimate D2E/DX2                !
 ! A62   A(4,13,28)            112.3587         estimate D2E/DX2                !
 ! A63   A(27,13,28)           106.5314         estimate D2E/DX2                !
 ! D1    D(7,1,4,13)            58.6571         estimate D2E/DX2                !
 ! D2    D(7,1,4,17)           178.4876         estimate D2E/DX2                !
 ! D3    D(7,1,4,18)           -63.521          estimate D2E/DX2                !
 ! D4    D(14,1,4,13)          -62.1693         estimate D2E/DX2                !
 ! D5    D(14,1,4,17)           57.6612         estimate D2E/DX2                !
 ! D6    D(14,1,4,18)          175.6526         estimate D2E/DX2                !
 ! D7    D(15,1,4,13)          178.7596         estimate D2E/DX2                !
 ! D8    D(15,1,4,17)          -61.4099         estimate D2E/DX2                !
 ! D9    D(15,1,4,18)           56.5815         estimate D2E/DX2                !
 ! D10   D(4,1,7,11)           -52.7925         estimate D2E/DX2                !
 ! D11   D(4,1,7,21)            70.3904         estimate D2E/DX2                !
 ! D12   D(4,1,7,22)          -170.2939         estimate D2E/DX2                !
 ! D13   D(14,1,7,11)           68.0086         estimate D2E/DX2                !
 ! D14   D(14,1,7,21)         -168.8085         estimate D2E/DX2                !
 ! D15   D(14,1,7,22)          -49.4928         estimate D2E/DX2                !
 ! D16   D(15,1,7,11)         -174.72           estimate D2E/DX2                !
 ! D17   D(15,1,7,21)          -51.537          estimate D2E/DX2                !
 ! D18   D(15,1,7,22)           67.7786         estimate D2E/DX2                !
 ! D19   D(12,2,11,7)          107.1005         estimate D2E/DX2                !
 ! D20   D(13,2,11,7)          -28.5219         estimate D2E/DX2                !
 ! D21   D(29,2,11,7)         -145.3162         estimate D2E/DX2                !
 ! D22   D(11,2,12,3)          -79.9399         Frozen                          !
 ! D23   D(13,2,12,3)           54.0768         estimate D2E/DX2                !
 ! D24   D(29,2,12,3)          170.3222         estimate D2E/DX2                !
 ! D25   D(11,2,13,4)           34.1772         estimate D2E/DX2                !
 ! D26   D(11,2,13,27)         -84.3452         estimate D2E/DX2                !
 ! D27   D(11,2,13,28)         161.5924         estimate D2E/DX2                !
 ! D28   D(12,2,13,4)          -99.006          estimate D2E/DX2                !
 ! D29   D(12,2,13,27)         142.4715         estimate D2E/DX2                !
 ! D30   D(12,2,13,28)          28.4091         estimate D2E/DX2                !
 ! D31   D(29,2,13,4)          148.7423         estimate D2E/DX2                !
 ! D32   D(29,2,13,27)          30.2198         estimate D2E/DX2                !
 ! D33   D(29,2,13,28)         -83.8426         estimate D2E/DX2                !
 ! D34   D(9,3,8,10)            55.1017         estimate D2E/DX2                !
 ! D35   D(9,3,8,23)           -64.7835         estimate D2E/DX2                !
 ! D36   D(9,3,8,24)           176.2278         estimate D2E/DX2                !
 ! D37   D(12,3,8,10)         -172.3897         estimate D2E/DX2                !
 ! D38   D(12,3,8,23)           67.7251         estimate D2E/DX2                !
 ! D39   D(12,3,8,24)          -51.2636         estimate D2E/DX2                !
 ! D40   D(16,3,8,10)          -59.9957         estimate D2E/DX2                !
 ! D41   D(16,3,8,23)         -179.8809         estimate D2E/DX2                !
 ! D42   D(16,3,8,24)           61.1304         estimate D2E/DX2                !
 ! D43   D(8,3,9,5)            -59.6484         estimate D2E/DX2                !
 ! D44   D(8,3,9,30)            60.4687         estimate D2E/DX2                !
 ! D45   D(8,3,9,31)          -177.2159         estimate D2E/DX2                !
 ! D46   D(12,3,9,5)           168.0427         estimate D2E/DX2                !
 ! D47   D(12,3,9,30)          -71.8402         estimate D2E/DX2                !
 ! D48   D(12,3,9,31)           50.4753         estimate D2E/DX2                !
 ! D49   D(16,3,9,5)            56.1725         estimate D2E/DX2                !
 ! D50   D(16,3,9,30)          176.2896         estimate D2E/DX2                !
 ! D51   D(16,3,9,31)          -61.395          estimate D2E/DX2                !
 ! D52   D(8,3,12,2)           -74.183          estimate D2E/DX2                !
 ! D53   D(9,3,12,2)            55.834          estimate D2E/DX2                !
 ! D54   D(16,3,12,2)          170.2276         estimate D2E/DX2                !
 ! D55   D(1,4,13,2)           -50.4822         estimate D2E/DX2                !
 ! D56   D(1,4,13,27)           66.9962         estimate D2E/DX2                !
 ! D57   D(1,4,13,28)         -176.1345         estimate D2E/DX2                !
 ! D58   D(17,4,13,2)         -171.3415         estimate D2E/DX2                !
 ! D59   D(17,4,13,27)         -53.8631         estimate D2E/DX2                !
 ! D60   D(17,4,13,28)          63.0062         estimate D2E/DX2                !
 ! D61   D(18,4,13,2)           70.6152         estimate D2E/DX2                !
 ! D62   D(18,4,13,27)        -171.9063         estimate D2E/DX2                !
 ! D63   D(18,4,13,28)         -55.037          estimate D2E/DX2                !
 ! D64   D(9,5,6,10)           -60.7856         estimate D2E/DX2                !
 ! D65   D(9,5,6,19)           177.881          estimate D2E/DX2                !
 ! D66   D(9,5,6,20)            61.2807         estimate D2E/DX2                !
 ! D67   D(6,5,9,3)             62.78           estimate D2E/DX2                !
 ! D68   D(6,5,9,30)           -59.099          estimate D2E/DX2                !
 ! D69   D(6,5,9,31)          -177.0042         estimate D2E/DX2                !
 ! D70   D(5,6,10,8)            54.5039         estimate D2E/DX2                !
 ! D71   D(5,6,10,25)          -66.5443         estimate D2E/DX2                !
 ! D72   D(5,6,10,26)          176.2832         estimate D2E/DX2                !
 ! D73   D(19,6,10,8)          172.7918         estimate D2E/DX2                !
 ! D74   D(19,6,10,25)          51.7436         estimate D2E/DX2                !
 ! D75   D(19,6,10,26)         -65.4289         estimate D2E/DX2                !
 ! D76   D(20,6,10,8)          -66.5744         estimate D2E/DX2                !
 ! D77   D(20,6,10,25)         172.3774         estimate D2E/DX2                !
 ! D78   D(20,6,10,26)          55.2049         estimate D2E/DX2                !
 ! D79   D(1,7,11,2)            38.8701         estimate D2E/DX2                !
 ! D80   D(21,7,11,2)          -84.6542         estimate D2E/DX2                !
 ! D81   D(22,7,11,2)          160.1082         estimate D2E/DX2                !
 ! D82   D(3,8,10,6)           -52.2648         estimate D2E/DX2                !
 ! D83   D(3,8,10,25)           68.2646         estimate D2E/DX2                !
 ! D84   D(3,8,10,26)         -173.3632         estimate D2E/DX2                !
 ! D85   D(23,8,10,6)           68.6564         estimate D2E/DX2                !
 ! D86   D(23,8,10,25)        -170.8141         estimate D2E/DX2                !
 ! D87   D(23,8,10,26)         -52.442          estimate D2E/DX2                !
 ! D88   D(24,8,10,6)         -172.9407         estimate D2E/DX2                !
 ! D89   D(24,8,10,25)         -52.4113         estimate D2E/DX2                !
 ! D90   D(24,8,10,26)          65.9609         estimate D2E/DX2                !
 --------------------------------------------------------------------------------
 Trust Radius=3.00D-01 FncErr=1.00D-07 GrdErr=1.00D-06 EigMax=2.50D+02 EigMin=1.00D-04
 Number of steps in this run=    186 maximum allowed number of steps=    186.
 GradGradGradGradGradGradGradGradGradGradGradGradGradGradGradGradGradGrad

                          Input orientation:                          
 ---------------------------------------------------------------------
 Center     Atomic      Atomic             Coordinates (Angstroms)
 Number     Number       Type             X           Y           Z
 ---------------------------------------------------------------------
      1          6           0       -2.765873   -0.889021    1.073475
      2          6           0       -1.484245    0.926198   -0.839379
      3          6           0        1.070022    0.527303   -0.834517
      4          6           0       -1.800295    0.161157    1.610255
      5          8           0        2.460682   -1.378595   -0.448741
      6          6           0        3.018924   -0.839020    0.736415
      7          6           0       -2.296341   -1.365271   -0.287145
      8          6           0        1.616873    1.218232    0.412060
      9          6           0        1.119223   -0.986615   -0.661455
     10          6           0        3.025089    0.681073    0.692491
     11          8           0       -2.064795   -0.300189   -1.204543
     12          8           0       -0.161704    1.045665   -1.316924
     13          6           0       -1.739144    1.320858    0.618927
     14          1           0       -3.764098   -0.465259    0.992547
     15          1           0       -2.827681   -1.747640    1.735675
     16          1           0        1.742673    0.758696   -1.651723
     17          1           0       -2.134221    0.534412    2.573494
     18          1           0       -0.822847   -0.283656    1.762913
     19          1           0        4.022175   -1.236218    0.808058
     20          1           0        2.447351   -1.195582    1.590294
     21          1           0       -1.398686   -1.959435   -0.186360
     22          1           0       -3.045436   -1.981384   -0.765481
     23          1           0        0.984608    1.021661    1.269577
     24          1           0        1.641519    2.292433    0.257720
     25          1           0        3.709656    1.011349   -0.084603
     26          1           0        3.396324    1.065665    1.637809
     27          1           0       -2.711304    1.806307    0.624539
     28          1           0       -1.017695    2.073107    0.909471
     29          1           0       -1.985237    1.646021   -1.465487
     30          1           0        0.523448   -1.311813    0.180907
     31          1           0        0.780583   -1.493083   -1.554450
 ---------------------------------------------------------------------
                    Distance matrix (angstroms):
                    1          2          3          4          5
     1  C    0.000000
     2  C    2.931996   0.000000
     3  C    4.512261   2.585231   0.000000
     4  C    1.524253   2.585707   3.788099   0.000000
     5  O    5.465684   4.585534   2.390650   4.976568   0.000000
     6  C    5.794824   5.087008   2.851821   4.998882   1.416817
     7  C    1.516101   2.493049   3.900494   2.485190   4.759786
     8  C    4.907795   3.356831   1.526559   3.772283   2.862953
     9  C    4.255993   3.235515   1.524572   3.873194   1.413651
    10  C    6.012120   4.768732   2.485495   4.939325   2.421404
    11  O    2.455117   1.405136   3.263241   2.864592   4.713188
    12  O    4.029729   1.411183   1.420762   3.469252   3.675280
    13  C    2.478780   1.532118   3.260927   1.526885   5.105438
    14  H    1.087463   3.238801   5.262324   2.151856   6.454408
    15  H    1.086074   3.947801   5.193587   2.171349   5.733642
    16  H    5.519843   3.331810   1.083433   4.852852   2.555526
    17  H    2.162222   3.496236   4.677795   1.085659   5.822940
    18  H    2.148753   2.945016   3.314702   1.084697   4.107538
    19  H    6.802102   6.140908   3.810940   6.041302   2.009496
    20  H    5.247741   5.085539   3.277968   4.459107   2.047275
    21  H    2.145267   2.959836   3.563494   2.808207   3.911642
    22  H    2.157121   3.301032   4.820298   3.432926   5.548064
    23  H    4.213700   3.248391   2.163076   2.934657   3.300400
    24  H    5.496563   3.583382   2.152969   4.268228   3.827083
    25  H    6.847264   5.249147   2.786456   5.827086   2.721096
    26  H    6.489371   5.475022   3.437137   5.274822   3.347167
    27  H    2.733005   2.103169   4.250073   2.123227   6.168060
    28  H    3.443432   2.142789   3.128828   2.181539   5.085085
    29  H    3.671806   1.077566   3.314251   3.420411   5.472501
    30  H    3.434394   3.174982   2.170755   3.100396   2.038085
    31  H    4.455135   3.390235   2.164264   4.405996   2.014555
                    6          7          8          9         10
     6  C    0.000000
     7  C    5.438443   0.000000
     8  C    2.510625   4.740951   0.000000
     9  C    2.363195   3.456814   2.502287   0.000000
    10  C    1.520740   5.784879   1.533054   2.871703   0.000000
    11  O    5.468259   1.424652   4.298103   3.302135   5.519831
    12  O    4.229023   3.380789   2.486464   2.490095   3.785013
    13  C    5.226671   2.889070   3.363952   3.890253   4.807562
    14  H    6.798139   2.145214   5.667976   5.182119   6.891819
    15  H    6.000575   2.126107   5.504763   4.680111   6.421978
    16  H    3.143997   4.763081   2.118065   2.101293   2.673192
    17  H    5.640574   3.437780   4.382934   4.833561   5.493465
    18  H    4.015138   2.746600   3.167445   3.184862   4.108907
    19  H    1.081393   6.414029   3.459280   3.263265   2.164149
    20  H    1.087631   5.104526   2.811481   2.622587   2.159089
    21  H    4.649959   1.081191   4.421456   2.740795   5.226322
    22  H    6.351153   1.081455   5.775922   4.283080   6.787167
    23  H    2.807995   4.345740   1.083390   2.789297   2.147694
    24  H    3.454329   5.402075   1.085512   3.445262   2.167896
    25  H    2.138936   6.462302   2.160837   3.321891   1.087009
    26  H    2.140740   6.482386   2.166145   3.831926   1.085980
    27  H    6.312352   3.325999   4.373111   4.911938   5.846108
    28  H    4.980434   3.858662   2.814103   4.049213   4.281231
    29  H    6.005450   3.248562   4.084530   4.149086   5.539978
    30  H    2.599908   2.858870   2.765888   1.081793   3.239062
    31  H    3.268950   3.330144   3.452213   1.081031   3.848832
                   11         12         13         14         15
    11  O    0.000000
    12  O    2.333604   0.000000
    13  C    2.461480   2.512283   0.000000
    14  H    2.782460   4.538038   2.725847   0.000000
    15  H    3.364817   4.922230   3.442052   1.753173   0.000000
    16  H    3.977187   1.954762   4.194631   6.230149   6.216456
    17  H    3.869747   4.391760   2.143575   2.480975   2.527961
    18  H    3.216909   3.419006   2.173193   3.045883   2.482610
    19  H    6.479037   5.217986   6.306124   7.826523   6.931274
    20  H    5.382593   4.503584   4.980237   6.282736   5.305833
    21  H    2.057546   3.440774   3.394808   3.036043   2.404392
    22  H    1.995206   4.216992   3.811533   2.430180   2.521475
    23  H    4.143358   2.829239   2.816325   4.983762   4.734958
    24  H    4.753595   2.699175   3.536002   6.112735   6.203248
    25  H    6.026498   4.062908   5.502742   7.693999   7.325449
    26  H    6.306215   4.624977   5.241782   7.350628   6.830996
    27  H    2.863711   3.293678   1.086640   2.530576   3.725414
    28  H    3.346342   2.597151   1.082027   3.740713   4.307757
    29  H    1.965237   1.925557   2.123929   3.696455   4.740684
    30  H    3.105134   2.875871   3.498877   4.445049   3.719854
    31  H    3.105094   2.718375   4.357850   5.310155   4.889713
                   16         17         18         19         20
    16  H    0.000000
    17  H    5.738734   0.000000
    18  H    4.396377   1.745273   0.000000
    19  H    3.902094   6.644780   5.029251   0.000000
    20  H    3.850513   4.995034   3.399353   1.758868   0.000000
    21  H    4.404959   3.791712   2.634291   5.558565   4.304878
    22  H    5.587437   4.278820   3.770273   7.278903   6.028090
    23  H    3.029490   3.415363   2.283446   3.812851   2.675564
    24  H    2.451235   4.765465   3.869747   4.292059   3.819865
    25  H    2.527592   6.437690   5.062997   2.438456   3.044542
    26  H    3.694565   5.634240   4.431447   2.525637   2.452763
    27  H    5.110457   2.397742   3.038110   7.391237   6.046134
    28  H    3.988361   2.526497   2.514092   6.030108   4.811901
    29  H    3.836580   4.191806   3.936670   7.040263   6.087721
    30  H    3.021928   4.024453   2.317835   3.555295   2.387736
    31  H    2.450630   5.444882   3.877963   4.019371   3.571559
                   21         22         23         24         25
    21  H    0.000000
    22  H    1.745752   0.000000
    23  H    4.084945   5.422268   0.000000
    24  H    5.245802   6.424951   1.752212   0.000000
    25  H    5.910251   7.419657   3.042991   2.456736   0.000000
    26  H    5.955749   7.520411   2.440063   2.547341   1.751522
    27  H    4.069562   4.048506   3.832950   4.395218   6.508730
    28  H    4.196117   4.832814   2.290073   2.746689   4.946045
    29  H    3.870339   3.843449   4.085386   4.067020   5.894188
    30  H    2.061286   3.752454   2.615907   3.774463   3.952151
    31  H    2.615027   3.936919   3.786911   4.284309   4.124573
                   26         27         28         29         30
    26  H    0.000000
    27  H    6.235254   0.000000
    28  H    4.585737   1.738010   0.000000
    29  H    6.239267   2.218349   2.599801   0.000000
    30  H    4.003546   4.514765   3.789935   4.213419   0.000000
    31  H    4.855905   5.275153   4.692805   4.184692   1.763644
                   31
    31  H    0.000000
 Stoichiometry    C10H18O3
 Framework group  C1[X(C10H18O3)]
 Deg. of freedom    87
 Full point group                 C1      NOp   1
 Largest Abelian subgroup         C1      NOp   1
 Largest concise Abelian subgroup C1      NOp   1
                         Standard orientation:                         
 ---------------------------------------------------------------------
 Center     Atomic      Atomic             Coordinates (Angstroms)
 Number     Number       Type             X           Y           Z
 ---------------------------------------------------------------------
      1          6           0        2.765873    0.889021    1.073475
      2          6           0        1.484245   -0.926198   -0.839379
      3          6           0       -1.070022   -0.527303   -0.834517
      4          6           0        1.800295   -0.161157    1.610255
      5          8           0       -2.460682    1.378595   -0.448741
      6          6           0       -3.018924    0.839020    0.736415
      7          6           0        2.296341    1.365271   -0.287145
      8          6           0       -1.616873   -1.218232    0.412060
      9          6           0       -1.119223    0.986615   -0.661455
     10          6           0       -3.025089   -0.681073    0.692491
     11          8           0        2.064795    0.300189   -1.204543
     12          8           0        0.161704   -1.045665   -1.316924
     13          6           0        1.739144   -1.320858    0.618927
     14          1           0        3.764098    0.465259    0.992547
     15          1           0        2.827681    1.747640    1.735675
     16          1           0       -1.742673   -0.758696   -1.651723
     17          1           0        2.134221   -0.534412    2.573494
     18          1           0        0.822847    0.283656    1.762913
     19          1           0       -4.022175    1.236218    0.808058
     20          1           0       -2.447351    1.195582    1.590294
     21          1           0        1.398686    1.959435   -0.186360
     22          1           0        3.045436    1.981384   -0.765481
     23          1           0       -0.984608   -1.021661    1.269577
     24          1           0       -1.641519   -2.292433    0.257720
     25          1           0       -3.709656   -1.011349   -0.084603
     26          1           0       -3.396324   -1.065665    1.637809
     27          1           0        2.711304   -1.806307    0.624539
     28          1           0        1.017695   -2.073107    0.909471
     29          1           0        1.985237   -1.646021   -1.465487
     30          1           0       -0.523448    1.311813    0.180907
     31          1           0       -0.780583    1.493083   -1.554450
 ---------------------------------------------------------------------
 Rotational constants (GHZ):           1.3707024           0.5158514           0.5024329
 Standard basis: 6-311++G(2d,2p) (5D, 7F)
 There are   557 symmetry adapted cartesian basis functions of A   symmetry.
 There are   531 symmetry adapted basis functions of A   symmetry.
   531 basis functions,   762 primitive gaussians,   557 cartesian basis functions
    51 alpha electrons       51 beta electrons
       nuclear repulsion energy       912.6135125454 Hartrees.
 NAtoms=   31 NActive=   31 NUniq=   31 SFac= 1.00D+00 NAtFMM=   60 NAOKFM=F Big=F
 Integral buffers will be    131072 words long.
 Raffenetti 2 integral format.
 Two-electron integral symmetry is turned on.
 ------------------------------------------------------------------------------
 Polarizable Continuum Model (PCM)
 =================================
 Model                : PCM.
 Atomic radii         : UFF (Universal Force Field).
 Polarization charges : Total charges.
 Charge compensation  : None.
 Solution method      : On-the-fly selection.
 Cavity type          : Scaled VdW (van der Waals Surface) (Alpha=1.100).
 Cavity algorithm     : GePol (No added spheres)
                        Default sphere list used, NSphG=   31.
                        Lebedev-Laikov grids with approx.  5.0 points / Ang**2.
                        Smoothing algorithm: York/Karplus (Gamma=1.0000).
                        Polarization charges: spherical gaussians, with
                                              point-specific exponents (IZeta= 3).
                        Self-potential: point-specific (ISelfS= 7).
                        Self-field    : sphere-specific E.n sum rule (ISelfD= 2).
 1st derivatives      : Analytical E(r).r(x)/FMM algorithm (CHGder, D1EAlg=3).
                        Cavity 1st derivative terms included.
 Solvent              : Water, Eps=  78.355300 Eps(inf)=   1.777849
 ------------------------------------------------------------------------------
 One-electron integrals computed using PRISM.
 NBasis=   531 RedAO= T EigKep=  4.33D-06  NBF=   531
 NBsUse=   531 1.00D-06 EigRej= -1.00D+00 NBFU=   531
 ExpMin= 3.60D-02 ExpMax= 8.59D+03 ExpMxC= 1.30D+03 IAcc=3 IRadAn=         5 AccDes= 0.00D+00
 Harris functional with IExCor= 1009 and IRadAn=       5 diagonalized for initial guess.
 HarFok:  IExCor= 1009 AccDes= 0.00D+00 IRadAn=         5 IDoV= 1 UseB2=F ITyADJ=14
 ICtDFT=  3500011 ScaDFX=  1.000000  1.000000  1.000000  1.000000
 FoFCou: FMM=F IPFlag=           0 FMFlag=      100000 FMFlg1=           0
         NFxFlg=           0 DoJE=T BraDBF=F KetDBF=T FulRan=T
         wScrn=  0.000000 ICntrl=       500 IOpCl=  0 I1Cent=   200000004 NGrid=           0
         NMat0=    1 NMatS0=      1 NMatT0=    0 NMatD0=    1 NMtDS0=    0 NMtDT0=    0
 Petite list used in FoFCou.
 Requested convergence on RMS density matrix=1.00D-08 within 128 cycles.
 Requested convergence on MAX density matrix=1.00D-06.
 Requested convergence on             energy=1.00D-06.
 No special actions if energy rises.
 Inv3:  Mode=1 IEnd=    11761200.
 Iteration    1 A*A^-1 deviation from unit magnitude is 4.77D-15 for   1956.
 Iteration    1 A*A^-1 deviation from orthogonality  is 2.30D-15 for   1973   1073.
 Iteration    1 A^-1*A deviation from unit magnitude is 5.00D-15 for   1956.
 Iteration    1 A^-1*A deviation from orthogonality  is 4.11D-15 for   1653   1646.
 Error on total polarization charges =  0.01449
 SCF Done:  E(RM062X) =  -617.478617996     A.U. after   12 cycles
            NFock= 12  Conv=0.55D-08     -V/T= 2.0035

 **********************************************************************

            Population analysis using the SCF density.

 **********************************************************************

 Orbital symmetries:
       Occupied  (A) (A) (A) (A) (A) (A) (A) (A) (A) (A) (A) (A)
                 (A) (A) (A) (A) (A) (A) (A) (A) (A) (A) (A) (A)
                 (A) (A) (A) (A) (A) (A) (A) (A) (A) (A) (A) (A)
                 (A) (A) (A) (A) (A) (A) (A) (A) (A) (A) (A) (A)
                 (A) (A) (A)
       Virtual   (A) (A) (A) (A) (A) (A) (A) (A) (A) (A) (A) (A)
                 (A) (A) (A) (A) (A) (A) (A) (A) (A) (A) (A) (A)
                 (A) (A) (A) (A) (A) (A) (A) (A) (A) (A) (A) (A)
                 (A) (A) (A) (A) (A) (A) (A) (A) (A) (A) (A) (A)
                 (A) (A) (A) (A) (A) (A) (A) (A) (A) (A) (A) (A)
                 (A) (A) (A) (A) (A) (A) (A) (A) (A) (A) (A) (A)
                 (A) (A) (A) (A) (A) (A) (A) (A) (A) (A) (A) (A)
                 (A) (A) (A) (A) (A) (A) (A) (A) (A) (A) (A) (A)
                 (A) (A) (A) (A) (A) (A) (A) (A) (A) (A) (A) (A)
                 (A) (A) (A) (A) (A) (A) (A) (A) (A) (A) (A) (A)
                 (A) (A) (A) (A) (A) (A) (A) (A) (A) (A) (A) (A)
                 (A) (A) (A) (A) (A) (A) (A) (A) (A) (A) (A) (A)
                 (A) (A) (A) (A) (A) (A) (A) (A) (A) (A) (A) (A)
                 (A) (A) (A) (A) (A) (A) (A) (A) (A) (A) (A) (A)
                 (A) (A) (A) (A) (A) (A) (A) (A) (A) (A) (A) (A)
                 (A) (A) (A) (A) (A) (A) (A) (A) (A) (A) (A) (A)
                 (A) (A) (A) (A) (A) (A) (A) (A) (A) (A) (A) (A)
                 (A) (A) (A) (A) (A) (A) (A) (A) (A) (A) (A) (A)
                 (A) (A) (A) (A) (A) (A) (A) (A) (A) (A) (A) (A)
                 (A) (A) (A) (A) (A) (A) (A) (A) (A) (A) (A) (A)
                 (A) (A) (A) (A) (A) (A) (A) (A) (A) (A) (A) (A)
                 (A) (A) (A) (A) (A) (A) (A) (A) (A) (A) (A) (A)
                 (A) (A) (A) (A) (A) (A) (A) (A) (A) (A) (A) (A)
                 (A) (A) (A) (A) (A) (A) (A) (A) (A) (A) (A) (A)
                 (A) (A) (A) (A) (A) (A) (A) (A) (A) (A) (A) (A)
                 (A) (A) (A) (A) (A) (A) (A) (A) (A) (A) (A) (A)
                 (A) (A) (A) (A) (A) (A) (A) (A) (A) (A) (A) (A)
                 (A) (A) (A) (A) (A) (A) (A) (A) (A) (A) (A) (A)
                 (A) (A) (A) (A) (A) (A) (A) (A) (A) (A) (A) (A)
                 (A) (A) (A) (A) (A) (A) (A) (A) (A) (A) (A) (A)
                 (A) (A) (A) (A) (A) (A) (A) (A) (A) (A) (A) (A)
                 (A) (A) (A) (A) (A) (A) (A) (A) (A) (A) (A) (A)
                 (A) (A) (A) (A) (A) (A) (A) (A) (A) (A) (A) (A)
                 (A) (A) (A) (A) (A) (A) (A) (A) (A) (A) (A) (A)
                 (A) (A) (A) (A) (A) (A) (A) (A) (A) (A) (A) (A)
                 (A) (A) (A) (A) (A) (A) (A) (A) (A) (A) (A) (A)
                 (A) (A) (A) (A) (A) (A) (A) (A) (A) (A) (A) (A)
                 (A) (A) (A) (A) (A) (A) (A) (A) (A) (A) (A) (A)
                 (A) (A) (A) (A) (A) (A) (A) (A) (A) (A) (A) (A)
                 (A) (A) (A) (A) (A) (A) (A) (A) (A) (A) (A) (A)
 The electronic state is 1-A.
 Alpha  occ. eigenvalues --  -19.63032 -19.62871 -19.62566 -10.64055 -10.59027
 Alpha  occ. eigenvalues --  -10.58059 -10.58005 -10.57956 -10.53407 -10.53368
 Alpha  occ. eigenvalues --  -10.53234 -10.53182 -10.53069  -1.19031  -1.16848
 Alpha  occ. eigenvalues --   -1.13229  -0.90763  -0.90659  -0.87935  -0.85045
 Alpha  occ. eigenvalues --   -0.75930  -0.74505  -0.74002  -0.70670  -0.67357
 Alpha  occ. eigenvalues --   -0.62651  -0.59921  -0.58595  -0.56642  -0.55973
 Alpha  occ. eigenvalues --   -0.54665  -0.53713  -0.53210  -0.51246  -0.50450
 Alpha  occ. eigenvalues --   -0.49928  -0.47819  -0.46110  -0.45496  -0.44984
 Alpha  occ. eigenvalues --   -0.43515  -0.42386  -0.40721  -0.40228  -0.39707
 Alpha  occ. eigenvalues --   -0.38470  -0.37450  -0.36753  -0.34287  -0.33476
 Alpha  occ. eigenvalues --   -0.31769
 Alpha virt. eigenvalues --   -0.00215   0.00687   0.00810   0.01056   0.02369
 Alpha virt. eigenvalues --    0.02612   0.02690   0.03189   0.03409   0.04925
 Alpha virt. eigenvalues --    0.05029   0.05272   0.05697   0.06048   0.07040
 Alpha virt. eigenvalues --    0.07891   0.08075   0.08341   0.08780   0.09872
 Alpha virt. eigenvalues --    0.10810   0.10897   0.11200   0.11612   0.12100
 Alpha virt. eigenvalues --    0.12388   0.12625   0.13075   0.13433   0.13535
 Alpha virt. eigenvalues --    0.13744   0.13774   0.14166   0.14393   0.14922
 Alpha virt. eigenvalues --    0.15217   0.15332   0.15746   0.15853   0.16238
 Alpha virt. eigenvalues --    0.16518   0.16910   0.17178   0.17407   0.17640
 Alpha virt. eigenvalues --    0.17861   0.18084   0.18480   0.19127   0.19427
 Alpha virt. eigenvalues --    0.19546   0.20122   0.20334   0.20712   0.21194
 Alpha virt. eigenvalues --    0.21771   0.21959   0.22945   0.23457   0.23885
 Alpha virt. eigenvalues --    0.24999   0.25370   0.26330   0.26649   0.27069
 Alpha virt. eigenvalues --    0.28254   0.28373   0.28975   0.29393   0.29745
 Alpha virt. eigenvalues --    0.30331   0.30895   0.31693   0.32201   0.32873
 Alpha virt. eigenvalues --    0.33000   0.33271   0.33434   0.33999   0.34752
 Alpha virt. eigenvalues --    0.35158   0.35422   0.35803   0.36001   0.36628
 Alpha virt. eigenvalues --    0.36933   0.37243   0.37471   0.38098   0.38230
 Alpha virt. eigenvalues --    0.38760   0.39065   0.39711   0.40049   0.40907
 Alpha virt. eigenvalues --    0.41268   0.41851   0.42969   0.43023   0.44468
 Alpha virt. eigenvalues --    0.45414   0.46777   0.48456   0.50112   0.50509
 Alpha virt. eigenvalues --    0.50965   0.52161   0.53142   0.53335   0.54528
 Alpha virt. eigenvalues --    0.56127   0.56916   0.58405   0.58696   0.59076
 Alpha virt. eigenvalues --    0.60619   0.61241   0.61708   0.61899   0.62676
 Alpha virt. eigenvalues --    0.63058   0.63296   0.63627   0.64041   0.64610
 Alpha virt. eigenvalues --    0.65238   0.65564   0.66559   0.67658   0.67977
 Alpha virt. eigenvalues --    0.68186   0.68343   0.70198   0.70900   0.71050
 Alpha virt. eigenvalues --    0.71599   0.71796   0.72307   0.73381   0.74061
 Alpha virt. eigenvalues --    0.74301   0.75113   0.75373   0.75659   0.75953
 Alpha virt. eigenvalues --    0.76811   0.77359   0.77759   0.78768   0.79595
 Alpha virt. eigenvalues --    0.80232   0.81002   0.83034   0.84290   0.85713
 Alpha virt. eigenvalues --    0.85937   0.86786   0.87618   0.89391   0.90405
 Alpha virt. eigenvalues --    0.90723   0.92431   0.92923   0.93613   0.95763
 Alpha virt. eigenvalues --    0.96351   0.97674   0.99746   1.00329   1.02756
 Alpha virt. eigenvalues --    1.04024   1.04197   1.04402   1.05193   1.06027
 Alpha virt. eigenvalues --    1.08326   1.09625   1.10495   1.11613   1.11978
 Alpha virt. eigenvalues --    1.13276   1.13778   1.15225   1.15589   1.15998
 Alpha virt. eigenvalues --    1.17394   1.18422   1.19249   1.19467   1.21622
 Alpha virt. eigenvalues --    1.22333   1.23471   1.23765   1.24377   1.25376
 Alpha virt. eigenvalues --    1.25517   1.26623   1.26798   1.27729   1.28290
 Alpha virt. eigenvalues --    1.28565   1.30300   1.31265   1.31747   1.32178
 Alpha virt. eigenvalues --    1.33672   1.33964   1.34286   1.34518   1.35631
 Alpha virt. eigenvalues --    1.36340   1.36895   1.37124   1.38044   1.38648
 Alpha virt. eigenvalues --    1.39606   1.39710   1.40172   1.41278   1.42757
 Alpha virt. eigenvalues --    1.43269   1.43632   1.44292   1.44798   1.46237
 Alpha virt. eigenvalues --    1.46764   1.46996   1.47686   1.48264   1.48615
 Alpha virt. eigenvalues --    1.49681   1.50487   1.50935   1.51798   1.52815
 Alpha virt. eigenvalues --    1.53896   1.54770   1.55047   1.55304   1.56224
 Alpha virt. eigenvalues --    1.56824   1.58036   1.58379   1.59076   1.59345
 Alpha virt. eigenvalues --    1.60041   1.60682   1.61918   1.62940   1.63679
 Alpha virt. eigenvalues --    1.64622   1.65823   1.66686   1.67083   1.67390
 Alpha virt. eigenvalues --    1.68515   1.70274   1.70941   1.71395   1.72174
 Alpha virt. eigenvalues --    1.72862   1.73538   1.74503   1.76073   1.76594
 Alpha virt. eigenvalues --    1.79249   1.79655   1.80423   1.82577   1.86259
 Alpha virt. eigenvalues --    1.86561   1.88562   1.90492   1.93503   1.97754
 Alpha virt. eigenvalues --    2.02959   2.05845   2.09866   2.15227   2.19331
 Alpha virt. eigenvalues --    2.20601   2.23790   2.28515   2.30692   2.38895
 Alpha virt. eigenvalues --    2.41198   2.44177   2.46633   2.47380   2.55143
 Alpha virt. eigenvalues --    2.59013   2.76565   2.77852   2.80719   2.83939
 Alpha virt. eigenvalues --    2.86707   2.89010   2.90821   2.93107   2.94820
 Alpha virt. eigenvalues --    2.96476   2.97316   3.00988   3.03725   3.05718
 Alpha virt. eigenvalues --    3.06577   3.07883   3.08963   3.09741   3.10713
 Alpha virt. eigenvalues --    3.12840   3.16390   3.18223   3.18434   3.19724
 Alpha virt. eigenvalues --    3.25096   3.25518   3.31326   3.31920   3.34479
 Alpha virt. eigenvalues --    3.35646   3.36784   3.38410   3.39869   3.41019
 Alpha virt. eigenvalues --    3.42367   3.43945   3.44789   3.45968   3.47543
 Alpha virt. eigenvalues --    3.47946   3.49003   3.49514   3.50587   3.52609
 Alpha virt. eigenvalues --    3.53227   3.54171   3.54532   3.55189   3.55507
 Alpha virt. eigenvalues --    3.57689   3.57941   3.58727   3.59421   3.59803
 Alpha virt. eigenvalues --    3.61283   3.62064   3.62805   3.64122   3.64872
 Alpha virt. eigenvalues --    3.65048   3.67058   3.68133   3.68668   3.69073
 Alpha virt. eigenvalues --    3.70464   3.71349   3.72304   3.73048   3.74272
 Alpha virt. eigenvalues --    3.74740   3.75475   3.76728   3.77645   3.78898
 Alpha virt. eigenvalues --    3.79515   3.80221   3.81566   3.82132   3.84437
 Alpha virt. eigenvalues --    3.86184   3.87395   3.88326   3.90327   3.91473
 Alpha virt. eigenvalues --    3.93224   3.94468   3.96357   3.97115   3.98137
 Alpha virt. eigenvalues --    3.99053   4.01264   4.02710   4.03809   4.04454
 Alpha virt. eigenvalues --    4.05487   4.05719   4.07232   4.07568   4.08418
 Alpha virt. eigenvalues --    4.09480   4.10142   4.11295   4.11995   4.12410
 Alpha virt. eigenvalues --    4.13816   4.14424   4.14834   4.16617   4.17297
 Alpha virt. eigenvalues --    4.18428   4.19561   4.20564   4.21003   4.22378
 Alpha virt. eigenvalues --    4.23434   4.24191   4.25528   4.26329   4.27711
 Alpha virt. eigenvalues --    4.28466   4.29917   4.30349   4.32783   4.33696
 Alpha virt. eigenvalues --    4.35545   4.37727   4.40008   4.40902   4.42305
 Alpha virt. eigenvalues --    4.43638   4.45827   4.46725   4.50322   4.54411
 Alpha virt. eigenvalues --    4.59149   4.62718   4.74709   4.77203   4.84426
 Alpha virt. eigenvalues --    4.87429   4.92667   4.93463   4.99079   5.00088
 Alpha virt. eigenvalues --    5.07059   5.07545   5.08490   5.09820   5.12611
 Alpha virt. eigenvalues --    5.14183   5.15629   5.18472   5.32240   5.35017
 Alpha virt. eigenvalues --    5.40289   5.53604   5.57762   5.60008   5.86312
 Alpha virt. eigenvalues --    5.89374   5.99633   6.98074   7.02922   7.06224
 Alpha virt. eigenvalues --    7.07219   7.08565   7.12213   7.13817   7.14820
 Alpha virt. eigenvalues --    7.31595   7.36547   7.44474   7.49383   7.54976
 Alpha virt. eigenvalues --    7.57272   7.62541  23.95828  23.97159  24.05515
 Alpha virt. eigenvalues --   24.06773  24.09135  24.11953  24.13304  24.15455
 Alpha virt. eigenvalues --   24.16086  24.19516  50.16902  50.18828  50.21460
          Condensed to atoms (all electrons):
               1          2          3          4          5          6
     1  C    6.176492   0.344034  -0.188127  -0.229368   0.002535   0.002054
     2  C    0.344034   7.789180  -1.743958   0.209322   0.008118  -0.030994
     3  C   -0.188127  -1.743958   9.565763   0.194596  -0.051577   0.245272
     4  C   -0.229368   0.209322   0.194596   5.767574  -0.002585   0.000964
     5  O    0.002535   0.008118  -0.051577  -0.002585   8.290058   0.125385
     6  C    0.002054  -0.030994   0.245272   0.000964   0.125385   5.512071
     7  C   -0.227737  -0.467358   0.195879   0.083340  -0.001054   0.012432
     8  C    0.052846   0.383337  -1.528517  -0.066558  -0.009870  -0.112893
     9  C    0.099080   0.573587  -1.646372  -0.070169   0.238111  -0.337205
    10  C    0.015225   0.068692  -0.274105  -0.003653  -0.056757  -0.009176
    11  O   -0.079587   0.243834   0.040722  -0.011745  -0.000016   0.005026
    12  O    0.001115   0.259179  -0.111080  -0.037690   0.000519  -0.015445
    13  C   -0.261043  -1.883319   0.967263  -0.364998  -0.000857   0.023318
    14  H    0.456765   0.034068  -0.012055   0.002508   0.000050  -0.000747
    15  H    0.446974   0.007451   0.004157  -0.050171   0.000158   0.000608
    16  H   -0.012632  -0.050258   0.622133   0.007226   0.004156   0.009228
    17  H   -0.036940  -0.018015   0.028592   0.435646  -0.000526   0.002133
    18  H   -0.095573  -0.021144  -0.021058   0.515215   0.000623  -0.020042
    19  H    0.000984   0.000134  -0.002189  -0.000194  -0.066176   0.433543
    20  H   -0.003982  -0.009483   0.060061   0.007253  -0.041406   0.471621
    21  H   -0.145277  -0.034175  -0.019475   0.054330   0.000706  -0.010295
    22  H   -0.029472  -0.022458   0.021725   0.013384  -0.000214   0.002427
    23  H   -0.007313  -0.010064   0.051461   0.014113   0.000078   0.001216
    24  H    0.001326   0.017694  -0.054131   0.004836  -0.000698   0.008690
    25  H    0.000245  -0.002072  -0.006318   0.000040  -0.009604  -0.082132
    26  H    0.000872  -0.006766   0.010153  -0.001576   0.007638  -0.041952
    27  H   -0.027689  -0.083171   0.024498  -0.013286   0.000064   0.000978
    28  H    0.000496  -0.072206  -0.040142  -0.035484  -0.000783  -0.003340
    29  H    0.001749   0.498922  -0.015744   0.000161   0.000784   0.002283
    30  H    0.035752  -0.010132   0.180641  -0.074130  -0.059846   0.039892
    31  H    0.009181   0.006058  -0.083732  -0.010121  -0.056863  -0.015518
               7          8          9         10         11         12
     1  C   -0.227737   0.052846   0.099080   0.015225  -0.079587   0.001115
     2  C   -0.467358   0.383337   0.573587   0.068692   0.243834   0.259179
     3  C    0.195879  -1.528517  -1.646372  -0.274105   0.040722  -0.111080
     4  C    0.083340  -0.066558  -0.070169  -0.003653  -0.011745  -0.037690
     5  O   -0.001054  -0.009870   0.238111  -0.056757  -0.000016   0.000519
     6  C    0.012432  -0.112893  -0.337205  -0.009176   0.005026  -0.015445
     7  C    5.563924  -0.062725  -0.130814  -0.003549   0.189124   0.017015
     8  C   -0.062725   6.680358   0.645618  -0.213452  -0.010707   0.006108
     9  C   -0.130814   0.645618   6.412557   0.205519  -0.016144   0.085204
    10  C   -0.003549  -0.213452   0.205519   5.968693   0.000984   0.032750
    11  O    0.189124  -0.010707  -0.016144   0.000984   8.155540  -0.018880
    12  O    0.017015   0.006108   0.085204   0.032750  -0.018880   8.402926
    13  C    0.274706  -0.168443  -0.321001  -0.112372  -0.014707  -0.066135
    14  H   -0.060439   0.004283   0.004779  -0.000233  -0.005650   0.001127
    15  H   -0.039379  -0.003933  -0.003651   0.000499   0.006420  -0.000738
    16  H    0.009615  -0.048733  -0.138889  -0.053684  -0.002459  -0.121973
    17  H    0.008039  -0.006479  -0.010565  -0.003961  -0.000410  -0.002605
    18  H    0.009153   0.008617   0.031054   0.012904   0.002451   0.005710
    19  H   -0.000085  -0.000405   0.011222  -0.031047   0.000159  -0.000117
    20  H    0.001635   0.005244  -0.028395  -0.090443  -0.000426  -0.001656
    21  H    0.467090   0.032499   0.032193  -0.001606  -0.055452   0.010377
    22  H    0.440220  -0.005072  -0.014814  -0.000944  -0.061031  -0.003443
    23  H   -0.005611   0.432846  -0.036343  -0.087375  -0.000453  -0.022455
    24  H   -0.001050   0.419255   0.001599   0.014709  -0.000058   0.006889
    25  H   -0.000577  -0.001604   0.008128   0.458553  -0.000154   0.000406
    26  H    0.000324  -0.066945   0.003480   0.463360   0.000254  -0.000717
    27  H    0.019760  -0.007279  -0.007455  -0.001833  -0.011196  -0.000509
    28  H    0.004492   0.050330   0.008474   0.001155   0.010255  -0.002339
    29  H   -0.024572   0.006241  -0.002388  -0.008772  -0.076566  -0.113835
    30  H    0.019287  -0.218483   0.224760   0.013311   0.001817  -0.020635
    31  H   -0.010130  -0.004911   0.470394   0.034843   0.001574   0.015204
              13         14         15         16         17         18
     1  C   -0.261043   0.456765   0.446974  -0.012632  -0.036940  -0.095573
     2  C   -1.883319   0.034068   0.007451  -0.050258  -0.018015  -0.021144
     3  C    0.967263  -0.012055   0.004157   0.622133   0.028592  -0.021058
     4  C   -0.364998   0.002508  -0.050171   0.007226   0.435646   0.515215
     5  O   -0.000857   0.000050   0.000158   0.004156  -0.000526   0.000623
     6  C    0.023318  -0.000747   0.000608   0.009228   0.002133  -0.020042
     7  C    0.274706  -0.060439  -0.039379   0.009615   0.008039   0.009153
     8  C   -0.168443   0.004283  -0.003933  -0.048733  -0.006479   0.008617
     9  C   -0.321001   0.004779  -0.003651  -0.138889  -0.010565   0.031054
    10  C   -0.112372  -0.000233   0.000499  -0.053684  -0.003961   0.012904
    11  O   -0.014707  -0.005650   0.006420  -0.002459  -0.000410   0.002451
    12  O   -0.066135   0.001127  -0.000738  -0.121973  -0.002605   0.005710
    13  C    7.502726  -0.056906   0.008103   0.045974  -0.015403  -0.083848
    14  H   -0.056906   0.466775  -0.004122  -0.000328  -0.000438   0.002982
    15  H    0.008103  -0.004122   0.471961  -0.000124  -0.007538  -0.008786
    16  H    0.045974  -0.000328  -0.000124   0.455879   0.001071  -0.001656
    17  H   -0.015403  -0.000438  -0.007538   0.001071   0.456970  -0.012946
    18  H   -0.083848   0.002982  -0.008786  -0.001656  -0.012946   0.549794
    19  H   -0.001119  -0.000029   0.000111  -0.003309   0.000004  -0.000140
    20  H    0.005366   0.000083  -0.000147   0.004418   0.001320  -0.009240
    21  H   -0.002835   0.007841  -0.010046  -0.001382   0.004483   0.029480
    22  H    0.017795  -0.006261  -0.007955   0.001169   0.002333  -0.009082
    23  H    0.015530   0.000673   0.001371   0.008037  -0.000487  -0.011375
    24  H   -0.022302   0.000032  -0.000076  -0.005305   0.000222  -0.000645
    25  H    0.000605   0.000033  -0.000001   0.002619  -0.000007   0.000478
    26  H    0.001902  -0.000019  -0.000045  -0.001955  -0.000298   0.000830
    27  H    0.475207  -0.006311  -0.000258   0.000823  -0.009335   0.002333
    28  H    0.423358  -0.000785  -0.000754  -0.000588  -0.008407   0.007639
    29  H   -0.023759   0.001644   0.001264   0.007297   0.003448  -0.008438
    30  H    0.077784  -0.005274   0.002978   0.007725  -0.002168  -0.068239
    31  H   -0.017459   0.000089   0.000456  -0.010052  -0.000690   0.003971
              19         20         21         22         23         24
     1  C    0.000984  -0.003982  -0.145277  -0.029472  -0.007313   0.001326
     2  C    0.000134  -0.009483  -0.034175  -0.022458  -0.010064   0.017694
     3  C   -0.002189   0.060061  -0.019475   0.021725   0.051461  -0.054131
     4  C   -0.000194   0.007253   0.054330   0.013384   0.014113   0.004836
     5  O   -0.066176  -0.041406   0.000706  -0.000214   0.000078  -0.000698
     6  C    0.433543   0.471621  -0.010295   0.002427   0.001216   0.008690
     7  C   -0.000085   0.001635   0.467090   0.440220  -0.005611  -0.001050
     8  C   -0.000405   0.005244   0.032499  -0.005072   0.432846   0.419255
     9  C    0.011222  -0.028395   0.032193  -0.014814  -0.036343   0.001599
    10  C   -0.031047  -0.090443  -0.001606  -0.000944  -0.087375   0.014709
    11  O    0.000159  -0.000426  -0.055452  -0.061031  -0.000453  -0.000058
    12  O   -0.000117  -0.001656   0.010377  -0.003443  -0.022455   0.006889
    13  C   -0.001119   0.005366  -0.002835   0.017795   0.015530  -0.022302
    14  H   -0.000029   0.000083   0.007841  -0.006261   0.000673   0.000032
    15  H    0.000111  -0.000147  -0.010046  -0.007955   0.001371  -0.000076
    16  H   -0.003309   0.004418  -0.001382   0.001169   0.008037  -0.005305
    17  H    0.000004   0.001320   0.004483   0.002333  -0.000487   0.000222
    18  H   -0.000140  -0.009240   0.029480  -0.009082  -0.011375  -0.000645
    19  H    0.459881  -0.010571  -0.001018   0.000058  -0.000919   0.001575
    20  H   -0.010571   0.505639   0.002660   0.000095  -0.007191   0.000458
    21  H   -0.001018   0.002660   0.638427  -0.037888  -0.001452   0.000231
    22  H    0.000058   0.000095  -0.037888   0.477080  -0.000239   0.000008
    23  H   -0.000919  -0.007191  -0.001452  -0.000239   0.511097  -0.020979
    24  H    0.001575   0.000458   0.000231   0.000008  -0.020979   0.448771
    25  H   -0.003478   0.001384   0.000308  -0.000076   0.002201  -0.006039
    26  H   -0.008870   0.004936  -0.000083   0.000016  -0.011347  -0.010575
    27  H    0.000038  -0.000335  -0.004345   0.001568   0.003314  -0.001293
    28  H   -0.000535   0.000921   0.005186  -0.000095  -0.015789  -0.004107
    29  H    0.000005   0.000073  -0.005270   0.002396   0.006102  -0.000065
    30  H    0.003367  -0.006810  -0.093836   0.014997  -0.005946  -0.000273
    31  H    0.002386  -0.002741  -0.010226  -0.002993  -0.003867  -0.000363
              25         26         27         28         29         30
     1  C    0.000245   0.000872  -0.027689   0.000496   0.001749   0.035752
     2  C   -0.002072  -0.006766  -0.083171  -0.072206   0.498922  -0.010132
     3  C   -0.006318   0.010153   0.024498  -0.040142  -0.015744   0.180641
     4  C    0.000040  -0.001576  -0.013286  -0.035484   0.000161  -0.074130
     5  O   -0.009604   0.007638   0.000064  -0.000783   0.000784  -0.059846
     6  C   -0.082132  -0.041952   0.000978  -0.003340   0.002283   0.039892
     7  C   -0.000577   0.000324   0.019760   0.004492  -0.024572   0.019287
     8  C   -0.001604  -0.066945  -0.007279   0.050330   0.006241  -0.218483
     9  C    0.008128   0.003480  -0.007455   0.008474  -0.002388   0.224760
    10  C    0.458553   0.463360  -0.001833   0.001155  -0.008772   0.013311
    11  O   -0.000154   0.000254  -0.011196   0.010255  -0.076566   0.001817
    12  O    0.000406  -0.000717  -0.000509  -0.002339  -0.113835  -0.020635
    13  C    0.000605   0.001902   0.475207   0.423358  -0.023759   0.077784
    14  H    0.000033  -0.000019  -0.006311  -0.000785   0.001644  -0.005274
    15  H   -0.000001  -0.000045  -0.000258  -0.000754   0.001264   0.002978
    16  H    0.002619  -0.001955   0.000823  -0.000588   0.007297   0.007725
    17  H   -0.000007  -0.000298  -0.009335  -0.008407   0.003448  -0.002168
    18  H    0.000478   0.000830   0.002333   0.007639  -0.008438  -0.068239
    19  H   -0.003478  -0.008870   0.000038  -0.000535   0.000005   0.003367
    20  H    0.001384   0.004936  -0.000335   0.000921   0.000073  -0.006810
    21  H    0.000308  -0.000083  -0.004345   0.005186  -0.005270  -0.093836
    22  H   -0.000076   0.000016   0.001568  -0.000095   0.002396   0.014997
    23  H    0.002201  -0.011347   0.003314  -0.015789   0.006102  -0.005946
    24  H   -0.006039  -0.010575  -0.001293  -0.004107  -0.000065  -0.000273
    25  H    0.472355  -0.009027  -0.000030  -0.000229   0.000176  -0.005499
    26  H   -0.009027   0.490764   0.000017   0.002217  -0.000721   0.000349
    27  H   -0.000030   0.000017   0.424384  -0.006378  -0.006250   0.002319
    28  H   -0.000229   0.002217  -0.006378   0.491659  -0.022266  -0.005807
    29  H    0.000176  -0.000721  -0.006250  -0.022266   0.520721   0.003065
    30  H   -0.005499   0.000349   0.002319  -0.005807   0.003065   0.691919
    31  H   -0.000220   0.001963  -0.000316  -0.000148  -0.003370  -0.010381
              31
     1  C    0.009181
     2  C    0.006058
     3  C   -0.083732
     4  C   -0.010121
     5  O   -0.056863
     6  C   -0.015518
     7  C   -0.010130
     8  C   -0.004911
     9  C    0.470394
    10  C    0.034843
    11  O    0.001574
    12  O    0.015204
    13  C   -0.017459
    14  H    0.000089
    15  H    0.000456
    16  H   -0.010052
    17  H   -0.000690
    18  H    0.003971
    19  H    0.002386
    20  H   -0.002741
    21  H   -0.010226
    22  H   -0.002993
    23  H   -0.003867
    24  H   -0.000363
    25  H   -0.000220
    26  H    0.001963
    27  H   -0.000316
    28  H   -0.000148
    29  H   -0.003370
    30  H   -0.010381
    31  H    0.447359
 Mulliken charges:
               1
     1  C   -0.302985
     2  C    0.021963
     3  C   -0.414336
     4  C   -0.338780
     5  O   -0.320148
     6  C   -0.219405
     7  C   -0.280956
     8  C   -0.190574
     9  C   -0.291552
    10  C   -0.338238
    11  O   -0.292520
    12  O   -0.304279
    13  C   -0.423129
    14  H    0.175866
    15  H    0.185213
    16  H    0.265959
    17  H    0.192958
    18  H    0.188977
    19  H    0.216736
    20  H    0.139658
    21  H    0.148852
    22  H    0.206767
    23  H    0.201163
    24  H    0.201663
    25  H    0.179535
    26  H    0.171819
    27  H    0.231967
    28  H    0.214001
    29  H    0.255686
    30  H    0.267495
    31  H    0.250622
 Sum of Mulliken charges =  -0.00000
 Mulliken charges with hydrogens summed into heavy atoms:
               1
     1  C    0.058094
     2  C    0.277649
     3  C   -0.148377
     4  C    0.043155
     5  O   -0.320148
     6  C    0.136989
     7  C    0.074663
     8  C    0.212253
     9  C    0.226565
    10  C    0.013117
    11  O   -0.292520
    12  O   -0.304279
    13  C    0.022839
 Electronic spatial extent (au):  <R**2>=           2590.1627
 Charge=             -0.0000 electrons
 Dipole moment (field-independent basis, Debye):
    X=              0.5502    Y=             -0.6614    Z=              4.6895  Tot=              4.7677
 Quadrupole moment (field-independent basis, Debye-Ang):
   XX=            -76.6087   YY=            -80.3395   ZZ=            -84.0064
   XY=              4.4697   XZ=              0.5452   YZ=              0.3097
 Traceless Quadrupole moment (field-independent basis, Debye-Ang):
   XX=              3.7095   YY=             -0.0213   ZZ=             -3.6882
   XY=              4.4697   XZ=              0.5452   YZ=              0.3097
 Octapole moment (field-independent basis, Debye-Ang**2):
  XXX=             -0.0392  YYY=             -0.8504  ZZZ=              3.1932  XYY=             14.9500
  XXY=            -10.8006  XXZ=             19.3228  XZZ=             -6.4641  YZZ=              2.3449
  YYZ=              1.2104  XYZ=             -3.7731
 Hexadecapole moment (field-independent basis, Debye-Ang**3):
 XXXX=          -2171.4195 YYYY=           -638.2036 ZZZZ=           -563.4108 XXXY=             14.7756
 XXXZ=            -28.6402 YYYX=             15.3362 YYYZ=              1.0922 ZZZX=              8.3608
 ZZZY=             -3.1467 XXYY=           -473.1851 XXZZ=           -469.1454 YYZZ=           -196.2182
 XXYZ=             21.8123 YYXZ=            -13.5749 ZZXY=             -3.8404
 N-N= 9.126135125454D+02 E-N=-3.266698960592D+03  KE= 6.153057010303D+02
 D1PCM: PCM CHGder 1st derivatives, ID1Alg=3 FixD1E=F DoIter=F DoCFld=F I1PDM=0.
 Calling FoFJK, ICntrl=      2127 FMM=F ISym2X=0 I1Cent= 0 IOpClX= 0 NMat=1 NMatS=1 NMatT=0.
 ***** Axes restored to original set *****
 -------------------------------------------------------------------
 Center     Atomic                   Forces (Hartrees/Bohr)
 Number     Number              X              Y              Z
 -------------------------------------------------------------------
      1        6           0.002810192   -0.000736005   -0.000563562
      2        6           0.005117896   -0.007908042    0.011255093
      3        6          -0.007832646   -0.000533436    0.008137624
      4        6          -0.002820297    0.001174385   -0.004015538
      5        8           0.004331923   -0.005858983   -0.005382182
      6        6          -0.003287450    0.005186074   -0.003365201
      7        6          -0.000074037    0.007762505    0.003663115
      8        6           0.003176750   -0.003204798   -0.003178736
      9        6           0.005819132    0.006102526    0.000109685
     10        6          -0.002348428   -0.001102693    0.001758186
     11        8          -0.003488755   -0.000933043   -0.007531270
     12        8           0.001926679    0.004968749   -0.008437539
     13        6           0.000723944   -0.003568125   -0.000368525
     14        1          -0.002652999    0.001791402   -0.000645779
     15        1          -0.000139338   -0.001930190    0.001962827
     16        1           0.004695232    0.000302234   -0.003920088
     17        1          -0.000354628    0.000648447    0.002382773
     18        1           0.004870030   -0.002254894    0.000348768
     19        1           0.004036321   -0.001502958    0.000190506
     20        1          -0.003333001   -0.000911677    0.005308467
     21        1           0.006081059   -0.004126133    0.001604999
     22        1          -0.003157322   -0.002836135   -0.001656335
     23        1          -0.004035518   -0.001831230    0.004045425
     24        1          -0.000588882    0.003022385   -0.000735687
     25        1           0.001547233    0.000562577   -0.002750696
     26        1           0.001048700    0.001352866    0.002444636
     27        1          -0.003341845    0.001365585    0.000475535
     28        1           0.003431241    0.002726248    0.000611306
     29        1          -0.003112555    0.005018364   -0.004258449
     30        1          -0.006285413   -0.001009606    0.006736795
     31        1          -0.002763220   -0.001736399   -0.004226155
 -------------------------------------------------------------------
 Cartesian Forces:  Max     0.011255093 RMS     0.003836481

 GradGradGradGradGradGradGradGradGradGradGradGradGradGradGradGradGradGrad
 Berny optimization.
 FormGI is forming the generalized inverse of G from B-inverse, IUseBI=4.
 Internal  Forces:  Max     0.031895725 RMS     0.003131540
 Search for a local minimum.
 Step number   1 out of a maximum of  186
 All quantities printed in internal units (Hartrees-Bohrs-Radians)
 Mixed Optimization -- RFO/linear search
 Second derivative matrix not updated -- first step.
 ITU=  0
     Eigenvalues ---    0.00550   0.00628   0.00746   0.00760   0.01193
     Eigenvalues ---    0.01417   0.01447   0.02523   0.02600   0.02951
     Eigenvalues ---    0.03147   0.03919   0.03928   0.04171   0.04648
     Eigenvalues ---    0.04713   0.04859   0.04976   0.05107   0.05174
     Eigenvalues ---    0.05285   0.05567   0.05740   0.05744   0.06147
     Eigenvalues ---    0.06168   0.06442   0.06752   0.07428   0.07659
     Eigenvalues ---    0.07721   0.07901   0.07986   0.08021   0.08758
     Eigenvalues ---    0.08886   0.09523   0.09601   0.10688   0.11543
     Eigenvalues ---    0.11707   0.11848   0.11911   0.12505   0.12673
     Eigenvalues ---    0.14999   0.16307   0.16784   0.17339   0.18227
     Eigenvalues ---    0.20236   0.21996   0.22094   0.25000   0.28276
     Eigenvalues ---    0.28478   0.28579   0.29002   0.29066   0.29267
     Eigenvalues ---    0.30137   0.30201   0.35088   0.35107   0.35161
     Eigenvalues ---    0.35204   0.35270   0.35281   0.35319   0.35336
     Eigenvalues ---    0.35433   0.35583   0.35588   0.35750   0.35779
     Eigenvalues ---    0.35819   0.35827   0.35851   0.35870   0.36290
     Eigenvalues ---    0.40580   0.41423   0.41906   0.42346   0.43586
     Eigenvalues ---    0.438161000.000001000.000001000.000001000.00000
     Eigenvalues --- 1000.000001000.000001000.000001000.000001000.00000
     Eigenvalues --- 1000.000001000.000001000.000001000.000001000.00000
     Eigenvalues --- 1000.000001000.000001000.000001000.000001000.00000
     Eigenvalues --- 1000.000001000.000001000.000001000.000001000.00000
     Eigenvalues --- 1000.000001000.000001000.000001000.000001000.00000
     Eigenvalues --- 1000.000001000.000001000.000001000.000001000.00000
     Eigenvalues --- 1000.000001000.000001000.000001000.000001000.00000
     Eigenvalues --- 1000.000001000.000001000.000001000.000001000.00000
     Eigenvalues --- 1000.000001000.000001000.000001000.000001000.00000
     Eigenvalues --- 1000.000001000.000001000.000001000.000001000.00000
     Eigenvalues --- 1000.000001000.000001000.000001000.000001000.00000
     Eigenvalues --- 1000.000001000.000001000.000001000.000001000.00000
     Eigenvalues --- 1000.000001000.000001000.000001000.000001000.00000
     Eigenvalues --- 1000.000001000.000001000.000001000.000001000.00000
     Eigenvalues --- 1000.000001000.000001000.000001000.000001000.00000
     Eigenvalues --- 1000.000001000.000001000.000001000.000001000.00000
     Eigenvalues --- 1000.000001000.000001000.000001000.000001000.00000
     Eigenvalues --- 1000.000001000.000001000.000001000.000001000.00000
     Eigenvalues --- 1000.000001000.000001000.000001000.000001000.00000
 RFO step:  Lambda=-8.13222283D-03 EMin= 5.50180800D-03
 Linear search not attempted -- first point.
 Iteration  1 RMS(Cart)=  0.19511185 RMS(Int)=  0.00541127
 Iteration  2 RMS(Cart)=  0.02937515 RMS(Int)=  0.00018385
 Iteration  3 RMS(Cart)=  0.00017889 RMS(Int)=  0.00015617
 Iteration  4 RMS(Cart)=  0.00000005 RMS(Int)=  0.00015617
 Iteration  1 RMS(Cart)=  0.00015040 RMS(Int)=  0.00002791
 Iteration  2 RMS(Cart)=  0.00007979 RMS(Int)=  0.00003120
 Iteration  3 RMS(Cart)=  0.00004232 RMS(Int)=  0.00003513
 Iteration  4 RMS(Cart)=  0.00002245 RMS(Int)=  0.00003763
 Iteration  5 RMS(Cart)=  0.00001191 RMS(Int)=  0.00003906
 Iteration  6 RMS(Cart)=  0.00000632 RMS(Int)=  0.00003984
 Iteration  7 RMS(Cart)=  0.00000335 RMS(Int)=  0.00004026
 Iteration  8 RMS(Cart)=  0.00000178 RMS(Int)=  0.00004048
 Iteration  9 RMS(Cart)=  0.00000094 RMS(Int)=  0.00004060
 Variable       Old X    -DE/DX   Delta X   Delta X   Delta X     New X
                                 (Linear)    (Quad)   (Total)
    R1        2.88042  -0.00072   0.00000  -0.00329  -0.00340   2.87702
    R2        2.86501   0.00014   0.00000  -0.00029  -0.00043   2.86458
    R3        2.05501   0.00318   0.00000   0.00886   0.00886   2.06386
    R4        2.05238   0.00273   0.00000   0.00757   0.00757   2.05995
    R5        2.65532   0.00270   0.00000   0.00655   0.00668   2.66200
    R6        2.66675  -0.00222   0.00000  -0.00497  -0.00497   2.66178
    R7        2.89528  -0.00065   0.00000  -0.00132  -0.00118   2.89410
    R8        2.03631   0.00727   0.00000   0.01961   0.01961   2.05591
    R9        2.88478  -0.00158   0.00000  -0.00492  -0.00484   2.87993
   R10        2.88102  -0.00085   0.00000  -0.00216  -0.00209   2.87893
   R11        2.68485  -0.00287   0.00000  -0.00664  -0.00664   2.67821
   R12        2.04739   0.00594   0.00000   0.01631   0.01631   2.06370
   R13        2.88539  -0.00093   0.00000  -0.00316  -0.00317   2.88222
   R14        2.05160   0.00245   0.00000   0.00677   0.00677   2.05837
   R15        2.04978   0.00536   0.00000   0.01480   0.01480   2.06458
   R16        2.67740   0.00373   0.00000   0.00839   0.00831   2.68571
   R17        2.67141   0.00310   0.00000   0.00691   0.00696   2.67837
   R18        2.87378   0.00063   0.00000   0.00144   0.00137   2.87515
   R19        2.04354   0.00431   0.00000   0.01176   0.01176   2.05530
   R20        2.05532   0.00622   0.00000   0.01732   0.01732   2.07264
   R21        2.69220   0.00279   0.00000   0.00666   0.00667   2.69887
   R22        2.04315   0.00746   0.00000   0.02036   0.02036   2.06351
   R23        2.04365   0.00454   0.00000   0.01238   0.01238   2.05603
   R24        2.89705  -0.00083   0.00000  -0.00268  -0.00273   2.89432
   R25        2.04731   0.00589   0.00000   0.01618   0.01618   2.06349
   R26        2.05132   0.00308   0.00000   0.00852   0.00852   2.05984
   R27        2.04429   0.00901   0.00000   0.02462   0.02462   2.06891
   R28        2.04285   0.00517   0.00000   0.01410   0.01410   2.05695
   R29        2.05415   0.00311   0.00000   0.00865   0.00865   2.06280
   R30        2.05220   0.00297   0.00000   0.00822   0.00822   2.06042
   R31        2.05345   0.00360   0.00000   0.01000   0.01000   2.06345
   R32        2.04474   0.00435   0.00000   0.01189   0.01189   2.05663
    A1        1.91377  -0.00093   0.00000  -0.00486  -0.00504   1.90872
    A2        1.91688   0.00053   0.00000  -0.00100  -0.00094   1.91594
    A3        1.94552  -0.00034   0.00000  -0.00098  -0.00093   1.94460
    A4        1.91761   0.00032   0.00000   0.00007   0.00010   1.91771
    A5        1.89281   0.00041   0.00000   0.00350   0.00356   1.89637
    A6        1.87675   0.00004   0.00000   0.00349   0.00346   1.88021
    A7        1.95320   0.00102   0.00000  -0.01093  -0.01158   1.94163
    A8        1.98607   0.00366   0.00000   0.00940   0.00871   1.99478
    A9        1.81310  -0.00105   0.00000   0.01175   0.01166   1.82476
   A10        2.04453  -0.00690   0.00000  -0.04179  -0.04213   2.00240
   A11        1.75438   0.00307   0.00000   0.02686   0.02737   1.78175
   A12        1.87929   0.00081   0.00000   0.01665   0.01669   1.89598
   A13        1.92323  -0.00018   0.00000  -0.01160  -0.01193   1.91131
   A14        2.00721  -0.00040   0.00000  -0.01218  -0.01309   1.99412
   A15        1.87221   0.00086   0.00000   0.01646   0.01652   1.88872
   A16        2.01398  -0.00164   0.00000  -0.02382  -0.02441   1.98957
   A17        1.85216   0.00017   0.00000   0.01035   0.01050   1.86266
   A18        1.77646   0.00163   0.00000   0.03067   0.03094   1.80740
   A19        1.89655   0.00117   0.00000  -0.00204  -0.00207   1.89448
   A20        1.93315   0.00007   0.00000   0.00228   0.00227   1.93543
   A21        1.91545  -0.00076   0.00000  -0.00121  -0.00119   1.91425
   A22        1.90417  -0.00039   0.00000   0.00232   0.00235   1.90651
   A23        1.94631  -0.00030   0.00000  -0.00117  -0.00118   1.94513
   A24        1.86846   0.00017   0.00000  -0.00007  -0.00007   1.86839
   A25        1.97595  -0.00461   0.00000  -0.02640  -0.02632   1.94963
   A26        1.93704   0.00228   0.00000   0.01045   0.01051   1.94755
   A27        1.85571  -0.00132   0.00000  -0.00387  -0.00386   1.85185
   A28        1.90160   0.00054   0.00000   0.00565   0.00564   1.90724
   A29        1.94475  -0.00031   0.00000  -0.00241  -0.00242   1.94233
   A30        1.93104  -0.00178   0.00000  -0.01062  -0.01068   1.92035
   A31        1.89138   0.00061   0.00000   0.00115   0.00112   1.89250
   A32        1.97512   0.00278   0.00000   0.01040   0.01038   1.98550
   A33        1.92420  -0.00189   0.00000  -0.00790  -0.00793   1.91627
   A34        1.94055  -0.00042   0.00000  -0.00494  -0.00495   1.93561
   A35        1.91339   0.00010   0.00000   0.00357   0.00361   1.91700
   A36        1.82727  -0.00110   0.00000  -0.00034  -0.00032   1.82695
   A37        1.87889   0.00051   0.00000  -0.00076  -0.00081   1.87808
   A38        1.89636   0.00130   0.00000   0.00023   0.00035   1.89670
   A39        1.93388  -0.00104   0.00000  -0.00857  -0.00855   1.92533
   A40        1.91763  -0.00069   0.00000  -0.00310  -0.00321   1.91442
   A41        1.90468  -0.00047   0.00000   0.00043   0.00034   1.90503
   A42        1.93038   0.00051   0.00000   0.00871   0.00871   1.93910
   A43        1.88109   0.00037   0.00000   0.00234   0.00232   1.88341
   A44        1.89975   0.00169   0.00000   0.01177   0.01194   1.91169
   A45        1.94887  -0.00243   0.00000  -0.01791  -0.01799   1.93088
   A46        1.94051  -0.00075   0.00000  -0.00785  -0.00806   1.93245
   A47        1.89873   0.00123   0.00000   0.00998   0.01004   1.90877
   A48        1.86675  -0.00014   0.00000   0.00871   0.00866   1.87540
   A49        1.90696   0.00055   0.00000  -0.00304  -0.00326   1.90370
   A50        1.93028  -0.00137   0.00000  -0.00726  -0.00737   1.92291
   A51        1.90383   0.00019   0.00000   0.00009   0.00017   1.90400
   A52        1.90735   0.00070   0.00000   0.00342   0.00339   1.91074
   A53        1.91905   0.00069   0.00000   0.00009   0.00009   1.91914
   A54        1.92746  -0.00009   0.00000   0.00067   0.00074   1.92820
   A55        1.87487  -0.00007   0.00000   0.00331   0.00329   1.87816
   A56        2.15593  -0.00560   0.00000  -0.02548  -0.02509   2.13083
   A57        2.30057  -0.03190   0.00000  -0.12356  -0.12356   2.17701
   A58        2.01417  -0.00124   0.00000  -0.00970  -0.00958   2.00459
   A59        1.84298   0.00065   0.00000   0.01413   0.01412   1.85710
   A60        1.90047   0.00009   0.00000  -0.01032  -0.01060   1.88987
   A61        1.87562   0.00086   0.00000   0.01152   0.01150   1.88712
   A62        1.96103  -0.00020   0.00000  -0.00760  -0.00789   1.95314
   A63        1.85932  -0.00000   0.00000   0.00523   0.00534   1.86466
    D1        1.02376   0.00024   0.00000   0.00667   0.00664   1.03040
    D2        3.11520   0.00055   0.00000   0.00961   0.00959   3.12479
    D3       -1.10865   0.00033   0.00000   0.01017   0.01015  -1.09850
    D4       -1.08506   0.00010   0.00000   0.01028   0.01028  -1.07478
    D5        1.00638   0.00041   0.00000   0.01323   0.01323   1.01961
[...]
 0000975,-0.00003885,0.00000414,0.00000047,-0.00000018,0.00000062,0.000
 00201,-0.00000217,-0.00013244,0.00025073,0.00006462,0.00000676,-0.0000
 0126,-0.00000041,0.00000533,-0.00000994,0.00000487,-0.00019059,0.00032
 515,0.00012471,-0.00022900,0.00041010,0.00116796,0.00000283,-0.0000105
 0,0.00000110,0.00000867,0.00000058,-0.00000016,-0.00139163,0.00011704,
 0.00067004,0.00053535,-0.00024606,0.00037866,-0.13041862,-0.05963361,0
 .19824507,0.00001113,-0.00000778,0.00001566,0.00117711,0.00037415,-0.0
 0053786,-0.00353072,0.00396453,0.00252003,0.00000135,0.00003565,0.0000
 2957,0.00144445,-0.00015879,-0.00005176,-0.00204627,-0.00068337,-0.000
 39270,0.00000814,0.00010178,-0.00010943,-0.01209168,-0.01198591,-0.027
 28393,0.00016653,0.00067864,0.00014376,-0.07595213,-0.03264518,-0.0775
 1723,-0.00031185,-0.00036882,0.00007076,-0.00254505,-0.00057524,-0.002
 20485,-0.00002572,-0.00007632,0.00005485,-0.00000949,0.00000368,-0.000
 00122,-0.00000820,-0.00001043,0.00001245,0.00020302,0.00007819,-0.0001
 8818,-0.00001639,-0.00001536,0.00003182,0.00000561,0.00001127,-0.00003
 407,-0.00002590,-0.00039944,0.00003170,0.00012572,0.00010181,0.0000722
 2,0.00001405,0.00000090,0.00001319,-0.00001980,-0.00002870,0.00001426,
 0.00116816,-0.00056331,0.00045282,0.00130630,0.00010974,0.00049126,0.0
 0735170,0.00831068,0.01732287,0.08362720,-0.00000038,0.00000415,-0.000
 01048,-0.00030019,-0.00018549,0.00025501,0.00225764,-0.00099683,-0.000
 12142,0.00001606,-0.00000667,0.00001338,-0.00259260,-0.00962783,-0.002
 76122,-0.01101122,-0.00569105,-0.02950184,0.00002555,-0.00006618,0.000
 02316,0.00428749,0.00527185,0.01281882,0.00217122,-0.00063595,0.000668
 55,-0.03287471,-0.08215149,-0.08145377,0.00006114,0.00014818,-0.000010
 41,0.00129951,0.00047649,0.00082767,0.00000116,0.00003194,-0.00001233,
 -0.00000108,0.00000191,0.00000452,0.00000205,0.00000090,-0.00000186,0.
 00006803,-0.00023129,-0.00024648,-0.00000993,0.00001148,-0.00000684,-0
 .00000843,-0.00000161,-0.00000880,0.00084048,0.00094711,0.00025081,-0.
 00034306,0.00124208,0.00075309,-0.00000300,0.00003408,-0.00001076,-0.0
 0001250,0.00001776,-0.00000741,-0.00056116,0.00031610,-0.00037998,-0.0
 0087820,0.00037429,0.00009106,0.00410902,0.00319417,0.00838788,0.03392
 940,0.08722738,0.00000058,0.00000534,0.00000836,0.00049373,0.00016886,
 -0.00024269,-0.00029104,0.00083503,0.00147717,0.00000933,0.00000399,0.
 00000938,-0.00021680,-0.00008941,0.00148766,0.00149379,0.00142259,0.00
 078491,0.00001088,0.00004431,-0.00005729,-0.00074930,-0.00110709,-0.00
 389081,0.00034605,0.00041378,0.00000886,-0.07895328,-0.08300945,-0.252
 91009,-0.00016012,-0.00019100,0.00002472,-0.00094100,-0.00028873,-0.00
 015472,-0.00002628,0.00000280,0.00002127,-0.00000984,-0.00000061,-0.00
 000168,-0.00000554,-0.00000851,0.00000635,0.00000815,0.00021203,0.0004
 1308,-0.00001647,-0.00000347,0.00001646,-0.00000633,0.00002210,-0.0000
 2754,-0.00003222,-0.00047428,0.00011384,0.00003863,-0.00056906,0.00030
 619,0.00001083,0.00001088,0.00000682,-0.00001572,-0.00001220,0.0000034
 7,-0.00018983,0.00014869,0.00064369,0.00001632,0.00024359,-0.00005686,
 -0.00758060,-0.00817368,-0.01912973,0.08690828,0.09056017,0.27117152,0
 .00083893,-0.00085864,0.00042626,-0.00553507,0.00083734,-0.00179893,0.
 00093934,-0.00040719,-0.00023808,-0.00079736,0.00024840,-0.00108457,-0
 .00014733,0.00011992,-0.00002567,-0.00003352,-0.00006063,0.00003586,-0
 .00008952,-0.00018205,0.00012367,-0.00019320,0.00035599,-0.00064398,0.
 00008088,-0.00012831,-0.00003209,0.00007185,-0.00008487,0.00024027,0.0
 0028785,0.00054737,0.00031326,0.00029351,0.00061724,0.00227792,-0.2623
 1972,0.10200018,0.01009130,0.00020709,0.00016440,0.00029680,0.00026800
 ,0.00001202,-0.00002257,-0.00007267,0.00003142,0.00005175,0.00056735,0
 .00006103,-0.00039895,0.00107808,-0.00053622,-0.00013771,-0.00001558,0
 .00004130,-0.00000745,0.00002414,-0.00000552,-0.00000956,-0.00004244,0
 .00004492,-0.00007394,0.00001193,0.00001896,0.00004639,-0.00010491,-0.
 00010855,0.00034032,0.00006033,0.00002259,-0.00002633,-0.00012058,0.00
 005535,0.00000694,-0.00003431,0.00000198,-0.00003303,0.28283919,0.0015
 7550,0.00085395,-0.00021998,0.00961339,-0.00517581,0.00103361,-0.00027
 895,-0.00006106,-0.00016009,0.02432102,-0.01497441,0.00240859,0.000132
 35,-0.00000163,0.00000779,-0.00007062,-0.00006844,-0.00003035,0.000144
 61,0.00009349,-0.00026493,-0.00041017,0.00026090,-0.00038279,-0.000127
 80,-0.00001553,0.00011515,-0.00000284,-0.00001499,0.00019716,-0.000897
 59,-0.00009379,-0.00083005,-0.00022600,0.00070606,-0.00088536,0.101349
 02,-0.09627188,-0.00747779,-0.00077013,-0.00039201,-0.00009877,-0.0003
 0181,0.00040788,0.00011143,0.00002003,0.00001055,0.00003222,-0.0004487
 7,0.00129754,-0.00046899,-0.00080933,-0.00336652,0.00340151,0.00000851
 ,0.00002633,-0.00000105,-0.00000125,0.00001615,-0.00000637,-0.00004998
 ,0.00006179,0.00009046,-0.00001432,-0.00001422,-0.00002371,-0.00026284
 ,-0.00017645,0.00023044,0.00009912,0.00006160,-0.00006866,-0.00007061,
 0.00002984,0.00000156,0.00000143,-0.00000388,-0.00000867,-0.11171074,0
 .10453785,-0.00041130,-0.00114288,0.00033079,0.02997468,-0.01227935,-0
 .00324417,-0.00155774,0.00041012,-0.00115526,-0.02098087,0.01270880,-0
 .00200446,0.00008090,-0.00018143,0.00012894,-0.00001424,-0.00002098,-0
 .00010931,0.00009520,0.00017591,-0.00038321,-0.00013715,0.00007389,-0.
 00004439,0.00021033,0.00024094,-0.00000903,-0.00008426,0.00002247,0.00
 016644,-0.00167872,-0.00011257,-0.00044982,0.00368325,-0.00128335,-0.0
 0663573,0.00713771,-0.00674913,-0.04519576,0.00043247,-0.00006791,0.00
 018562,0.00009065,-0.00028454,-0.00011645,0.00031882,-0.00011116,0.000
 18164,-0.00045867,-0.00065027,0.00079485,0.00031408,0.00411046,-0.0020
 5995,0.00000525,0.00000158,0.00001456,0.00000958,-0.00001000,0.0000166
 3,0.00002989,-0.00002897,-0.00001495,-0.00001922,-0.00006429,0.0001067
 1,0.00013651,0.00006070,0.00018532,0.00000172,0.00001966,0.00001478,-0
 .00004885,0.00001724,-0.00001416,0.00003580,-0.00001079,0.00001101,-0.
 01089089,0.00120140,0.05943049,0.00058301,0.00017357,0.00018637,0.0022
 2528,0.00522847,0.00290717,0.00035655,0.00024561,0.00021842,0.00145681
 ,0.00245784,0.00127416,0.00008749,-0.00004935,0.00001838,0.00004993,0.
 00002470,-0.00000849,-0.00011597,-0.00007757,0.00030571,-0.00221747,0.
 00121250,-0.00073399,-0.00011000,0.00010862,-0.00006215,-0.00019404,-0
 .00005899,0.00028188,0.00064472,0.00158501,0.00163587,0.00101093,0.000
 58460,0.00034961,-0.17124008,-0.13184514,-0.04796134,0.00040291,0.0001
 7233,0.00012114,0.00025646,-0.00018230,-0.00018540,0.00001286,-0.00007
 955,-0.00009407,-0.00005498,-0.00029533,0.00027615,0.00012743,-0.00021
 268,0.00048404,0.00001637,-0.00003332,-0.00001032,-0.00001281,0.000012
 53,0.00000363,0.00001478,0.00001101,-0.00003351,0.00000222,-0.00002441
 ,-0.00005481,-0.00253536,0.00113137,-0.00016192,-0.00019292,-0.0002559
 6,-0.00009790,-0.00001812,0.00001052,-0.00000318,0.00005136,-0.0000202
 2,0.00002290,-0.01919130,-0.01995336,-0.00759065,0.18850492,0.00117616
 ,-0.00274699,0.00454949,-0.00680291,-0.00864991,-0.00240427,0.00042941
 ,-0.00051201,-0.00052837,-0.01627398,-0.01586826,-0.00712856,0.0000191
 5,0.00013685,-0.00000156,-0.00010160,-0.00014154,-0.00002922,-0.000060
 06,0.00076815,0.00030419,-0.00021355,0.00078607,-0.00079539,-0.0000629
 7,-0.00018105,0.00008902,-0.00002080,-0.00005976,0.00049084,-0.0000444
 4,-0.00017830,-0.00244191,-0.00020140,0.00129356,0.00182593,-0.1277723
 1,-0.17927399,-0.04734343,-0.00014219,0.00020133,-0.00001821,-0.000953
 75,-0.00101205,-0.00073288,0.00000560,0.00006123,0.00015054,0.00015876
 ,0.00088409,-0.00001998,0.00034169,0.00070638,-0.00066258,-0.00001025,
 0.00007168,0.00000029,0.00002773,0.00000044,-0.00000953,0.00006417,-0.
 00009222,0.00001564,-0.00001200,-0.00001443,-0.00008416,0.00070143,-0.
 00063992,0.00070713,0.00003473,0.00001042,-0.00006687,-0.00022061,0.00
 009483,0.00000467,-0.00002296,-0.00000023,-0.00004474,0.00942939,0.011
 04817,0.00428742,0.14040979,0.19352574,-0.00059333,0.00375802,-0.00336
 142,-0.02232139,-0.02156884,-0.00561043,0.00064055,-0.00050848,-0.0004
 3503,0.01672537,0.01436276,0.00739512,0.00000266,0.00004091,0.00000797
 ,-0.00005447,-0.00002898,-0.00001524,0.00031160,0.00173452,-0.00116698
 ,-0.00002974,-0.00003763,-0.00001820,-0.00004652,-0.00003742,0.0000261
 9,0.00008330,0.00005583,0.00008292,0.00039647,-0.00420913,-0.00656825,
 -0.00029167,0.00068690,0.00270980,-0.04481003,-0.04672379,-0.06563653,
 -0.00012590,-0.00016275,-0.00010335,0.00077451,0.00130942,0.00060266,0
 .00000875,0.00002283,0.00003362,0.00016881,-0.00097552,0.00065161,-0.0
 0053912,-0.00076223,0.00074372,-0.00000105,0.00002757,0.00000334,0.000
 00808,0.00000053,-0.00000237,0.00000760,-0.00016788,0.00016613,-0.0000
 7087,-0.00013467,0.00023303,-0.00074756,0.00036312,0.00020323,0.000166
 10,0.00012804,-0.00004352,-0.00003861,0.00001205,0.00000902,-0.0000171
 3,-0.00000128,-0.00001230,0.00094287,0.00142401,-0.00023205,0.04912058
 ,0.05043236,0.07065051,-0.00001922,0.00006053,-0.00010019,-0.10535384,
 0.08953955,-0.07822642,0.00062991,-0.00042247,0.00441001,0.00088310,-0
 .00034541,0.00061880,-0.00052214,0.00082759,-0.00042762,0.00009929,-0.
 00002132,0.00034209,0.00200514,-0.00196848,-0.00069936,-0.00026819,0.0
 0034991,0.00029554,-0.00043697,-0.00102661,0.00007907,0.00010123,-0.00
 023852,-0.00033908,0.00519102,-0.01680198,0.00580823,-0.04995016,0.019
 63823,-0.01309057,0.00287237,-0.00051721,0.00396199,-0.00005153,0.0000
 7701,0.00003711,0.00001664,0.00005037,0.00001760,-0.00134649,0.0004637
 3,-0.00025972,-0.00001282,0.00012503,0.00002967,0.00001671,-0.00023204
 ,0.00018137,-0.00004137,0.00002863,-0.00003434,0.00002428,-0.00000302,
 -0.00004890,-0.00009168,-0.00071608,0.00061453,-0.00000952,-0.00004264
 ,-0.00004891,0.00001087,-0.00003723,-0.00011732,0.00001000,-0.00010221
 ,-0.00004848,0.00001993,0.00000399,0.00002110,-0.00015088,0.00006512,-
 0.00008457,0.00114911,-0.00082253,0.00133007,0.00008993,0.00014830,0.0
 0035374,0.14511961,0.00004303,-0.00023708,-0.00002478,0.08959172,-0.15
 103248,0.09472946,-0.00130906,0.00292340,-0.00026224,-0.00047781,-0.00
 051557,-0.00164259,0.00002387,0.00021930,-0.00004178,0.00000567,-0.000
 00638,-0.00001688,0.00359378,-0.00083433,-0.00560020,0.00027896,-0.000
 12078,0.00008000,-0.00047556,-0.00016213,-0.00000540,0.00001354,0.0000
 3577,0.00007405,-0.00241397,-0.04510563,0.01737051,0.00138992,0.003778
 18,0.00051966,-0.00098494,0.00826480,-0.00583320,-0.00006809,0.0001270
 7,0.00008215,0.00000002,0.00012130,0.00018703,0.00012280,-0.00004933,0
 .00008232,0.00010994,0.00035785,-0.00039231,-0.00003338,0.00010735,-0.
 00013620,0.00000601,-0.00000088,0.00000347,-0.00000825,0.00000011,-0.0
 0000164,-0.00011539,-0.00132012,0.00108234,-0.00022182,-0.00065512,0.0
 0044779,0.00001174,-0.00000488,-0.00000312,-0.00000393,-0.00001060,-0.
 00001173,-0.00000001,0.00000035,-0.00000261,0.00002050,-0.00000763,0.0
 0000594,-0.00048975,0.00109622,-0.00024241,-0.00025167,-0.00027127,0.0
 0094758,-0.08830152,0.18328660,-0.00040674,-0.00034456,0.00009271,-0.0
 8483137,0.10257530,-0.14477683,0.00216228,-0.00005555,0.00077186,0.000
 21390,-0.00376756,-0.00376004,-0.00001528,-0.00022600,0.00010048,-0.00
 000955,0.00002563,-0.00006809,0.00016463,-0.00160988,0.00012040,0.0004
 8347,-0.00022788,-0.00014398,0.00034905,0.00031682,-0.00016182,-0.0000
 2223,0.00011156,0.00022613,0.00288938,-0.00864526,0.00985448,0.0141590
 5,-0.00667769,0.00856051,-0.01093042,0.01878415,-0.02225101,0.00011969
 ,0.00001739,0.00006885,0.00004440,0.00015499,0.00008557,0.00017318,-0.
 00003139,0.00001509,0.00028620,0.00124672,-0.00109234,-0.00016098,0.00
 007007,0.00004282,0.00000058,-0.00000338,0.00000828,0.00000318,-0.0000
 1040,0.00000918,-0.00007590,-0.00027791,0.00011828,-0.00006717,-0.0000
 8021,0.00014189,0.00008159,0.00001240,0.00013500,-0.00002666,0.0000230
 8,0.00002187,-0.00003515,0.00001267,-0.00000714,0.00006404,-0.00003383
 ,0.00002417,0.00018063,0.00065500,0.00006911,-0.00022778,-0.00051346,-
 0.00030120,0.07550349,-0.10135393,0.15199809,-0.00020315,0.00000434,0.
 00013144,0.00007387,0.00011050,0.00018355,0.00248358,-0.00069160,-0.00
 005058,-0.00006797,0.00032931,0.00107190,-0.04153393,-0.00176985,0.020
 28856,0.00160959,0.00081753,0.00597022,-0.00266743,-0.00072206,-0.0009
 7456,-0.00015015,-0.00021741,0.00020411,-0.11720048,-0.03992747,0.1047
 4839,-0.00027025,-0.00009308,-0.00070110,0.00046437,-0.00094299,0.0005
 8116,0.00112247,-0.00145349,0.00052908,0.00013313,-0.00006353,-0.00002
 880,0.00002577,-0.00005586,-0.00002782,0.00002109,-0.00002490,0.000009
 15,0.00019469,0.00096575,-0.00011253,-0.00018554,-0.00000169,-0.000032
 37,-0.00121187,0.00128056,0.00140129,0.00034946,0.00023566,-0.00042439
 ,0.00062362,0.00004975,-0.00136814,-0.00448361,-0.00131855,-0.00111491
 ,-0.00012158,0.00013180,0.00000263,-0.00006736,-0.00033167,-0.00018233
 ,0.00005635,0.00002790,-0.00008596,0.00004495,0.00012359,0.00001887,0.
 00006353,-0.00025347,-0.00007501,-0.00000683,-0.00005240,0.00000573,-0
 .00001214,-0.00001915,-0.00000420,0.00001265,-0.00002202,-0.00004031,0
 .15357611,0.00017362,0.00014352,-0.00001089,-0.00010124,-0.00042136,0.
 00073558,-0.02186059,-0.00992836,0.02796445,0.00083452,-0.00023741,0.0
 0018779,0.01359584,0.00545263,-0.00912622,-0.00123388,-0.00037809,-0.0
 0144331,-0.00053599,-0.00007742,-0.00015135,0.00027020,0.00200596,0.00
 155301,-0.04094803,-0.07256557,0.05634062,-0.00002928,-0.00013365,0.00
 013258,0.00078919,0.00008614,0.00035885,0.00149882,0.00107649,-0.00158
 148,0.00004190,-0.00026763,0.00000350,-0.00009624,-0.00006876,-0.00006
 055,-0.00001663,-0.00005456,0.00001285,-0.00024535,-0.00634932,0.00049
 201,-0.00032571,0.00012591,-0.00001180,0.00069239,-0.00016374,-0.00132
 847,-0.00000232,-0.00008633,-0.00006098,-0.00057547,-0.00006832,0.0003
 0148,-0.00206122,0.00008740,-0.00042921,-0.00012519,0.00004799,-0.0000
 6170,0.00012600,-0.00001005,-0.00080217,0.00045930,0.00026698,-0.00019
 268,0.00014809,-0.00000257,-0.00000231,-0.00005788,0.00013026,-0.00003
 537,-0.00005984,0.00009593,-0.00009531,0.00002156,-0.00000329,-0.00001
 166,0.00014030,0.00000433,-0.00010429,0.04124031,0.07634653,0.00016473
 ,-0.00008497,0.00023716,0.00062303,0.00133809,-0.00045479,0.00334842,-
 0.00004660,-0.00351008,0.00016875,-0.00030866,-0.00112262,-0.00199469,
 -0.00292832,0.00709833,-0.00251986,-0.00045185,0.00340735,-0.00035118,
 0.00192657,0.00021779,-0.00065804,-0.00052464,0.00074862,0.10781943,0.
 05558838,-0.21449471,0.00008321,-0.00015707,-0.00018551,-0.00010030,-0
 .00070855,-0.00011678,-0.00153115,0.00052900,0.00030671,-0.00036919,0.
 00023618,0.00009434,0.00009420,-0.00008868,-0.00017629,-0.00001314,0.0
 0004642,-0.00005403,-0.00022523,0.00076882,0.00111047,0.00025502,-0.00
 013068,-0.00002361,0.00190796,-0.00155502,-0.00126825,0.00002878,-0.00
 004058,0.00031575,0.00110737,0.00070243,0.00068902,0.00043578,-0.00116
 779,0.00061661,0.00063130,-0.00038307,0.00005886,0.00032674,0.00027025
 ,0.00062629,-0.00016335,0.00008805,0.00005376,-0.00000607,0.00009914,-
 0.00025030,0.00008377,-0.00002693,-0.00000236,0.00002518,0.00003886,0.
 00000490,0.00002905,-0.00005902,-0.00003750,-0.00011880,-0.00010098,0.
 00008773,-0.12273737,-0.06074838,0.22444576,0.00014934,0.00002976,0.00
 007517,0.00007222,0.00031016,0.00022476,-0.00001960,-0.00177841,-0.000
 22284,0.00013567,-0.00004826,0.00023706,-0.02103963,-0.01325491,-0.034
 21266,-0.00434634,0.00292228,0.00279015,-0.00022172,0.00032911,-0.0000
 8181,0.00063374,0.00100340,0.00035538,-0.07122961,-0.03696414,-0.05950
 061,-0.00033565,0.00007916,-0.00052871,-0.00019563,-0.00027751,-0.0000
 2754,0.00097567,-0.00021511,0.00055205,-0.00003065,-0.00007362,-0.0000
 0036,-0.00000182,-0.00003541,-0.00005352,-0.00000396,-0.00000517,-0.00
 000847,0.00008572,0.00004319,-0.00036488,-0.00012831,0.00004244,-0.000
 01385,-0.00008314,0.00005661,-0.00012840,-0.00069710,-0.00062837,-0.00
 144485,0.00020399,0.00008637,-0.00042994,0.00024847,-0.00023134,0.0001
 9141,0.00007224,-0.00003417,-0.00001703,-0.00001754,-0.00012960,-0.000
 35877,0.00033004,0.00015344,0.00006472,0.00001397,-0.00002298,0.000052
 88,0.00004301,-0.00026569,0.00002750,-0.00001322,0.00001705,-0.0000200
 8,0.00000123,-0.00001139,-0.00001939,0.00000300,-0.00003433,-0.0000292
 1,0.00732703,0.00824283,0.01365566,0.08806860,0.00006535,-0.00001025,0
 .00002215,0.00016611,-0.00071657,-0.00004660,-0.01070192,-0.01491849,-
 0.02989927,-0.00000015,0.00001288,0.00011991,0.00563183,0.00755906,0.0
 1286607,0.00262122,-0.00046751,0.00062424,0.00014217,0.00033268,-0.000
 19844,0.00055675,-0.00640174,0.00280629,-0.04195300,-0.11035883,-0.106
 19525,0.00073486,0.00003029,0.00044459,-0.00016058,0.00020340,0.000255
 51,0.00004685,0.00320531,0.00073229,-0.00005251,-0.00003791,-0.0000249
 8,0.00000173,-0.00000088,-0.00001458,-0.00000252,0.00000425,0.00001118
 ,-0.00009800,0.00149398,0.00037145,-0.00003797,0.00001965,-0.00000265,
 -0.00005485,-0.00003841,-0.00002930,0.00046895,0.00039305,0.00045218,-
 0.00002058,-0.00006904,-0.00021592,0.00021561,-0.00008126,0.00003705,0
 .00000555,-0.00002980,0.00000055,0.00014791,0.00011413,0.00005448,-0.0
 0087355,-0.00102953,-0.00178227,-0.00011853,0.00006917,0.00000343,-0.0
 0012285,0.00017598,-0.00008384,0.00002250,0.00002637,0.00000477,-0.000
 05018,0.00005628,0.00002383,0.00008098,0.00001158,-0.00004263,0.002644
 20,0.00494637,0.00787959,0.04069460,0.11550580,-0.00018227,-0.00000840
 ,-0.00007098,-0.00034965,-0.00076426,-0.00023542,0.00150315,0.00321338
 ,0.00419155,-0.00029329,0.00003432,-0.00027925,-0.00515086,-0.00005508
 ,-0.00341325,-0.00047978,0.00126081,0.00211788,0.00033912,0.00001863,-
 0.00005963,-0.00017886,0.00077010,0.00080476,-0.06826675,-0.10361107,-
 0.23849449,0.00011503,0.00007270,-0.00010105,-0.00069680,0.00037700,0.
 00022590,0.00145850,-0.00095599,0.00062048,0.00008569,0.00008428,-0.00
 005449,0.00002007,0.00006780,0.00010016,0.00000945,0.00001443,0.000017
 09,-0.00004035,-0.00057151,0.00061874,0.00015009,-0.00004280,0.0000256
 1,0.00012958,-0.00009687,0.00017057,-0.00036662,-0.00036209,-0.0001767
 8,0.00009679,-0.00001029,0.00040496,0.00018545,0.00023122,-0.00045153,
 -0.00009137,0.00003672,0.00001176,0.00003495,0.00020809,0.00032057,-0.
 00009866,0.00010573,0.00023072,-0.00000700,-0.00003535,0.00001855,-0.0
 0003078,-0.00004770,-0.00005284,0.00002432,-0.00002165,0.00002690,-0.0
 0000956,0.00002661,0.00002553,0.00003988,0.00005969,0.00000995,-0.0071
 8570,-0.01182461,-0.01842263,0.07923621,0.11182618,0.25187067\\0.00000
 081,-0.00000676,0.00000284,-0.00001970,-0.00000822,-0.00001616,-0.0000
 2707,-0.00000155,-0.00001299,-0.00000412,0.00000753,0.00000663,0.00000
 667,-0.00000485,0.00000131,-0.00000499,0.00000135,-0.00000051,0.000000
 64,0.00000227,0.00001198,0.00000181,-0.00000277,-0.00000548,0.00000954
 ,-0.00000354,-0.00000004,0.00000141,-0.00000089,0.00000183,0.00000575,
 -0.00000471,0.00000382,0.00002357,0.00000528,0.00001513,0.00000500,0.0
 0000307,-0.00000624,-0.00000112,0.00000483,0.00000202,-0.00000259,0.00
 000214,0.00000748,0.00000493,-0.00000626,-0.00000377,0.00000151,0.0000
 0535,-0.00000079,0.00000305,-0.00000191,-0.00000212,0.00000296,0.00000
 096,0.00000154,-0.00000076,0.00000263,0.00000738,0.00000406,-0.0000043
 8,0.00000822,0.00000027,-0.00000354,0.00000432,-0.00000292,0.00000184,
 -0.00000305,0.00000195,0.00000425,-0.00000645,0.00000080,0.00000034,-0
 .00000689,-0.00000094,0.00000749,-0.00000324,-0.00000324,0.00000174,-0
 .00000292,0.00000125,0.00000202,-0.00000684,-0.00000467,-0.00000011,-0
 .00000679,-0.00000262,0.00000309,0.00000877,-0.00000121,-0.00000667,0.
 00000103\\\@


 Until you make peace with who you are,
 you'll never be content with what you have.
                           -- Doris Mortman
 Job cpu time:       0 days 14 hours 46 minutes 56.8 seconds.
 Elapsed time:       0 days  0 hours 55 minutes 27.7 seconds.
 File lengths (MBytes):  RWF=    681 Int=      0 D2E=      0 Chk=     32 Scr=      1
 Normal termination of Gaussian 16 at Sun Nov  4 23:16:30 2018.
