 Entering Gaussian System, Link 0=g16
 Initial command:
 /apps/gaussian/g16a03/g16/l1.exe "/jobfs/local/2011935.r-man2/Gau-19318.inp" -scrdir="/jobfs/local/2011935.r-man2/"
 Entering Link 1 = /apps/gaussian/g16a03/g16/l1.exe PID=     19319.
  
 Copyright (c) 1988,1990,1992,1993,1995,1998,2003,2009,2016,
            Gaussian, Inc.  All Rights Reserved.
  
 This is part of the Gaussian(R) 16 program.  It is based on
 the Gaussian(R) 09 system (copyright 2009, Gaussian, Inc.),
 the Gaussian(R) 03 system (copyright 2003, Gaussian, Inc.),
 the Gaussian(R) 98 system (copyright 1998, Gaussian, Inc.),
 the Gaussian(R) 94 system (copyright 1995, Gaussian, Inc.),
 the Gaussian 92(TM) system (copyright 1992, Gaussian, Inc.),
 the Gaussian 90(TM) system (copyright 1990, Gaussian, Inc.),
 the Gaussian 88(TM) system (copyright 1988, Gaussian, Inc.),
 the Gaussian 86(TM) system (copyright 1986, Carnegie Mellon
 University), and the Gaussian 82(TM) system (copyright 1983,
 Carnegie Mellon University). Gaussian is a federally registered
 trademark of Gaussian, Inc.
  
 This software contains proprietary and confidential information,
 including trade secrets, belonging to Gaussian, Inc.
  
 This software is provided under written license and may be
 used, copied, transmitted, or stored only in accord with that
 written license.
  
 The following legend is applicable only to US Government
 contracts under FAR:
  
                    RESTRICTED RIGHTS LEGEND
  
 Use, reproduction and disclosure by the US Government is
 subject to restrictions as set forth in subparagraphs (a)
 and (c) of the Commercial Computer Software - Restricted
 Rights clause in FAR 52.227-19.
  
 Gaussian, Inc.
 340 Quinnipiac St., Bldg. 40, Wallingford CT 06492
  
  
 ---------------------------------------------------------------
 Warning -- This program may not be used in any manner that
 competes with the business of Gaussian, Inc. or will provide
 assistance to any competitor of Gaussian, Inc.  The licensee
 of this program is prohibited from giving any competitor of
 Gaussian, Inc. access to this program.  By using this program,
 the user acknowledges that Gaussian, Inc. is engaged in the
 business of creating and licensing software in the field of
 computational chemistry and represents and warrants to the
 licensee that it is not a competitor of Gaussian, Inc. and that
 it will not use this program in any manner prohibited above.
 ---------------------------------------------------------------
  

 Cite this work as:
 Gaussian 16, Revision A.03,
 M. J. Frisch, G. W. Trucks, H. B. Schlegel, G. E. Scuseria, 
 M. A. Robb, J. R. Cheeseman, G. Scalmani, V. Barone, 
 G. A. Petersson, H. Nakatsuji, X. Li, M. Caricato, A. V. Marenich, 
 J. Bloino, B. G. Janesko, R. Gomperts, B. Mennucci, H. P. Hratchian, 
 J. V. Ortiz, A. F. Izmaylov, J. L. Sonnenberg, D. Williams-Young, 
 F. Ding, F. Lipparini, F. Egidi, J. Goings, B. Peng, A. Petrone, 
 T. Henderson, D. Ranasinghe, V. G. Zakrzewski, J. Gao, N. Rega, 
 G. Zheng, W. Liang, M. Hada, M. Ehara, K. Toyota, R. Fukuda, 
 J. Hasegawa, M. Ishida, T. Nakajima, Y. Honda, O. Kitao, H. Nakai, 
 T. Vreven, K. Throssell, J. A. Montgomery, Jr., J. E. Peralta, 
 F. Ogliaro, M. J. Bearpark, J. J. Heyd, E. N. Brothers, K. N. Kudin, 
 V. N. Staroverov, T. A. Keith, R. Kobayashi, J. Normand, 
 K. Raghavachari, A. P. Rendell, J. C. Burant, S. S. Iyengar, 
 J. Tomasi, M. Cossi, J. M. Millam, M. Klene, C. Adamo, R. Cammi, 
 J. W. Ochterski, R. L. Martin, K. Morokuma, O. Farkas, 
 J. B. Foresman, and D. J. Fox, Gaussian, Inc., Wallingford CT, 2016.
 
 ******************************************
 Gaussian 16:  ES64L-G16RevA.03 25-Dec-2016
                 4-Nov-2018 
 ******************************************
 %mem=6000mb
 %nproc=24
 Will use up to   24 processors via shared memory.
 %chk=D_1a_4e_D_PHI.inp_extract_17.chk
 ----------------------------------------------------------------------
 #M062X/6-311++G(2d,2p) opt=ModRedundant freq=noraman SCRF=(Solvent=Wat
 er)
 ----------------------------------------------------------------------
 1/18=120,19=15,26=3,38=1/1,3;
 2/9=110,12=2,17=6,18=5,40=1/2;
 3/5=4,6=6,7=1212,11=2,25=1,30=1,70=2201,71=1,72=1,74=-55/1,2,3;
 4//1;
 5/5=2,38=5,53=1/2;
 6/7=2,8=2,9=2,10=2,28=1/1;
 7//1,2,3,16;
 1/18=20,19=15,26=3/3(2);
 2/9=110/2;
 99//99;
 2/9=110/2;
 3/5=4,6=6,7=1212,11=2,25=1,30=1,70=2205,71=1,72=1,74=-55/1,2,3;
 4/5=5,16=3,69=1/1;
 5/5=2,38=5,53=1/2;
 7//1,2,3,16;
 1/18=20,19=15,26=3/3(-5);
 2/9=110/2;
 6/7=2,8=2,9=2,10=2,19=2,28=1/1;
 99/9=1/99;
 ----------------------------
 D_1a_4e_D_PHI.inp_extract_17
 ----------------------------
 Symbolic Z-matrix:
 Charge =  0 Multiplicity = 1
 C                    -2.70025   1.26336   0.7543 
 C                    -1.47549  -1.21108  -0.1926 
 C                     1.03013  -0.73517  -0.64676 
 C                    -2.57947   1.03971  -0.74964 
 O                     2.93933  -0.5663    0.78227 
 C                     3.13301   0.80748   0.49595 
 C                    -1.53457   0.60434   1.46684 
 C                     1.1697    0.72237  -1.07256 
 C                     1.57746  -0.94815   0.7643 
 C                     2.63245   1.14914  -0.89916 
 O                    -1.3812   -0.772     1.12771 
 O                    -0.24066  -1.31688  -0.88552 
 C                    -2.52199  -0.46121  -1.01591 
 H                    -3.63678   0.84426   1.11458 
 H                    -2.69928   2.32113   1.00095 
 H                     1.66955  -1.31822  -1.29948 
 H                    -3.42999   1.46722  -1.27163 
 H                    -1.69132   1.53525  -1.12881 
 H                     4.19465   0.9915    0.58925 
 H                     2.6157    1.40159   1.24596 
 H                    -0.61796   1.1352    1.25017 
 H                    -1.67558   0.60852   2.53869 
 H                     0.53365   1.36222  -0.47437 
 H                     0.86251   0.83122  -2.10819 
 H                     3.25493   0.64173  -1.63186 
 H                     2.73879   2.2168   -1.0673 
 H                    -3.486    -0.89027  -0.75391 
 H                    -2.35088  -0.68088  -2.06339 
 H                    -1.78918  -2.2401   -0.10704 
 H                     1.04258  -0.37546   1.50887 
 H                     1.53887  -1.99507   1.03323 
 
 The following ModRedundant input section has been read:
 D      11       2      12       3 F                                           
 

 GradGradGradGradGradGradGradGradGradGradGradGradGradGradGradGradGradGrad
 Berny optimization.
 Initialization pass.
                           ----------------------------
                           !    Initial Parameters    !
                           ! (Angstroms and Degrees)  !
 --------------------------                            --------------------------
 ! Name  Definition              Value          Derivative Info.                !
 --------------------------------------------------------------------------------
 ! R1    R(1,4)                  1.5253         estimate D2E/DX2                !
 ! R2    R(1,7)                  1.5168         estimate D2E/DX2                !
 ! R3    R(1,14)                 1.0874         estimate D2E/DX2                !
 ! R4    R(1,15)                 1.0861         estimate D2E/DX2                !
 ! R5    R(2,11)                 1.3946         estimate D2E/DX2                !
 ! R6    R(2,12)                 1.4199         estimate D2E/DX2                !
 ! R7    R(2,13)                 1.5282         estimate D2E/DX2                !
 ! R8    R(2,29)                 1.0792         estimate D2E/DX2                !
 ! R9    R(3,8)                  1.5249         estimate D2E/DX2                !
 ! R10   R(3,9)                  1.5284         estimate D2E/DX2                !
 ! R11   R(3,12)                 1.4179         estimate D2E/DX2                !
 ! R12   R(3,16)                 1.0839         estimate D2E/DX2                !
 ! R13   R(4,13)                 1.5254         estimate D2E/DX2                !
 ! R14   R(4,17)                 1.0857         estimate D2E/DX2                !
 ! R15   R(4,18)                 1.0854         estimate D2E/DX2                !
 ! R16   R(5,6)                  1.4166         estimate D2E/DX2                !
 ! R17   R(5,9)                  1.4145         estimate D2E/DX2                !
 ! R18   R(6,10)                 1.5211         estimate D2E/DX2                !
 ! R19   R(6,19)                 1.0815         estimate D2E/DX2                !
 ! R20   R(6,20)                 1.0877         estimate D2E/DX2                !
 ! R21   R(7,11)                 1.4258         estimate D2E/DX2                !
 ! R22   R(7,21)                 1.0812         estimate D2E/DX2                !
 ! R23   R(7,22)                 1.0811         estimate D2E/DX2                !
 ! R24   R(8,10)                 1.5336         estimate D2E/DX2                !
 ! R25   R(8,23)                 1.0825         estimate D2E/DX2                !
 ! R26   R(8,24)                 1.0857         estimate D2E/DX2                !
 ! R27   R(9,30)                 1.081          estimate D2E/DX2                !
 ! R28   R(9,31)                 1.0816         estimate D2E/DX2                !
 ! R29   R(10,25)                1.0871         estimate D2E/DX2                !
 ! R30   R(10,26)                1.086          estimate D2E/DX2                !
 ! R31   R(13,27)                1.0872         estimate D2E/DX2                !
 ! R32   R(13,28)                1.0839         estimate D2E/DX2                !
 ! A1    A(4,1,7)              109.7931         estimate D2E/DX2                !
 ! A2    A(4,1,14)             109.7772         estimate D2E/DX2                !
 ! A3    A(4,1,15)             111.5089         estimate D2E/DX2                !
 ! A4    A(7,1,14)             109.8015         estimate D2E/DX2                !
 ! A5    A(7,1,15)             108.4063         estimate D2E/DX2                !
 ! A6    A(14,1,15)            107.509          estimate D2E/DX2                !
 ! A7    A(11,2,12)            115.2563         estimate D2E/DX2                !
 ! A8    A(11,2,13)            113.6947         estimate D2E/DX2                !
 ! A9    A(11,2,29)            104.1707         estimate D2E/DX2                !
 ! A10   A(12,2,13)            111.6656         estimate D2E/DX2                !
 ! A11   A(12,2,29)            102.7343         estimate D2E/DX2                !
 ! A12   A(13,2,29)            108.1531         estimate D2E/DX2                !
 ! A13   A(8,3,9)              110.991          estimate D2E/DX2                !
 ! A14   A(8,3,12)             115.2883         estimate D2E/DX2                !
 ! A15   A(8,3,16)             106.9789         estimate D2E/DX2                !
 ! A16   A(9,3,12)             114.7877         estimate D2E/DX2                !
 ! A17   A(9,3,16)             105.6492         estimate D2E/DX2                !
 ! A18   A(12,3,16)            101.925          estimate D2E/DX2                !
 ! A19   A(1,4,13)             108.6247         estimate D2E/DX2                !
 ! A20   A(1,4,17)             110.7512         estimate D2E/DX2                !
 ! A21   A(1,4,18)             110.0166         estimate D2E/DX2                !
 ! A22   A(13,4,17)            109.4542         estimate D2E/DX2                !
 ! A23   A(13,4,18)            110.9402         estimate D2E/DX2                !
 ! A24   A(17,4,18)            107.0556         estimate D2E/DX2                !
 ! A25   A(6,5,9)              113.0083         estimate D2E/DX2                !
 ! A26   A(5,6,10)             110.9908         estimate D2E/DX2                !
 ! A27   A(5,6,19)             106.3669         estimate D2E/DX2                !
 ! A28   A(5,6,20)             108.9837         estimate D2E/DX2                !
 ! A29   A(10,6,19)            111.3427         estimate D2E/DX2                !
 ! A30   A(10,6,20)            110.6852         estimate D2E/DX2                !
 ! A31   A(19,6,20)            108.3277         estimate D2E/DX2                !
 ! A32   A(1,7,11)             112.9756         estimate D2E/DX2                !
 ! A33   A(1,7,21)             110.1243         estimate D2E/DX2                !
 ! A34   A(1,7,22)             111.3348         estimate D2E/DX2                !
 ! A35   A(11,7,21)            109.5794         estimate D2E/DX2                !
 ! A36   A(11,7,22)            104.6897         estimate D2E/DX2                !
 ! A37   A(21,7,22)            107.9007         estimate D2E/DX2                !
 ! A38   A(3,8,10)             108.7675         estimate D2E/DX2                !
 ! A39   A(3,8,23)             110.9102         estimate D2E/DX2                !
 ! A40   A(3,8,24)             109.6515         estimate D2E/DX2                !
 ! A41   A(10,8,23)            109.4796         estimate D2E/DX2                !
 ! A42   A(10,8,24)            110.4766         estimate D2E/DX2                !
 ! A43   A(23,8,24)            107.554          estimate D2E/DX2                !
 ! A44   A(3,9,5)              108.5959         estimate D2E/DX2                !
 ! A45   A(3,9,30)             112.6376         estimate D2E/DX2                !
 ! A46   A(3,9,31)             110.5888         estimate D2E/DX2                !
 ! A47   A(5,9,30)             108.9434         estimate D2E/DX2                !
 ! A48   A(5,9,31)             107.0073         estimate D2E/DX2                !
 ! A49   A(30,9,31)            108.8983         estimate D2E/DX2                !
 ! A50   A(6,10,8)             110.7987         estimate D2E/DX2                !
 ! A51   A(6,10,25)            108.9598         estimate D2E/DX2                !
 ! A52   A(6,10,26)            109.3053         estimate D2E/DX2                !
 ! A53   A(8,10,25)            109.8805         estimate D2E/DX2                !
 ! A54   A(8,10,26)            110.4543         estimate D2E/DX2                !
 ! A55   A(25,10,26)           107.3642         estimate D2E/DX2                !
 ! A56   A(2,11,7)             121.4556         estimate D2E/DX2                !
 ! A57   A(2,12,3)             131.8132         estimate D2E/DX2                !
 ! A58   A(2,13,4)             114.4928         estimate D2E/DX2                !
 ! A59   A(2,13,27)            106.4824         estimate D2E/DX2                !
 ! A60   A(2,13,28)            108.2468         estimate D2E/DX2                !
 ! A61   A(4,13,27)            108.2291         estimate D2E/DX2                !
 ! A62   A(4,13,28)            111.9662         estimate D2E/DX2                !
 ! A63   A(27,13,28)           107.0308         estimate D2E/DX2                !
 ! D1    D(7,1,4,13)            57.2321         estimate D2E/DX2                !
 ! D2    D(7,1,4,17)           177.4662         estimate D2E/DX2                !
 ! D3    D(7,1,4,18)           -64.38           estimate D2E/DX2                !
 ! D4    D(14,1,4,13)          -63.5654         estimate D2E/DX2                !
 ! D5    D(14,1,4,17)           56.6687         estimate D2E/DX2                !
 ! D6    D(14,1,4,18)          174.8225         estimate D2E/DX2                !
 ! D7    D(15,1,4,13)          177.3992         estimate D2E/DX2                !
 ! D8    D(15,1,4,17)          -62.3667         estimate D2E/DX2                !
 ! D9    D(15,1,4,18)           55.7871         estimate D2E/DX2                !
 ! D10   D(4,1,7,11)           -53.3776         estimate D2E/DX2                !
 ! D11   D(4,1,7,21)            69.5112         estimate D2E/DX2                !
 ! D12   D(4,1,7,22)          -170.8483         estimate D2E/DX2                !
 ! D13   D(14,1,7,11)           67.4052         estimate D2E/DX2                !
 ! D14   D(14,1,7,21)         -169.706          estimate D2E/DX2                !
 ! D15   D(14,1,7,22)          -50.0655         estimate D2E/DX2                !
 ! D16   D(15,1,7,11)         -175.4126         estimate D2E/DX2                !
 ! D17   D(15,1,7,21)          -52.5239         estimate D2E/DX2                !
 ! D18   D(15,1,7,22)           67.1167         estimate D2E/DX2                !
 ! D19   D(12,2,11,7)           94.3783         estimate D2E/DX2                !
 ! D20   D(13,2,11,7)          -36.3769         estimate D2E/DX2                !
 ! D21   D(29,2,11,7)         -153.8756         estimate D2E/DX2                !
 ! D22   D(11,2,12,3)          -19.94           Frozen                          !
 ! D23   D(13,2,12,3)          111.7826         estimate D2E/DX2                !
 ! D24   D(29,2,12,3)         -132.5294         estimate D2E/DX2                !
 ! D25   D(11,2,13,4)           39.9197         estimate D2E/DX2                !
 ! D26   D(11,2,13,27)         -79.6364         estimate D2E/DX2                !
 ! D27   D(11,2,13,28)         165.5822         estimate D2E/DX2                !
 ! D28   D(12,2,13,4)          -92.5892         estimate D2E/DX2                !
 ! D29   D(12,2,13,27)         147.8547         estimate D2E/DX2                !
 ! D30   D(12,2,13,28)          33.0733         estimate D2E/DX2                !
 ! D31   D(29,2,13,4)          155.0858         estimate D2E/DX2                !
 ! D32   D(29,2,13,27)          35.5296         estimate D2E/DX2                !
 ! D33   D(29,2,13,28)         -79.2517         estimate D2E/DX2                !
 ! D34   D(9,3,8,10)            53.7734         estimate D2E/DX2                !
 ! D35   D(9,3,8,23)           -66.6809         estimate D2E/DX2                !
 ! D36   D(9,3,8,24)           174.6812         estimate D2E/DX2                !
 ! D37   D(12,3,8,10)         -173.5449         estimate D2E/DX2                !
 ! D38   D(12,3,8,23)           66.0008         estimate D2E/DX2                !
 ! D39   D(12,3,8,24)          -52.6371         estimate D2E/DX2                !
 ! D40   D(16,3,8,10)          -61.013          estimate D2E/DX2                !
 ! D41   D(16,3,8,23)          178.5326         estimate D2E/DX2                !
 ! D42   D(16,3,8,24)           59.8948         estimate D2E/DX2                !
 ! D43   D(8,3,9,5)            -58.9174         estimate D2E/DX2                !
 ! D44   D(8,3,9,30)            61.8411         estimate D2E/DX2                !
 ! D45   D(8,3,9,31)          -176.0501         estimate D2E/DX2                !
 ! D46   D(12,3,9,5)           168.1485         estimate D2E/DX2                !
 ! D47   D(12,3,9,30)          -71.093          estimate D2E/DX2                !
 ! D48   D(12,3,9,31)           51.0158         estimate D2E/DX2                !
 ! D49   D(16,3,9,5)            56.6962         estimate D2E/DX2                !
 ! D50   D(16,3,9,30)          177.4547         estimate D2E/DX2                !
 ! D51   D(16,3,9,31)          -60.4366         estimate D2E/DX2                !
 ! D52   D(8,3,12,2)           -77.9968         estimate D2E/DX2                !
 ! D53   D(9,3,12,2)            52.8906         estimate D2E/DX2                !
 ! D54   D(16,3,12,2)          166.544          estimate D2E/DX2                !
 ! D55   D(1,4,13,2)           -51.4477         estimate D2E/DX2                !
 ! D56   D(1,4,13,27)           67.1263         estimate D2E/DX2                !
 ! D57   D(1,4,13,28)         -175.1416         estimate D2E/DX2                !
 ! D58   D(17,4,13,2)         -172.4834         estimate D2E/DX2                !
 ! D59   D(17,4,13,27)         -53.9094         estimate D2E/DX2                !
 ! D60   D(17,4,13,28)          63.8227         estimate D2E/DX2                !
 ! D61   D(18,4,13,2)           69.5978         estimate D2E/DX2                !
 ! D62   D(18,4,13,27)        -171.8283         estimate D2E/DX2                !
 ! D63   D(18,4,13,28)         -54.0962         estimate D2E/DX2                !
 ! D64   D(9,5,6,10)           -61.6653         estimate D2E/DX2                !
 ! D65   D(9,5,6,19)           177.0722         estimate D2E/DX2                !
 ! D66   D(9,5,6,20)            60.4816         estimate D2E/DX2                !
 ! D67   D(6,5,9,3)             62.8994         estimate D2E/DX2                !
 ! D68   D(6,5,9,30)           -60.1142         estimate D2E/DX2                !
 ! D69   D(6,5,9,31)          -177.7001         estimate D2E/DX2                !
 ! D70   D(5,6,10,8)            54.6777         estimate D2E/DX2                !
 ! D71   D(5,6,10,25)          -66.328          estimate D2E/DX2                !
 ! D72   D(5,6,10,26)          176.6258         estimate D2E/DX2                !
 ! D73   D(19,6,10,8)          172.9692         estimate D2E/DX2                !
 ! D74   D(19,6,10,25)          51.9635         estimate D2E/DX2                !
 ! D75   D(19,6,10,26)         -65.0827         estimate D2E/DX2                !
 ! D76   D(20,6,10,8)          -66.4734         estimate D2E/DX2                !
 ! D77   D(20,6,10,25)         172.5209         estimate D2E/DX2                !
 ! D78   D(20,6,10,26)          55.4747         estimate D2E/DX2                !
 ! D79   D(1,7,11,2)            44.1425         estimate D2E/DX2                !
 ! D80   D(21,7,11,2)          -79.0488         estimate D2E/DX2                !
 ! D81   D(22,7,11,2)          165.4521         estimate D2E/DX2                !
 ! D82   D(3,8,10,6)           -51.174          estimate D2E/DX2                !
 ! D83   D(3,8,10,25)           69.2857         estimate D2E/DX2                !
 ! D84   D(3,8,10,26)         -172.447          estimate D2E/DX2                !
 ! D85   D(23,8,10,6)           70.1598         estimate D2E/DX2                !
 ! D86   D(23,8,10,25)        -169.3805         estimate D2E/DX2                !
 ! D87   D(23,8,10,26)         -51.1132         estimate D2E/DX2                !
 ! D88   D(24,8,10,6)         -171.5734         estimate D2E/DX2                !
 ! D89   D(24,8,10,25)         -51.1137         estimate D2E/DX2                !
 ! D90   D(24,8,10,26)          67.1536         estimate D2E/DX2                !
 --------------------------------------------------------------------------------
 Trust Radius=3.00D-01 FncErr=1.00D-07 GrdErr=1.00D-06 EigMax=2.50D+02 EigMin=1.00D-04
 Number of steps in this run=    186 maximum allowed number of steps=    186.
 GradGradGradGradGradGradGradGradGradGradGradGradGradGradGradGradGradGrad

                          Input orientation:                          
 ---------------------------------------------------------------------
 Center     Atomic      Atomic             Coordinates (Angstroms)
 Number     Number       Type             X           Y           Z
 ---------------------------------------------------------------------
      1          6           0       -2.700246    1.263359    0.754298
      2          6           0       -1.475491   -1.211083   -0.192601
      3          6           0        1.030133   -0.735165   -0.646759
      4          6           0       -2.579470    1.039707   -0.749641
      5          8           0        2.939330   -0.566295    0.782274
      6          6           0        3.133014    0.807481    0.495953
      7          6           0       -1.534569    0.604340    1.466837
      8          6           0        1.169701    0.722369   -1.072557
      9          6           0        1.577460   -0.948151    0.764298
     10          6           0        2.632453    1.149141   -0.899159
     11          8           0       -1.381195   -0.771997    1.127714
     12          8           0       -0.240664   -1.316877   -0.885524
     13          6           0       -2.521988   -0.461210   -1.015907
     14          1           0       -3.636778    0.844263    1.114583
     15          1           0       -2.699276    2.321128    1.000953
     16          1           0        1.669554   -1.318221   -1.299483
     17          1           0       -3.429994    1.467223   -1.271633
     18          1           0       -1.691319    1.535245   -1.128809
     19          1           0        4.194647    0.991500    0.589249
     20          1           0        2.615698    1.401587    1.245956
     21          1           0       -0.617957    1.135198    1.250170
     22          1           0       -1.675580    0.608523    2.538689
     23          1           0        0.533650    1.362219   -0.474370
     24          1           0        0.862514    0.831223   -2.108192
     25          1           0        3.254932    0.641725   -1.631861
     26          1           0        2.738788    2.216800   -1.067304
     27          1           0       -3.486002   -0.890268   -0.753906
     28          1           0       -2.350883   -0.680882   -2.063387
     29          1           0       -1.789176   -2.240103   -0.107042
     30          1           0        1.042578   -0.375462    1.508873
     31          1           0        1.538869   -1.995069    1.033228
 ---------------------------------------------------------------------
                    Distance matrix (angstroms):
                    1          2          3          4          5
     1  C    0.000000
     2  C    2.918819   0.000000
     3  C    4.457890   2.590542   0.000000
     4  C    1.525267   2.568096   4.023679   0.000000
     5  O    5.929016   4.566922   2.390750   5.948375   0.000000
     6  C    5.856747   5.078093   2.847395   5.851317   1.416599
     7  C    1.516846   2.460282   3.583191   2.488802   4.674910
     8  C    4.313532   3.392580   1.524857   3.776409   2.869258
     9  C    4.815563   3.210187   1.528402   4.850119   1.414506
    10  C    5.584321   4.790103   2.486311   5.215216   2.421593
    11  O    2.453978   1.394604   2.994096   2.870992   4.339191
    12  O    3.923796   1.419906   1.417858   3.322945   3.668417
    13  C    2.477809   1.528168   3.581743   1.525436   5.750695
    14  H    1.087446   3.256430   5.232301   2.152076   6.733892
    15  H    1.086147   3.924122   5.095525   2.172780   6.338684
    16  H    5.475192   3.335862   1.083911   4.890435   2.551752
    17  H    2.162982   3.486792   5.013353   1.085650   6.994428
    18  H    2.153589   2.909533   3.576791   1.085421   5.432460
    19  H    6.902224   6.132954   3.810936   6.905332   2.009927
    20  H    5.340421   5.062936   3.265286   5.577018   2.047510
    21  H    2.144351   2.884785   3.132539   2.802837   3.970931
    22  H    2.159352   3.288000   4.390155   3.437448   5.075686
    23  H    3.460850   3.276877   2.162229   3.141863   3.329507
    24  H    4.590626   3.647845   2.148826   3.706262   3.823744
    25  H    6.445489   5.280272   2.795708   5.914131   2.717897
    26  H    5.814669   5.502330   3.436635   5.456219   3.347652
    27  H    2.744121   2.111904   4.520068   2.132281   6.614356
    28  H    3.441145   2.132432   3.666204   2.176834   6.008100
    29  H    3.721048   1.079167   3.241086   3.434334   5.094240
    30  H    4.154979   3.151817   2.185473   4.496979   2.040106
    31  H    5.353994   3.347186   2.160677   5.417491   2.016349
                    6          7          8          9         10
     6  C    0.000000
     7  C    4.771814   0.000000
     8  C    2.514372   3.711540   0.000000
     9  C    2.360932   3.548030   2.516136   0.000000
    10  C    1.521062   4.822740   1.533573   2.877279   0.000000
    11  O    4.824102   1.425774   3.685294   2.986091   4.889617
    12  O    4.219369   3.301343   2.486491   2.482629   3.786322
    13  C    5.989520   2.876528   3.877194   4.495744   5.401400
    14  H    6.798098   2.144978   5.282109   5.524828   6.591765
    15  H    6.046632   2.126253   4.671665   5.388382   5.780252
    16  H    3.143869   4.649212   2.113139   2.098720   2.678677
    17  H    6.828813   3.440410   4.663865   5.920612   6.082202
    18  H    5.142342   2.761980   2.974789   4.520622   4.347047
    19  H    1.081495   5.808956   3.461839   3.262293   2.163483
    20  H    1.087696   4.231915   2.815625   2.613657   2.159983
    21  H    3.840055   1.081172   2.959934   3.065334   3.896790
    22  H    5.228282   1.081096   4.598878   4.019200   5.538070
    23  H    2.829479   2.936017   1.082496   2.821639   2.151934
    24  H    3.455041   4.310257   1.085704   3.453769   2.166914
    25  H    2.137740   5.704616   2.160443   3.329143   1.087108
    26  H    2.141347   5.223359   2.166884   3.836713   1.086037
    27  H    6.946645   3.312649   4.937379   5.286487   6.451029
    28  H    6.232060   3.844561   3.917317   4.847588   5.434892
    29  H    5.820595   3.260794   4.296907   3.709799   5.627186
    30  H    2.606777   2.757438   2.808055   1.080955   3.263546
    31  H    3.268677   4.048576   3.457613   1.081596   3.849169
                   11         12         13         14         15
    11  O    0.000000
    12  O    2.377148   0.000000
    13  C    2.448083   2.440001   0.000000
    14  H    2.774910   4.494947   2.736056   0.000000
    15  H    3.364644   4.778980   3.441011   1.752984   0.000000
    16  H    3.936587   1.954558   4.287646   6.217814   6.133803
    17  H    3.868921   4.251131   2.146794   2.474847   2.535301
    18  H    3.242135   3.209079   2.165315   3.048782   2.483843
    19  H    5.872809   5.213017   7.056917   7.850406   7.033035
    20  H    4.551220   4.482416   5.914546   6.278640   5.399494
    21  H    2.057892   3.273562   3.362879   3.035837   2.408408
    22  H    1.995833   4.182270   3.807347   2.435149   2.519048
    23  H    3.284537   2.818894   3.599316   4.492830   3.680747
    24  H    4.251545   2.706705   3.783956   5.534445   4.957111
    25  H    5.577413   4.075823   5.913431   7.421566   6.723444
    26  H    5.543038   4.625695   5.903401   6.876942   5.819030
    27  H    2.825720   3.275903   1.087225   2.553935   3.743198
    28  H    3.336424   2.498975   1.083857   3.752211   4.303908
    29  H    1.961226   1.963739   2.127794   3.797277   4.781293
    30  H    2.485397   2.875084   4.368981   4.851759   4.640156
    31  H    3.167271   2.703385   4.800233   5.903876   6.049171
                   16         17         18         19         20
    16  H    0.000000
    17  H    5.810754   0.000000
    18  H    4.412127   1.745857   0.000000
    19  H    3.908736   7.862846   6.155646   0.000000
    20  H    3.843410   6.549271   4.920139   1.758555   0.000000
    21  H    4.213396   3.791739   2.640395   4.859899   3.244612
    22  H    5.443696   4.281809   3.782804   6.197302   4.551393
    23  H    3.025863   4.044395   2.325665   3.830355   2.701110
    24  H    2.434221   4.419271   2.824341   4.290103   3.827438
    25  H    2.542693   6.745328   5.051419   2.436952   3.044313
    26  H    3.700479   6.217515   4.482650   2.522906   2.455788
    27  H    5.201976   2.414320   3.040486   8.021065   6.817829
    28  H    4.141698   2.530950   2.493929   7.257913   6.321025
    29  H    3.772876   4.218154   3.912395   6.836243   5.873281
    30  H    3.027996   5.579480   4.252336   3.556660   2.387831
    31  H    2.432435   6.479927   5.250870   4.021178   3.569606
                   21         22         23         24         25
    21  H    0.000000
    22  H    1.748209   0.000000
    23  H    2.086091   3.811467   0.000000
    24  H    3.682769   5.299530   1.749138   0.000000
    25  H    4.852720   6.457905   3.043727   2.446725   0.000000
    26  H    4.219986   5.922532   2.438137   2.554149   1.750997
    27  H    4.042835   4.045390   4.616215   4.869005   6.968357
    28  H    4.157023   4.826769   3.875534   3.551674   5.775869
    29  H    3.821837   3.889404   4.301997   4.524279   6.006083
    30  H    2.259734   3.068734   2.685479   3.817286   3.974090
    31  H    3.807563   4.402021   3.815062   4.279475   4.123136
                   26         27         28         29         30
    26  H    0.000000
    27  H    6.964201   0.000000
    28  H    5.940833   1.745588   0.000000
    29  H    6.425616   2.262677   2.563976   0.000000
    30  H    4.029099   5.088539   4.936588   3.755915   0.000000
    31  H    4.857147   5.446445   5.142595   3.526491   1.759452
                   31
    31  H    0.000000
 Stoichiometry    C10H18O3
 Framework group  C1[X(C10H18O3)]
 Deg. of freedom    87
 Full point group                 C1      NOp   1
 Largest Abelian subgroup         C1      NOp   1
 Largest concise Abelian subgroup C1      NOp   1
                         Standard orientation:                         
 ---------------------------------------------------------------------
 Center     Atomic      Atomic             Coordinates (Angstroms)
 Number     Number       Type             X           Y           Z
 ---------------------------------------------------------------------
      1          6           0       -2.700246    1.263359    0.754298
      2          6           0       -1.475491   -1.211083   -0.192601
      3          6           0        1.030133   -0.735165   -0.646759
      4          6           0       -2.579470    1.039707   -0.749641
      5          8           0        2.939330   -0.566295    0.782274
      6          6           0        3.133014    0.807481    0.495953
      7          6           0       -1.534569    0.604340    1.466837
      8          6           0        1.169701    0.722369   -1.072557
      9          6           0        1.577460   -0.948151    0.764298
     10          6           0        2.632453    1.149141   -0.899159
     11          8           0       -1.381195   -0.771997    1.127714
     12          8           0       -0.240664   -1.316877   -0.885524
     13          6           0       -2.521988   -0.461210   -1.015907
     14          1           0       -3.636778    0.844263    1.114583
     15          1           0       -2.699276    2.321128    1.000953
     16          1           0        1.669554   -1.318221   -1.299483
     17          1           0       -3.429994    1.467223   -1.271633
     18          1           0       -1.691319    1.535245   -1.128809
     19          1           0        4.194647    0.991500    0.589249
     20          1           0        2.615698    1.401587    1.245956
     21          1           0       -0.617957    1.135198    1.250170
     22          1           0       -1.675580    0.608523    2.538689
     23          1           0        0.533650    1.362219   -0.474370
     24          1           0        0.862514    0.831223   -2.108192
     25          1           0        3.254932    0.641725   -1.631861
     26          1           0        2.738788    2.216800   -1.067304
     27          1           0       -3.486002   -0.890268   -0.753906
     28          1           0       -2.350883   -0.680882   -2.063387
     29          1           0       -1.789176   -2.240103   -0.107042
     30          1           0        1.042578   -0.375462    1.508873
     31          1           0        1.538869   -1.995069    1.033228
 ---------------------------------------------------------------------
 Rotational constants (GHZ):           1.4503872           0.5031357           0.4959969
 Standard basis: 6-311++G(2d,2p) (5D, 7F)
 There are   557 symmetry adapted cartesian basis functions of A   symmetry.
 There are   531 symmetry adapted basis functions of A   symmetry.
   531 basis functions,   762 primitive gaussians,   557 cartesian basis functions
    51 alpha electrons       51 beta electrons
       nuclear repulsion energy       913.3471924255 Hartrees.
 NAtoms=   31 NActive=   31 NUniq=   31 SFac= 1.00D+00 NAtFMM=   60 NAOKFM=F Big=F
 Integral buffers will be    131072 words long.
 Raffenetti 2 integral format.
 Two-electron integral symmetry is turned on.
 ------------------------------------------------------------------------------
 Polarizable Continuum Model (PCM)
 =================================
 Model                : PCM.
 Atomic radii         : UFF (Universal Force Field).
 Polarization charges : Total charges.
 Charge compensation  : None.
 Solution method      : On-the-fly selection.
 Cavity type          : Scaled VdW (van der Waals Surface) (Alpha=1.100).
 Cavity algorithm     : GePol (No added spheres)
                        Default sphere list used, NSphG=   31.
                        Lebedev-Laikov grids with approx.  5.0 points / Ang**2.
                        Smoothing algorithm: York/Karplus (Gamma=1.0000).
                        Polarization charges: spherical gaussians, with
                                              point-specific exponents (IZeta= 3).
                        Self-potential: point-specific (ISelfS= 7).
                        Self-field    : sphere-specific E.n sum rule (ISelfD= 2).
 1st derivatives      : Analytical E(r).r(x)/FMM algorithm (CHGder, D1EAlg=3).
                        Cavity 1st derivative terms included.
 Solvent              : Water, Eps=  78.355300 Eps(inf)=   1.777849
 ------------------------------------------------------------------------------
 One-electron integrals computed using PRISM.
 NBasis=   531 RedAO= T EigKep=  3.63D-06  NBF=   531
 NBsUse=   531 1.00D-06 EigRej= -1.00D+00 NBFU=   531
 ExpMin= 3.60D-02 ExpMax= 8.59D+03 ExpMxC= 1.30D+03 IAcc=3 IRadAn=         5 AccDes= 0.00D+00
 Harris functional with IExCor= 1009 and IRadAn=       5 diagonalized for initial guess.
 HarFok:  IExCor= 1009 AccDes= 0.00D+00 IRadAn=         5 IDoV= 1 UseB2=F ITyADJ=14
 ICtDFT=  3500011 ScaDFX=  1.000000  1.000000  1.000000  1.000000
 FoFCou: FMM=F IPFlag=           0 FMFlag=      100000 FMFlg1=           0
         NFxFlg=           0 DoJE=T BraDBF=F KetDBF=T FulRan=T
         wScrn=  0.000000 ICntrl=       500 IOpCl=  0 I1Cent=   200000004 NGrid=           0
         NMat0=    1 NMatS0=      1 NMatT0=    0 NMatD0=    1 NMtDS0=    0 NMtDT0=    0
 Petite list used in FoFCou.
 Requested convergence on RMS density matrix=1.00D-08 within 128 cycles.
 Requested convergence on MAX density matrix=1.00D-06.
 Requested convergence on             energy=1.00D-06.
 No special actions if energy rises.
 Inv3:  Mode=1 IEnd=    11832588.
 Iteration    1 A*A^-1 deviation from unit magnitude is 6.11D-15 for   1967.
 Iteration    1 A*A^-1 deviation from orthogonality  is 1.89D-15 for   1952    895.
 Iteration    1 A^-1*A deviation from unit magnitude is 6.33D-15 for   1967.
 Iteration    1 A^-1*A deviation from orthogonality  is 1.75D-15 for   1867   1071.
 Error on total polarization charges =  0.01449
 SCF Done:  E(RM062X) =  -617.479144849     A.U. after   12 cycles
            NFock= 12  Conv=0.49D-08     -V/T= 2.0035

 **********************************************************************

            Population analysis using the SCF density.

 **********************************************************************

 Orbital symmetries:
       Occupied  (A) (A) (A) (A) (A) (A) (A) (A) (A) (A) (A) (A)
                 (A) (A) (A) (A) (A) (A) (A) (A) (A) (A) (A) (A)
                 (A) (A) (A) (A) (A) (A) (A) (A) (A) (A) (A) (A)
                 (A) (A) (A) (A) (A) (A) (A) (A) (A) (A) (A) (A)
                 (A) (A) (A)
       Virtual   (A) (A) (A) (A) (A) (A) (A) (A) (A) (A) (A) (A)
                 (A) (A) (A) (A) (A) (A) (A) (A) (A) (A) (A) (A)
                 (A) (A) (A) (A) (A) (A) (A) (A) (A) (A) (A) (A)
                 (A) (A) (A) (A) (A) (A) (A) (A) (A) (A) (A) (A)
                 (A) (A) (A) (A) (A) (A) (A) (A) (A) (A) (A) (A)
                 (A) (A) (A) (A) (A) (A) (A) (A) (A) (A) (A) (A)
                 (A) (A) (A) (A) (A) (A) (A) (A) (A) (A) (A) (A)
                 (A) (A) (A) (A) (A) (A) (A) (A) (A) (A) (A) (A)
                 (A) (A) (A) (A) (A) (A) (A) (A) (A) (A) (A) (A)
                 (A) (A) (A) (A) (A) (A) (A) (A) (A) (A) (A) (A)
                 (A) (A) (A) (A) (A) (A) (A) (A) (A) (A) (A) (A)
                 (A) (A) (A) (A) (A) (A) (A) (A) (A) (A) (A) (A)
                 (A) (A) (A) (A) (A) (A) (A) (A) (A) (A) (A) (A)
                 (A) (A) (A) (A) (A) (A) (A) (A) (A) (A) (A) (A)
                 (A) (A) (A) (A) (A) (A) (A) (A) (A) (A) (A) (A)
                 (A) (A) (A) (A) (A) (A) (A) (A) (A) (A) (A) (A)
                 (A) (A) (A) (A) (A) (A) (A) (A) (A) (A) (A) (A)
                 (A) (A) (A) (A) (A) (A) (A) (A) (A) (A) (A) (A)
                 (A) (A) (A) (A) (A) (A) (A) (A) (A) (A) (A) (A)
                 (A) (A) (A) (A) (A) (A) (A) (A) (A) (A) (A) (A)
                 (A) (A) (A) (A) (A) (A) (A) (A) (A) (A) (A) (A)
                 (A) (A) (A) (A) (A) (A) (A) (A) (A) (A) (A) (A)
                 (A) (A) (A) (A) (A) (A) (A) (A) (A) (A) (A) (A)
                 (A) (A) (A) (A) (A) (A) (A) (A) (A) (A) (A) (A)
                 (A) (A) (A) (A) (A) (A) (A) (A) (A) (A) (A) (A)
                 (A) (A) (A) (A) (A) (A) (A) (A) (A) (A) (A) (A)
                 (A) (A) (A) (A) (A) (A) (A) (A) (A) (A) (A) (A)
                 (A) (A) (A) (A) (A) (A) (A) (A) (A) (A) (A) (A)
                 (A) (A) (A) (A) (A) (A) (A) (A) (A) (A) (A) (A)
                 (A) (A) (A) (A) (A) (A) (A) (A) (A) (A) (A) (A)
                 (A) (A) (A) (A) (A) (A) (A) (A) (A) (A) (A) (A)
                 (A) (A) (A) (A) (A) (A) (A) (A) (A) (A) (A) (A)
                 (A) (A) (A) (A) (A) (A) (A) (A) (A) (A) (A) (A)
                 (A) (A) (A) (A) (A) (A) (A) (A) (A) (A) (A) (A)
                 (A) (A) (A) (A) (A) (A) (A) (A) (A) (A) (A) (A)
                 (A) (A) (A) (A) (A) (A) (A) (A) (A) (A) (A) (A)
                 (A) (A) (A) (A) (A) (A) (A) (A) (A) (A) (A) (A)
                 (A) (A) (A) (A) (A) (A) (A) (A) (A) (A) (A) (A)
                 (A) (A) (A) (A) (A) (A) (A) (A) (A) (A) (A) (A)
                 (A) (A) (A) (A) (A) (A) (A) (A) (A) (A) (A) (A)
 The electronic state is 1-A.
 Alpha  occ. eigenvalues --  -19.63460 -19.62745 -19.62013 -10.63925 -10.59007
 Alpha  occ. eigenvalues --  -10.58217 -10.57838 -10.57620 -10.53170 -10.53147
 Alpha  occ. eigenvalues --  -10.53068 -10.53058 -10.52938  -1.19303  -1.16592
 Alpha  occ. eigenvalues --   -1.13228  -0.90904  -0.90383  -0.87756  -0.84735
 Alpha  occ. eigenvalues --   -0.75700  -0.74337  -0.73858  -0.70566  -0.67237
 Alpha  occ. eigenvalues --   -0.62510  -0.59837  -0.58788  -0.56857  -0.56318
 Alpha  occ. eigenvalues --   -0.54020  -0.53369  -0.51865  -0.51769  -0.50569
 Alpha  occ. eigenvalues --   -0.49359  -0.47337  -0.45975  -0.45458  -0.45200
 Alpha  occ. eigenvalues --   -0.43655  -0.42423  -0.41107  -0.40449  -0.39300
 Alpha  occ. eigenvalues --   -0.38771  -0.37362  -0.36379  -0.34677  -0.33247
 Alpha  occ. eigenvalues --   -0.30822
 Alpha virt. eigenvalues --   -0.00223   0.00700   0.00803   0.01044   0.02335
 Alpha virt. eigenvalues --    0.02637   0.02709   0.03179   0.03311   0.04804
 Alpha virt. eigenvalues --    0.05080   0.05420   0.05677   0.05968   0.06985
 Alpha virt. eigenvalues --    0.07576   0.08007   0.08644   0.09119   0.09554
 Alpha virt. eigenvalues --    0.10646   0.10856   0.10923   0.11573   0.12064
 Alpha virt. eigenvalues --    0.12364   0.12565   0.13270   0.13569   0.13672
 Alpha virt. eigenvalues --    0.13965   0.14195   0.14388   0.14530   0.14838
 Alpha virt. eigenvalues --    0.15259   0.15309   0.15907   0.15993   0.16496
 Alpha virt. eigenvalues --    0.16633   0.16934   0.16979   0.17372   0.17623
 Alpha virt. eigenvalues --    0.18215   0.18454   0.18560   0.18730   0.19235
 Alpha virt. eigenvalues --    0.19810   0.20212   0.20414   0.20587   0.20852
 Alpha virt. eigenvalues --    0.21828   0.22411   0.22533   0.23025   0.24463
 Alpha virt. eigenvalues --    0.25134   0.25378   0.26259   0.26790   0.26988
 Alpha virt. eigenvalues --    0.27680   0.28088   0.28342   0.29366   0.29949
 Alpha virt. eigenvalues --    0.30333   0.30713   0.31549   0.32291   0.32435
 Alpha virt. eigenvalues --    0.32903   0.33384   0.34286   0.34696   0.34819
 Alpha virt. eigenvalues --    0.35054   0.35799   0.36040   0.36417   0.36742
 Alpha virt. eigenvalues --    0.37125   0.37786   0.37930   0.38431   0.38595
 Alpha virt. eigenvalues --    0.38734   0.38784   0.39227   0.39784   0.40614
 Alpha virt. eigenvalues --    0.41417   0.41625   0.41655   0.42777   0.43860
 Alpha virt. eigenvalues --    0.46540   0.47423   0.49276   0.50561   0.50894
 Alpha virt. eigenvalues --    0.51255   0.52880   0.54126   0.54267   0.55038
 Alpha virt. eigenvalues --    0.55450   0.57197   0.58217   0.58552   0.59467
 Alpha virt. eigenvalues --    0.60822   0.61013   0.61254   0.61512   0.62020
 Alpha virt. eigenvalues --    0.63278   0.63303   0.63971   0.64382   0.65034
 Alpha virt. eigenvalues --    0.65245   0.67146   0.67361   0.67573   0.67893
 Alpha virt. eigenvalues --    0.68481   0.69032   0.69736   0.69868   0.70671
 Alpha virt. eigenvalues --    0.71105   0.71958   0.72485   0.73183   0.73653
 Alpha virt. eigenvalues --    0.74075   0.74623   0.75514   0.75862   0.76249
 Alpha virt. eigenvalues --    0.76610   0.78059   0.78290   0.78389   0.79718
 Alpha virt. eigenvalues --    0.79837   0.80375   0.82795   0.84560   0.84846
 Alpha virt. eigenvalues --    0.86613   0.87630   0.88014   0.89978   0.90784
 Alpha virt. eigenvalues --    0.91416   0.92930   0.93713   0.94113   0.95461
 Alpha virt. eigenvalues --    0.96636   0.97277   0.98948   0.99814   1.02297
 Alpha virt. eigenvalues --    1.03051   1.04034   1.04543   1.05450   1.05738
 Alpha virt. eigenvalues --    1.06928   1.09233   1.09359   1.11848   1.12740
 Alpha virt. eigenvalues --    1.13302   1.14584   1.15509   1.16259   1.17052
 Alpha virt. eigenvalues --    1.18263   1.19347   1.20085   1.20615   1.21232
 Alpha virt. eigenvalues --    1.21452   1.22144   1.23150   1.24238   1.24470
 Alpha virt. eigenvalues --    1.25288   1.26372   1.26714   1.27682   1.28579
 Alpha virt. eigenvalues --    1.29291   1.30124   1.30703   1.31649   1.31850
 Alpha virt. eigenvalues --    1.32840   1.33395   1.34377   1.35111   1.35840
 Alpha virt. eigenvalues --    1.36101   1.36610   1.36849   1.37586   1.38629
 Alpha virt. eigenvalues --    1.39429   1.39687   1.40782   1.41069   1.42128
 Alpha virt. eigenvalues --    1.43351   1.43933   1.44603   1.45047   1.45533
 Alpha virt. eigenvalues --    1.45845   1.47130   1.47648   1.47810   1.48858
 Alpha virt. eigenvalues --    1.49253   1.50253   1.51261   1.51809   1.52871
 Alpha virt. eigenvalues --    1.54149   1.54322   1.55001   1.55867   1.56477
 Alpha virt. eigenvalues --    1.57864   1.58455   1.58829   1.59419   1.59801
 Alpha virt. eigenvalues --    1.60231   1.61684   1.61903   1.62477   1.63391
 Alpha virt. eigenvalues --    1.63824   1.64457   1.65146   1.66399   1.66845
 Alpha virt. eigenvalues --    1.67523   1.68503   1.69625   1.70464   1.71240
 Alpha virt. eigenvalues --    1.73613   1.74123   1.75008   1.75763   1.78425
 Alpha virt. eigenvalues --    1.79644   1.80361   1.81257   1.82813   1.83658
 Alpha virt. eigenvalues --    1.88325   1.89901   1.90944   1.92643   1.97685
 Alpha virt. eigenvalues --    2.02344   2.05650   2.10532   2.17993   2.20605
 Alpha virt. eigenvalues --    2.22067   2.24593   2.27037   2.33851   2.38582
 Alpha virt. eigenvalues --    2.40726   2.42957   2.44907   2.49943   2.52784
 Alpha virt. eigenvalues --    2.56051   2.76244   2.78253   2.81684   2.84375
 Alpha virt. eigenvalues --    2.84928   2.89059   2.93370   2.93841   2.94511
 Alpha virt. eigenvalues --    2.95397   2.98884   3.01348   3.02481   3.04110
 Alpha virt. eigenvalues --    3.05536   3.08002   3.08813   3.09852   3.10363
 Alpha virt. eigenvalues --    3.12909   3.15584   3.16469   3.18357   3.20227
 Alpha virt. eigenvalues --    3.25558   3.26050   3.30966   3.33372   3.35750
 Alpha virt. eigenvalues --    3.36701   3.37835   3.38656   3.40476   3.41489
 Alpha virt. eigenvalues --    3.42562   3.43757   3.44626   3.46011   3.47390
 Alpha virt. eigenvalues --    3.48128   3.49048   3.49917   3.51373   3.51887
 Alpha virt. eigenvalues --    3.53207   3.53537   3.53864   3.55686   3.56618
 Alpha virt. eigenvalues --    3.56822   3.57750   3.59119   3.59657   3.60055
 Alpha virt. eigenvalues --    3.60783   3.62129   3.63355   3.63584   3.64659
 Alpha virt. eigenvalues --    3.65706   3.66537   3.68004   3.69735   3.70885
 Alpha virt. eigenvalues --    3.71130   3.71590   3.72195   3.72966   3.73712
 Alpha virt. eigenvalues --    3.74866   3.75529   3.76075   3.76858   3.78022
 Alpha virt. eigenvalues --    3.79799   3.80267   3.81030   3.82345   3.84251
 Alpha virt. eigenvalues --    3.86268   3.88295   3.89067   3.89985   3.91981
 Alpha virt. eigenvalues --    3.93722   3.94595   3.95591   3.95904   3.97611
 Alpha virt. eigenvalues --    3.99968   4.00854   4.02202   4.04114   4.04395
 Alpha virt. eigenvalues --    4.04933   4.05314   4.07369   4.08234   4.08523
 Alpha virt. eigenvalues --    4.10386   4.10710   4.10966   4.11802   4.12420
 Alpha virt. eigenvalues --    4.13405   4.14317   4.14444   4.15479   4.17561
 Alpha virt. eigenvalues --    4.18433   4.18894   4.19168   4.19785   4.22223
 Alpha virt. eigenvalues --    4.22783   4.23539   4.24081   4.26500   4.28043
 Alpha virt. eigenvalues --    4.28689   4.30532   4.30714   4.31617   4.33869
 Alpha virt. eigenvalues --    4.35070   4.36012   4.36804   4.40896   4.42668
 Alpha virt. eigenvalues --    4.44028   4.44879   4.47595   4.49659   4.51610
 Alpha virt. eigenvalues --    4.58528   4.62369   4.75232   4.76622   4.84275
 Alpha virt. eigenvalues --    4.86574   4.92870   4.93684   4.99636   5.00589
 Alpha virt. eigenvalues --    5.06538   5.07802   5.08560   5.09504   5.13010
 Alpha virt. eigenvalues --    5.13914   5.15011   5.19150   5.31925   5.37733
 Alpha virt. eigenvalues --    5.41813   5.54171   5.58786   5.59538   5.84614
 Alpha virt. eigenvalues --    5.88584   6.02261   6.97494   7.02618   7.05974
 Alpha virt. eigenvalues --    7.08931   7.09503   7.12332   7.14506   7.19343
 Alpha virt. eigenvalues --    7.27614   7.36585   7.45018   7.50393   7.54089
 Alpha virt. eigenvalues --    7.56032   7.58601  23.94452  23.98037  24.06438
 Alpha virt. eigenvalues --   24.07573  24.09366  24.11112  24.13465  24.15672
 Alpha virt. eigenvalues --   24.16365  24.19137  50.16419  50.18788  50.21642
          Condensed to atoms (all electrons):
               1          2          3          4          5          6
     1  C    6.512139   0.234877   0.162517  -0.246006  -0.001750   0.029193
     2  C    0.234877   7.421515  -0.958831  -0.003766   0.001605   0.017213
     3  C    0.162517  -0.958831   9.017276   0.157767  -0.041643   0.017748
     4  C   -0.246006  -0.003766   0.157767   5.868799   0.000142  -0.010780
     5  O   -0.001750   0.001605  -0.041643   0.000142   8.338591   0.125593
     6  C    0.029193   0.017213   0.017748  -0.010780   0.125593   5.481899
     7  C   -0.464200  -0.522472   0.148086   0.130765   0.002704  -0.025430
     8  C   -0.045502   0.296011  -1.780512  -0.034335  -0.021360   0.026648
     9  C   -0.030980   0.080931  -0.758477  -0.035447   0.177223  -0.210284
    10  C    0.000097  -0.039191  -0.017679  -0.014146  -0.029056   0.029310
    11  O   -0.093074   0.242684   0.045304  -0.010936  -0.000866   0.005367
    12  O   -0.052873   0.270202  -0.162809  -0.036749   0.000722  -0.006918
    13  C   -0.133977  -1.224010   0.097124  -0.366332   0.000425  -0.007359
    14  H    0.450226   0.027176  -0.002827   0.008525  -0.000004  -0.000015
    15  H    0.453107  -0.012770   0.004496  -0.054423  -0.000103   0.000783
    16  H   -0.000982  -0.047122   0.601152   0.008982   0.003174  -0.001438
    17  H   -0.030974  -0.003900   0.006035   0.412361  -0.000024  -0.000071
    18  H   -0.156394  -0.000942  -0.032472   0.601484   0.000133  -0.003320
    19  H    0.001189   0.001711  -0.000235  -0.000143  -0.074506   0.421815
    20  H    0.000414  -0.004955   0.048150   0.003638  -0.040128   0.469846
    21  H   -0.175982  -0.014998  -0.103581   0.032018  -0.000234  -0.028046
    22  H   -0.016316  -0.016778   0.025318   0.015115   0.000827   0.000671
    23  H    0.061330  -0.017078   0.109614  -0.055252  -0.002729   0.015629
    24  H    0.014391   0.035237  -0.042568  -0.006631  -0.001007   0.013143
    25  H   -0.001032  -0.007307  -0.011484   0.001920  -0.010373  -0.081982
    26  H   -0.001507  -0.003424   0.009559   0.000756   0.007571  -0.042747
    27  H   -0.049715  -0.097861   0.025543   0.010799  -0.000061  -0.000398
    28  H   -0.002881  -0.064365  -0.043158  -0.052064   0.000107  -0.000347
    29  H   -0.009608   0.500884  -0.007520   0.008901  -0.000283   0.002231
    30  H   -0.031606  -0.019188   0.065166  -0.007971  -0.044111  -0.008790
    31  H   -0.001160   0.001640  -0.098275   0.000310  -0.062514  -0.005581
               7          8          9         10         11         12
     1  C   -0.464200  -0.045502  -0.030980   0.000097  -0.093074  -0.052873
     2  C   -0.522472   0.296011   0.080931  -0.039191   0.242684   0.270202
     3  C    0.148086  -1.780512  -0.758477  -0.017679   0.045304  -0.162809
     4  C    0.130765  -0.034335  -0.035447  -0.014146  -0.010936  -0.036749
     5  O    0.002704  -0.021360   0.177223  -0.029056  -0.000866   0.000722
     6  C   -0.025430   0.026648  -0.210284   0.029310   0.005367  -0.006918
     7  C    5.659818  -0.069156  -0.028885   0.004661   0.182215   0.036609
     8  C   -0.069156   7.076889   0.380227  -0.361241  -0.048768   0.078079
     9  C   -0.028885   0.380227   5.745757   0.065716   0.013009   0.071920
    10  C    0.004661  -0.361241   0.065716   5.924278   0.007453   0.005924
    11  O    0.182215  -0.048768   0.013009   0.007453   8.149070  -0.014001
    12  O    0.036609   0.078079   0.071920   0.005924  -0.014001   8.321746
    13  C    0.299445  -0.024455   0.034094  -0.005562  -0.026238  -0.041196
    14  H   -0.065924   0.000609   0.001280  -0.000094  -0.005009   0.000566
    15  H   -0.042717  -0.001218  -0.002095   0.001461   0.008787  -0.000793
    16  H    0.012504  -0.058095  -0.108343  -0.028004   0.003398  -0.102758
    17  H    0.013127   0.000133  -0.001668  -0.001415  -0.003373  -0.001093
    18  H    0.026701   0.040589   0.004853  -0.007307   0.005624  -0.000694
    19  H   -0.001567  -0.004898   0.019680  -0.025839   0.000142   0.000152
    20  H    0.005623   0.013220  -0.030391  -0.079445   0.000384  -0.002739
    21  H    0.503691   0.014057   0.053085   0.023546  -0.039833   0.014180
    22  H    0.435970  -0.007244  -0.009905  -0.004270  -0.057423  -0.001150
    23  H   -0.014407   0.334018  -0.040879  -0.051469  -0.000032  -0.018453
    24  H   -0.016437   0.405859  -0.003499   0.009740  -0.001581  -0.001497
    25  H    0.001174   0.001569   0.007540   0.462721  -0.000056   0.000064
    26  H    0.001269  -0.070151   0.006389   0.467570  -0.000058  -0.000630
    27  H    0.028248  -0.011452  -0.001789   0.000157  -0.011759  -0.001383
    28  H    0.008086   0.022934   0.005727  -0.000163   0.011096   0.002784
    29  H   -0.015337   0.006229  -0.006634  -0.008503  -0.062198  -0.096072
    30  H    0.019857  -0.087134   0.381718   0.020257  -0.001225  -0.013340
    31  H   -0.003366   0.010121   0.487901   0.016888  -0.012611   0.017821
              13         14         15         16         17         18
     1  C   -0.133977   0.450226   0.453107  -0.000982  -0.030974  -0.156394
     2  C   -1.224010   0.027176  -0.012770  -0.047122  -0.003900  -0.000942
     3  C    0.097124  -0.002827   0.004496   0.601152   0.006035  -0.032472
     4  C   -0.366332   0.008525  -0.054423   0.008982   0.412361   0.601484
     5  O    0.000425  -0.000004  -0.000103   0.003174  -0.000024   0.000133
     6  C   -0.007359  -0.000015   0.000783  -0.001438  -0.000071  -0.003320
     7  C    0.299445  -0.065924  -0.042717   0.012504   0.013127   0.026701
     8  C   -0.024455   0.000609  -0.001218  -0.058095   0.000133   0.040589
     9  C    0.034094   0.001280  -0.002095  -0.108343  -0.001668   0.004853
    10  C   -0.005562  -0.000094   0.001461  -0.028004  -0.001415  -0.007307
    11  O   -0.026238  -0.005009   0.008787   0.003398  -0.003373   0.005624
    12  O   -0.041196   0.000566  -0.000793  -0.102758  -0.001093  -0.000694
    13  C    6.892029  -0.047025   0.019940   0.011147  -0.028227  -0.122619
    14  H   -0.047025   0.468267  -0.006793   0.000093  -0.000047   0.000564
    15  H    0.019940  -0.006793   0.472713   0.000021  -0.005688  -0.004014
    16  H    0.011147   0.000093   0.000021   0.452620   0.000032   0.000766
    17  H   -0.028227  -0.000047  -0.005688   0.000032   0.447704  -0.005106
    18  H   -0.122619   0.000564  -0.004014   0.000766  -0.005106   0.515448
    19  H   -0.000531  -0.000007   0.000066  -0.003095   0.000021  -0.000712
    20  H   -0.004138   0.000056   0.000251   0.004912  -0.000018   0.002377
    21  H    0.014860   0.002734  -0.001683  -0.003687  -0.001254   0.015896
    22  H    0.002965  -0.003298  -0.008963   0.000565   0.002576  -0.002851
    23  H    0.036301  -0.001570  -0.001847   0.002242  -0.000458  -0.032433
    24  H   -0.019775   0.000469  -0.000164  -0.004064  -0.001006  -0.007127
    25  H    0.001471  -0.000017  -0.000016   0.001034   0.000049   0.001459
    26  H   -0.000710  -0.000019   0.000009  -0.001147   0.000038   0.001541
    27  H    0.482302  -0.006332  -0.001489   0.000826  -0.004668   0.002939
    28  H    0.483033  -0.001425   0.000570  -0.001783  -0.006481   0.000875
    29  H   -0.069920   0.003060   0.000153   0.003230   0.002889  -0.001390
    30  H    0.005657   0.000745  -0.000157   0.006889  -0.000477  -0.001748
    31  H   -0.002923  -0.000069  -0.000026  -0.011014   0.000083   0.000201
              19         20         21         22         23         24
     1  C    0.001189   0.000414  -0.175982  -0.016316   0.061330   0.014391
     2  C    0.001711  -0.004955  -0.014998  -0.016778  -0.017078   0.035237
     3  C   -0.000235   0.048150  -0.103581   0.025318   0.109614  -0.042568
     4  C   -0.000143   0.003638   0.032018   0.015115  -0.055252  -0.006631
     5  O   -0.074506  -0.040128  -0.000234   0.000827  -0.002729  -0.001007
     6  C    0.421815   0.469846  -0.028046   0.000671   0.015629   0.013143
     7  C   -0.001567   0.005623   0.503691   0.435970  -0.014407  -0.016437
     8  C   -0.004898   0.013220   0.014057  -0.007244   0.334018   0.405859
     9  C    0.019680  -0.030391   0.053085  -0.009905  -0.040879  -0.003499
    10  C   -0.025839  -0.079445   0.023546  -0.004270  -0.051469   0.009740
    11  O    0.000142   0.000384  -0.039833  -0.057423  -0.000032  -0.001581
    12  O    0.000152  -0.002739   0.014180  -0.001150  -0.018453  -0.001497
    13  C   -0.000531  -0.004138   0.014860   0.002965   0.036301  -0.019775
    14  H   -0.000007   0.000056   0.002734  -0.003298  -0.001570   0.000469
    15  H    0.000066   0.000251  -0.001683  -0.008963  -0.001847  -0.000164
    16  H   -0.003095   0.004912  -0.003687   0.000565   0.002242  -0.004064
    17  H    0.000021  -0.000018  -0.001254   0.002576  -0.000458  -0.001006
    18  H   -0.000712   0.002377   0.015896  -0.002851  -0.032433  -0.007127
    19  H    0.466906  -0.012435  -0.000366   0.000078   0.002627   0.001378
    20  H   -0.012435   0.513296  -0.008499  -0.000381  -0.015805   0.000444
    21  H   -0.000366  -0.008499   0.618878  -0.031614  -0.048984  -0.000336
    22  H    0.000078  -0.000381  -0.031614   0.459710   0.007079  -0.000420
    23  H    0.002627  -0.015805  -0.048984   0.007079   0.577424  -0.018042
    24  H    0.001378   0.000444  -0.000336  -0.000420  -0.018042   0.455585
    25  H   -0.004977   0.001709   0.001592   0.000042  -0.003985  -0.007281
    26  H   -0.008314   0.006697   0.001708  -0.000126  -0.013094  -0.011558
    27  H   -0.000013  -0.000044   0.000049   0.001155   0.000403  -0.000897
    28  H   -0.000049   0.000011   0.002145   0.000323   0.001621  -0.001292
    29  H    0.000054  -0.000303  -0.004826   0.001946  -0.003585   0.001471
    30  H   -0.002775  -0.003183  -0.011796  -0.006437  -0.011808   0.000490
    31  H    0.003081  -0.002445   0.005489   0.000141  -0.002338  -0.001660
              25         26         27         28         29         30
     1  C   -0.001032  -0.001507  -0.049715  -0.002881  -0.009608  -0.031606
     2  C   -0.007307  -0.003424  -0.097861  -0.064365   0.500884  -0.019188
     3  C   -0.011484   0.009559   0.025543  -0.043158  -0.007520   0.065166
     4  C    0.001920   0.000756   0.010799  -0.052064   0.008901  -0.007971
     5  O   -0.010373   0.007571  -0.000061   0.000107  -0.000283  -0.044111
     6  C   -0.081982  -0.042747  -0.000398  -0.000347   0.002231  -0.008790
     7  C    0.001174   0.001269   0.028248   0.008086  -0.015337   0.019857
     8  C    0.001569  -0.070151  -0.011452   0.022934   0.006229  -0.087134
     9  C    0.007540   0.006389  -0.001789   0.005727  -0.006634   0.381718
    10  C    0.462721   0.467570   0.000157  -0.000163  -0.008503   0.020257
    11  O   -0.000056  -0.000058  -0.011759   0.011096  -0.062198  -0.001225
    12  O    0.000064  -0.000630  -0.001383   0.002784  -0.096072  -0.013340
    13  C    0.001471  -0.000710   0.482302   0.483033  -0.069920   0.005657
    14  H   -0.000017  -0.000019  -0.006332  -0.001425   0.003060   0.000745
    15  H   -0.000016   0.000009  -0.001489   0.000570   0.000153  -0.000157
    16  H    0.001034  -0.001147   0.000826  -0.001783   0.003230   0.006889
    17  H    0.000049   0.000038  -0.004668  -0.006481   0.002889  -0.000477
    18  H    0.001459   0.001541   0.002939   0.000875  -0.001390  -0.001748
    19  H   -0.004977  -0.008314  -0.000013  -0.000049   0.000054  -0.002775
    20  H    0.001709   0.006697  -0.000044   0.000011  -0.000303  -0.003183
    21  H    0.001592   0.001708   0.000049   0.002145  -0.004826  -0.011796
    22  H    0.000042  -0.000126   0.001155   0.000323   0.001946  -0.006437
    23  H   -0.003985  -0.013094   0.000403   0.001621  -0.003585  -0.011808
    24  H   -0.007281  -0.011558  -0.000897  -0.001292   0.001471   0.000490
    25  H    0.475993  -0.008055   0.000045  -0.000020  -0.000316  -0.004186
    26  H   -0.008055   0.490132   0.000007   0.000154  -0.000203  -0.001013
    27  H    0.000045   0.000007   0.451310  -0.006697  -0.006990  -0.000316
    28  H   -0.000020   0.000154  -0.006697   0.473196  -0.015730  -0.000063
    29  H   -0.000316  -0.000203  -0.006990  -0.015730   0.531911   0.005250
    30  H   -0.004186  -0.001013  -0.000316  -0.000063   0.005250   0.526411
    31  H    0.000358   0.001865   0.000057   0.000379  -0.003170  -0.022240
              31
     1  C   -0.001160
     2  C    0.001640
     3  C   -0.098275
     4  C    0.000310
     5  O   -0.062514
     6  C   -0.005581
     7  C   -0.003366
     8  C    0.010121
     9  C    0.487901
    10  C    0.016888
    11  O   -0.012611
    12  O    0.017821
    13  C   -0.002923
    14  H   -0.000069
    15  H   -0.000026
    16  H   -0.011014
    17  H    0.000083
    18  H    0.000201
    19  H    0.003081
    20  H   -0.002445
    21  H    0.005489
    22  H    0.000141
    23  H   -0.002338
    24  H   -0.001660
    25  H    0.000358
    26  H    0.001865
    27  H    0.000057
    28  H    0.000379
    29  H   -0.003170
    30  H   -0.022240
    31  H    0.468818
 Mulliken charges:
               1
     1  C   -0.372960
     2  C   -0.072729
     3  C   -0.478785
     4  C   -0.327299
     5  O   -0.328065
     6  C   -0.223582
     7  C   -0.250656
     8  C   -0.081669
     9  C   -0.267773
    10  C   -0.366398
    11  O   -0.285496
    12  O   -0.265624
    13  C   -0.255798
    14  H    0.176104
    15  H    0.182601
    16  H    0.257947
    17  H    0.210903
    18  H    0.157678
    19  H    0.221561
    20  H    0.133879
    21  H    0.171789
    22  H    0.212694
    23  H    0.205958
    24  H    0.208636
    25  H    0.182346
    26  H    0.167493
    27  H    0.198024
    28  H    0.183481
    29  H    0.244378
    30  H    0.247121
    31  H    0.214240
 Sum of Mulliken charges =  -0.00000
 Mulliken charges with hydrogens summed into heavy atoms:
               1
     1  C   -0.014256
     2  C    0.171649
     3  C   -0.220838
     4  C    0.041283
     5  O   -0.328065
     6  C    0.131859
     7  C    0.133828
     8  C    0.332925
     9  C    0.193588
    10  C   -0.016559
    11  O   -0.285496
    12  O   -0.265624
    13  C    0.125707
 Electronic spatial extent (au):  <R**2>=           2611.8660
 Charge=             -0.0000 electrons
 Dipole moment (field-independent basis, Debye):
    X=             -1.9637    Y=              3.8736    Z=             -0.5603  Tot=              4.3789
 Quadrupole moment (field-independent basis, Debye-Ang):
   XX=            -79.1799   YY=            -79.8907   ZZ=            -81.5487
   XY=              3.5087   XZ=             -2.5697   YZ=              1.6908
 Traceless Quadrupole moment (field-independent basis, Debye-Ang):
   XX=              1.0265   YY=              0.3157   ZZ=             -1.3422
   XY=              3.5087   XZ=             -2.5697   YZ=              1.6908
 Octapole moment (field-independent basis, Debye-Ang**2):
  XXX=            -26.5333  YYY=             -5.0594  ZZZ=              4.3684  XYY=              0.6928
  XXY=             18.5637  XXZ=            -12.7978  XZZ=             -1.0599  YZZ=              5.3706
  YYZ=              3.8806  XYZ=             -0.5248
 Hexadecapole moment (field-independent basis, Debye-Ang**3):
 XXXX=          -2316.6686 YYYY=           -576.8037 ZZZZ=           -540.1650 XXXY=             69.9335
 XXXZ=            -24.4313 YYYX=              3.3247 YYYZ=             -5.4909 ZZZX=             -9.7596
 ZZZY=              6.4615 XXYY=           -476.2034 XXZZ=           -485.4258 YYZZ=           -197.2123
 XXYZ=             20.7841 YYXZ=              0.8030 ZZXY=             -6.0344
 N-N= 9.133471924255D+02 E-N=-3.268292081783D+03  KE= 6.153159975694D+02
 D1PCM: PCM CHGder 1st derivatives, ID1Alg=3 FixD1E=F DoIter=F DoCFld=F I1PDM=0.
 Calling FoFJK, ICntrl=      2127 FMM=F ISym2X=0 I1Cent= 0 IOpClX= 0 NMat=1 NMatS=1 NMatT=0.
 ***** Axes restored to original set *****
 -------------------------------------------------------------------
 Center     Atomic                   Forces (Hartrees/Bohr)
 Number     Number              X              Y              Z
 -------------------------------------------------------------------
      1        6           0.002650762    0.000354120   -0.001284065
      2        6           0.000768033    0.010316143    0.001460573
      3        6          -0.008046371    0.004080599    0.006397187
      4        6          -0.000023473   -0.003642704    0.003091404
      5        8           0.007687516   -0.005452112    0.001732705
      6        6          -0.004368348   -0.002990295   -0.004532306
      7        6          -0.005164381   -0.002398733   -0.006579445
      8        6           0.004623692   -0.003585566    0.000877967
      9        6           0.002967311    0.004003757   -0.005885774
     10        6          -0.002070620    0.001104044    0.002176525
     11        8           0.001641377   -0.005482344    0.006672813
     12        8           0.001686636   -0.003339188   -0.010087293
     13        6           0.001197655    0.002058113    0.001222270
     14        1          -0.002438110   -0.001930369    0.000990077
     15        1          -0.000191230    0.002732384    0.000431083
     16        1           0.004660223   -0.002612408   -0.002976154
     17        1          -0.001729766    0.001177252   -0.001265788
     18        1           0.004212127    0.001576351   -0.001353993
     19        1           0.004275726    0.000745195    0.000224724
     20        1          -0.003567131    0.004075345    0.003451753
     21        1           0.006709247    0.004514790   -0.001924130
     22        1          -0.000389290    0.000347766    0.004523523
     23        1          -0.003550160    0.002759753    0.004091964
     24        1          -0.001539861   -0.000059902   -0.002905733
     25        1           0.001510682   -0.002138629   -0.001797498
     26        1           0.000238050    0.002889051   -0.000811372
     27        1          -0.003308432   -0.001085840    0.001191519
     28        1           0.001222155   -0.000827409   -0.002855082
     29        1          -0.002345301   -0.006845001    0.000777649
     30        1          -0.006229802    0.004238985    0.004200341
     31        1          -0.001088917   -0.004583149    0.000744556
 -------------------------------------------------------------------
 Cartesian Forces:  Max     0.010316143 RMS     0.003679053

 GradGradGradGradGradGradGradGradGradGradGradGradGradGradGradGradGradGrad
 Berny optimization.
 FormGI is forming the generalized inverse of G from B-inverse, IUseBI=4.
 Internal  Forces:  Max     0.027828012 RMS     0.002880152
 Search for a local minimum.
 Step number   1 out of a maximum of  186
 All quantities printed in internal units (Hartrees-Bohrs-Radians)
 Mixed Optimization -- RFO/linear search
 Second derivative matrix not updated -- first step.
 ITU=  0
     Eigenvalues ---    0.00606   0.00619   0.00720   0.00748   0.01265
     Eigenvalues ---    0.01438   0.01456   0.02581   0.02603   0.03031
     Eigenvalues ---    0.03148   0.03878   0.04012   0.04455   0.04640
     Eigenvalues ---    0.04721   0.04849   0.05010   0.05157   0.05192
     Eigenvalues ---    0.05266   0.05695   0.05738   0.05886   0.06122
     Eigenvalues ---    0.06175   0.06396   0.06802   0.07417   0.07690
     Eigenvalues ---    0.07715   0.07918   0.08011   0.08056   0.08453
     Eigenvalues ---    0.08636   0.09259   0.09663   0.10650   0.11538
     Eigenvalues ---    0.11707   0.11792   0.11863   0.12538   0.12618
     Eigenvalues ---    0.15070   0.15666   0.16793   0.16972   0.18358
     Eigenvalues ---    0.19805   0.21988   0.22086   0.25000   0.28353
     Eigenvalues ---    0.28461   0.28467   0.29093   0.29151   0.29281
     Eigenvalues ---    0.29995   0.30239   0.35080   0.35109   0.35135
     Eigenvalues ---    0.35149   0.35262   0.35275   0.35314   0.35320
     Eigenvalues ---    0.35347   0.35526   0.35532   0.35694   0.35802
     Eigenvalues ---    0.35814   0.35853   0.35862   0.35879   0.36095
     Eigenvalues ---    0.40425   0.41442   0.41777   0.42475   0.42785
     Eigenvalues ---    0.451331000.000001000.000001000.000001000.00000
     Eigenvalues --- 1000.000001000.000001000.000001000.000001000.00000
     Eigenvalues --- 1000.000001000.000001000.000001000.000001000.00000
     Eigenvalues --- 1000.000001000.000001000.000001000.000001000.00000
     Eigenvalues --- 1000.000001000.000001000.000001000.000001000.00000
     Eigenvalues --- 1000.000001000.000001000.000001000.000001000.00000
     Eigenvalues --- 1000.000001000.000001000.000001000.000001000.00000
     Eigenvalues --- 1000.000001000.000001000.000001000.000001000.00000
     Eigenvalues --- 1000.000001000.000001000.000001000.000001000.00000
     Eigenvalues --- 1000.000001000.000001000.000001000.000001000.00000
     Eigenvalues --- 1000.000001000.000001000.000001000.000001000.00000
     Eigenvalues --- 1000.000001000.000001000.000001000.000001000.00000
     Eigenvalues --- 1000.000001000.000001000.000001000.000001000.00000
     Eigenvalues --- 1000.000001000.000001000.000001000.000001000.00000
     Eigenvalues --- 1000.000001000.000001000.000001000.000001000.00000
     Eigenvalues --- 1000.000001000.000001000.000001000.000001000.00000
     Eigenvalues --- 1000.000001000.000001000.000001000.000001000.00000
     Eigenvalues --- 1000.000001000.000001000.000001000.000001000.00000
     Eigenvalues --- 1000.000001000.000001000.000001000.000001000.00000
     Eigenvalues --- 1000.000001000.000001000.000001000.000001000.00000
 RFO step:  Lambda=-7.38749761D-03 EMin= 6.06353757D-03
 Linear search not attempted -- first point.
 Iteration  1 RMS(Cart)=  0.18491167 RMS(Int)=  0.00489784
 Iteration  2 RMS(Cart)=  0.01971354 RMS(Int)=  0.00016992
 Iteration  3 RMS(Cart)=  0.00010080 RMS(Int)=  0.00016293
 Iteration  4 RMS(Cart)=  0.00000002 RMS(Int)=  0.00016293
 Iteration  1 RMS(Cart)=  0.00025548 RMS(Int)=  0.00004816
 Iteration  2 RMS(Cart)=  0.00013380 RMS(Int)=  0.00005383
 Iteration  3 RMS(Cart)=  0.00007007 RMS(Int)=  0.00006052
 Iteration  4 RMS(Cart)=  0.00003670 RMS(Int)=  0.00006473
 Iteration  5 RMS(Cart)=  0.00001922 RMS(Int)=  0.00006709
 Iteration  6 RMS(Cart)=  0.00001006 RMS(Int)=  0.00006836
 Iteration  7 RMS(Cart)=  0.00000527 RMS(Int)=  0.00006904
 Iteration  8 RMS(Cart)=  0.00000276 RMS(Int)=  0.00006939
 Iteration  9 RMS(Cart)=  0.00000145 RMS(Int)=  0.00006958
 Iteration 10 RMS(Cart)=  0.00000076 RMS(Int)=  0.00006968
 Variable       Old X    -DE/DX   Delta X   Delta X   Delta X     New X
                                 (Linear)    (Quad)   (Total)
    R1        2.88234  -0.00083   0.00000  -0.00315  -0.00332   2.87901
    R2        2.86642   0.00012   0.00000  -0.00104  -0.00121   2.86521
    R3        2.05498   0.00317   0.00000   0.00885   0.00885   2.06382
    R4        2.05252   0.00276   0.00000   0.00766   0.00766   2.06018
    R5        2.63542   0.00299   0.00000   0.00678   0.00695   2.64237
    R6        2.68323   0.00009   0.00000   0.00022   0.00022   2.68345
    R7        2.88782  -0.00105   0.00000  -0.00210  -0.00192   2.88590
    R8        2.03933   0.00727   0.00000   0.01974   0.01974   2.05907
    R9        2.88156  -0.00153   0.00000  -0.00447  -0.00443   2.87714
   R10        2.88826  -0.00046   0.00000  -0.00127  -0.00122   2.88704
   R11        2.67936  -0.00217   0.00000  -0.00499  -0.00499   2.67438
   R12        2.04829   0.00595   0.00000   0.01640   0.01640   2.06469
   R13        2.88266  -0.00080   0.00000  -0.00292  -0.00289   2.87977
   R14        2.05158   0.00243   0.00000   0.00673   0.00673   2.05832
   R15        2.05115   0.00464   0.00000   0.01286   0.01286   2.06401
   R16        2.67698   0.00340   0.00000   0.00742   0.00737   2.68436
   R17        2.67303   0.00394   0.00000   0.00904   0.00906   2.68209
   R18        2.87439   0.00047   0.00000   0.00123   0.00118   2.87557
   R19        2.04373   0.00434   0.00000   0.01188   0.01188   2.05561
   R20        2.05545   0.00630   0.00000   0.01760   0.01760   2.07305
   R21        2.69432   0.00245   0.00000   0.00593   0.00590   2.70022
   R22        2.04312   0.00829   0.00000   0.02265   0.02265   2.06577
   R23        2.04298   0.00454   0.00000   0.01239   0.01239   2.05537
   R24        2.89803  -0.00085   0.00000  -0.00299  -0.00302   2.89502
   R25        2.04562   0.00598   0.00000   0.01641   0.01641   2.06203
   R26        2.05168   0.00320   0.00000   0.00887   0.00887   2.06056
   R27        2.04271   0.00822   0.00000   0.02245   0.02245   2.06516
   R28        2.04392   0.00466   0.00000   0.01276   0.01276   2.05668
   R29        2.05434   0.00307   0.00000   0.00856   0.00856   2.06290
   R30        2.05231   0.00299   0.00000   0.00830   0.00830   2.06061
   R31        2.05456   0.00365   0.00000   0.01017   0.01017   2.06472
   R32        2.04819   0.00312   0.00000   0.00861   0.00861   2.05680
    A1        1.91625  -0.00117   0.00000  -0.00545  -0.00566   1.91059
    A2        1.91597   0.00074   0.00000   0.00066   0.00071   1.91668
    A3        1.94620  -0.00020   0.00000   0.00002   0.00009   1.94628
    A4        1.91640   0.00029   0.00000  -0.00201  -0.00199   1.91441
    A5        1.89205   0.00037   0.00000   0.00343   0.00352   1.89557
    A6        1.87639  -0.00001   0.00000   0.00352   0.00349   1.87987
    A7        2.01160  -0.00303   0.00000  -0.03546  -0.03590   1.97570
    A8        1.98435   0.00405   0.00000   0.00762   0.00660   1.99095
    A9        1.81812  -0.00109   0.00000   0.01239   0.01265   1.83077
   A10        1.94893  -0.00299   0.00000  -0.02588  -0.02670   1.92223
   A11        1.79305   0.00318   0.00000   0.03617   0.03675   1.82980
   A12        1.88763   0.00018   0.00000   0.01613   0.01604   1.90367
   A13        1.93716  -0.00072   0.00000  -0.01358  -0.01385   1.92331
   A14        2.01216  -0.00152   0.00000  -0.01798  -0.01853   1.99363
   A15        1.86713   0.00093   0.00000   0.01324   0.01339   1.88053
   A16        2.00342   0.00031   0.00000  -0.01020  -0.01087   1.99256
   A17        1.84393   0.00013   0.00000   0.01031   0.01037   1.85430
   A18        1.77893   0.00132   0.00000   0.02772   0.02791   1.80684
   A19        1.89586   0.00213   0.00000   0.00133   0.00136   1.89722
   A20        1.93297  -0.00003   0.00000   0.00152   0.00150   1.93447
   A21        1.92015  -0.00121   0.00000  -0.00200  -0.00200   1.91815
   A22        1.91034  -0.00074   0.00000   0.00199   0.00200   1.91233
   A23        1.93627  -0.00067   0.00000  -0.00443  -0.00447   1.93180
   A24        1.86847   0.00046   0.00000   0.00157   0.00158   1.87005
   A25        1.97237  -0.00488   0.00000  -0.02683  -0.02679   1.94557
   A26        1.93715   0.00227   0.00000   0.00941   0.00946   1.94662
   A27        1.85645  -0.00125   0.00000  -0.00292  -0.00291   1.85354
   A28        1.90212   0.00052   0.00000   0.00556   0.00556   1.90769
   A29        1.94330  -0.00036   0.00000  -0.00266  -0.00266   1.94063
   A30        1.93182  -0.00180   0.00000  -0.01059  -0.01064   1.92118
   A31        1.89067   0.00065   0.00000   0.00158   0.00155   1.89222
   A32        1.97180   0.00235   0.00000   0.00782   0.00767   1.97947
   A33        1.92203  -0.00133   0.00000  -0.00471  -0.00465   1.91738
   A34        1.94316  -0.00029   0.00000  -0.00318  -0.00320   1.93995
   A35        1.91252  -0.00001   0.00000   0.00262   0.00267   1.91519
   A36        1.82718  -0.00105   0.00000  -0.00096  -0.00091   1.82627
   A37        1.88322   0.00029   0.00000  -0.00166  -0.00169   1.88153
   A38        1.89835   0.00165   0.00000   0.00248   0.00255   1.90090
   A39        1.93575  -0.00113   0.00000  -0.00862  -0.00862   1.92713
   A40        1.91378  -0.00071   0.00000  -0.00302  -0.00311   1.91067
   A41        1.91078  -0.00053   0.00000  -0.00153  -0.00157   1.90921
   A42        1.92818   0.00025   0.00000   0.00835   0.00834   1.93652
   A43        1.87717   0.00044   0.00000   0.00236   0.00235   1.87952
   A44        1.89536   0.00187   0.00000   0.01092   0.01105   1.90641
   A45        1.96590  -0.00265   0.00000  -0.01925  -0.01934   1.94655
   A46        1.93014  -0.00088   0.00000  -0.00847  -0.00865   1.92149
   A47        1.90142   0.00139   0.00000   0.01451   0.01457   1.91599
   A48        1.86763  -0.00031   0.00000   0.00544   0.00544   1.87307
   A49        1.90063   0.00073   0.00000  -0.00150  -0.00175   1.89889
   A50        1.93380  -0.00119   0.00000  -0.00766  -0.00773   1.92608
   A51        1.90171   0.00009   0.00000   0.00021   0.00024   1.90195
   A52        1.90774   0.00073   0.00000   0.00395   0.00394   1.91167
   A53        1.91778   0.00060   0.00000  -0.00045  -0.00045   1.91732
   A54        1.92779  -0.00016   0.00000   0.00085   0.00089   1.92868
   A55        1.87386  -0.00003   0.00000   0.00347   0.00346   1.87732
   A56        2.11980  -0.00541   0.00000  -0.02675  -0.02627   2.09353
   A57        2.30058  -0.02783   0.00000  -0.10812  -0.10812   2.19246
   A58        1.99828  -0.00217   0.00000  -0.01337  -0.01321   1.98507
   A59        1.85847   0.00041   0.00000   0.01194   0.01193   1.87040
   A60        1.88926   0.00070   0.00000  -0.00905  -0.00937   1.87989
   A61        1.88895   0.00159   0.00000   0.01381   0.01385   1.90280
   A62        1.95418  -0.00030   0.00000  -0.00724  -0.00762   1.94656
   A63        1.86804  -0.00009   0.00000   0.00640   0.00651   1.87455
    D1        0.99889   0.00025   0.00000   0.00448   0.00442   1.00331
    D2        3.09737   0.00068   0.00000   0.00870   0.00867   3.10604
    D3       -1.12364   0.00047   0.00000   0.01033   0.01029  -1.11335
    D4       -1.10943   0.00016   0.00000   0.01000   0.00999  -1.09943
[...]
 01656,-0.00015138,0.00002183,0.00146982,-0.00217259,0.00203197,-0.0052
 6399,-0.00002941,0.00000152,-0.00001640,-0.00001906,-0.00000730,0.0000
 0202,-0.00130105,-0.00054173,0.00090190,0.00035721,0.00043844,0.000593
 92,-0.10738682,0.09145409,0.17934062,0.00001447,0.00001024,-0.00000166
 ,0.00091076,-0.00045336,-0.00071182,-0.00505216,0.00247333,-0.00177199
 ,-0.00001470,-0.00003454,-0.00001153,0.00089530,0.00200221,-0.00334974
 ,0.00010819,0.00999803,0.00140111,0.00006062,-0.00013315,-0.00003889,-
 0.00407532,-0.03374685,0.00664747,-0.00087827,-0.00006488,-0.00060562,
 -0.04777011,-0.02255879,0.00342201,-0.00011343,0.00019686,0.00034315,-
 0.00218746,-0.00282635,0.00061893,-0.00005095,0.00000546,0.00005591,-0
 .00000924,-0.00000243,-0.00000242,-0.00000697,0.00001298,0.00000325,0.
 00014644,-0.00007023,-0.00020068,-0.00000813,0.00002542,-0.00000302,0.
 00004706,-0.00001263,-0.00000012,-0.00004692,-0.00029436,0.00065517,0.
 00033701,-0.00023541,0.00011608,0.00001236,-0.00000228,-0.00003004,-0.
 00001292,0.00001841,0.00001920,0.00147288,0.00057280,0.00033525,0.0012
 7809,0.00068153,-0.00029622,0.00147952,0.01771179,-0.00399717,0.053412
 02,0.00000201,-0.00000870,-0.00000025,0.00055697,-0.00021399,-0.000362
 73,-0.00099870,0.00214467,-0.00053241,0.00000202,0.00001765,-0.0000387
 2,0.00032423,-0.00015872,0.00270142,-0.00083009,-0.00670345,-0.0013625
 8,0.00008716,-0.00005807,-0.00002180,-0.00051759,-0.00693626,0.0008323
 3,0.00067397,0.00048595,-0.00054824,-0.02340214,-0.30738442,0.04102412
 ,-0.00014171,0.00010787,0.00017634,-0.00094554,-0.00072345,0.00040807,
 -0.00003638,0.00001394,0.00004329,-0.00001562,0.00000142,0.00000083,-0
 .00000422,0.00001336,0.00000197,-0.00001134,0.00032665,-0.00008129,-0.
 00002737,0.00000824,0.00000376,0.00000888,-0.00004005,0.00002400,0.000
 25587,0.00012667,0.00028307,-0.00000021,0.00039354,0.00035717,-0.00001
 528,-0.00003826,-0.00001833,-0.00002529,0.00000287,0.00001978,-0.00015
 395,0.00066189,0.00011590,-0.00007888,0.00012065,-0.00029303,-0.001073
 11,-0.01397469,0.00231499,0.02662215,0.33192751,0.00000981,0.00000293,
 -0.00000515,0.00005235,-0.00016241,-0.00013945,-0.00091495,-0.00037783
 ,0.00029486,0.00000098,0.00000056,-0.00001070,-0.00169529,0.00537522,-
 0.00746373,0.00513353,0.02920147,-0.00014573,0.00001082,0.00001962,0.0
 0002172,0.00070041,-0.00472043,0.00012281,-0.00186864,-0.00086599,-0.0
 0004181,0.00358546,0.03913717,-0.05581941,0.00006699,-0.00000018,0.000
 06256,-0.00052233,-0.00030861,0.00044147,-0.00000604,-0.00000481,0.000
 00897,0.00000011,-0.00000115,0.00000110,0.00000092,-0.00000049,0.00000
 078,-0.00022829,0.00042310,-0.00007885,-0.00000344,0.00000104,0.000001
 24,0.00000567,0.00000084,0.00000757,-0.00037141,-0.00057253,0.00095862
 ,0.00079832,-0.00087142,0.00092187,-0.00001671,0.00000827,-0.00001020,
 -0.00000674,-0.00000168,0.00000130,0.00009000,0.00037661,0.00017739,0.
 00050038,-0.00020273,0.00004843,-0.00281684,-0.02133348,0.00393655,-0.
 00291719,-0.04519733,0.05656990,0.00024248,0.00046959,0.00002507,-0.01
 942532,-0.00965590,0.00970307,0.00114582,0.00178250,0.00012825,-0.0001
 6886,-0.00065873,0.00052321,-0.00030525,-0.00012296,-0.00024279,0.0000
 0627,0.00011382,0.00003782,-0.00022113,0.00027804,0.00001200,-0.000077
 23,-0.00008434,-0.00008029,-0.00006782,-0.00012347,0.00031483,0.000064
 52,-0.00005735,0.00002435,0.00112979,0.00018105,-0.00100060,-0.0061071
 5,0.00213271,-0.00193698,-0.25589190,-0.07918898,0.06485301,-0.0000172
 4,-0.00005932,-0.00048238,0.00020813,0.00001281,-0.00017048,-0.0003981
 1,-0.00017306,-0.00003941,0.00079701,-0.00033148,-0.00017953,0.0012651
 3,0.00023410,0.00018457,-0.00002159,-0.00001457,-0.00001448,0.00001473
 ,-0.00001693,-0.00000720,0.00001235,-0.00004650,0.00006788,-0.00000279
 ,-0.00002598,-0.00004433,0.00005061,-0.00001191,0.00002540,0.00001526,
 -0.00000574,-0.00000790,-0.00002106,0.00000369,-0.00000092,-0.00004961
 ,-0.00003398,-0.00000442,0.27945994,-0.00058785,0.00132515,0.00146568,
 0.01347830,0.00386252,-0.00530011,-0.00010889,-0.00123833,-0.00013766,
 -0.03127493,-0.01644882,0.00961578,0.00016233,0.00008585,0.00015223,-0
 .00001439,-0.00008484,0.00000342,0.00005915,-0.00018504,-0.00006246,0.
 00001395,-0.00005203,-0.00007798,0.00006629,0.00007450,-0.00019698,-0.
 00005936,0.00011499,0.00000986,-0.00071262,0.00001302,-0.00016073,0.00
 558895,-0.00028736,0.00142053,-0.08129099,-0.07629365,0.02619507,0.000
 48910,0.00014977,-0.00071400,0.00051002,0.00019820,0.00017587,0.000311
 60,0.00015303,0.00002897,0.00033955,0.00158736,0.00036777,0.00029141,-
 0.00635807,-0.00188926,0.00000393,0.00001274,-0.00000301,-0.00000226,0
 .00001024,0.00000310,0.00008472,-0.00003296,0.00004237,-0.00004918,0.0
 0008755,-0.00004014,0.00007417,0.00010292,0.00009871,0.00002323,0.0000
 0340,-0.00004494,-0.00003480,-0.00000846,-0.00000221,0.00002831,0.0000
 1282,0.00000350,0.08546314,0.09080450,-0.00109038,-0.00059510,0.000572
 00,-0.01606174,-0.00657877,0.00388629,-0.00001550,0.00059657,0.0004289
 2,-0.00412051,-0.00145967,0.00049267,-0.00002214,-0.00002296,-0.000036
 71,0.00000484,0.00002505,0.00000402,-0.00021732,0.00011219,-0.00003424
 ,0.00000176,0.00001967,-0.00002460,0.00004139,0.00001157,0.00006250,0.
 00001331,-0.00002159,0.00001174,0.00087892,0.00054153,0.00001639,-0.00
 270813,0.00103382,-0.00012850,0.06811444,0.02549549,-0.07217658,0.0000
 7452,-0.00020282,0.00007875,0.00001917,0.00008577,0.00008457,-0.000215
 94,-0.00012638,-0.00001840,0.00021862,0.00037484,0.00013770,-0.0002937
 4,-0.00088427,0.00076258,-0.00000193,-0.00000243,-0.00000016,0.0000016
 6,-0.00000350,-0.00000152,0.00005827,0.00002701,0.00000779,0.00001966,
 -0.00003732,0.00001288,0.00004047,-0.00005379,-0.00000913,-0.00001191,
 -0.00000183,0.00000383,0.00000520,0.00000059,-0.00000208,-0.00000767,-
 0.00000539,-0.00000205,-0.07284797,-0.02915404,0.07267218,0.00065606,0
 .00018122,0.00022105,0.00095466,-0.00626568,-0.02221901,-0.00018800,-0
 .00021710,-0.00011895,-0.00088420,-0.00103155,-0.00179854,-0.00001070,
 0.00000504,0.00008284,0.00000756,0.00000533,-0.00001772,0.00004581,0.0
 0126234,0.00052036,0.00007054,-0.00000189,-0.00003195,0.00011017,-0.00
 001874,-0.00009886,-0.00001766,0.00000660,0.00001105,-0.00374590,0.001
 71454,-0.00521796,0.00122869,-0.00037792,-0.00055920,-0.05067411,0.008
 02195,0.03624888,0.00022524,0.00003753,-0.00047926,0.00039435,0.000126
 77,0.00010505,0.00005961,0.00003609,0.00000410,-0.00004123,-0.00000104
 ,0.00028032,0.00022810,0.00031556,-0.00029761,0.00000200,-0.00000026,0
 .00000633,0.00000073,0.00000241,0.00000267,-0.00001924,-0.00014963,-0.
 00001125,0.00005848,-0.00010794,0.00000127,-0.00001527,0.00003413,-0.0
 0001921,0.00001717,0.00000237,0.00006479,0.00000151,-0.00000084,0.0000
 0049,0.00000944,0.00000574,0.00000189,-0.00248460,0.00658036,0.0277613
 4,0.05364362,-0.00046629,-0.00734766,0.00050943,-0.00404483,0.00373814
 ,0.01379707,-0.00005608,0.00007016,-0.00003378,0.00424708,-0.00567501,
 -0.03316810,0.00003097,0.00001088,-0.00002199,0.00000496,-0.00001727,-
 0.00000017,0.00046405,-0.00139432,-0.00000878,0.00002202,-0.00002776,-
 0.00005144,-0.00004649,0.00003576,0.00001469,-0.00001183,0.00002421,0.
 00001974,0.00347820,-0.00006460,0.00367978,-0.00028169,0.00053208,0.00
 028246,0.00808439,-0.06195395,-0.05901660,0.00016291,0.00011631,0.0001
 3297,-0.00011324,-0.00033749,-0.00224420,-0.00000044,-0.00000342,-0.00
 000711,0.00038106,0.00138280,0.00058732,-0.00041176,0.00147995,0.00051
 584,0.00000082,0.00000134,-0.00000008,-0.00000184,0.00000111,0.0000019
 5,-0.00004384,0.00015737,0.00002815,-0.00008491,0.00023450,-0.00003218
 ,0.00000370,0.00001849,0.00001647,0.00000051,-0.00001008,0.00001791,-0
 .00000778,-0.00000244,-0.00000149,0.00000328,0.00000155,0.00000071,-0.
 00038258,0.00184781,0.01114181,-0.01031195,0.06717470,-0.00012157,-0.0
 0089993,0.00130391,0.00451734,-0.00579469,-0.01794035,-0.00034500,-0.0
 0044940,0.00052903,0.00020096,-0.00044379,-0.00121199,0.00002098,0.000
 02788,0.00014396,0.00000147,-0.00001014,-0.00001513,0.00047724,0.00111
 796,0.00073877,-0.00000235,-0.00002111,-0.00003248,0.00022196,0.000032
 56,-0.00019082,-0.00001105,0.00003346,0.00001110,-0.00328334,0.0019588
 0,-0.00252335,0.00228253,-0.00038563,0.00187094,0.03069284,-0.05841249
 ,-0.30204744,-0.00001159,0.00008236,0.00017359,-0.00010521,0.00014932,
 -0.00025096,-0.00001716,-0.00002312,-0.00000502,0.00009609,-0.00042597
 ,0.00027378,-0.00013142,-0.00029511,0.00024250,0.00000002,0.00000209,0
 .00000145,0.00000309,0.00000517,0.00000414,-0.00007739,-0.00015188,-0.
 00002003,0.00001290,-0.00007656,-0.00006773,0.00000837,0.00004401,-0.0
 0000148,-0.00005981,-0.00000635,-0.00002347,-0.00000855,-0.00000154,-0
 .00000081,0.00001019,0.00000230,0.00000027,0.00100827,-0.00119242,-0.0
 0753284,-0.03510998,0.06462656,0.32612934,0.00006592,-0.00038829,-0.00
 030124,-0.06153206,-0.06329516,-0.00115716,0.00304972,-0.00119234,0.00
 541266,-0.00224352,0.00110497,-0.00321918,-0.00039612,-0.00013895,-0.0
 0028984,0.00003660,0.00018733,0.00012239,0.00075208,0.00142399,-0.0006
 8107,-0.00167550,-0.00001094,-0.00027599,0.00040205,-0.00007042,0.0003
 6376,0.00019539,-0.00067783,0.00008017,0.00270622,-0.00680762,-0.00218
 741,-0.03644329,-0.02724715,0.01452398,0.00394136,0.02289386,-0.002338
 54,-0.00004347,-0.00004403,0.00007240,0.00006659,-0.00003184,0.0001240
 5,-0.00073116,-0.00019468,-0.00001835,-0.00016032,0.00120098,0.0001973
 5,0.00008870,0.00021263,-0.00002283,-0.00004284,-0.00001725,-0.0000331
 5,0.00002851,-0.00002493,-0.00002344,-0.00004286,0.00023285,0.00005039
 ,0.00010510,-0.00039083,-0.00007863,0.00006243,-0.00008626,-0.00008603
 ,0.00001474,0.00006629,0.00001107,0.00001551,0.00002351,0.00000462,-0.
 00024440,-0.00012892,-0.00005173,0.00084744,0.00056003,0.00036420,0.00
 035085,-0.00060671,-0.00030738,0.09088682,-0.00027171,0.00018841,0.000
 24018,-0.06828787,-0.29257137,0.02499747,0.00202052,0.00134759,0.00055
 772,0.00272703,0.00065385,0.00218431,-0.00022663,-0.00005366,-0.000038
 53,0.00000411,0.00005821,0.00000759,-0.00179848,0.00374051,-0.00053192
 ,0.00019966,-0.00005407,-0.00007746,0.00010359,-0.00019002,0.00004486,
 0.00001519,0.00006204,-0.00000253,-0.00138922,-0.01479231,-0.01250595,
 -0.00435549,0.00651652,0.00186057,-0.00225825,-0.01626774,0.00241412,0
 .00010300,0.00003208,-0.00004113,0.00001626,-0.00006393,-0.00002192,-0
 .00022903,-0.00009648,-0.00003007,0.00000734,-0.00103852,-0.00029440,-
 0.00013672,0.00017409,0.00002336,-0.00001654,-0.00000819,-0.00000475,0
 .00001466,-0.00000635,0.00000279,-0.00007598,-0.00047200,-0.00003270,0
 .00002016,-0.00051116,-0.00020759,-0.00000543,0.00004641,0.00004294,-0
 .00000181,0.00001064,0.00000391,-0.00002856,-0.00000079,-0.00000430,0.
 00000144,-0.00000617,-0.00000016,0.00032564,0.00053918,-0.00030756,0.0
 0011351,0.00002557,0.00047325,0.07337144,0.31272120,-0.00009719,-0.000
 21636,-0.00041379,0.00039600,0.03420686,-0.04844779,-0.00221966,0.0014
 2565,-0.00257095,-0.00324411,0.00052871,-0.00234293,0.00003319,0.00004
 243,0.00020329,-0.00001091,-0.00003959,-0.00009652,-0.00429720,0.00136
 573,-0.00294396,0.00096591,0.00008907,0.00022955,-0.00007787,-0.000032
 88,-0.00039278,-0.00009678,0.00036703,-0.00005108,-0.00679652,-0.04632
 754,-0.01684829,0.02176333,0.00955340,-0.00012838,0.00217749,0.0202453
 6,0.00235680,0.00011348,0.00001341,0.00012528,0.00017683,-0.00001998,0
 .00027017,0.00025512,0.00004404,-0.00001144,-0.00009024,0.00137638,0.0
 0032592,0.00011533,-0.00016760,-0.00008027,0.00001525,0.00000136,0.000
 02136,-0.00000124,0.00001145,0.00001593,-0.00006133,-0.00133275,-0.000
 34519,0.00011789,-0.00100599,-0.00038502,-0.00004368,0.00008338,-0.000
 01664,-0.00004146,-0.00000107,0.00002620,-0.00000773,-0.00001515,-0.00
 000388,0.00013312,0.00005539,0.00002808,0.00018933,-0.00063663,0.00075
 526,0.00061396,-0.00077636,0.00036335,-0.01002151,-0.01884852,0.070201
 08,-0.00006624,0.00010907,-0.00005200,-0.00001656,-0.00060833,-0.00141
 469,0.00902980,-0.00653962,-0.00863693,0.00005859,-0.00001923,-0.00001
 653,-0.03909477,0.00962286,0.02275148,0.00098098,0.00578947,0.00027688
 ,-0.00309661,0.00033346,-0.00028011,0.00001482,-0.00065596,0.00072390,
 -0.10143702,0.06749636,0.08545389,-0.00009563,-0.00067190,-0.00003636,
 -0.00479187,0.00067092,0.00050126,-0.00019905,0.00041215,0.00212281,-0
 .00009468,0.00000573,0.00008198,0.00007519,0.00002514,0.00001876,0.000
 02311,-0.00002843,-0.00001175,-0.00054610,0.00066288,-0.00314427,0.000
 00895,-0.00000654,0.00004678,-0.00001345,0.00000237,-0.00000661,0.0002
 5964,-0.00022688,-0.00045232,0.00061501,-0.00119361,-0.00049354,-0.001
 13061,0.00106069,-0.00030134,0.00010527,0.00001345,0.00014221,0.000017
 88,0.00012254,0.00027634,-0.00007174,-0.00001698,0.00009511,-0.0000636
 8,0.00005135,-0.00008512,0.00015399,-0.00009811,0.00019861,0.00000403,
 0.00000764,-0.00000092,0.00001418,-0.00000539,0.00004091,-0.00003808,0
 .00004204,0.00004924,0.13712170,0.00006487,-0.00007423,0.00001425,0.00
 022523,-0.00031529,-0.00079245,-0.00151646,0.00298246,0.00463107,0.000
 01024,0.00003452,-0.00003857,-0.00728891,0.00588894,0.00688854,-0.0024
 5271,0.00327328,0.00221377,0.00150856,0.00094961,0.00045671,-0.0005871
 5,0.00089356,0.00007434,0.06987806,-0.13341200,-0.09788378,0.00011263,
 -0.00033592,0.00006002,0.00085725,-0.00080300,0.00036715,-0.00058980,0
 .00014026,-0.00030207,-0.00007132,0.00003596,0.00013827,-0.00000195,-0
 .00001965,0.00001224,0.00001362,-0.00001907,0.00002349,-0.00011361,0.0
 0087669,0.00109775,-0.00000513,-0.00000775,0.00000087,0.00000965,-0.00
 001200,0.00001459,0.00005345,0.00022739,0.00005853,0.00057490,0.000554
 11,-0.00058935,0.00165252,-0.00094481,0.00020217,-0.00018091,-0.000061
 16,-0.00008550,0.00007185,0.00029946,-0.00022470,-0.00002983,0.0000391
 2,-0.00016343,0.00003842,-0.00016077,-0.00016044,0.00009334,-0.0000244
 2,0.00001308,-0.00001511,0.00000402,-0.00000670,0.00003574,-0.00002142
 ,0.00003720,-0.00002456,-0.00000111,0.00002190,-0.07644003,0.13489308,
 0.00033451,0.00027364,-0.00024772,0.00045021,-0.00097664,-0.00203390,0
 .01745222,-0.01762646,-0.02029392,-0.00000307,-0.00000537,-0.00007833,
 0.00168540,0.00245446,0.00603160,-0.00024453,0.00038712,0.00018848,-0.
 00043057,-0.00024458,0.00101669,0.00045127,-0.00148613,0.00152324,0.08
 449941,-0.09675172,-0.17671174,0.00002926,0.00009826,-0.00013119,0.002
 00458,0.00040600,0.00126577,-0.00274754,0.00024994,0.00096692,-0.00018
 841,-0.00000632,0.00021417,0.00017220,-0.00007569,0.00011938,-0.000001
 26,-0.00002914,0.00002194,-0.00190082,0.00127702,-0.00502234,0.0000257
 6,0.00000695,0.00003819,-0.00000777,0.00001279,-0.00001013,-0.00012884
 ,0.00026555,0.00014859,0.00042997,0.00063605,-0.00046711,0.00006362,0.
 00075747,0.00004836,0.00004997,0.00004549,-0.00024254,-0.00009141,0.00
 095422,0.00007030,-0.00037833,0.00006518,0.00034506,-0.00009280,-0.000
 09959,0.00003289,0.00007338,0.00005470,0.00004088,-0.00004778,0.000039
 76,-0.00002005,0.00005020,-0.00001509,0.00008328,-0.00014930,0.0000432
 4,0.00013281,-0.09699603,0.10492649,0.18638448,-0.00009943,-0.00013717
 ,0.00008027,-0.00020336,0.00006788,-0.00007017,0.00095512,0.01150969,-
 0.00118278,0.00000866,0.00003114,-0.00000011,-0.00991176,-0.04244132,0
 .00848141,-0.00587244,0.00158615,-0.00021983,0.00008509,0.00057366,-0.
 00009555,-0.00065268,-0.00000654,-0.00314406,-0.04736406,0.00583085,0.
 00033410,-0.00048157,-0.00072904,-0.00006406,0.00054337,-0.00014646,0.
 00009173,0.00112612,-0.00000018,0.00089264,0.00000050,0.00001842,0.000
 01919,-0.00006608,0.00002474,-0.00003175,0.00000884,0.00000198,0.00000
 714,0.00040594,-0.00063762,0.00029953,-0.00001588,-0.00000519,-0.00000
 948,0.00001616,-0.00002271,0.00001529,-0.00031690,-0.00176411,0.000408
 93,0.00020033,-0.00025130,-0.00027559,-0.00013734,-0.00020649,-0.00000
 080,-0.00003091,-0.00002280,0.00002116,-0.00001342,-0.00036812,0.00012
 598,0.00031132,0.00091479,-0.00041158,0.00005838,0.00004570,0.00003344
 ,0.00018242,-0.00000057,0.00026779,-0.00000384,-0.00000091,-0.00000198
 ,0.00000214,-0.00000629,-0.00000336,-0.00002239,-0.00000385,-0.0000080
 4,0.00227295,0.01411714,-0.00436349,0.05901473,0.00007916,0.00016256,-
 0.00004189,-0.00000586,-0.00006991,0.00035290,-0.00062036,-0.00464314,
 0.00012301,-0.00000511,-0.00003338,0.00001396,-0.00618084,-0.00888462,
 0.00108323,-0.00163568,0.00296341,-0.00046228,-0.00029954,-0.00039339,
 0.00003713,0.00015741,0.00142585,0.00111320,-0.00509297,-0.30523009,0.
 06148765,0.00019565,-0.00002596,-0.00020311,-0.00002801,0.00041318,-0.
 00004009,0.00146070,0.00111333,-0.00008950,0.00000589,-0.00001739,-0.0
 0001470,0.00005399,-0.00002512,0.00003066,-0.00001771,0.00000308,-0.00
 000845,-0.00012580,0.00061733,0.00032289,0.00002141,0.00000453,0.00000
 584,-0.00001156,0.00002801,-0.00001956,-0.00019291,-0.00053972,0.00036
 238,0.00008269,0.00025165,0.00004964,0.00007603,0.00022442,-0.00001313
 ,0.00003760,0.00002938,-0.00002350,-0.00000190,0.00025432,-0.00015535,
 -0.00012546,-0.00034508,0.00014346,-0.00002583,0.00001574,0.00004202,-
 0.00002231,-0.00009658,0.00005711,0.00001179,-0.00000002,-0.00000180,-
 0.00000269,0.00000269,-0.00000280,0.00010082,0.00001760,-0.00001117,0.
 00008288,-0.01487988,0.00436240,0.01202850,0.32765721,0.00011631,0.000
 12567,-0.00008725,-0.00038491,-0.00015758,-0.00020455,0.00050536,0.032
 63163,-0.00837519,0.00003383,0.00002646,-0.00004994,0.00104597,-0.0020
 7752,0.00155820,-0.00084719,-0.00091396,0.00014860,0.00000332,-0.00040
 204,0.00019471,-0.00238663,-0.00099550,-0.00546670,0.00285996,0.060703
 94,-0.06692732,-0.00044631,-0.00035147,0.00011009,-0.00030447,0.000138
 60,-0.00003720,0.00128808,-0.00139051,0.00253070,0.00002932,0.00002120
 ,-0.00001103,0.00005607,-0.00002412,0.00004401,-0.00000338,-0.00000305
 ,-0.00000335,0.00056204,-0.00031969,0.00142486,-0.00002048,-0.00000610
 ,0.00002336,0.00001593,-0.00002423,0.00001432,-0.00020894,-0.00012844,
 0.00033848,-0.00010206,0.00041825,0.00012738,0.00010655,0.00018415,-0.
 00010306,-0.00002363,-0.00000450,-0.00001160,-0.00012026,0.00013018,0.
 00003724,0.00011608,0.00183808,-0.00056278,0.00011642,-0.00000407,0.00
 002412,0.00011156,0.00004264,0.00007073,0.00001040,-0.00001008,-0.0000
 0323,0.00000292,0.00000450,-0.00000554,-0.00008428,0.00005318,0.000023
 86,-0.00085162,-0.02100547,0.00658597,-0.00119599,-0.06850014,0.068592
 11\\-0.00000384,-0.00000177,-0.00001020,-0.00015533,0.00135735,-0.0006
 8609,-0.00020500,0.00064976,-0.00040021,0.00001088,-0.00002195,0.00001
 899,0.00001570,-0.00002427,0.00000861,0.00000156,0.00001717,-0.0000150
 1,0.00000489,-0.00000144,-0.00002046,-0.00003604,-0.00000952,-0.000006
 93,-0.00000622,0.00000752,0.00001213,0.00000915,-0.00001238,0.00001453
 ,0.00002327,-0.00066664,0.00031338,0.00032657,-0.00132801,0.00078987,-
 0.00002239,0.00000766,0.00002166,-0.00000148,-0.00000055,-0.00000090,-
 0.00000630,0.00001050,-0.00000830,0.00001100,-0.00000417,0.00000265,0.
 00000341,-0.00000404,-0.00001398,0.00001758,0.00000886,-0.00000934,0.0
 0000137,-0.00000418,0.00001114,-0.00000617,0.00000091,0.00000915,-0.00
 001538,0.00000341,-0.00000857,0.00001049,-0.00000174,0.00000739,0.0000
 1270,0.00001552,-0.00001506,-0.00000509,-0.00000190,-0.00000463,0.0000
 0285,-0.00000019,0.00000310,0.00001254,0.00000569,0.00000954,-0.000001
 88,0.00000182,-0.00001260,0.00000732,0.00000893,-0.00001479,0.00000454
 ,0.00000781,0.00000290,0.00000135,-0.00001325,0.00000757,-0.00001205,-
 0.00000691,-0.00000553\\\@


 THE UNDERLYING PHYSICAL LAWS NECESSARY FOR THE 
 MATHEMATICAL THEORY OF A LARGE PART OF PHYSICS AND THE
 WHOLE OF CHEMISTRY ARE THUS COMPLETELY KNOWN, AND THE
 DIFFICULTY IS ONLY THAT THE EXACT APPLICATION OF THESE
 LAWS LEADS TO EQUATIONS MUCH TOO COMPLICATED 
 TO BE SOLUBLE.

                                        -- P. A. M. DIRAC, 1929
 Job cpu time:       0 days 14 hours 46 minutes 30.7 seconds.
 Elapsed time:       0 days  0 hours 55 minutes 26.3 seconds.
 File lengths (MBytes):  RWF=    683 Int=      0 D2E=      0 Chk=     33 Scr=      1
 Normal termination of Gaussian 16 at Sun Nov  4 23:09:07 2018.
