 Entering Gaussian System, Link 0=g16
 Initial command:
 /apps/gaussian/g16a03/g16/l1.exe "/jobfs/local/2011928.r-man2/Gau-16377.inp" -scrdir="/jobfs/local/2011928.r-man2/"
 Entering Link 1 = /apps/gaussian/g16a03/g16/l1.exe PID=     16378.
  
 Copyright (c) 1988,1990,1992,1993,1995,1998,2003,2009,2016,
            Gaussian, Inc.  All Rights Reserved.
  
 This is part of the Gaussian(R) 16 program.  It is based on
 the Gaussian(R) 09 system (copyright 2009, Gaussian, Inc.),
 the Gaussian(R) 03 system (copyright 2003, Gaussian, Inc.),
 the Gaussian(R) 98 system (copyright 1998, Gaussian, Inc.),
 the Gaussian(R) 94 system (copyright 1995, Gaussian, Inc.),
 the Gaussian 92(TM) system (copyright 1992, Gaussian, Inc.),
 the Gaussian 90(TM) system (copyright 1990, Gaussian, Inc.),
 the Gaussian 88(TM) system (copyright 1988, Gaussian, Inc.),
 the Gaussian 86(TM) system (copyright 1986, Carnegie Mellon
 University), and the Gaussian 82(TM) system (copyright 1983,
 Carnegie Mellon University). Gaussian is a federally registered
 trademark of Gaussian, Inc.
  
 This software contains proprietary and confidential information,
 including trade secrets, belonging to Gaussian, Inc.
  
 This software is provided under written license and may be
 used, copied, transmitted, or stored only in accord with that
 written license.
  
 The following legend is applicable only to US Government
 contracts under FAR:
  
                    RESTRICTED RIGHTS LEGEND
  
 Use, reproduction and disclosure by the US Government is
 subject to restrictions as set forth in subparagraphs (a)
 and (c) of the Commercial Computer Software - Restricted
 Rights clause in FAR 52.227-19.
  
 Gaussian, Inc.
 340 Quinnipiac St., Bldg. 40, Wallingford CT 06492
  
  
 ---------------------------------------------------------------
 Warning -- This program may not be used in any manner that
 competes with the business of Gaussian, Inc. or will provide
 assistance to any competitor of Gaussian, Inc.  The licensee
 of this program is prohibited from giving any competitor of
 Gaussian, Inc. access to this program.  By using this program,
 the user acknowledges that Gaussian, Inc. is engaged in the
 business of creating and licensing software in the field of
 computational chemistry and represents and warrants to the
 licensee that it is not a competitor of Gaussian, Inc. and that
 it will not use this program in any manner prohibited above.
 ---------------------------------------------------------------
  

 Cite this work as:
 Gaussian 16, Revision A.03,
 M. J. Frisch, G. W. Trucks, H. B. Schlegel, G. E. Scuseria, 
 M. A. Robb, J. R. Cheeseman, G. Scalmani, V. Barone, 
 G. A. Petersson, H. Nakatsuji, X. Li, M. Caricato, A. V. Marenich, 
 J. Bloino, B. G. Janesko, R. Gomperts, B. Mennucci, H. P. Hratchian, 
 J. V. Ortiz, A. F. Izmaylov, J. L. Sonnenberg, D. Williams-Young, 
 F. Ding, F. Lipparini, F. Egidi, J. Goings, B. Peng, A. Petrone, 
 T. Henderson, D. Ranasinghe, V. G. Zakrzewski, J. Gao, N. Rega, 
 G. Zheng, W. Liang, M. Hada, M. Ehara, K. Toyota, R. Fukuda, 
 J. Hasegawa, M. Ishida, T. Nakajima, Y. Honda, O. Kitao, H. Nakai, 
 T. Vreven, K. Throssell, J. A. Montgomery, Jr., J. E. Peralta, 
 F. Ogliaro, M. J. Bearpark, J. J. Heyd, E. N. Brothers, K. N. Kudin, 
 V. N. Staroverov, T. A. Keith, R. Kobayashi, J. Normand, 
 K. Raghavachari, A. P. Rendell, J. C. Burant, S. S. Iyengar, 
 J. Tomasi, M. Cossi, J. M. Millam, M. Klene, C. Adamo, R. Cammi, 
 J. W. Ochterski, R. L. Martin, K. Morokuma, O. Farkas, 
 J. B. Foresman, and D. J. Fox, Gaussian, Inc., Wallingford CT, 2016.
 
 ******************************************
 Gaussian 16:  ES64L-G16RevA.03 25-Dec-2016
                 4-Nov-2018 
 ******************************************
 %mem=6000mb
 %nproc=24
 Will use up to   24 processors via shared memory.
 %chk=D_1a_4e_D_PHI.inp_extract_10.chk
 ----------------------------------------------------------------------
 #M062X/6-311++G(2d,2p) opt=ModRedundant freq=noraman SCRF=(Solvent=Wat
 er)
 ----------------------------------------------------------------------
 1/18=120,19=15,26=3,38=1/1,3;
 2/9=110,12=2,17=6,18=5,40=1/2;
 3/5=4,6=6,7=1212,11=2,25=1,30=1,70=2201,71=1,72=1,74=-55/1,2,3;
 4//1;
 5/5=2,38=5,53=1/2;
 6/7=2,8=2,9=2,10=2,28=1/1;
 7//1,2,3,16;
 1/18=20,19=15,26=3/3(2);
 2/9=110/2;
 99//99;
 2/9=110/2;
 3/5=4,6=6,7=1212,11=2,25=1,30=1,70=2205,71=1,72=1,74=-55/1,2,3;
 4/5=5,16=3,69=1/1;
 5/5=2,38=5,53=1/2;
 7//1,2,3,16;
 1/18=20,19=15,26=3/3(-5);
 2/9=110/2;
 6/7=2,8=2,9=2,10=2,19=2,28=1/1;
 99/9=1/99;
 ----------------------------
 D_1a_4e_D_PHI.inp_extract_10
 ----------------------------
 Symbolic Z-matrix:
 Charge =  0 Multiplicity = 1
 C                    -3.13629  -1.13165   0.11651 
 C                    -1.35726   1.20809   0.23729 
 C                     1.06876   0.65518  -0.54651 
 C                    -1.95668  -1.19621   1.0818 
 O                     2.35132  -1.33181  -0.82581 
 C                     3.2748   -0.99838   0.19611 
 C                    -2.7491   -0.27791  -1.07343 
 C                     2.01753   1.14896   0.54306 
 C                     1.04192  -0.86971  -0.55961 
 C                     3.39641   0.50984   0.34629 
 O                    -2.43094   1.03663  -0.64782 
 O                    -0.17711   1.33592  -0.52928 
 C                    -1.42215   0.20801   1.40313 
 H                    -4.00654  -0.69305   0.59894 
 H                    -3.41291  -2.127    -0.21886 
 H                     1.47961   0.95392  -1.50325 
 H                    -2.24788  -1.67086   2.0138 
 H                    -1.19052  -1.8218    0.6442 
 H                     4.21785  -1.44451  -0.08835 
 H                     2.94766  -1.4529    1.12845 
 H                    -1.90613  -0.70797  -1.60484 
 H                    -3.56593  -0.1643   -1.77262 
 H                     1.6265    0.88819   1.52216 
 H                     2.09104   2.23105   0.49739 
 H                     3.86482   0.91716  -0.54612 
 H                     4.04608   0.73714   1.18628 
 H                    -2.11143   0.66439   2.1077 
 H                    -0.46491   0.1575    1.90511 
 H                    -1.50958   2.19553   0.64246 
 H                     0.72234  -1.27646   0.38923 
 H                     0.40611  -1.24929  -1.34621 
 
 The following ModRedundant input section has been read:
 D      11       2      12       3 F                                           
 

 GradGradGradGradGradGradGradGradGradGradGradGradGradGradGradGradGradGrad
 Berny optimization.
 Initialization pass.
                           ----------------------------
                           !    Initial Parameters    !
                           ! (Angstroms and Degrees)  !
 --------------------------                            --------------------------
 ! Name  Definition              Value          Derivative Info.                !
 --------------------------------------------------------------------------------
 ! R1    R(1,4)                  1.5256         estimate D2E/DX2                !
 ! R2    R(1,7)                  1.5148         estimate D2E/DX2                !
 ! R3    R(1,14)                 1.0874         estimate D2E/DX2                !
 ! R4    R(1,15)                 1.0861         estimate D2E/DX2                !
 ! R5    R(2,11)                 1.402          estimate D2E/DX2                !
 ! R6    R(2,12)                 1.413          estimate D2E/DX2                !
 ! R7    R(2,13)                 1.5374         estimate D2E/DX2                !
 ! R8    R(2,29)                 1.0781         estimate D2E/DX2                !
 ! R9    R(3,8)                  1.5268         estimate D2E/DX2                !
 ! R10   R(3,9)                  1.5252         estimate D2E/DX2                !
 ! R11   R(3,12)                 1.4198         estimate D2E/DX2                !
 ! R12   R(3,16)                 1.0832         estimate D2E/DX2                !
 ! R13   R(4,13)                 1.5365         estimate D2E/DX2                !
 ! R14   R(4,17)                 1.0857         estimate D2E/DX2                !
 ! R15   R(4,18)                 1.0816         estimate D2E/DX2                !
 ! R16   R(5,6)                  1.4172         estimate D2E/DX2                !
 ! R17   R(5,9)                  1.4138         estimate D2E/DX2                !
 ! R18   R(6,10)                 1.5206         estimate D2E/DX2                !
 ! R19   R(6,19)                 1.0813         estimate D2E/DX2                !
 ! R20   R(6,20)                 1.0876         estimate D2E/DX2                !
 ! R21   R(7,11)                 1.4179         estimate D2E/DX2                !
 ! R22   R(7,21)                 1.0853         estimate D2E/DX2                !
 ! R23   R(7,22)                 1.0812         estimate D2E/DX2                !
 ! R24   R(8,10)                 1.5325         estimate D2E/DX2                !
 ! R25   R(8,23)                 1.0861         estimate D2E/DX2                !
 ! R26   R(8,24)                 1.0855         estimate D2E/DX2                !
 ! R27   R(9,30)                 1.0807         estimate D2E/DX2                !
 ! R28   R(9,31)                 1.0803         estimate D2E/DX2                !
 ! R29   R(10,25)                1.0871         estimate D2E/DX2                !
 ! R30   R(10,26)                1.086          estimate D2E/DX2                !
 ! R31   R(13,27)                1.0862         estimate D2E/DX2                !
 ! R32   R(13,28)                1.0821         estimate D2E/DX2                !
 ! A1    A(4,1,7)              108.8588         estimate D2E/DX2                !
 ! A2    A(4,1,14)             110.8033         estimate D2E/DX2                !
 ! A3    A(4,1,15)             110.7023         estimate D2E/DX2                !
 ! A4    A(7,1,14)             109.0099         estimate D2E/DX2                !
 ! A5    A(7,1,15)             109.8173         estimate D2E/DX2                !
 ! A6    A(14,1,15)            107.6259         estimate D2E/DX2                !
 ! A7    A(11,2,12)            107.9494         estimate D2E/DX2                !
 ! A8    A(11,2,13)            111.5224         estimate D2E/DX2                !
 ! A9    A(11,2,29)            103.9494         estimate D2E/DX2                !
 ! A10   A(12,2,13)            120.3639         estimate D2E/DX2                !
 ! A11   A(12,2,29)            103.8282         estimate D2E/DX2                !
 ! A12   A(13,2,29)            107.7475         estimate D2E/DX2                !
 ! A13   A(8,3,9)              109.9021         estimate D2E/DX2                !
 ! A14   A(8,3,12)             112.4298         estimate D2E/DX2                !
 ! A15   A(8,3,16)             107.7828         estimate D2E/DX2                !
 ! A16   A(9,3,12)             117.6472         estimate D2E/DX2                !
 ! A17   A(9,3,16)             105.9517         estimate D2E/DX2                !
 ! A18   A(12,3,16)            102.1986         estimate D2E/DX2                !
 ! A19   A(1,4,13)             111.2626         estimate D2E/DX2                !
 ! A20   A(1,4,17)             110.7489         estimate D2E/DX2                !
 ! A21   A(1,4,18)             108.433          estimate D2E/DX2                !
 ! A22   A(13,4,17)            108.2601         estimate D2E/DX2                !
 ! A23   A(13,4,18)            111.5175         estimate D2E/DX2                !
 ! A24   A(17,4,18)            106.5256         estimate D2E/DX2                !
 ! A25   A(6,5,9)              113.0067         estimate D2E/DX2                !
 ! A26   A(5,6,10)             110.8981         estimate D2E/DX2                !
 ! A27   A(5,6,19)             106.3525         estimate D2E/DX2                !
 ! A28   A(5,6,20)             108.8952         estimate D2E/DX2                !
 ! A29   A(10,6,19)            111.4351         estimate D2E/DX2                !
 ! A30   A(10,6,20)            110.7273         estimate D2E/DX2                !
 ! A31   A(19,6,20)            108.3859         estimate D2E/DX2                !
 ! A32   A(1,7,11)             110.1252         estimate D2E/DX2                !
 ! A33   A(1,7,21)             111.0886         estimate D2E/DX2                !
 ! A34   A(1,7,22)             111.9687         estimate D2E/DX2                !
 ! A35   A(11,7,21)            109.8805         estimate D2E/DX2                !
 ! A36   A(11,7,22)            105.4397         estimate D2E/DX2                !
 ! A37   A(21,7,22)            108.1669         estimate D2E/DX2                !
 ! A38   A(3,8,10)             109.4275         estimate D2E/DX2                !
 ! A39   A(3,8,23)             109.9959         estimate D2E/DX2                !
 ! A40   A(3,8,24)             109.5382         estimate D2E/DX2                !
 ! A41   A(10,8,23)            109.851          estimate D2E/DX2                !
 ! A42   A(10,8,24)            110.4501         estimate D2E/DX2                !
 ! A43   A(23,8,24)            107.5567         estimate D2E/DX2                !
 ! A44   A(3,9,5)              108.1855         estimate D2E/DX2                !
 ! A45   A(3,9,30)             111.9607         estimate D2E/DX2                !
 ! A46   A(3,9,31)             111.5867         estimate D2E/DX2                !
 ! A47   A(5,9,30)             108.4316         estimate D2E/DX2                !
 ! A48   A(5,9,31)             107.0456         estimate D2E/DX2                !
 ! A49   A(30,9,31)            109.4513         estimate D2E/DX2                !
 ! A50   A(6,10,8)             110.7555         estimate D2E/DX2                !
 ! A51   A(6,10,25)            108.9684         estimate D2E/DX2                !
 ! A52   A(6,10,26)            109.3811         estimate D2E/DX2                !
 ! A53   A(8,10,25)            109.6848         estimate D2E/DX2                !
 ! A54   A(8,10,26)            110.5894         estimate D2E/DX2                !
 ! A55   A(25,10,26)           107.3848         estimate D2E/DX2                !
 ! A56   A(2,11,7)             118.3418         estimate D2E/DX2                !
 ! A57   A(2,12,3)             134.1117         estimate D2E/DX2                !
 ! A58   A(2,13,4)             116.7819         estimate D2E/DX2                !
 ! A59   A(2,13,27)            104.2036         estimate D2E/DX2                !
 ! A60   A(2,13,28)            110.1707         estimate D2E/DX2                !
 ! A61   A(4,13,27)            107.391          estimate D2E/DX2                !
 ! A62   A(4,13,28)            111.2301         estimate D2E/DX2                !
 ! A63   A(27,13,28)           106.2651         estimate D2E/DX2                !
 ! D1    D(7,1,4,13)            50.8384         estimate D2E/DX2                !
 ! D2    D(7,1,4,17)           171.2998         estimate D2E/DX2                !
 ! D3    D(7,1,4,18)           -72.1561         estimate D2E/DX2                !
 ! D4    D(14,1,4,13)          -69.0285         estimate D2E/DX2                !
 ! D5    D(14,1,4,17)           51.4328         estimate D2E/DX2                !
 ! D6    D(14,1,4,18)          167.977          estimate D2E/DX2                !
 ! D7    D(15,1,4,13)          171.6402         estimate D2E/DX2                !
 ! D8    D(15,1,4,17)          -67.8985         estimate D2E/DX2                !
 ! D9    D(15,1,4,18)           48.6457         estimate D2E/DX2                !
 ! D10   D(4,1,7,11)           -60.657          estimate D2E/DX2                !
 ! D11   D(4,1,7,21)            61.3138         estimate D2E/DX2                !
 ! D12   D(4,1,7,22)          -177.629          estimate D2E/DX2                !
 ! D13   D(14,1,7,11)           60.3162         estimate D2E/DX2                !
 ! D14   D(14,1,7,21)         -177.7131         estimate D2E/DX2                !
 ! D15   D(14,1,7,22)          -56.6559         estimate D2E/DX2                !
 ! D16   D(15,1,7,11)          177.9993         estimate D2E/DX2                !
 ! D17   D(15,1,7,21)          -60.03           estimate D2E/DX2                !
 ! D18   D(15,1,7,22)           61.0272         estimate D2E/DX2                !
 ! D19   D(12,2,11,7)           87.4082         estimate D2E/DX2                !
 ! D20   D(13,2,11,7)          -46.9329         estimate D2E/DX2                !
 ! D21   D(29,2,11,7)         -162.7553         estimate D2E/DX2                !
 ! D22   D(11,2,12,3)         -124.94           Frozen                          !
 ! D23   D(13,2,12,3)            4.6078         estimate D2E/DX2                !
 ! D24   D(29,2,12,3)          125.1406         estimate D2E/DX2                !
 ! D25   D(11,2,13,4)           35.5694         estimate D2E/DX2                !
 ! D26   D(11,2,13,27)         -82.6673         estimate D2E/DX2                !
 ! D27   D(11,2,13,28)         163.7064         estimate D2E/DX2                !
 ! D28   D(12,2,13,4)          -92.3808         estimate D2E/DX2                !
 ! D29   D(12,2,13,27)         149.3825         estimate D2E/DX2                !
 ! D30   D(12,2,13,28)          35.7562         estimate D2E/DX2                !
 ! D31   D(29,2,13,4)          149.0413         estimate D2E/DX2                !
 ! D32   D(29,2,13,27)          30.8045         estimate D2E/DX2                !
 ! D33   D(29,2,13,28)         -82.8217         estimate D2E/DX2                !
 ! D34   D(9,3,8,10)            54.4581         estimate D2E/DX2                !
 ! D35   D(9,3,8,23)           -66.3069         estimate D2E/DX2                !
 ! D36   D(9,3,8,24)           175.6752         estimate D2E/DX2                !
 ! D37   D(12,3,8,10)         -172.4374         estimate D2E/DX2                !
 ! D38   D(12,3,8,23)           66.7976         estimate D2E/DX2                !
 ! D39   D(12,3,8,24)          -51.2203         estimate D2E/DX2                !
 ! D40   D(16,3,8,10)          -60.5702         estimate D2E/DX2                !
 ! D41   D(16,3,8,23)          178.6648         estimate D2E/DX2                !
 ! D42   D(16,3,8,24)           60.6469         estimate D2E/DX2                !
 ! D43   D(8,3,9,5)            -60.3678         estimate D2E/DX2                !
 ! D44   D(8,3,9,30)            59.0578         estimate D2E/DX2                !
 ! D45   D(8,3,9,31)          -177.8708         estimate D2E/DX2                !
 ! D46   D(12,3,9,5)           169.2608         estimate D2E/DX2                !
 ! D47   D(12,3,9,30)          -71.3135         estimate D2E/DX2                !
 ! D48   D(12,3,9,31)           51.7579         estimate D2E/DX2                !
 ! D49   D(16,3,9,5)            55.8189         estimate D2E/DX2                !
 ! D50   D(16,3,9,30)          175.2445         estimate D2E/DX2                !
 ! D51   D(16,3,9,31)          -61.6841         estimate D2E/DX2                !
 ! D52   D(8,3,12,2)           -80.9427         estimate D2E/DX2                !
 ! D53   D(9,3,12,2)            48.2532         estimate D2E/DX2                !
 ! D54   D(16,3,12,2)          163.7627         estimate D2E/DX2                !
 ! D55   D(1,4,13,2)           -39.915          estimate D2E/DX2                !
 ! D56   D(1,4,13,27)           76.5792         estimate D2E/DX2                !
 ! D57   D(1,4,13,28)         -167.5374         estimate D2E/DX2                !
 ! D58   D(17,4,13,2)         -161.8327         estimate D2E/DX2                !
 ! D59   D(17,4,13,27)         -45.3385         estimate D2E/DX2                !
 ! D60   D(17,4,13,28)          70.5449         estimate D2E/DX2                !
 ! D61   D(18,4,13,2)           81.2919         estimate D2E/DX2                !
 ! D62   D(18,4,13,27)        -162.2139         estimate D2E/DX2                !
 ! D63   D(18,4,13,28)         -46.3305         estimate D2E/DX2                !
 ! D64   D(9,5,6,10)           -61.6656         estimate D2E/DX2                !
 ! D65   D(9,5,6,19)           177.0219         estimate D2E/DX2                !
 ! D66   D(9,5,6,20)            60.415          estimate D2E/DX2                !
 ! D67   D(6,5,9,3)             64.6162         estimate D2E/DX2                !
 ! D68   D(6,5,9,30)           -57.0115         estimate D2E/DX2                !
 ! D69   D(6,5,9,31)          -175.0016         estimate D2E/DX2                !
 ! D70   D(5,6,10,8)            53.3041         estimate D2E/DX2                !
 ! D71   D(5,6,10,25)          -67.4375         estimate D2E/DX2                !
 ! D72   D(5,6,10,26)          175.4438         estimate D2E/DX2                !
 ! D73   D(19,6,10,8)          171.577          estimate D2E/DX2                !
 ! D74   D(19,6,10,25)          50.8354         estimate D2E/DX2                !
 ! D75   D(19,6,10,26)         -66.2833         estimate D2E/DX2                !
 ! D76   D(20,6,10,8)          -67.7012         estimate D2E/DX2                !
 ! D77   D(20,6,10,25)         171.5573         estimate D2E/DX2                !
 ! D78   D(20,6,10,26)          54.4385         estimate D2E/DX2                !
 ! D79   D(1,7,11,2)            61.4791         estimate D2E/DX2                !
 ! D80   D(21,7,11,2)          -61.2049         estimate D2E/DX2                !
 ! D81   D(22,7,11,2)         -177.5534         estimate D2E/DX2                !
 ! D82   D(3,8,10,6)           -50.6759         estimate D2E/DX2                !
 ! D83   D(3,8,10,25)           69.6396         estimate D2E/DX2                !
 ! D84   D(3,8,10,26)         -172.1065         estimate D2E/DX2                !
 ! D85   D(23,8,10,6)           70.1772         estimate D2E/DX2                !
 ! D86   D(23,8,10,25)        -169.5073         estimate D2E/DX2                !
 ! D87   D(23,8,10,26)         -51.2533         estimate D2E/DX2                !
 ! D88   D(24,8,10,6)         -171.3395         estimate D2E/DX2                !
 ! D89   D(24,8,10,25)         -51.024          estimate D2E/DX2                !
 ! D90   D(24,8,10,26)          67.2299         estimate D2E/DX2                !
 --------------------------------------------------------------------------------
 Trust Radius=3.00D-01 FncErr=1.00D-07 GrdErr=1.00D-06 EigMax=2.50D+02 EigMin=1.00D-04
 Number of steps in this run=    186 maximum allowed number of steps=    186.
 GradGradGradGradGradGradGradGradGradGradGradGradGradGradGradGradGradGrad

                          Input orientation:                          
 ---------------------------------------------------------------------
 Center     Atomic      Atomic             Coordinates (Angstroms)
 Number     Number       Type             X           Y           Z
 ---------------------------------------------------------------------
      1          6           0       -3.136290   -1.131654    0.116511
      2          6           0       -1.357257    1.208089    0.237285
      3          6           0        1.068761    0.655175   -0.546510
      4          6           0       -1.956676   -1.196210    1.081799
      5          8           0        2.351315   -1.331806   -0.825813
      6          6           0        3.274797   -0.998383    0.196113
      7          6           0       -2.749099   -0.277907   -1.073429
      8          6           0        2.017532    1.148961    0.543061
      9          6           0        1.041918   -0.869709   -0.559610
     10          6           0        3.396414    0.509843    0.346286
     11          8           0       -2.430939    1.036631   -0.647820
     12          8           0       -0.177112    1.335922   -0.529281
     13          6           0       -1.422154    0.208011    1.403134
     14          1           0       -4.006537   -0.693052    0.598940
     15          1           0       -3.412906   -2.127002   -0.218860
     16          1           0        1.479614    0.953921   -1.503252
     17          1           0       -2.247875   -1.670860    2.013798
     18          1           0       -1.190517   -1.821796    0.644198
     19          1           0        4.217854   -1.444508   -0.088348
     20          1           0        2.947661   -1.452903    1.128447
     21          1           0       -1.906126   -0.707971   -1.604839
     22          1           0       -3.565933   -0.164298   -1.772622
     23          1           0        1.626501    0.888188    1.522163
     24          1           0        2.091038    2.231051    0.497391
     25          1           0        3.864817    0.917161   -0.546117
     26          1           0        4.046084    0.737144    1.186280
     27          1           0       -2.111431    0.664388    2.107701
     28          1           0       -0.464906    0.157499    1.905111
     29          1           0       -1.509578    2.195527    0.642462
     30          1           0        0.722342   -1.276456    0.389232
     31          1           0        0.406107   -1.249294   -1.346213
 ---------------------------------------------------------------------
                    Distance matrix (angstroms):
                    1          2          3          4          5
     1  C    0.000000
     2  C    2.941758   0.000000
     3  C    4.616796   2.608757   0.000000
     4  C    1.525594   2.617854   3.902856   0.000000
     5  O    5.571521   4.618956   2.381396   4.713402   0.000000
     6  C    6.412966   5.130900   2.855230   5.309603   1.417153
     7  C    1.514846   2.421442   3.965393   2.473100   5.214043
     8  C    5.651994   3.389129   1.526812   4.645901   2.852969
     9  C    4.240658   3.272358   1.525177   3.434005   1.413831
    10  C    6.739698   4.805915   2.497233   5.666319   2.420273
    11  O    2.404825   1.401999   3.521885   2.863928   5.339581
    12  O    3.906752   1.413049   1.419828   3.489143   3.687499
    13  C    2.527521   1.537391   3.194640   1.536492   4.645246
    14  H    1.087400   3.280825   5.374795   2.165237   6.546771
    15  H    1.086144   3.944185   5.285187   2.163029   5.850382
    16  H    5.317878   3.337950   1.083238   4.807665   2.538372
    17  H    2.163267   3.498220   4.792253   1.085685   5.415801
    18  H    2.130911   3.061631   3.557739   1.081597   3.865953
    19  H    7.363646   6.182570   3.812528   6.289334   2.010106
    20  H    6.175895   5.138810   3.283251   4.911272   2.046809
    21  H    2.157743   2.714031   3.439212   2.731109   4.372854
    22  H    2.165455   3.286552   4.863669   3.435443   6.105190
    23  H    5.360951   3.264362   2.155174   4.168668   3.311604
    24  H    6.227183   3.606223   2.148992   5.335882   3.809536
    25  H    7.324767   5.288517   2.808303   6.403611   2.725210
    26  H    7.498220   5.506221   3.445828   6.307290   3.346836
    27  H    2.870704   2.088742   4.142287   2.130317   5.701438
    28  H    3.463712   2.163717   2.934325   2.176177   4.196079
    29  H    3.740715   1.078148   3.230197   3.449173   5.431796
    30  H    3.870967   3.243576   2.174125   2.768253   2.032966
    31  H    3.834316   3.414037   2.169248   3.388333   2.015306
                    6          7          8          9         10
     6  C    0.000000
     7  C    6.198237   0.000000
     8  C    2.512404   5.231612   0.000000
     9  C    2.360810   3.871182   2.498546   0.000000
    10  C    1.520555   6.356372   1.532484   2.875320   0.000000
    11  O    6.116284   1.417878   4.606486   3.962657   5.934964
    12  O    4.229758   3.084746   2.449762   2.520270   3.770824
    13  C    4.997363   2.851362   3.668317   3.329489   4.942330
    14  H    7.298858   2.133146   6.299646   5.182697   7.504297
    15  H    6.794951   2.142447   6.387653   4.641374   7.323877
    16  H    3.149923   4.425400   2.124804   2.099444   2.700392
    17  H    5.852872   3.423816   5.320541   4.252883   6.276469
    18  H    4.562655   2.786219   4.373466   2.709131   5.154147
    19  H    1.081343   7.132305   3.459216   3.261756   2.164061
    20  H    1.087590   6.219481   2.824449   2.611802   2.159983
    21  H    5.492698   1.085336   4.843218   3.132032   5.779869
    22  H    7.167092   1.081201   6.185638   4.816772   7.308797
    23  H    2.834509   5.219459   1.086070   2.786704   2.158338
    24  H    3.452723   5.673559   1.085545   3.439857   2.165501
    25  H    2.137367   6.741671   2.156966   3.340935   1.087057
    26  H    2.141814   7.232643   2.167567   3.828201   1.085968
    27  H    5.952346   3.378480   4.441987   4.405861   5.784706
    28  H    4.271079   3.778732   3.000113   3.066027   4.178980
    29  H    5.769795   3.255544   3.680446   4.165427   5.195961
    30  H    2.574810   3.897099   2.753875   1.080682   3.216111
    31  H    3.266666   3.312602   3.452198   1.080317   3.860188
                   11         12         13         14         15
    11  O    0.000000
    12  O    2.276700   0.000000
    13  C    2.431187   2.560574   0.000000
    14  H    2.651174   4.478182   2.852662   0.000000
    15  H    3.340186   4.749586   3.470770   1.754254   0.000000
    16  H    4.003877   1.959409   4.174173   6.101605   5.922711
    17  H    3.801083   4.449275   2.141234   2.459842   2.559321
    18  H    3.373212   3.517844   2.179393   3.034152   2.403546
    19  H    7.118673   5.219285   6.063417   8.287198   7.662332
    20  H    6.187264   4.504422   4.682881   7.015598   6.536548
    21  H    2.057899   2.885102   3.181376   3.044436   2.490978
    22  H    1.998905   3.909049   3.849653   2.469417   2.507947
    23  H    4.603660   2.768015   3.125877   5.923156   6.125207
    24  H    4.815228   2.645716   4.153984   6.763218   7.056844
    25  H    6.297711   4.063599   5.679308   8.115550   7.895523
    26  H    6.738356   4.597507   5.498057   8.199703   8.112600
    27  H    2.798847   3.338596   1.086185   2.776766   3.859868
    28  H    3.340002   2.719884   1.082061   3.869453   4.291958
    29  H    1.963867   1.971641   2.129903   3.818453   4.800916
    30  H    4.045866   2.911564   2.798304   4.769343   4.265382
    31  H    3.709722   2.773241   3.609042   4.854323   4.077518
                   16         17         18         19         20
    16  H    0.000000
    17  H    5.757889   0.000000
    18  H    4.409733   1.736834   0.000000
    19  H    3.905429   6.802640   5.470781   0.000000
    20  H    3.856657   5.274936   4.182714   1.758991   0.000000
    21  H    3.772988   3.760117   2.609764   6.351800   5.620056
    22  H    5.174990   4.282988   3.772389   8.066167   7.245938
    23  H    3.029692   4.669178   4.006298   3.840615   2.716833
    24  H    2.451015   6.029143   5.216869   4.286744   3.834521
    25  H    2.570341   7.114494   5.871553   2.431392   3.043443
    26  H    3.723888   6.789491   5.853547   2.532546   2.450752
    27  H    5.100825   2.341115   3.028372   7.023526   5.571021
    28  H    4.004046   2.556108   2.456425   5.335592   3.852560
    29  H    3.883419   4.168284   4.029974   6.825497   5.780502
    30  H    3.021513   3.408366   2.005351   3.531986   2.351514
    31  H    2.455857   4.302443   2.615091   4.018675   3.553153
                   21         22         23         24         25
    21  H    0.000000
    22  H    1.754620   0.000000
    23  H    4.980494   6.238967   0.000000
    24  H    5.388371   6.549197   1.751923   0.000000
    25  H    6.088163   7.608542   3.047734   2.441620   0.000000
    26  H    6.731085   8.216477   2.447450   2.555099   1.751132
    27  H    3.963392   4.226015   3.790129   4.765320   6.543866
    28  H    3.891774   4.821373   2.248230   3.579685   5.033101
    29  H    3.692954   3.953480   3.509701   3.603712   5.650758
    30  H    3.347886   4.929484   2.605133   3.766647   3.944868
    31  H    2.388795   4.139582   3.779652   4.283768   4.158889
                   26         27         28         29         30
    26  H    0.000000
    27  H    6.226500   0.000000
    28  H    4.604534   1.734654   0.000000
    29  H    5.769575   2.203075   2.615183   0.000000
    30  H    3.967005   3.840609   2.400765   4.135246   0.000000
    31  H    4.858898   4.682916   3.648128   4.414914   1.764231
                   31
    31  H    0.000000
 Stoichiometry    C10H18O3
 Framework group  C1[X(C10H18O3)]
 Deg. of freedom    87
 Full point group                 C1      NOp   1
 Largest Abelian subgroup         C1      NOp   1
 Largest concise Abelian subgroup C1      NOp   1
                         Standard orientation:                         
 ---------------------------------------------------------------------
 Center     Atomic      Atomic             Coordinates (Angstroms)
 Number     Number       Type             X           Y           Z
 ---------------------------------------------------------------------
      1          6           0        3.136290    1.131654    0.116511
      2          6           0        1.357257   -1.208089    0.237285
      3          6           0       -1.068761   -0.655175   -0.546510
      4          6           0        1.956676    1.196210    1.081799
      5          8           0       -2.351315    1.331806   -0.825813
      6          6           0       -3.274797    0.998383    0.196113
      7          6           0        2.749099    0.277907   -1.073429
      8          6           0       -2.017532   -1.148961    0.543061
      9          6           0       -1.041918    0.869709   -0.559610
     10          6           0       -3.396414   -0.509843    0.346286
     11          8           0        2.430939   -1.036631   -0.647820
     12          8           0        0.177112   -1.335922   -0.529281
     13          6           0        1.422154   -0.208011    1.403134
     14          1           0        4.006537    0.693052    0.598940
     15          1           0        3.412906    2.127002   -0.218860
     16          1           0       -1.479614   -0.953921   -1.503252
     17          1           0        2.247875    1.670860    2.013798
     18          1           0        1.190517    1.821796    0.644198
     19          1           0       -4.217854    1.444508   -0.088348
     20          1           0       -2.947661    1.452903    1.128447
     21          1           0        1.906126    0.707971   -1.604839
     22          1           0        3.565933    0.164298   -1.772622
     23          1           0       -1.626501   -0.888188    1.522163
     24          1           0       -2.091038   -2.231051    0.497391
     25          1           0       -3.864817   -0.917161   -0.546117
     26          1           0       -4.046084   -0.737144    1.186280
     27          1           0        2.111431   -0.664388    2.107701
     28          1           0        0.464906   -0.157499    1.905111
     29          1           0        1.509578   -2.195527    0.642462
     30          1           0       -0.722342    1.276456    0.389232
     31          1           0       -0.406107    1.249294   -1.346213
 ---------------------------------------------------------------------
 Rotational constants (GHZ):           1.5836456           0.4724255           0.4369323
 Standard basis: 6-311++G(2d,2p) (5D, 7F)
 There are   557 symmetry adapted cartesian basis functions of A   symmetry.
 There are   531 symmetry adapted basis functions of A   symmetry.
   531 basis functions,   762 primitive gaussians,   557 cartesian basis functions
    51 alpha electrons       51 beta electrons
       nuclear repulsion energy       903.5378015194 Hartrees.
 NAtoms=   31 NActive=   31 NUniq=   31 SFac= 1.00D+00 NAtFMM=   60 NAOKFM=F Big=F
 Integral buffers will be    131072 words long.
 Raffenetti 2 integral format.
 Two-electron integral symmetry is turned on.
 ------------------------------------------------------------------------------
 Polarizable Continuum Model (PCM)
 =================================
 Model                : PCM.
 Atomic radii         : UFF (Universal Force Field).
 Polarization charges : Total charges.
 Charge compensation  : None.
 Solution method      : On-the-fly selection.
 Cavity type          : Scaled VdW (van der Waals Surface) (Alpha=1.100).
 Cavity algorithm     : GePol (No added spheres)
                        Default sphere list used, NSphG=   31.
                        Lebedev-Laikov grids with approx.  5.0 points / Ang**2.
                        Smoothing algorithm: York/Karplus (Gamma=1.0000).
                        Polarization charges: spherical gaussians, with
                                              point-specific exponents (IZeta= 3).
                        Self-potential: point-specific (ISelfS= 7).
                        Self-field    : sphere-specific E.n sum rule (ISelfD= 2).
 1st derivatives      : Analytical E(r).r(x)/FMM algorithm (CHGder, D1EAlg=3).
                        Cavity 1st derivative terms included.
 Solvent              : Water, Eps=  78.355300 Eps(inf)=   1.777849
 ------------------------------------------------------------------------------
 One-electron integrals computed using PRISM.
 NBasis=   531 RedAO= T EigKep=  4.14D-06  NBF=   531
 NBsUse=   531 1.00D-06 EigRej= -1.00D+00 NBFU=   531
 ExpMin= 3.60D-02 ExpMax= 8.59D+03 ExpMxC= 1.30D+03 IAcc=3 IRadAn=         5 AccDes= 0.00D+00
 Harris functional with IExCor= 1009 and IRadAn=       5 diagonalized for initial guess.
 HarFok:  IExCor= 1009 AccDes= 0.00D+00 IRadAn=         5 IDoV= 1 UseB2=F ITyADJ=14
 ICtDFT=  3500011 ScaDFX=  1.000000  1.000000  1.000000  1.000000
 FoFCou: FMM=F IPFlag=           0 FMFlag=      100000 FMFlg1=           0
         NFxFlg=           0 DoJE=T BraDBF=F KetDBF=T FulRan=T
         wScrn=  0.000000 ICntrl=       500 IOpCl=  0 I1Cent=   200000004 NGrid=           0
         NMat0=    1 NMatS0=      1 NMatT0=    0 NMatD0=    1 NMtDS0=    0 NMtDT0=    0
 Petite list used in FoFCou.
 Requested convergence on RMS density matrix=1.00D-08 within 128 cycles.
 Requested convergence on MAX density matrix=1.00D-06.
 Requested convergence on             energy=1.00D-06.
 No special actions if energy rises.
 Inv3:  Mode=1 IEnd=    12036027.
 Iteration    1 A*A^-1 deviation from unit magnitude is 5.77D-15 for   1987.
 Iteration    1 A*A^-1 deviation from orthogonality  is 2.29D-15 for   2003    845.
 Iteration    1 A^-1*A deviation from unit magnitude is 5.55D-15 for   1987.
 Iteration    1 A^-1*A deviation from orthogonality  is 6.99D-14 for   1703   1686.
 Error on total polarization charges =  0.01471
 SCF Done:  E(RM062X) =  -617.476502506     A.U. after   12 cycles
            NFock= 12  Conv=0.55D-08     -V/T= 2.0035

 **********************************************************************

            Population analysis using the SCF density.

 **********************************************************************

 Orbital symmetries:
       Occupied  (A) (A) (A) (A) (A) (A) (A) (A) (A) (A) (A) (A)
                 (A) (A) (A) (A) (A) (A) (A) (A) (A) (A) (A) (A)
                 (A) (A) (A) (A) (A) (A) (A) (A) (A) (A) (A) (A)
                 (A) (A) (A) (A) (A) (A) (A) (A) (A) (A) (A) (A)
                 (A) (A) (A)
       Virtual   (A) (A) (A) (A) (A) (A) (A) (A) (A) (A) (A) (A)
                 (A) (A) (A) (A) (A) (A) (A) (A) (A) (A) (A) (A)
                 (A) (A) (A) (A) (A) (A) (A) (A) (A) (A) (A) (A)
                 (A) (A) (A) (A) (A) (A) (A) (A) (A) (A) (A) (A)
                 (A) (A) (A) (A) (A) (A) (A) (A) (A) (A) (A) (A)
                 (A) (A) (A) (A) (A) (A) (A) (A) (A) (A) (A) (A)
                 (A) (A) (A) (A) (A) (A) (A) (A) (A) (A) (A) (A)
                 (A) (A) (A) (A) (A) (A) (A) (A) (A) (A) (A) (A)
                 (A) (A) (A) (A) (A) (A) (A) (A) (A) (A) (A) (A)
                 (A) (A) (A) (A) (A) (A) (A) (A) (A) (A) (A) (A)
                 (A) (A) (A) (A) (A) (A) (A) (A) (A) (A) (A) (A)
                 (A) (A) (A) (A) (A) (A) (A) (A) (A) (A) (A) (A)
                 (A) (A) (A) (A) (A) (A) (A) (A) (A) (A) (A) (A)
                 (A) (A) (A) (A) (A) (A) (A) (A) (A) (A) (A) (A)
                 (A) (A) (A) (A) (A) (A) (A) (A) (A) (A) (A) (A)
                 (A) (A) (A) (A) (A) (A) (A) (A) (A) (A) (A) (A)
                 (A) (A) (A) (A) (A) (A) (A) (A) (A) (A) (A) (A)
                 (A) (A) (A) (A) (A) (A) (A) (A) (A) (A) (A) (A)
                 (A) (A) (A) (A) (A) (A) (A) (A) (A) (A) (A) (A)
                 (A) (A) (A) (A) (A) (A) (A) (A) (A) (A) (A) (A)
                 (A) (A) (A) (A) (A) (A) (A) (A) (A) (A) (A) (A)
                 (A) (A) (A) (A) (A) (A) (A) (A) (A) (A) (A) (A)
                 (A) (A) (A) (A) (A) (A) (A) (A) (A) (A) (A) (A)
                 (A) (A) (A) (A) (A) (A) (A) (A) (A) (A) (A) (A)
                 (A) (A) (A) (A) (A) (A) (A) (A) (A) (A) (A) (A)
                 (A) (A) (A) (A) (A) (A) (A) (A) (A) (A) (A) (A)
                 (A) (A) (A) (A) (A) (A) (A) (A) (A) (A) (A) (A)
                 (A) (A) (A) (A) (A) (A) (A) (A) (A) (A) (A) (A)
                 (A) (A) (A) (A) (A) (A) (A) (A) (A) (A) (A) (A)
                 (A) (A) (A) (A) (A) (A) (A) (A) (A) (A) (A) (A)
                 (A) (A) (A) (A) (A) (A) (A) (A) (A) (A) (A) (A)
                 (A) (A) (A) (A) (A) (A) (A) (A) (A) (A) (A) (A)
                 (A) (A) (A) (A) (A) (A) (A) (A) (A) (A) (A) (A)
                 (A) (A) (A) (A) (A) (A) (A) (A) (A) (A) (A) (A)
                 (A) (A) (A) (A) (A) (A) (A) (A) (A) (A) (A) (A)
                 (A) (A) (A) (A) (A) (A) (A) (A) (A) (A) (A) (A)
                 (A) (A) (A) (A) (A) (A) (A) (A) (A) (A) (A) (A)
                 (A) (A) (A) (A) (A) (A) (A) (A) (A) (A) (A) (A)
                 (A) (A) (A) (A) (A) (A) (A) (A) (A) (A) (A) (A)
                 (A) (A) (A) (A) (A) (A) (A) (A) (A) (A) (A) (A)
 The electronic state is 1-A.
 Alpha  occ. eigenvalues --  -19.63105 -19.62737 -19.62402 -10.64134 -10.59216
 Alpha  occ. eigenvalues --  -10.58174 -10.57958 -10.57823 -10.53715 -10.53282
 Alpha  occ. eigenvalues --  -10.53180 -10.53092 -10.52846  -1.19381  -1.16950
 Alpha  occ. eigenvalues --   -1.13138  -0.90617  -0.90303  -0.87755  -0.85299
 Alpha  occ. eigenvalues --   -0.75722  -0.74349  -0.74058  -0.70716  -0.67158
 Alpha  occ. eigenvalues --   -0.63067  -0.59757  -0.58981  -0.56600  -0.56027
 Alpha  occ. eigenvalues --   -0.55463  -0.53395  -0.52554  -0.50713  -0.50427
 Alpha  occ. eigenvalues --   -0.49878  -0.47998  -0.46027  -0.45455  -0.44650
 Alpha  occ. eigenvalues --   -0.44456  -0.42401  -0.40585  -0.39874  -0.39806
 Alpha  occ. eigenvalues --   -0.38185  -0.37788  -0.36468  -0.34548  -0.33674
 Alpha  occ. eigenvalues --   -0.31422
 Alpha virt. eigenvalues --   -0.00175   0.00722   0.00900   0.00982   0.02277
 Alpha virt. eigenvalues --    0.02534   0.02656   0.03245   0.03604   0.04738
 Alpha virt. eigenvalues --    0.04883   0.04984   0.05579   0.05980   0.07284
 Alpha virt. eigenvalues --    0.07661   0.08241   0.08621   0.08986   0.09619
 Alpha virt. eigenvalues --    0.09854   0.10733   0.10992   0.11527   0.12127
 Alpha virt. eigenvalues --    0.12401   0.12465   0.12947   0.13332   0.13774
 Alpha virt. eigenvalues --    0.13867   0.14135   0.14272   0.14479   0.14678
 Alpha virt. eigenvalues --    0.14928   0.15346   0.15588   0.15895   0.16248
 Alpha virt. eigenvalues --    0.16521   0.16800   0.16954   0.17448   0.17777
 Alpha virt. eigenvalues --    0.17949   0.18402   0.18701   0.19147   0.19453
 Alpha virt. eigenvalues --    0.20101   0.20266   0.20905   0.21186   0.21287
 Alpha virt. eigenvalues --    0.21518   0.21881   0.22113   0.23276   0.23861
 Alpha virt. eigenvalues --    0.24558   0.25812   0.26125   0.26333   0.26914
 Alpha virt. eigenvalues --    0.27485   0.27727   0.28453   0.28900   0.29494
 Alpha virt. eigenvalues --    0.30465   0.31273   0.31833   0.32093   0.32270
 Alpha virt. eigenvalues --    0.32764   0.33019   0.33189   0.33661   0.34273
 Alpha virt. eigenvalues --    0.34924   0.35583   0.35757   0.36443   0.36671
 Alpha virt. eigenvalues --    0.36821   0.37089   0.37590   0.37962   0.38085
 Alpha virt. eigenvalues --    0.38858   0.39208   0.39744   0.40661   0.41174
 Alpha virt. eigenvalues --    0.41929   0.42570   0.43194   0.43458   0.43909
 Alpha virt. eigenvalues --    0.45003   0.47693   0.48549   0.50152   0.50937
 Alpha virt. eigenvalues --    0.51969   0.52113   0.53010   0.53960   0.54264
 Alpha virt. eigenvalues --    0.55668   0.56507   0.58749   0.58921   0.59372
 Alpha virt. eigenvalues --    0.60060   0.60326   0.61272   0.61451   0.61798
 Alpha virt. eigenvalues --    0.61944   0.62674   0.63045   0.64283   0.64789
 Alpha virt. eigenvalues --    0.65086   0.65795   0.66366   0.66736   0.67329
 Alpha virt. eigenvalues --    0.68483   0.69057   0.69232   0.69883   0.70769
 Alpha virt. eigenvalues --    0.71049   0.71662   0.72032   0.72481   0.73191
 Alpha virt. eigenvalues --    0.74080   0.74393   0.75267   0.75533   0.75899
 Alpha virt. eigenvalues --    0.76350   0.76795   0.77891   0.78764   0.79766
 Alpha virt. eigenvalues --    0.80969   0.82301   0.83332   0.84710   0.85006
 Alpha virt. eigenvalues --    0.85578   0.88032   0.88390   0.89794   0.90114
 Alpha virt. eigenvalues --    0.90512   0.91090   0.93453   0.94774   0.95139
 Alpha virt. eigenvalues --    0.96332   0.97820   0.98212   0.98465   1.01381
 Alpha virt. eigenvalues --    1.02013   1.03383   1.04329   1.05344   1.06563
 Alpha virt. eigenvalues --    1.08298   1.09288   1.09763   1.10937   1.12225
 Alpha virt. eigenvalues --    1.13622   1.14687   1.15650   1.16169   1.16257
 Alpha virt. eigenvalues --    1.17992   1.19111   1.19690   1.20306   1.21399
 Alpha virt. eigenvalues --    1.21618   1.22271   1.23205   1.23961   1.24656
 Alpha virt. eigenvalues --    1.25335   1.25644   1.26560   1.27122   1.27714
 Alpha virt. eigenvalues --    1.28506   1.29269   1.30974   1.31311   1.31460
 Alpha virt. eigenvalues --    1.32230   1.32916   1.33779   1.34214   1.35307
 Alpha virt. eigenvalues --    1.35741   1.35886   1.37397   1.37888   1.38338
 Alpha virt. eigenvalues --    1.38733   1.39654   1.40657   1.41075   1.41697
 Alpha virt. eigenvalues --    1.42670   1.43179   1.44012   1.45015   1.45353
 Alpha virt. eigenvalues --    1.46244   1.47034   1.47478   1.48278   1.48713
 Alpha virt. eigenvalues --    1.49621   1.50566   1.51306   1.51810   1.52424
 Alpha virt. eigenvalues --    1.52997   1.54170   1.55226   1.56102   1.56289
 Alpha virt. eigenvalues --    1.56656   1.57634   1.58029   1.58383   1.58928
 Alpha virt. eigenvalues --    1.60538   1.60890   1.61463   1.62126   1.62745
 Alpha virt. eigenvalues --    1.63938   1.64856   1.65656   1.66353   1.67224
 Alpha virt. eigenvalues --    1.68061   1.68860   1.69707   1.71116   1.71777
 Alpha virt. eigenvalues --    1.73060   1.74364   1.74925   1.75905   1.76081
 Alpha virt. eigenvalues --    1.78361   1.79741   1.80910   1.81997   1.84398
 Alpha virt. eigenvalues --    1.86270   1.88738   1.90818   1.97509   2.00014
 Alpha virt. eigenvalues --    2.02158   2.04125   2.12126   2.12377   2.19534
 Alpha virt. eigenvalues --    2.20860   2.24618   2.26491   2.29767   2.40112
 Alpha virt. eigenvalues --    2.41147   2.42513   2.46563   2.48873   2.52612
 Alpha virt. eigenvalues --    2.57533   2.75761   2.76049   2.78473   2.83611
 Alpha virt. eigenvalues --    2.86061   2.90904   2.91296   2.93850   2.94880
 Alpha virt. eigenvalues --    2.95851   2.97191   3.00638   3.01034   3.04919
 Alpha virt. eigenvalues --    3.06527   3.07254   3.07819   3.09738   3.10846
 Alpha virt. eigenvalues --    3.13425   3.14057   3.14936   3.17730   3.19667
 Alpha virt. eigenvalues --    3.23988   3.25646   3.30811   3.31774   3.34715
 Alpha virt. eigenvalues --    3.35456   3.38000   3.39126   3.41144   3.41732
 Alpha virt. eigenvalues --    3.42039   3.43398   3.44151   3.46011   3.46287
 Alpha virt. eigenvalues --    3.47316   3.49299   3.49960   3.50931   3.51889
 Alpha virt. eigenvalues --    3.52161   3.53694   3.54271   3.55814   3.56050
 Alpha virt. eigenvalues --    3.56831   3.57256   3.57548   3.58985   3.60478
 Alpha virt. eigenvalues --    3.60902   3.61823   3.63175   3.64381   3.65826
 Alpha virt. eigenvalues --    3.66650   3.67484   3.68028   3.68318   3.69392
 Alpha virt. eigenvalues --    3.70796   3.71680   3.72281   3.72576   3.72786
 Alpha virt. eigenvalues --    3.74558   3.75885   3.76352   3.77261   3.78020
 Alpha virt. eigenvalues --    3.79156   3.79755   3.81611   3.82503   3.84163
 Alpha virt. eigenvalues --    3.86781   3.87846   3.89082   3.89851   3.92385
 Alpha virt. eigenvalues --    3.94477   3.95013   3.95887   3.96586   3.97186
 Alpha virt. eigenvalues --    3.98802   4.01722   4.02531   4.03741   4.04341
 Alpha virt. eigenvalues --    4.05305   4.05565   4.05618   4.06853   4.07589
 Alpha virt. eigenvalues --    4.09524   4.10097   4.10538   4.11856   4.12074
 Alpha virt. eigenvalues --    4.13712   4.13946   4.14639   4.15250   4.16838
 Alpha virt. eigenvalues --    4.16956   4.18377   4.18983   4.19972   4.21568
 Alpha virt. eigenvalues --    4.22934   4.23314   4.25489   4.26214   4.28053
 Alpha virt. eigenvalues --    4.28163   4.29878   4.31370   4.32031   4.34072
 Alpha virt. eigenvalues --    4.34527   4.35299   4.37495   4.40147   4.41566
 Alpha virt. eigenvalues --    4.43071   4.44912   4.46937   4.48540   4.50200
 Alpha virt. eigenvalues --    4.58793   4.61206   4.75152   4.77263   4.83312
 Alpha virt. eigenvalues --    4.84906   4.93047   4.93114   4.99420   5.00790
 Alpha virt. eigenvalues --    5.06492   5.06870   5.08696   5.08701   5.12556
 Alpha virt. eigenvalues --    5.12980   5.15546   5.19666   5.32455   5.34305
 Alpha virt. eigenvalues --    5.40573   5.52358   5.59588   5.60747   5.85997
 Alpha virt. eigenvalues --    5.89965   5.99835   6.99634   7.03224   7.06351
 Alpha virt. eigenvalues --    7.07381   7.09475   7.11142   7.13828   7.14848
 Alpha virt. eigenvalues --    7.32435   7.36211   7.42282   7.49285   7.55700
 Alpha virt. eigenvalues --    7.56190   7.58317  23.94917  23.97630  24.05994
 Alpha virt. eigenvalues --   24.08514  24.09163  24.11360  24.13423  24.15145
 Alpha virt. eigenvalues --   24.15721  24.18393  50.16437  50.19987  50.21669
          Condensed to atoms (all electrons):
               1          2          3          4          5          6
     1  C    6.486053   0.235316  -0.024398  -0.393034   0.000892   0.004524
     2  C    0.235316   7.710415  -1.589046   0.302688  -0.010826   0.001604
     3  C   -0.024398  -1.589046   9.375242   0.058084  -0.013348   0.111182
     4  C   -0.393034   0.302688   0.058084   6.176722  -0.000287   0.004516
     5  O    0.000892  -0.010826  -0.013348  -0.000287   8.288815   0.095942
     6  C    0.004524   0.001604   0.111182   0.004516   0.095942   5.452358
     7  C   -0.265990  -0.494205   0.098961   0.069069   0.000552  -0.006606
     8  C    0.022224   0.360739  -1.701305   0.005528   0.006694  -0.061350
     9  C    0.053698   0.632211  -1.571178  -0.096759   0.215934  -0.185219
    10  C   -0.007262  -0.064147   0.036750  -0.024570  -0.041382  -0.008911
    11  O   -0.154822   0.047665   0.096539   0.003865  -0.000203   0.001298
    12  O   -0.006502   0.298061  -0.057004  -0.031621   0.002397   0.000732
    13  C   -0.056859  -1.656461   0.572809  -0.765450  -0.001328  -0.001831
    14  H    0.432491   0.014780  -0.003283   0.008402   0.000110  -0.000154
    15  H    0.435833   0.027956  -0.003348  -0.043492  -0.000258  -0.000158
    16  H   -0.008541  -0.079791   0.643742   0.000042   0.005634   0.009048
    17  H   -0.036291   0.006262   0.009582   0.432771  -0.000617  -0.000939
    18  H   -0.142710  -0.070351  -0.008391   0.550704   0.006005   0.003906
    19  H   -0.000097  -0.001990  -0.002061   0.000227  -0.061799   0.427338
    20  H   -0.000692  -0.005179   0.031798   0.000558  -0.035305   0.469498
    21  H   -0.227156  -0.070727   0.051993   0.078607   0.003970  -0.001894
    22  H   -0.010030   0.006184  -0.003828  -0.009599  -0.000022  -0.000200
    23  H    0.000251   0.018387   0.012893  -0.000836  -0.001946   0.004653
    24  H    0.000312   0.020259  -0.078956   0.008028  -0.001266   0.009259
    25  H   -0.000049  -0.003953  -0.026126  -0.000528  -0.008659  -0.078976
    26  H    0.000300   0.000560   0.019538   0.000674   0.008772  -0.045256
    27  H   -0.033241  -0.076441  -0.013597  -0.025273  -0.000418   0.003469
    28  H   -0.018406  -0.140232   0.179745  -0.015789   0.000893  -0.009961
    29  H    0.014069   0.576880  -0.075501  -0.017013   0.000237  -0.002491
    30  H   -0.016649  -0.045350   0.309950   0.040461  -0.052499  -0.018248
    31  H    0.050057   0.107989  -0.138924  -0.026742  -0.080212   0.003810
               7          8          9         10         11         12
     1  C   -0.265990   0.022224   0.053698  -0.007262  -0.154822  -0.006502
     2  C   -0.494205   0.360739   0.632211  -0.064147   0.047665   0.298061
     3  C    0.098961  -1.701305  -1.571178   0.036750   0.096539  -0.057004
     4  C    0.069069   0.005528  -0.096759  -0.024570   0.003865  -0.031621
     5  O    0.000552   0.006694   0.215934  -0.041382  -0.000203   0.002397
     6  C   -0.006606  -0.061350  -0.185219  -0.008911   0.001298   0.000732
     7  C    5.551215  -0.009043  -0.066902  -0.003083   0.189528   0.026790
     8  C   -0.009043   6.876876   0.586060  -0.262549  -0.013996  -0.011665
     9  C   -0.066902   0.586060   6.444316   0.048888  -0.044172   0.091415
    10  C   -0.003083  -0.262549   0.048888   5.834491  -0.000619  -0.001057
    11  O    0.189528  -0.013996  -0.044172  -0.000619   8.274750  -0.038189
    12  O    0.026790  -0.011665   0.091415  -0.001057  -0.038189   8.320749
    13  C    0.265125  -0.210205  -0.189047   0.072537   0.047797   0.027580
    14  H   -0.052711   0.001921  -0.000880  -0.000229  -0.006990  -0.000237
    15  H   -0.043767  -0.000902   0.000664   0.000344   0.004613  -0.000066
    16  H    0.012013  -0.079713  -0.153875  -0.020409   0.002681  -0.095364
    17  H    0.014039  -0.006061  -0.004713   0.002300   0.000061  -0.001416
    18  H    0.049938   0.014575   0.017530  -0.005374   0.000333   0.000234
    19  H   -0.000123   0.011227   0.011482  -0.035653   0.000039  -0.000161
    20  H    0.001310  -0.007197  -0.016739  -0.062129  -0.000207  -0.000845
    21  H    0.542458  -0.002375  -0.036664  -0.002295  -0.026334  -0.004514
    22  H    0.422040   0.000863   0.003541  -0.000371  -0.065003  -0.000339
    23  H    0.004398   0.498570  -0.042820  -0.092199  -0.001766  -0.010805
    24  H   -0.001024   0.428907   0.033721  -0.004762   0.000206  -0.000071
    25  H    0.000607   0.003435   0.006651   0.476596  -0.000114  -0.000231
    26  H   -0.000718  -0.074418  -0.003580   0.464204   0.000045  -0.001515
    27  H    0.020447  -0.010293   0.009062  -0.001141  -0.017116   0.007899
    28  H    0.009970  -0.036336  -0.070066   0.001481   0.018317  -0.029294
    29  H   -0.028625   0.021682   0.027008   0.002206  -0.088098  -0.085830
    30  H   -0.030467  -0.241160   0.198464   0.047162   0.005463  -0.004685
    31  H   -0.040699  -0.003788   0.465979   0.030095  -0.008176   0.002935
              13         14         15         16         17         18
     1  C   -0.056859   0.432491   0.435833  -0.008541  -0.036291  -0.142710
     2  C   -1.656461   0.014780   0.027956  -0.079791   0.006262  -0.070351
     3  C    0.572809  -0.003283  -0.003348   0.643742   0.009582  -0.008391
     4  C   -0.765450   0.008402  -0.043492   0.000042   0.432771   0.550704
     5  O   -0.001328   0.000110  -0.000258   0.005634  -0.000617   0.006005
     6  C   -0.001831  -0.000154  -0.000158   0.009048  -0.000939   0.003906
     7  C    0.265125  -0.052711  -0.043767   0.012013   0.014039   0.049938
     8  C   -0.210205   0.001921  -0.000902  -0.079713  -0.006061   0.014575
     9  C   -0.189047  -0.000880   0.000664  -0.153875  -0.004713   0.017530
    10  C    0.072537  -0.000229   0.000344  -0.020409   0.002300  -0.005374
    11  O    0.047797  -0.006990   0.004613   0.002681   0.000061   0.000333
    12  O    0.027580  -0.000237  -0.000066  -0.095364  -0.001416   0.000234
    13  C    7.496229  -0.029536   0.000324   0.041869  -0.049326  -0.035734
    14  H   -0.029536   0.466238  -0.004172  -0.000107   0.001416  -0.001818
    15  H    0.000324  -0.004172   0.489602  -0.000502  -0.006624  -0.013754
    16  H    0.041869  -0.000107  -0.000502   0.454915   0.000504   0.001000
    17  H   -0.049326   0.001416  -0.006624   0.000504   0.466596  -0.009434
    18  H   -0.035734  -0.001818  -0.013754   0.001000  -0.009434   0.523979
    19  H    0.000727  -0.000009   0.000016  -0.002093   0.000035  -0.000523
    20  H    0.003526  -0.000000  -0.000142   0.002242  -0.000064   0.002750
    21  H    0.011241   0.000763  -0.000250   0.002786   0.001313   0.007437
    22  H    0.014847  -0.001018  -0.010885   0.000023   0.001040  -0.002714
    23  H   -0.016990  -0.000085  -0.000023   0.008767   0.000387  -0.001540
    24  H   -0.020842  -0.000000   0.000032  -0.010373  -0.000128   0.001103
    25  H    0.002174   0.000015  -0.000017   0.000726  -0.000019   0.000287
    26  H   -0.001970   0.000001   0.000020  -0.002257   0.000081  -0.000653
    27  H    0.497327  -0.002760  -0.001949  -0.000147  -0.009082   0.007903
    28  H    0.439378  -0.001309   0.000012   0.006013  -0.010833   0.007024
    29  H   -0.069739   0.000870   0.001965  -0.003060   0.001396  -0.003227
    30  H    0.023119   0.001030   0.002476   0.011563   0.006186  -0.030946
    31  H   -0.039998   0.000260   0.003429  -0.015828   0.000841  -0.031054
              19         20         21         22         23         24
     1  C   -0.000097  -0.000692  -0.227156  -0.010030   0.000251   0.000312
     2  C   -0.001990  -0.005179  -0.070727   0.006184   0.018387   0.020259
     3  C   -0.002061   0.031798   0.051993  -0.003828   0.012893  -0.078956
     4  C    0.000227   0.000558   0.078607  -0.009599  -0.000836   0.008028
     5  O   -0.061799  -0.035305   0.003970  -0.000022  -0.001946  -0.001266
     6  C    0.427338   0.469498  -0.001894  -0.000200   0.004653   0.009259
     7  C   -0.000123   0.001310   0.542458   0.422040   0.004398  -0.001024
     8  C    0.011227  -0.007197  -0.002375   0.000863   0.498570   0.428907
     9  C    0.011482  -0.016739  -0.036664   0.003541  -0.042820   0.033721
    10  C   -0.035653  -0.062129  -0.002295  -0.000371  -0.092199  -0.004762
    11  O    0.000039  -0.000207  -0.026334  -0.065003  -0.001766   0.000206
    12  O   -0.000161  -0.000845  -0.004514  -0.000339  -0.010805  -0.000071
    13  C    0.000727   0.003526   0.011241   0.014847  -0.016990  -0.020842
    14  H   -0.000009  -0.000000   0.000763  -0.001018  -0.000085  -0.000000
    15  H    0.000016  -0.000142  -0.000250  -0.010885  -0.000023   0.000032
    16  H   -0.002093   0.002242   0.002786   0.000023   0.008767  -0.010373
    17  H    0.000035  -0.000064   0.001313   0.001040   0.000387  -0.000128
    18  H   -0.000523   0.002750   0.007437  -0.002714  -0.001540   0.001103
    19  H    0.456918  -0.005066   0.000191  -0.000020  -0.002533   0.001350
    20  H   -0.005066   0.499138  -0.000019   0.000029  -0.003212   0.000137
    21  H    0.000191  -0.000019   0.575416  -0.019850  -0.000395   0.000258
    22  H   -0.000020   0.000029  -0.019850   0.451219   0.000345  -0.000146
    23  H   -0.002533  -0.003212  -0.000395   0.000345   0.489183  -0.022110
    24  H    0.001350   0.000137   0.000258  -0.000146  -0.022110   0.471140
    25  H   -0.002258   0.002136  -0.000297   0.000034   0.001636  -0.006948
    26  H   -0.008507   0.004309   0.000073  -0.000028  -0.006826  -0.009366
    27  H    0.000040   0.000057  -0.001152   0.000598  -0.000923   0.000197
    28  H    0.000308  -0.000530   0.006615  -0.000190  -0.009861   0.000431
    29  H   -0.000148   0.000452  -0.006381   0.001205   0.003887  -0.001397
    30  H    0.003199  -0.017388   0.001247  -0.001459  -0.006679  -0.006780
    31  H    0.001393  -0.001340  -0.036394   0.001406  -0.000296   0.001012
              25         26         27         28         29         30
     1  C   -0.000049   0.000300  -0.033241  -0.018406   0.014069  -0.016649
     2  C   -0.003953   0.000560  -0.076441  -0.140232   0.576880  -0.045350
     3  C   -0.026126   0.019538  -0.013597   0.179745  -0.075501   0.309950
     4  C   -0.000528   0.000674  -0.025273  -0.015789  -0.017013   0.040461
     5  O   -0.008659   0.008772  -0.000418   0.000893   0.000237  -0.052499
     6  C   -0.078976  -0.045256   0.003469  -0.009961  -0.002491  -0.018248
     7  C    0.000607  -0.000718   0.020447   0.009970  -0.028625  -0.030467
     8  C    0.003435  -0.074418  -0.010293  -0.036336   0.021682  -0.241160
     9  C    0.006651  -0.003580   0.009062  -0.070066   0.027008   0.198464
    10  C    0.476596   0.464204  -0.001141   0.001481   0.002206   0.047162
    11  O   -0.000114   0.000045  -0.017116   0.018317  -0.088098   0.005463
    12  O   -0.000231  -0.001515   0.007899  -0.029294  -0.085830  -0.004685
    13  C    0.002174  -0.001970   0.497327   0.439378  -0.069739   0.023119
    14  H    0.000015   0.000001  -0.002760  -0.001309   0.000870   0.001030
    15  H   -0.000017   0.000020  -0.001949   0.000012   0.001965   0.002476
    16  H    0.000726  -0.002257  -0.000147   0.006013  -0.003060   0.011563
    17  H   -0.000019   0.000081  -0.009082  -0.010833   0.001396   0.006186
    18  H    0.000287  -0.000653   0.007903   0.007024  -0.003227  -0.030946
    19  H   -0.002258  -0.008507   0.000040   0.000308  -0.000148   0.003199
    20  H    0.002136   0.004309   0.000057  -0.000530   0.000452  -0.017388
    21  H   -0.000297   0.000073  -0.001152   0.006615  -0.006381   0.001247
    22  H    0.000034  -0.000028   0.000598  -0.000190   0.001205  -0.001459
    23  H    0.001636  -0.006826  -0.000923  -0.009861   0.003887  -0.006679
    24  H   -0.006948  -0.009366   0.000197   0.000431  -0.001397  -0.006780
    25  H    0.472093  -0.008239  -0.000029   0.000370   0.000044  -0.004124
    26  H   -0.008239   0.488740  -0.000384   0.001055   0.000495   0.001626
    27  H   -0.000029  -0.000384   0.444925  -0.019559  -0.008594   0.000195
    28  H    0.000370   0.001055  -0.019559   0.543897  -0.014131  -0.018576
    29  H    0.000044   0.000495  -0.008594  -0.014131   0.494143  -0.002071
    30  H   -0.004124   0.001626   0.000195  -0.018576  -0.002071   0.612152
    31  H    0.000258   0.001882  -0.001720  -0.007590   0.005571  -0.005541
              31
     1  C    0.050057
     2  C    0.107989
     3  C   -0.138924
     4  C   -0.026742
     5  O   -0.080212
     6  C    0.003810
     7  C   -0.040699
     8  C   -0.003788
     9  C    0.465979
    10  C    0.030095
    11  O   -0.008176
    12  O    0.002935
    13  C   -0.039998
    14  H    0.000260
    15  H    0.003429
    16  H   -0.015828
    17  H    0.000841
    18  H   -0.031054
    19  H    0.001393
    20  H   -0.001340
    21  H   -0.036394
    22  H    0.001406
    23  H   -0.000296
    24  H    0.001012
    25  H    0.000258
    26  H    0.001882
    27  H   -0.001720
    28  H   -0.007590
    29  H    0.005571
    30  H   -0.005541
    31  H    0.499134
 Mulliken charges:
               1
     1  C   -0.333292
     2  C   -0.059256
     3  C   -0.298511
     4  C   -0.289952
     5  O   -0.326471
     6  C   -0.180943
     7  C   -0.234498
     8  C   -0.106941
     9  C   -0.364011
    10  C   -0.378913
    11  O   -0.227395
    12  O   -0.397381
    13  C   -0.371295
    14  H    0.177002
    15  H    0.163021
    16  H    0.268492
    17  H    0.190736
    18  H    0.163512
    19  H    0.208550
    20  H    0.138114
    21  H    0.152328
    22  H    0.222328
    23  H    0.178491
    24  H    0.187817
    25  H    0.173507
    26  H    0.171341
    27  H    0.231697
    28  H    0.187153
    29  H    0.254195
    30  H    0.238328
    31  H    0.262250
 Sum of Mulliken charges =  -0.00000
 Mulliken charges with hydrogens summed into heavy atoms:
               1
     1  C    0.006731
     2  C    0.194939
     3  C   -0.030019
     4  C    0.064296
     5  O   -0.326471
     6  C    0.165722
     7  C    0.140157
     8  C    0.259367
     9  C    0.136566
    10  C   -0.034065
    11  O   -0.227395
    12  O   -0.397381
    13  C    0.047555
 Electronic spatial extent (au):  <R**2>=           2782.3329
 Charge=             -0.0000 electrons
 Dipole moment (field-independent basis, Debye):
    X=             -0.7062    Y=              1.7884    Z=              3.4256  Tot=              3.9283
 Quadrupole moment (field-independent basis, Debye-Ang):
   XX=            -75.8453   YY=            -84.9850   ZZ=            -79.8992
   XY=              8.6871   XZ=             -2.0700   YZ=             -1.7352
 Traceless Quadrupole moment (field-independent basis, Debye-Ang):
   XX=              4.3979   YY=             -4.7418   ZZ=              0.3440
   XY=              8.6871   XZ=             -2.0700   YZ=             -1.7352
 Octapole moment (field-independent basis, Debye-Ang**2):
  XXX=            -19.7556  YYY=             -3.0702  ZZZ=             -2.0652  XYY=              1.2826
  XXY=              7.9886  XXZ=             11.5772  XZZ=              6.9936  YZZ=             -0.3363
  YYZ=              7.7454  XYZ=            -13.3848
 Hexadecapole moment (field-independent basis, Debye-Ang**3):
 XXXX=          -2522.9773 YYYY=           -637.0744 ZZZZ=           -418.1738 XXXY=             20.8031
 XXXZ=            -33.4480 YYYX=              3.1984 YYYZ=             -5.1905 ZZZX=             -4.6928
 ZZZY=              1.5229 XXYY=           -559.8319 XXZZ=           -501.8197 YYZZ=           -181.1303
 XXYZ=              1.8809 YYXZ=             -0.0346 ZZXY=              7.7279
 N-N= 9.035378015194D+02 E-N=-3.248551590070D+03  KE= 6.153078247576D+02
 D1PCM: PCM CHGder 1st derivatives, ID1Alg=3 FixD1E=F DoIter=F DoCFld=F I1PDM=0.
 Calling FoFJK, ICntrl=      2127 FMM=F ISym2X=0 I1Cent= 0 IOpClX= 0 NMat=1 NMatS=1 NMatT=0.
 ***** Axes restored to original set *****
 -------------------------------------------------------------------
 Center     Atomic                   Forces (Hartrees/Bohr)
 Number     Number              X              Y              Z
 -------------------------------------------------------------------
      1        6           0.002580419   -0.000544753   -0.000957553
      2        6           0.002398367   -0.013992496    0.001581835
      3        6          -0.004096007    0.000546286    0.011662833
      4        6          -0.001473126    0.004431217   -0.001077973
      5        8           0.001945903   -0.005219730   -0.007766567
      6        6          -0.003629119    0.005777202   -0.001236762
      7        6           0.001327529    0.000661584    0.007516702
      8        6           0.002315257   -0.003200434   -0.003647382
      9        6           0.006406940    0.005877740    0.000274472
     10        6          -0.001977789   -0.001202473    0.001975811
     11        8          -0.005870045    0.010719557   -0.000981316
     12        8          -0.000479650    0.000933938   -0.010783406
     13        6          -0.000350001   -0.001982687   -0.004308519
     14        1          -0.002062392    0.002000827    0.001262409
     15        1          -0.000602595   -0.002691302   -0.000464262
     16        1           0.003369642    0.000506691   -0.005192774
     17        1          -0.000570070   -0.001360740    0.002145785
     18        1           0.003689283   -0.002406807   -0.002577486
     19        1           0.003764832   -0.001722797   -0.001276996
     20        1          -0.001658056   -0.001542857    0.005742958
     21        1           0.005275257   -0.003382175   -0.002750730
     22        1          -0.003154584    0.000228529   -0.002926927
     23        1          -0.002070433   -0.001721444    0.003773621
     24        1          -0.000478584    0.002834001   -0.000325951
     25        1           0.000827024    0.000856266   -0.002973396
     26        1           0.001792491    0.000931747    0.002208680
     27        1          -0.002160399    0.001240130    0.002452858
     28        1           0.004670467   -0.000118667    0.001845337
     29        1          -0.001794680    0.006503475    0.002742876
     30        1          -0.003911861   -0.001454840    0.008073828
     31        1          -0.004024019   -0.001504987   -0.004012006
 -------------------------------------------------------------------
 Cartesian Forces:  Max     0.013992496 RMS     0.003959980

 GradGradGradGradGradGradGradGradGradGradGradGradGradGradGradGradGradGrad
 Berny optimization.
 FormGI is forming the generalized inverse of G from B-inverse, IUseBI=4.
 Internal  Forces:  Max     0.025363504 RMS     0.002853337
 Search for a local minimum.
 Step number   1 out of a maximum of  186
 All quantities printed in internal units (Hartrees-Bohrs-Radians)
 Mixed Optimization -- RFO/linear search
 Second derivative matrix not updated -- first step.
 ITU=  0
     Eigenvalues ---    0.00428   0.00617   0.00730   0.00746   0.01389
     Eigenvalues ---    0.01429   0.01462   0.02450   0.02639   0.03027
     Eigenvalues ---    0.03133   0.03734   0.03914   0.04464   0.04646
     Eigenvalues ---    0.04798   0.04849   0.05009   0.05058   0.05159
     Eigenvalues ---    0.05273   0.05363   0.05559   0.05694   0.06132
     Eigenvalues ---    0.06324   0.06400   0.06804   0.07648   0.07778
     Eigenvalues ---    0.07792   0.08010   0.08077   0.08109   0.08641
     Eigenvalues ---    0.08982   0.09571   0.09590   0.10625   0.11521
     Eigenvalues ---    0.11612   0.11701   0.12021   0.12425   0.12526
     Eigenvalues ---    0.14937   0.15339   0.16853   0.16895   0.18076
     Eigenvalues ---    0.19874   0.21690   0.22066   0.25000   0.27878
     Eigenvalues ---    0.28359   0.28517   0.28576   0.28977   0.29151
     Eigenvalues ---    0.30129   0.30180   0.35093   0.35115   0.35155
     Eigenvalues ---    0.35257   0.35262   0.35271   0.35283   0.35316
     Eigenvalues ---    0.35333   0.35357   0.35606   0.35746   0.35802
     Eigenvalues ---    0.35833   0.35850   0.35912   0.35956   0.36219
     Eigenvalues ---    0.41227   0.41363   0.41827   0.42486   0.43525
     Eigenvalues ---    0.438521000.000001000.000001000.000001000.00000
     Eigenvalues --- 1000.000001000.000001000.000001000.000001000.00000
     Eigenvalues --- 1000.000001000.000001000.000001000.000001000.00000
     Eigenvalues --- 1000.000001000.000001000.000001000.000001000.00000
     Eigenvalues --- 1000.000001000.000001000.000001000.000001000.00000
     Eigenvalues --- 1000.000001000.000001000.000001000.000001000.00000
     Eigenvalues --- 1000.000001000.000001000.000001000.000001000.00000
     Eigenvalues --- 1000.000001000.000001000.000001000.000001000.00000
     Eigenvalues --- 1000.000001000.000001000.000001000.000001000.00000
     Eigenvalues --- 1000.000001000.000001000.000001000.000001000.00000
     Eigenvalues --- 1000.000001000.000001000.000001000.000001000.00000
     Eigenvalues --- 1000.000001000.000001000.000001000.000001000.00000
     Eigenvalues --- 1000.000001000.000001000.000001000.000001000.00000
     Eigenvalues --- 1000.000001000.000001000.000001000.000001000.00000
     Eigenvalues --- 1000.000001000.000001000.000001000.000001000.00000
     Eigenvalues --- 1000.000001000.000001000.000001000.000001000.00000
     Eigenvalues --- 1000.000001000.000001000.000001000.000001000.00000
     Eigenvalues --- 1000.000001000.000001000.000001000.000001000.00000
     Eigenvalues --- 1000.000001000.000001000.000001000.000001000.00000
     Eigenvalues --- 1000.000001000.000001000.000001000.000001000.00000
 RFO step:  Lambda=-6.48406756D-03 EMin= 4.28416975D-03
 Linear search not attempted -- first point.
 Iteration  1 RMS(Cart)=  0.14694305 RMS(Int)=  0.00422369
 Iteration  2 RMS(Cart)=  0.01586246 RMS(Int)=  0.00010009
 Iteration  3 RMS(Cart)=  0.00009302 RMS(Int)=  0.00008899
 Iteration  4 RMS(Cart)=  0.00000001 RMS(Int)=  0.00008899
 Iteration  1 RMS(Cart)=  0.00000675 RMS(Int)=  0.00000125
 Iteration  2 RMS(Cart)=  0.00000361 RMS(Int)=  0.00000139
 Iteration  3 RMS(Cart)=  0.00000193 RMS(Int)=  0.00000157
 Iteration  4 RMS(Cart)=  0.00000103 RMS(Int)=  0.00000168
 Iteration  5 RMS(Cart)=  0.00000055 RMS(Int)=  0.00000175
 Variable       Old X    -DE/DX   Delta X   Delta X   Delta X     New X
                                 (Linear)    (Quad)   (Total)
    R1        2.88296  -0.00043   0.00000  -0.00264  -0.00269   2.88026
    R2        2.86264   0.00030   0.00000   0.00063   0.00063   2.86328
    R3        2.05489   0.00302   0.00000   0.00844   0.00844   2.06333
    R4        2.05251   0.00276   0.00000   0.00769   0.00769   2.06021
    R5        2.64939   0.00115   0.00000   0.00320   0.00325   2.65264
    R6        2.67028   0.00038   0.00000   0.00086   0.00086   2.67113
    R7        2.90525  -0.00098   0.00000  -0.00259  -0.00258   2.90267
    R8        2.03741   0.00724   0.00000   0.01964   0.01964   2.05704
    R9        2.88526  -0.00119   0.00000  -0.00400  -0.00397   2.88129
   R10        2.88217  -0.00053   0.00000  -0.00122  -0.00120   2.88097
   R11        2.68309  -0.00122   0.00000  -0.00283  -0.00283   2.68026
   R12        2.04702   0.00601   0.00000   0.01657   0.01657   2.06359
   R13        2.90355  -0.00157   0.00000  -0.00493  -0.00496   2.89859
   R14        2.05165   0.00259   0.00000   0.00721   0.00721   2.05885
   R15        2.04392   0.00505   0.00000   0.01384   0.01384   2.05776
   R16        2.67803   0.00363   0.00000   0.00840   0.00837   2.68640
   R17        2.67175   0.00312   0.00000   0.00696   0.00701   2.67877
   R18        2.87343   0.00052   0.00000   0.00121   0.00118   2.87462
   R19        2.04344   0.00433   0.00000   0.01187   0.01187   2.05531
   R20        2.05525   0.00607   0.00000   0.01698   0.01698   2.07223
   R21        2.67940   0.00299   0.00000   0.00650   0.00652   2.68592
   R22        2.05099   0.00679   0.00000   0.01885   0.01885   2.06983
   R23        2.04317   0.00430   0.00000   0.01178   0.01178   2.05495
   R24        2.89598  -0.00081   0.00000  -0.00261  -0.00266   2.89331
   R25        2.05238   0.00456   0.00000   0.01269   0.01269   2.06506
   R26        2.05138   0.00281   0.00000   0.00780   0.00780   2.05919
   R27        2.04219   0.00880   0.00000   0.02406   0.02406   2.06625
   R28        2.04150   0.00582   0.00000   0.01589   0.01589   2.05740
   R29        2.05424   0.00312   0.00000   0.00872   0.00872   2.06295
   R30        2.05218   0.00297   0.00000   0.00828   0.00828   2.06046
   R31        2.05259   0.00348   0.00000   0.00970   0.00970   2.06230
   R32        2.04480   0.00499   0.00000   0.01372   0.01372   2.05852
    A1        1.89994  -0.00113   0.00000  -0.00525  -0.00542   1.89453
    A2        1.93388   0.00113   0.00000   0.00139   0.00143   1.93531
    A3        1.93212  -0.00069   0.00000  -0.00193  -0.00188   1.93024
    A4        1.90258  -0.00010   0.00000  -0.00239  -0.00233   1.90025
    A5        1.91667   0.00079   0.00000   0.00419   0.00422   1.92089
    A6        1.87843   0.00003   0.00000   0.00414   0.00412   1.88254
    A7        1.88407   0.00341   0.00000   0.00894   0.00866   1.89273
    A8        1.94643   0.00470   0.00000   0.01201   0.01169   1.95813
    A9        1.81426  -0.00327   0.00000   0.00052   0.00027   1.81453
   A10        2.10075  -0.00936   0.00000  -0.05218  -0.05210   2.04864
   A11        1.81214   0.00345   0.00000   0.02693   0.02707   1.83922
   A12        1.88055   0.00151   0.00000   0.01167   0.01184   1.89239
   A13        1.91815  -0.00053   0.00000  -0.01093  -0.01109   1.90707
   A14        1.96227   0.00090   0.00000  -0.00074  -0.00130   1.96097
   A15        1.88116   0.00036   0.00000   0.00767   0.00767   1.88883
   A16        2.05333  -0.00199   0.00000  -0.02145  -0.02161   2.03172
   A17        1.84921   0.00034   0.00000   0.00748   0.00760   1.85680
   A18        1.78370   0.00122   0.00000   0.02432   0.02441   1.80812
   A19        1.94190   0.00106   0.00000  -0.00380  -0.00388   1.93802
   A20        1.93293  -0.00001   0.00000   0.00214   0.00221   1.93514
   A21        1.89251  -0.00067   0.00000  -0.00135  -0.00138   1.89113
   A22        1.88950  -0.00015   0.00000   0.00287   0.00288   1.89238
   A23        1.94635  -0.00056   0.00000  -0.00224  -0.00221   1.94413
   A24        1.85922   0.00030   0.00000   0.00270   0.00269   1.86191
   A25        1.97234  -0.00444   0.00000  -0.02656  -0.02644   1.94589
   A26        1.93554   0.00211   0.00000   0.00941   0.00946   1.94500
   A27        1.85620  -0.00133   0.00000  -0.00450  -0.00449   1.85171
   A28        1.90058   0.00060   0.00000   0.00630   0.00630   1.90688
   A29        1.94491  -0.00023   0.00000  -0.00233  -0.00234   1.94257
   A30        1.93256  -0.00171   0.00000  -0.00972  -0.00976   1.92280
   A31        1.89169   0.00058   0.00000   0.00116   0.00113   1.89282
   A32        1.92205   0.00308   0.00000   0.01147   0.01152   1.93356
   A33        1.93886  -0.00219   0.00000  -0.00886  -0.00892   1.92995
   A34        1.95422   0.00006   0.00000  -0.00245  -0.00245   1.95177
   A35        1.91778   0.00024   0.00000   0.00265   0.00267   1.92045
   A36        1.84027  -0.00170   0.00000  -0.00181  -0.00183   1.83844
   A37        1.88787   0.00053   0.00000  -0.00069  -0.00072   1.88715
   A38        1.90987   0.00144   0.00000  -0.00051  -0.00047   1.90940
   A39        1.91979  -0.00074   0.00000  -0.00500  -0.00498   1.91482
   A40        1.91180  -0.00087   0.00000  -0.00411  -0.00416   1.90764
   A41        1.91726  -0.00072   0.00000  -0.00036  -0.00042   1.91684
   A42        1.92772   0.00046   0.00000   0.00710   0.00713   1.93485
   A43        1.87722   0.00040   0.00000   0.00287   0.00285   1.88007
   A44        1.88819   0.00184   0.00000   0.01256   0.01265   1.90084
   A45        1.95408  -0.00251   0.00000  -0.01778  -0.01789   1.93620
   A46        1.94756  -0.00055   0.00000  -0.00719  -0.00733   1.94022
   A47        1.89249   0.00149   0.00000   0.01322   0.01332   1.90581
   A48        1.86830  -0.00074   0.00000   0.00316   0.00314   1.87144
   A49        1.91029   0.00063   0.00000  -0.00216  -0.00236   1.90793
   A50        1.93305  -0.00127   0.00000  -0.00668  -0.00679   1.92626
   A51        1.90186   0.00015   0.00000  -0.00058  -0.00052   1.90133
   A52        1.90906   0.00065   0.00000   0.00356   0.00355   1.91261
   A53        1.91436   0.00073   0.00000   0.00050   0.00050   1.91486
   A54        1.93015  -0.00016   0.00000   0.00028   0.00033   1.93048
   A55        1.87422  -0.00006   0.00000   0.00323   0.00321   1.87743
   A56        2.06545  -0.00652   0.00000  -0.03456  -0.03441   2.03104
   A57        2.34069  -0.02536   0.00000  -0.09889  -0.09889   2.24180
   A58        2.03823  -0.00159   0.00000  -0.01024  -0.01037   2.02786
   A59        1.81870   0.00061   0.00000   0.01298   0.01299   1.83168
   A60        1.92284   0.00034   0.00000  -0.00846  -0.00858   1.91426
   A61        1.87433   0.00100   0.00000   0.01211   0.01219   1.88651
   A62        1.94133   0.00001   0.00000  -0.00634  -0.00655   1.93478
   A63        1.85468  -0.00017   0.00000   0.00354   0.00360   1.85827
    D1        0.88730  -0.00026   0.00000   0.00623   0.00625   0.89355
    D2        2.98975   0.00026   0.00000   0.00877   0.00878   2.99853
    D3       -1.25936   0.00021   0.00000   0.01243   0.01246  -1.24690
    D4       -1.20478  -0.00012   0.00000   0.01166   0.01167  -1.19310
    D5        0.89767   0.00040   0.00000   0.01419   0.01421   0.91188
    D6        2.93175   0.00036   0.00000   0.01786   0.01788   2.94963
    D7        2.99569  -0.00044   0.00000   0.00683   0.00682   3.00251
    D8       -1.18505   0.00008   0.00000   0.00937   0.00935  -1.17570
[...]
 3929747,0.00009579,0.00002052,0.00002569,0.00026992,-0.00005986,0.0001
 3885,-0.00003530,0.00002321,-0.00006725,0.00000455,-0.00000159,-0.0000
 0036,0.00000595,0.00000434,0.00000430,0.00010147,0.00026958,0.00041092
 ,0.00000868,0.00000508,-0.00000455,-0.00001116,-0.00001155,0.00000250,
 -0.00020237,0.00055606,0.00047190,-0.00034062,-0.00044267,0.00115478,-
 0.00000425,0.00000140,-0.00000729,0.00000757,0.00000123,0.00000185,0.0
 0083789,-0.00067478,0.00107095,0.00008338,-0.00027928,0.00035519,-0.09
 867833,-0.08284180,0.25729392,0.00000959,-0.00002353,-0.00000521,0.001
 24248,0.00009678,-0.00086694,-0.00124288,0.00363198,0.00397898,0.00000
 568,0.00001294,0.00002778,0.00099130,-0.00109317,-0.00031514,-0.002932
 39,-0.00022374,-0.00153830,0.00003070,0.00018201,0.00004823,-0.0197052
 2,-0.00801822,-0.02238255,0.00050141,0.00072880,0.00005272,-0.14753961
 ,-0.03948056,-0.12390041,-0.00068420,-0.00018000,-0.00008954,-0.003518
 04,0.00008394,-0.00066768,-0.00007021,0.00002020,0.00003568,-0.0000095
 2,0.00000288,0.00000301,-0.00001040,-0.00001923,0.00000004,0.00018480,
 0.00008154,-0.00013883,-0.00001959,-0.00002423,0.00001034,0.00001515,0
 .00002530,-0.00001178,-0.00003184,-0.00049338,-0.00000531,0.00019492,-
 0.00002445,0.00018750,0.00002557,-0.00001366,0.00001593,-0.00002350,-0
 .00001895,-0.00001122,0.00116003,-0.00061183,0.00025228,0.00119216,0.0
 0012823,0.00009260,0.00854657,0.00401500,0.00951851,0.16180326,-0.0000
 0872,0.00001872,0.00001472,-0.00039525,-0.00008978,0.00038363,0.001732
 25,-0.00128486,-0.00135369,0.00000977,-0.00003441,-0.00001245,-0.00414
 211,-0.00894967,-0.00290539,-0.01998932,-0.00165787,-0.02458622,0.0000
 0351,-0.00009485,-0.00004682,0.00941853,0.00416543,0.01274516,0.002098
 90,-0.00083192,-0.00016371,-0.03895953,-0.06371982,-0.04564373,0.00030
 124,0.00008869,0.00003641,0.00186759,0.00019341,0.00021789,0.00003083,
 -0.00001908,0.00000056,-0.00000598,-0.00000054,-0.00000339,0.00000193,
 0.00000510,-0.00000258,-0.00010904,-0.00022089,-0.00026679,-0.00001083
 ,0.00001410,0.00000760,0.00000034,0.00003548,0.00000714,0.00097627,0.0
 0085533,0.00007361,-0.00002277,0.00124085,0.00088619,-0.00001222,0.000
 00935,0.00001350,-0.00000183,0.00001317,0.00000760,-0.00066251,0.00044
 177,-0.00026253,-0.00082989,0.00032120,0.00035528,0.00776514,0.0023788
 3,0.00818846,0.04141293,0.06677469,0.00000023,-0.00000301,0.00000526,0
 .00008647,-0.00002735,-0.00001135,0.00112235,-0.00067779,0.00036067,-0
 .00000200,-0.00000134,-0.00000386,-0.00049235,-0.00105129,0.00132044,0
 .00035556,0.00122272,-0.00217504,0.00001449,0.00000587,-0.00000387,0.0
 0544695,0.00240530,0.00501395,0.00039012,0.00008489,-0.00012089,-0.125
 47151,-0.04716625,-0.19964386,-0.00003331,0.00000522,-0.00002145,0.000
 20669,-0.00014209,0.00039966,-0.00000333,-0.00000265,0.00001935,-0.000
 00504,0.00000105,-0.00000150,-0.00000314,-0.00000224,-0.00000264,0.000
 13588,0.00012838,0.00039207,-0.00000795,-0.00000145,0.00000495,0.00000
 312,0.00001768,0.00000149,0.00007510,-0.00024536,0.00006579,0.00004819
 ,-0.00047396,0.00032110,0.00000094,-0.00000074,0.00000680,-0.00000597,
 0.00000065,-0.00000037,-0.00042750,0.00033163,0.00065431,-0.00049305,0
 .00024539,-0.00004118,-0.01640555,-0.00685703,-0.01961855,0.13564438,0
 .05221425,0.21312915,0.00094535,0.00014093,0.00001744,-0.00225089,0.00
 089003,-0.00061976,0.00071215,0.00012905,-0.00069615,0.00754347,-0.006
 03760,-0.00853589,-0.00043643,0.00005823,0.00028413,0.00013701,0.00002
 274,0.00011883,-0.00001926,-0.00008988,0.00003874,-0.00011591,0.000083
 10,-0.00030275,0.00023012,0.00039509,-0.00061121,0.00004677,-0.0001089
 2,0.00004797,0.00023970,0.00017578,0.00018573,0.00071554,-0.00086966,0
 .00097737,-0.15272697,0.06449360,0.11208551,-0.00015044,0.00018355,0.0
 0036193,-0.00003537,0.00005367,0.00027234,-0.00004817,-0.00002973,0.00
 005988,0.00079736,0.00067212,-0.00014505,-0.00019476,-0.00224591,-0.00
 085821,-0.00003186,0.00001452,-0.00000409,0.00001648,-0.00001180,-0.00
 002948,0.00002004,0.00002731,0.00005288,0.00002936,-0.00000022,0.00000
 365,0.00003409,0.00000333,0.00027014,-0.00004579,-0.00006151,0.0000601
 9,-0.00005710,0.00003216,0.00003919,-0.00004270,0.00000026,-0.00001378
 ,0.16235941,0.00048426,0.00063656,0.00046690,-0.01438157,0.00454740,0.
 01592776,0.00121873,-0.00083335,0.00006577,0.01911113,-0.01821577,-0.0
 2048192,0.00013931,0.00011503,-0.00008184,-0.00003581,-0.00004743,-0.0
 0001418,-0.00009528,-0.00035881,0.00006940,-0.00011064,0.00008933,0.00
 001110,-0.00018964,-0.00010419,0.00008877,-0.00000466,-0.00003273,-0.0
 0005951,0.00045059,-0.00008266,-0.00085988,-0.00198200,-0.00251625,0.0
 0501919,0.06712514,-0.08214387,-0.07104943,-0.00053485,0.00026122,-0.0
 0015523,-0.00029364,0.00004604,0.00031316,-0.00020826,0.00019295,-0.00
 001759,0.00051339,0.00117693,0.00016196,-0.00285291,-0.00484016,-0.001
 87781,0.00000583,0.00001072,0.00000205,-0.00000275,0.00000616,-0.00000
 180,-0.00000611,-0.00006191,0.00006405,0.00000205,0.00006394,-0.000049
 66,-0.00000431,-0.00002264,-0.00003682,0.00001949,0.00001056,0.0000097
 9,0.00000311,0.00000117,0.00000347,-0.00002934,0.00001804,-0.00000093,
 -0.06809213,0.10275869,0.00034438,0.00015965,-0.00014601,0.01889964,-0
 .00992085,-0.01922365,-0.00155769,0.00089979,0.00004147,0.00523355,-0.
 00412704,-0.00532816,0.00010081,-0.00008484,0.00013689,-0.00000983,0.0
 0000681,-0.00007207,0.00018221,0.00008994,-0.00010431,0.00006194,-0.00
 010153,-0.00014045,-0.00020200,0.00021509,0.00010998,0.00001827,0.0000
 0429,0.00011567,-0.00130435,0.00072208,0.00093475,0.00101529,0.0038946
 3,-0.00364222,0.11116275,-0.06941809,-0.16821548,-0.00024823,-0.000032
 82,-0.00021954,-0.00020853,0.00003258,0.00006697,0.00018597,-0.0001441
 7,-0.00000321,-0.00043634,0.00066280,0.00117670,-0.00086022,-0.0009618
 0,0.00091503,0.00001113,-0.00000623,0.00000820,0.00000106,-0.00000259,
 0.00000896,-0.00000748,0.00002189,0.00013030,-0.00001996,0.00003060,-0
 .00001380,0.00002538,0.00001572,0.00008197,-0.00001962,-0.00000861,0.0
 0001554,-0.00001578,0.00000773,0.00000428,0.00003859,-0.00001603,0.000
 00274,-0.12365113,0.07216436,0.18127455,0.00095739,-0.00214896,0.00054
 636,0.00061666,-0.00046591,0.00241862,0.00034615,0.00020944,-0.0004685
 3,-0.00728319,0.00046419,-0.00323061,-0.00011361,-0.00008667,0.0003358
 0,0.00007838,0.00000088,0.00008153,-0.00011625,-0.00005594,0.00045827,
 -0.00115396,-0.00013291,-0.00000427,-0.00043488,0.00106338,0.00022308,
 -0.00000372,-0.00008516,0.00014953,0.00133733,-0.00007485,0.00070580,0
 .00122754,0.00013370,-0.00009567,-0.26584710,0.01277942,-0.10930220,0.
 00014909,0.00007234,0.00020781,-0.00034711,0.00015481,-0.00059111,-0.0
 0003804,0.00003434,-0.00010729,-0.00010634,-0.00021690,0.00015839,0.00
 040001,-0.00002561,0.00021683,0.00000637,-0.00000306,-0.00002023,0.000
 05075,0.00001619,-0.00005966,0.00003307,-0.00001618,-0.00004468,-0.000
 00329,0.00006848,-0.00007007,-0.00212762,-0.00109872,0.00075070,0.0000
 8132,-0.00002011,-0.00012068,-0.00003531,0.00001739,0.00003270,0.00001
 900,-0.00002161,-0.00000081,-0.01826294,0.00135204,-0.00864853,0.29120
 540,-0.00084577,-0.00627163,-0.00025566,0.01935183,0.00102497,0.004581
 62,-0.00001679,0.00040429,0.00058466,-0.02808720,0.00285918,-0.0144579
 5,-0.00033276,0.00004660,0.00012801,0.00011372,0.00010987,0.00005005,-
 0.00025499,-0.00148039,-0.00023122,-0.00024478,-0.00020421,0.00031406,
 0.00019242,-0.00016825,-0.00060273,-0.00001448,0.00005488,-0.00013463,
 0.00160632,-0.00214599,0.00558818,-0.00045936,0.00104897,-0.00106687,0
 .01182304,-0.04819125,0.00903708,-0.00009115,0.00004447,0.00009011,-0.
 00132876,0.00007092,-0.00141038,-0.00009566,-0.00005751,-0.00004143,0.
 00036065,0.00077838,0.00069683,0.00091214,0.00161056,-0.00002502,-0.00
 002158,-0.00002408,-0.00000513,-0.00001845,-0.00001807,0.00001215,0.00
 003571,0.00020787,0.00001452,0.00006678,0.00026928,0.00000327,-0.00099
 154,0.00012082,0.00001684,0.00001938,-0.00000607,-0.00007104,0.0000594
 8,-0.00003623,-0.00001062,-0.00000224,-0.00001161,0.00000315,0.0109181
 2,-0.00135116,0.00594510,-0.01277489,0.05259226,-0.00015293,-0.0016992
 5,0.00054818,-0.02375313,-0.00149289,-0.00999427,0.00051937,0.00033541
 ,-0.00135171,-0.00656933,-0.00018096,-0.00392526,-0.00063474,0.0000663
 7,0.00030500,0.00017524,0.00002243,0.00014772,0.00037419,0.00129573,0.
 00114246,0.00004246,0.00015511,-0.00046215,0.00066510,-0.00001615,-0.0
 0105473,0.00006780,-0.00016631,0.00013458,-0.00220936,0.00390298,-0.00
 593964,0.00038105,-0.00123906,0.00229206,-0.10547747,0.00798800,-0.098
 31450,-0.00020467,0.00002775,-0.00012543,-0.00037884,0.00010133,-0.000
 09417,0.00001199,-0.00010809,0.00014208,0.00013219,-0.00017932,0.00006
 332,0.00004646,0.00048336,0.00022536,-0.00004739,0.00002810,0.00000365
 ,0.00003485,-0.00002444,-0.00004834,0.00004610,-0.00017349,-0.00009275
 ,-0.00002354,-0.00014145,-0.00002575,0.00028787,0.00006674,0.00077227,
 -0.00011343,-0.00011691,0.00011444,-0.00011364,0.00005995,0.00006046,-
 0.00005704,0.00000089,-0.00002223,0.02019676,-0.00105434,0.01075172,0.
 11569906,-0.00725871,0.10499096,-0.00001647,0.00007945,-0.00016881,-0.
 04320511,0.03956548,0.01194776,0.00352164,0.00026765,0.00526788,0.0004
 7877,-0.00027854,-0.00097517,-0.00056904,0.00081005,-0.00016040,0.0001
 6541,-0.00002570,0.00023258,-0.00133378,0.00195293,-0.00405929,0.00006
 899,0.00009901,-0.00011407,-0.00052219,-0.00075777,0.00018425,0.000048
 16,-0.00011003,-0.00017655,-0.00827287,-0.03145676,-0.02092045,-0.0286
 5294,0.02342397,0.02346672,0.00311117,0.00108370,0.00268637,-0.0000287
 8,0.00002311,0.00010562,0.00003129,-0.00006429,0.00017341,-0.00134975,
 0.00053765,0.00012244,0.00016981,0.00033635,0.00015225,-0.00010277,-0.
 00015856,-0.00005569,-0.00004424,0.00002603,-0.00001868,-0.00000183,0.
 00000335,-0.00004746,0.00002223,-0.00057116,-0.00023223,-0.00037860,-0
 .00113887,-0.00045192,-0.00004972,-0.00001321,-0.00017679,-0.00001308,
 -0.00009953,-0.00003355,0.00000965,0.00000064,0.00002244,-0.00010872,0
 .00003503,-0.00001434,0.00068773,-0.00134874,0.00001398,-0.00003268,-0
 .00065984,0.00040044,0.07635628,0.00040343,0.00024038,0.00000536,0.033
 62855,-0.27507589,-0.09395231,-0.00143210,0.00164209,-0.00003715,0.000
 87042,0.00004409,0.00369021,0.00017856,0.00005837,-0.00002297,-0.00005
 339,-0.00001014,-0.00007764,-0.00019157,0.00340511,0.00003000,0.000150
 81,-0.00024704,-0.00017878,-0.00041267,-0.00000084,0.00017066,0.000059
 56,0.00003322,0.00009686,-0.00529794,-0.00459630,-0.00615609,0.0032245
 1,0.00762770,0.00014975,0.00120977,-0.02060142,-0.00465178,-0.00010828
 ,0.00003553,0.00000028,-0.00003495,-0.00003301,-0.00006810,0.00017594,
 -0.00006408,-0.00000864,-0.00045557,-0.00102563,-0.00023927,0.00003656
 ,-0.00011758,-0.00005891,0.00001521,-0.00000555,0.00000017,-0.00000824
 ,0.00000409,0.00001289,0.00016670,-0.00000730,0.00009287,-0.00013069,-
 0.00039033,-0.00011273,-0.00003647,-0.00003941,-0.00000969,-0.00002218
 ,-0.00001567,-0.00005979,0.00000403,-0.00000139,-0.00000321,0.00004198
 ,-0.00001332,0.00000441,-0.00046270,0.00056148,0.00012845,0.00023034,-
 0.00038536,0.00048767,-0.03167854,0.28893331,-0.00033594,-0.00041764,-
 0.00044588,0.00925686,-0.08410605,-0.08604820,-0.00233349,-0.00029292,
 -0.00304014,-0.00152215,0.00175120,-0.00326182,0.00033345,-0.00059776,
 0.00013979,-0.00010961,0.00001643,-0.00015418,-0.00268274,0.00300798,-
 0.00167115,-0.00001133,-0.00010466,-0.00014357,0.00057637,0.00050440,-
 0.00031834,-0.00001873,0.00007278,0.00013553,-0.01107589,-0.03040713,-
 0.01620845,0.02319836,-0.01483445,-0.00795353,0.00109128,0.02453918,0.
 00649841,0.00008865,-0.00004202,0.00008299,0.00006315,-0.00015744,0.00
 028118,0.00083437,-0.00040931,-0.00009151,0.00052436,0.00101907,0.0001
 0488,0.00010082,0.00046193,0.00013780,0.00002541,-0.00001785,0.0000111
 4,0.00000522,-0.00000177,0.00003017,0.00012483,-0.00013699,-0.00014794
 ,-0.00036320,-0.00128374,-0.00039414,-0.00003165,0.00000690,0.00008986
 ,-0.00000772,0.00002714,0.00001736,-0.00000722,0.00000069,-0.00000738,
 0.00006851,-0.00002552,0.00001052,-0.00008563,0.00134627,0.00120078,-0
 .00058503,-0.00056668,-0.00000965,-0.01715904,0.10075697,0.11110339,-0
 .00012033,-0.00001997,-0.00021671,0.00013149,0.00021082,-0.00045371,0.
 00228678,-0.00145742,-0.00067298,-0.00256339,-0.00002134,0.00094811,-0
 .02846818,-0.00291163,0.03316706,0.00255290,-0.00023993,0.00613759,-0.
 00003338,-0.00001003,-0.00008352,-0.00018528,-0.00031228,0.00057633,-0
 .05951425,-0.02189851,0.04681579,-0.00040635,-0.00008258,-0.00061157,0
 .00005956,-0.00002976,0.00022265,0.00031803,-0.00113102,0.00038904,-0.
 00105743,0.00069927,0.00057267,0.00010357,-0.00004166,0.00002035,0.000
 04084,0.00002235,0.00004767,0.00037122,0.00073052,0.00040763,-0.000002
 76,-0.00000350,0.00001954,-0.00467289,-0.00118254,0.00033683,0.0002673
 3,0.00021619,-0.00033099,0.00029937,0.00034539,-0.00122972,0.00015751,
 -0.00001950,-0.00001637,-0.00000868,-0.00002010,0.00003979,0.00007160,
 -0.00021455,0.00002084,-0.00000078,0.00008146,-0.00006169,0.00004124,0
 .00016244,-0.00005545,0.00003301,-0.00021376,-0.00011335,-0.00004504,-
 0.00027351,-0.00005839,-0.00054855,0.00074575,0.00067614,-0.00000726,-
 0.00007767,0.00007004,0.08463826,-0.00005803,-0.00006721,0.00003835,-0
 .00056511,-0.00041524,0.00074453,-0.01072216,-0.01077611,0.03287088,-0
 .00051429,0.00027792,-0.00002650,0.01045939,0.00608284,-0.01426188,-0.
 00157570,0.00004473,-0.00155025,-0.00005654,-0.00007475,0.00005294,0.0
 0092954,0.00191444,0.00147693,-0.02191821,-0.08077544,0.07912702,-0.00
 000604,-0.00011304,0.00012974,0.00023389,0.00019576,-0.00019961,0.0016
 7539,0.00052636,-0.00157632,0.00138447,-0.00059765,-0.00033378,-0.0000
 3214,0.00002020,-0.00002306,-0.00004573,-0.00000843,-0.00004090,-0.000
 78515,-0.00635295,-0.00002255,-0.00008085,-0.00006570,0.00007226,-0.00
 177723,0.00039579,0.00014172,-0.00006069,-0.00008104,-0.00009687,-0.00
 053565,-0.00020949,0.00043828,0.00006488,-0.00001930,0.00001128,-0.000
 02038,0.00001897,-0.00000399,-0.00019320,-0.00000872,-0.00104633,0.000
 40850,0.00026158,-0.00031000,0.00014208,-0.00003515,-0.00001177,-0.000
 06933,0.00014298,0.00000376,-0.00023396,0.00008805,-0.00017908,0.00069
 292,-0.00085128,-0.00116374,0.00011531,0.00004090,-0.00010779,0.020359
 05,0.08572644,0.00030499,-0.00021212,-0.00033468,0.00015842,0.00022937
 ,-0.00031667,-0.00013870,-0.00052530,-0.00146766,0.00120509,0.00062262
 ,0.00001918,0.01266454,-0.00174795,-0.00704677,-0.00279354,-0.00072793
 ,0.00201069,0.00005973,0.00006321,-0.00016722,-0.00020591,-0.00062629,
 0.00095840,0.04890944,0.07864189,-0.26729035,0.00017893,-0.00008780,0.
 00000426,-0.00017232,-0.00003321,0.00000034,-0.00076008,0.00117547,0.0
 0041513,0.00104356,0.00009297,-0.00082269,0.00019263,-0.00003198,0.000
 21254,-0.00000705,0.00001797,0.00003278,-0.00011593,-0.00018426,0.0010
 3347,0.00042756,-0.00012309,-0.00030896,0.00102089,-0.00092068,-0.0000
 2991,-0.00000570,-0.00020917,0.00048062,0.00100856,0.00045672,0.000812
 63,0.00000211,0.00000776,0.00005140,-0.00002669,-0.00003240,0.00004854
 ,0.00048155,0.00017289,0.00034619,-0.00015112,0.00006552,0.00013943,-0
 .00006991,0.00007245,-0.00023295,0.00006895,0.00005996,-0.00000418,0.0
 0033171,-0.00004394,0.00003207,0.00122867,-0.00099037,-0.00041819,-0.0
 0005744,-0.00003380,0.00008009,-0.06957154,-0.08276352,0.28895749,-0.0
 0002244,-0.00005228,-0.00001107,-0.00016557,-0.00002211,0.00023116,0.0
 0010277,-0.00150215,-0.00049646,0.00025154,-0.00036335,0.00028161,-0.0
 3288004,-0.00800664,-0.02399204,-0.00248637,0.00257959,0.00520603,-0.0
 0070637,0.00032933,-0.00005307,0.00078619,0.00088088,0.00074319,-0.141
 99400,-0.06156037,-0.10793466,-0.00044544,0.00013741,-0.00049682,0.000
 22570,-0.00032550,-0.00019381,0.00131730,-0.00105984,0.00008397,0.0002
 3417,0.00006771,-0.00008698,0.00000918,0.00000143,-0.00002271,0.000002
 85,-0.00000991,-0.00001393,0.00012326,-0.00019248,-0.00009385,-0.00007
 148,0.00006517,-0.00002675,-0.00027502,0.00000677,0.00078984,-0.001248
 59,-0.00050671,-0.00110235,0.00019035,0.00010972,-0.00029725,-0.001442
 73,0.00066706,-0.00025917,0.00000004,-0.00000360,0.00001398,-0.0000468
 3,-0.00001290,-0.00019902,0.00024150,0.00009083,0.00000886,0.00001601,
 -0.00003071,0.00005105,-0.00001682,-0.00026915,-0.00003750,-0.00005094
 ,0.00002108,-0.00004684,-0.00005387,0.00003490,-0.00002158,0.00001871,
 0.00000659,-0.00003228,0.00626184,0.00278496,0.00478859,0.17212512,-0.
 00002231,0.00012159,-0.00005233,0.00004896,-0.00038463,-0.00027566,-0.
 02225569,-0.01109137,-0.02506665,0.00018949,0.00000103,0.00005305,0.01
 193440,0.00648691,0.01126269,0.00273048,-0.00069393,-0.00075468,0.0003
 5677,-0.00051557,-0.00057424,0.00079479,-0.00683673,0.00212537,-0.0679
 4325,-0.09227938,-0.07321685,0.00083194,-0.00008179,0.00017950,0.00024
 777,0.00027386,0.00025395,0.00090260,0.00312571,0.00085883,0.00003300,
 0.00009388,-0.00004072,-0.00001667,-0.00003593,0.00008617,-0.00000805,
 -0.00002302,-0.00000610,0.00024825,0.00145666,0.00050149,-0.00001727,0
 .00000368,0.00001973,0.00008797,0.00020587,0.00014600,0.00070436,0.000
 35190,0.00033969,-0.00010241,-0.00004077,-0.00024882,0.00040091,0.0001
 3436,0.00035540,-0.00020203,0.00006534,0.00011226,0.00019086,0.0001050
 0,-0.00002269,-0.00151289,-0.00082639,-0.00152425,-0.00009550,0.000073
 46,0.00003873,-0.00013866,0.00021149,-0.00002087,-0.00004957,0.0000266
 4,0.00000218,-0.00006238,-0.00004022,-0.00000672,0.00000185,0.00000400
 ,-0.00000122,0.00658800,0.00471453,0.00761501,0.06613428,0.09539383,0.
 00011559,0.00014234,0.00006803,-0.00030449,-0.00032964,-0.00013904,0.0
 0183695,0.00235583,0.00178933,0.00034201,-0.00072761,0.00009446,0.0067
 5529,0.00414736,0.00860772,0.00147574,0.00002266,0.00034039,0.00005703
 ,-0.00035015,-0.00069641,-0.00009066,-0.00024011,0.00085242,-0.1168378
 5,-0.07133019,-0.18510628,0.00033828,0.00005111,0.00006743,0.00020759,
 0.00013925,0.00022771,0.00091822,-0.00079809,-0.00013912,-0.00021330,-
 0.00022604,-0.00034119,-0.00012237,-0.00001031,0.00000888,0.00001153,-
 0.00002543,-0.00001804,0.00011755,-0.00050619,0.00066866,-0.00027910,0
 .00017643,0.00019043,-0.00008249,0.00058134,-0.00057413,0.00003993,-0.
 00013672,0.00036969,0.00007279,-0.00010671,0.00050039,-0.00057650,0.00
 016789,0.00069111,-0.00022211,0.00012534,0.00010351,0.00019918,0.00020
 053,0.00041731,-0.00025010,-0.00002099,0.00015964,-0.00001314,-0.00002
 786,0.00000372,-0.00005409,0.00007598,-0.00003728,0.00014873,0.0000708
 8,0.00010032,0.00013622,0.00006283,0.00018448,0.00004575,0.00004431,-0
 .00002802,-0.01699206,-0.01138978,-0.01719501,0.12321988,0.07786177,0.
 18882888\\0.00000659,-0.00000023,-0.00000650,-0.00221868,0.00365059,-0
 .00254531,-0.00212060,-0.00361126,-0.00389364,0.00000642,-0.00001094,-
 0.00000334,0.00000262,-0.00000968,-0.00000961,-0.00000620,0.00000807,-
 0.00000136,0.00000239,0.00000824,0.00001585,-0.00003061,-0.00000169,0.
 00001387,0.00000180,0.00000851,0.00000919,0.00000289,-0.00000510,-0.00
 001235,0.00061570,-0.00459318,0.00002082,0.00372966,0.00454104,0.00643
 000,-0.00000585,-0.00000202,-0.00000411,0.00000014,0.00000108,0.000004
 87,-0.00000099,-0.00000546,-0.00000076,0.00000305,0.00000990,0.0000024
 4,0.00000266,-0.00000802,0.00000138,-0.00000815,0.00000797,0.00000082,
 0.00000763,0.00000259,-0.00000332,-0.00000088,0.00000145,-0.00000162,0
 .00000282,-0.00000332,-0.00000255,-0.00000930,-0.00000131,-0.00000233,
 0.00000847,0.00000089,-0.00000277,0.00000036,0.00000920,-0.00000032,-0
 .00000237,0.00000197,-0.00000213,0.00000424,0.00000495,0.00000329,-0.0
 0000342,-0.00000358,-0.00000633,0.00001485,-0.00000356,0.00000514,0.00
 000030,-0.00000064,-0.00000453,0.00000298,0.00000027,0.00000196,-0.000
 00853,0.00000325,-0.00000673\\\@


 NEVER TEACH A PIG TO SING.
 IT WASTES YOUR TIME AND ANNOYS THE PIG.
     -- SEEN ON A GREETING CARD
 Job cpu time:       0 days 14 hours 48 minutes 41.7 seconds.
 Elapsed time:       0 days  0 hours 55 minutes 34.0 seconds.
 File lengths (MBytes):  RWF=    688 Int=      0 D2E=      0 Chk=     33 Scr=      1
 Normal termination of Gaussian 16 at Sun Nov  4 23:08:27 2018.
