 Entering Gaussian System, Link 0=g16
 Initial command:
 /apps/gaussian/g16a03/g16/l1.exe "/jobfs/local/2011938.r-man2/Gau-16673.inp" -scrdir="/jobfs/local/2011938.r-man2/"
 Entering Link 1 = /apps/gaussian/g16a03/g16/l1.exe PID=     16674.
  
 Copyright (c) 1988,1990,1992,1993,1995,1998,2003,2009,2016,
            Gaussian, Inc.  All Rights Reserved.
  
 This is part of the Gaussian(R) 16 program.  It is based on
 the Gaussian(R) 09 system (copyright 2009, Gaussian, Inc.),
 the Gaussian(R) 03 system (copyright 2003, Gaussian, Inc.),
 the Gaussian(R) 98 system (copyright 1998, Gaussian, Inc.),
 the Gaussian(R) 94 system (copyright 1995, Gaussian, Inc.),
 the Gaussian 92(TM) system (copyright 1992, Gaussian, Inc.),
 the Gaussian 90(TM) system (copyright 1990, Gaussian, Inc.),
 the Gaussian 88(TM) system (copyright 1988, Gaussian, Inc.),
 the Gaussian 86(TM) system (copyright 1986, Carnegie Mellon
 University), and the Gaussian 82(TM) system (copyright 1983,
 Carnegie Mellon University). Gaussian is a federally registered
 trademark of Gaussian, Inc.
  
 This software contains proprietary and confidential information,
 including trade secrets, belonging to Gaussian, Inc.
  
 This software is provided under written license and may be
 used, copied, transmitted, or stored only in accord with that
 written license.
  
 The following legend is applicable only to US Government
 contracts under FAR:
  
                    RESTRICTED RIGHTS LEGEND
  
 Use, reproduction and disclosure by the US Government is
 subject to restrictions as set forth in subparagraphs (a)
 and (c) of the Commercial Computer Software - Restricted
 Rights clause in FAR 52.227-19.
  
 Gaussian, Inc.
 340 Quinnipiac St., Bldg. 40, Wallingford CT 06492
  
  
 ---------------------------------------------------------------
 Warning -- This program may not be used in any manner that
 competes with the business of Gaussian, Inc. or will provide
 assistance to any competitor of Gaussian, Inc.  The licensee
 of this program is prohibited from giving any competitor of
 Gaussian, Inc. access to this program.  By using this program,
 the user acknowledges that Gaussian, Inc. is engaged in the
 business of creating and licensing software in the field of
 computational chemistry and represents and warrants to the
 licensee that it is not a competitor of Gaussian, Inc. and that
 it will not use this program in any manner prohibited above.
 ---------------------------------------------------------------
  

 Cite this work as:
 Gaussian 16, Revision A.03,
 M. J. Frisch, G. W. Trucks, H. B. Schlegel, G. E. Scuseria, 
 M. A. Robb, J. R. Cheeseman, G. Scalmani, V. Barone, 
 G. A. Petersson, H. Nakatsuji, X. Li, M. Caricato, A. V. Marenich, 
 J. Bloino, B. G. Janesko, R. Gomperts, B. Mennucci, H. P. Hratchian, 
 J. V. Ortiz, A. F. Izmaylov, J. L. Sonnenberg, D. Williams-Young, 
 F. Ding, F. Lipparini, F. Egidi, J. Goings, B. Peng, A. Petrone, 
 T. Henderson, D. Ranasinghe, V. G. Zakrzewski, J. Gao, N. Rega, 
 G. Zheng, W. Liang, M. Hada, M. Ehara, K. Toyota, R. Fukuda, 
 J. Hasegawa, M. Ishida, T. Nakajima, Y. Honda, O. Kitao, H. Nakai, 
 T. Vreven, K. Throssell, J. A. Montgomery, Jr., J. E. Peralta, 
 F. Ogliaro, M. J. Bearpark, J. J. Heyd, E. N. Brothers, K. N. Kudin, 
 V. N. Staroverov, T. A. Keith, R. Kobayashi, J. Normand, 
 K. Raghavachari, A. P. Rendell, J. C. Burant, S. S. Iyengar, 
 J. Tomasi, M. Cossi, J. M. Millam, M. Klene, C. Adamo, R. Cammi, 
 J. W. Ochterski, R. L. Martin, K. Morokuma, O. Farkas, 
 J. B. Foresman, and D. J. Fox, Gaussian, Inc., Wallingford CT, 2016.
 
 ******************************************
 Gaussian 16:  ES64L-G16RevA.03 25-Dec-2016
                 4-Nov-2018 
 ******************************************
 %mem=6000mb
 %nproc=24
 Will use up to   24 processors via shared memory.
 %chk=D_1a_4e_D_PHI.inp_extract_1.chk
 ----------------------------------------------------------------------
 #M062X/6-311++G(2d,2p) opt=ModRedundant freq=noraman SCRF=(Solvent=Wat
 er)
 ----------------------------------------------------------------------
 1/18=120,19=15,26=3,38=1/1,3;
 2/9=110,12=2,17=6,18=5,40=1/2;
 3/5=4,6=6,7=1212,11=2,25=1,30=1,70=2201,71=1,72=1,74=-55/1,2,3;
 4//1;
 5/5=2,38=5,53=1/2;
 6/7=2,8=2,9=2,10=2,28=1/1;
 7//1,2,3,16;
 1/18=20,19=15,26=3/3(2);
 2/9=110/2;
 99//99;
 2/9=110/2;
 3/5=4,6=6,7=1212,11=2,25=1,30=1,70=2205,71=1,72=1,74=-55/1,2,3;
 4/5=5,16=3,69=1/1;
 5/5=2,38=5,53=1/2;
 7//1,2,3,16;
 1/18=20,19=15,26=3/3(-5);
 2/9=110/2;
 6/7=2,8=2,9=2,10=2,19=2,28=1/1;
 99/9=1/99;
 ---------------------------
 D_1a_4e_D_PHI.inp_extract_1
 ---------------------------
 Symbolic Z-matrix:
 Charge =  0 Multiplicity = 1
 C                    -3.7587    0.32235  -0.17058 
 C                    -1.00417  -0.1794    0.57407 
 C                     1.10528  -0.07475  -0.66347 
 C                    -3.17621  -1.07801  -0.36053 
 O                     3.22192  -1.13684  -0.21301 
 C                     3.73278   0.00165   0.45758 
 C                    -2.65247   1.36208  -0.23407 
 C                     1.59017   1.21821  -0.0138 
 C                     1.82499  -1.28767  -0.07726 
 C                     3.11887   1.27756  -0.09515 
 O                    -1.61713   1.07823   0.69803 
 O                    -0.3015   -0.26085  -0.63605 
 C                    -2.0356   -1.2977    0.63408 
 H                    -4.25544   0.38675   0.7948 
 H                    -4.49871   0.54561  -0.9339 
 H                     1.34054  -0.03553  -1.71978 
 H                    -3.94192  -1.83386  -0.21555 
 H                    -2.81119  -1.18752  -1.37837 
 H                     4.80416  -0.01634   0.31226 
 H                     3.52907  -0.0927    1.52192 
 H                    -2.23312   1.41452  -1.23308 
 H                    -3.01722   2.34526   0.02931 
 H                     1.28921   1.25439   1.0287 
 H                     1.14508   2.07246  -0.51358 
 H                     3.4324    1.40365  -1.12831 
 H                     3.49375   2.129     0.4648 
 H                    -2.43626  -1.31677   1.64415 
 H                    -1.53451  -2.24457   0.46362 
 H                    -0.32974  -0.24544   1.41147 
 H                     1.57711  -1.42552   0.97179 
 H                     1.55091  -2.18368  -0.61713 
 
 The following ModRedundant input section has been read:
 D      11       2      12       3 F                                           
 

 GradGradGradGradGradGradGradGradGradGradGradGradGradGradGradGradGradGrad
 Berny optimization.
 Initialization pass.
                           ----------------------------
                           !    Initial Parameters    !
                           ! (Angstroms and Degrees)  !
 --------------------------                            --------------------------
 ! Name  Definition              Value          Derivative Info.                !
 --------------------------------------------------------------------------------
 ! R1    R(1,4)                  1.5285         estimate D2E/DX2                !
 ! R2    R(1,7)                  1.5195         estimate D2E/DX2                !
 ! R3    R(1,14)                 1.0876         estimate D2E/DX2                !
 ! R4    R(1,15)                 1.0863         estimate D2E/DX2                !
 ! R5    R(2,11)                 1.4045         estimate D2E/DX2                !
 ! R6    R(2,12)                 1.4017         estimate D2E/DX2                !
 ! R7    R(2,13)                 1.5225         estimate D2E/DX2                !
 ! R8    R(2,29)                 1.0772         estimate D2E/DX2                !
 ! R9    R(3,8)                  1.5261         estimate D2E/DX2                !
 ! R10   R(3,9)                  1.5273         estimate D2E/DX2                !
 ! R11   R(3,12)                 1.4193         estimate D2E/DX2                !
 ! R12   R(3,16)                 1.0829         estimate D2E/DX2                !
 ! R13   R(4,13)                 1.5292         estimate D2E/DX2                !
 ! R14   R(4,17)                 1.0856         estimate D2E/DX2                !
 ! R15   R(4,18)                 1.0868         estimate D2E/DX2                !
 ! R16   R(5,6)                  1.4166         estimate D2E/DX2                !
 ! R17   R(5,9)                  1.4116         estimate D2E/DX2                !
 ! R18   R(6,10)                 1.52           estimate D2E/DX2                !
 ! R19   R(6,19)                 1.0813         estimate D2E/DX2                !
 ! R20   R(6,20)                 1.0878         estimate D2E/DX2                !
 ! R21   R(7,11)                 1.4217         estimate D2E/DX2                !
 ! R22   R(7,21)                 1.0847         estimate D2E/DX2                !
 ! R23   R(7,22)                 1.0812         estimate D2E/DX2                !
 ! R24   R(8,10)                 1.532          estimate D2E/DX2                !
 ! R25   R(8,23)                 1.0857         estimate D2E/DX2                !
 ! R26   R(8,24)                 1.0852         estimate D2E/DX2                !
 ! R27   R(9,30)                 1.0867         estimate D2E/DX2                !
 ! R28   R(9,31)                 1.0814         estimate D2E/DX2                !
 ! R29   R(10,25)                1.087          estimate D2E/DX2                !
 ! R30   R(10,26)                1.0858         estimate D2E/DX2                !
 ! R31   R(13,27)                1.0868         estimate D2E/DX2                !
 ! R32   R(13,28)                1.0848         estimate D2E/DX2                !
 ! A1    A(4,1,7)              110.1369         estimate D2E/DX2                !
 ! A2    A(4,1,14)             109.7916         estimate D2E/DX2                !
 ! A3    A(4,1,15)             111.1341         estimate D2E/DX2                !
 ! A4    A(7,1,14)             109.2137         estimate D2E/DX2                !
 ! A5    A(7,1,15)             109.0233         estimate D2E/DX2                !
 ! A6    A(14,1,15)            107.4819         estimate D2E/DX2                !
 ! A7    A(11,2,12)            110.3037         estimate D2E/DX2                !
 ! A8    A(11,2,13)            111.0111         estimate D2E/DX2                !
 ! A9    A(11,2,29)            105.0409         estimate D2E/DX2                !
 ! A10   A(12,2,13)            109.3272         estimate D2E/DX2                !
 ! A11   A(12,2,29)            110.7138         estimate D2E/DX2                !
 ! A12   A(13,2,29)            110.3934         estimate D2E/DX2                !
 ! A13   A(8,3,9)              111.0822         estimate D2E/DX2                !
 ! A14   A(8,3,12)             114.6951         estimate D2E/DX2                !
 ! A15   A(8,3,16)             108.3934         estimate D2E/DX2                !
 ! A16   A(9,3,12)             110.8253         estimate D2E/DX2                !
 ! A17   A(9,3,16)             107.5044         estimate D2E/DX2                !
 ! A18   A(12,3,16)            103.8237         estimate D2E/DX2                !
 ! A19   A(1,4,13)             109.5743         estimate D2E/DX2                !
 ! A20   A(1,4,17)             110.6388         estimate D2E/DX2                !
 ! A21   A(1,4,18)             109.6746         estimate D2E/DX2                !
 ! A22   A(13,4,17)            109.8272         estimate D2E/DX2                !
 ! A23   A(13,4,18)            110.1283         estimate D2E/DX2                !
 ! A24   A(17,4,18)            106.9657         estimate D2E/DX2                !
 ! A25   A(6,5,9)              113.4042         estimate D2E/DX2                !
 ! A26   A(5,6,10)             110.9053         estimate D2E/DX2                !
 ! A27   A(5,6,19)             106.2784         estimate D2E/DX2                !
 ! A28   A(5,6,20)             109.0223         estimate D2E/DX2                !
 ! A29   A(10,6,19)            111.4242         estimate D2E/DX2                !
 ! A30   A(10,6,20)            110.6704         estimate D2E/DX2                !
 ! A31   A(19,6,20)            108.3971         estimate D2E/DX2                !
 ! A32   A(1,7,11)             111.4789         estimate D2E/DX2                !
 ! A33   A(1,7,21)             110.672          estimate D2E/DX2                !
 ! A34   A(1,7,22)             111.4962         estimate D2E/DX2                !
 ! A35   A(11,7,21)            109.386          estimate D2E/DX2                !
 ! A36   A(11,7,22)            105.5162         estimate D2E/DX2                !
 ! A37   A(21,7,22)            108.1076         estimate D2E/DX2                !
 ! A38   A(3,8,10)             109.1029         estimate D2E/DX2                !
 ! A39   A(3,8,23)             110.4223         estimate D2E/DX2                !
 ! A40   A(3,8,24)             109.9112         estimate D2E/DX2                !
 ! A41   A(10,8,23)            109.0442         estimate D2E/DX2                !
 ! A42   A(10,8,24)            110.7514         estimate D2E/DX2                !
 ! A43   A(23,8,24)            107.5961         estimate D2E/DX2                !
 ! A44   A(3,9,5)              110.155          estimate D2E/DX2                !
 ! A45   A(3,9,30)             111.3316         estimate D2E/DX2                !
 ! A46   A(3,9,31)             110.3011         estimate D2E/DX2                !
 ! A47   A(5,9,30)             109.3974         estimate D2E/DX2                !
 ! A48   A(5,9,31)             106.9376         estimate D2E/DX2                !
 ! A49   A(30,9,31)            108.6033         estimate D2E/DX2                !
 ! A50   A(6,10,8)             110.5601         estimate D2E/DX2                !
 ! A51   A(6,10,25)            109.0562         estimate D2E/DX2                !
 ! A52   A(6,10,26)            109.3449         estimate D2E/DX2                !
 ! A53   A(8,10,25)            110.0458         estimate D2E/DX2                !
 ! A54   A(8,10,26)            110.3345         estimate D2E/DX2                !
 ! A55   A(25,10,26)           107.4333         estimate D2E/DX2                !
 ! A56   A(2,11,7)             116.0222         estimate D2E/DX2                !
 ! A57   A(2,12,3)             120.3941         estimate D2E/DX2                !
 ! A58   A(2,13,4)             111.9714         estimate D2E/DX2                !
 ! A59   A(2,13,27)            107.4137         estimate D2E/DX2                !
 ! A60   A(2,13,28)            108.7841         estimate D2E/DX2                !
 ! A61   A(4,13,27)            109.3923         estimate D2E/DX2                !
 ! A62   A(4,13,28)            111.5767         estimate D2E/DX2                !
 ! A63   A(27,13,28)           107.5189         estimate D2E/DX2                !
 ! D1    D(7,1,4,13)            52.9588         estimate D2E/DX2                !
 ! D2    D(7,1,4,17)           174.1975         estimate D2E/DX2                !
 ! D3    D(7,1,4,18)           -68.0395         estimate D2E/DX2                !
 ! D4    D(14,1,4,13)          -67.3378         estimate D2E/DX2                !
 ! D5    D(14,1,4,17)           53.901          estimate D2E/DX2                !
 ! D6    D(14,1,4,18)          171.664          estimate D2E/DX2                !
 ! D7    D(15,1,4,13)          173.8861         estimate D2E/DX2                !
 ! D8    D(15,1,4,17)          -64.8751         estimate D2E/DX2                !
 ! D9    D(15,1,4,18)           52.8878         estimate D2E/DX2                !
 ! D10   D(4,1,7,11)           -54.6879         estimate D2E/DX2                !
 ! D11   D(4,1,7,21)            67.2983         estimate D2E/DX2                !
 ! D12   D(4,1,7,22)          -172.3291         estimate D2E/DX2                !
 ! D13   D(14,1,7,11)           65.9565         estimate D2E/DX2                !
 ! D14   D(14,1,7,21)         -172.0573         estimate D2E/DX2                !
 ! D15   D(14,1,7,22)          -51.6847         estimate D2E/DX2                !
 ! D16   D(15,1,7,11)         -176.8716         estimate D2E/DX2                !
 ! D17   D(15,1,7,21)          -54.8854         estimate D2E/DX2                !
 ! D18   D(15,1,7,22)           65.4871         estimate D2E/DX2                !
 ! D19   D(12,2,11,7)           66.0905         estimate D2E/DX2                !
 ! D20   D(13,2,11,7)          -55.2503         estimate D2E/DX2                !
 ! D21   D(29,2,11,7)         -174.5734         estimate D2E/DX2                !
 ! D22   D(11,2,12,3)          100.06           Frozen                          !
 ! D23   D(13,2,12,3)         -137.603          estimate D2E/DX2                !
 ! D24   D(29,2,12,3)          -15.7718         estimate D2E/DX2                !
 ! D25   D(11,2,13,4)           52.1753         estimate D2E/DX2                !
 ! D26   D(11,2,13,27)         -67.9422         estimate D2E/DX2                !
 ! D27   D(11,2,13,28)         175.9601         estimate D2E/DX2                !
 ! D28   D(12,2,13,4)          -69.7369         estimate D2E/DX2                !
 ! D29   D(12,2,13,27)         170.1456         estimate D2E/DX2                !
 ! D30   D(12,2,13,28)          54.0479         estimate D2E/DX2                !
 ! D31   D(29,2,13,4)          168.239          estimate D2E/DX2                !
 ! D32   D(29,2,13,27)          48.1215         estimate D2E/DX2                !
 ! D33   D(29,2,13,28)         -67.9762         estimate D2E/DX2                !
 ! D34   D(9,3,8,10)            52.4971         estimate D2E/DX2                !
 ! D35   D(9,3,8,23)           -67.333          estimate D2E/DX2                !
 ! D36   D(9,3,8,24)           174.1149         estimate D2E/DX2                !
 ! D37   D(12,3,8,10)          179.1276         estimate D2E/DX2                !
 ! D38   D(12,3,8,23)           59.2976         estimate D2E/DX2                !
 ! D39   D(12,3,8,24)          -59.2546         estimate D2E/DX2                !
 ! D40   D(16,3,8,10)          -65.4012         estimate D2E/DX2                !
 ! D41   D(16,3,8,23)          174.7687         estimate D2E/DX2                !
 ! D42   D(16,3,8,24)           56.2166         estimate D2E/DX2                !
 ! D43   D(8,3,9,5)            -56.1463         estimate D2E/DX2                !
 ! D44   D(8,3,9,30)            65.3966         estimate D2E/DX2                !
 ! D45   D(8,3,9,31)          -173.9644         estimate D2E/DX2                !
 ! D46   D(12,3,9,5)           175.1206         estimate D2E/DX2                !
 ! D47   D(12,3,9,30)          -63.3365         estimate D2E/DX2                !
 ! D48   D(12,3,9,31)           57.3025         estimate D2E/DX2                !
 ! D49   D(16,3,9,5)            62.2898         estimate D2E/DX2                !
 ! D50   D(16,3,9,30)         -176.1672         estimate D2E/DX2                !
 ! D51   D(16,3,9,31)          -55.5283         estimate D2E/DX2                !
 ! D52   D(8,3,12,2)           -53.2541         estimate D2E/DX2                !
 ! D53   D(9,3,12,2)            73.5084         estimate D2E/DX2                !
 ! D54   D(16,3,12,2)         -171.3412         estimate D2E/DX2                !
 ! D55   D(1,4,13,2)           -52.2279         estimate D2E/DX2                !
 ! D56   D(1,4,13,27)           66.7277         estimate D2E/DX2                !
 ! D57   D(1,4,13,28)         -174.4316         estimate D2E/DX2                !
 ! D58   D(17,4,13,2)         -173.9552         estimate D2E/DX2                !
 ! D59   D(17,4,13,27)         -54.9995         estimate D2E/DX2                !
 ! D60   D(17,4,13,28)          63.8411         estimate D2E/DX2                !
 ! D61   D(18,4,13,2)           68.4955         estimate D2E/DX2                !
 ! D62   D(18,4,13,27)        -172.5489         estimate D2E/DX2                !
 ! D63   D(18,4,13,28)         -53.7083         estimate D2E/DX2                !
 ! D64   D(9,5,6,10)           -60.9129         estimate D2E/DX2                !
 ! D65   D(9,5,6,19)           177.83           estimate D2E/DX2                !
 ! D66   D(9,5,6,20)            61.1859         estimate D2E/DX2                !
 ! D67   D(6,5,9,3)             60.5591         estimate D2E/DX2                !
 ! D68   D(6,5,9,30)           -62.1277         estimate D2E/DX2                !
 ! D69   D(6,5,9,31)          -179.565          estimate D2E/DX2                !
 ! D70   D(5,6,10,8)            55.8386         estimate D2E/DX2                !
 ! D71   D(5,6,10,25)          -65.2844         estimate D2E/DX2                !
 ! D72   D(5,6,10,26)          177.5088         estimate D2E/DX2                !
 ! D73   D(19,6,10,8)          174.0162         estimate D2E/DX2                !
 ! D74   D(19,6,10,25)          52.8932         estimate D2E/DX2                !
 ! D75   D(19,6,10,26)         -64.3135         estimate D2E/DX2                !
 ! D76   D(20,6,10,8)          -65.2939         estimate D2E/DX2                !
 ! D77   D(20,6,10,25)         173.5831         estimate D2E/DX2                !
 ! D78   D(20,6,10,26)          56.3764         estimate D2E/DX2                !
 ! D79   D(1,7,11,2)            57.2865         estimate D2E/DX2                !
 ! D80   D(21,7,11,2)          -65.4397         estimate D2E/DX2                !
 ! D81   D(22,7,11,2)          178.4796         estimate D2E/DX2                !
 ! D82   D(3,8,10,6)           -52.1406         estimate D2E/DX2                !
 ! D83   D(3,8,10,25)           68.3935         estimate D2E/DX2                !
 ! D84   D(3,8,10,26)         -173.2254         estimate D2E/DX2                !
 ! D85   D(23,8,10,6)           68.537          estimate D2E/DX2                !
 ! D86   D(23,8,10,25)        -170.9289         estimate D2E/DX2                !
 ! D87   D(23,8,10,26)         -52.5479         estimate D2E/DX2                !
 ! D88   D(24,8,10,6)         -173.2476         estimate D2E/DX2                !
 ! D89   D(24,8,10,25)         -52.7135         estimate D2E/DX2                !
 ! D90   D(24,8,10,26)          65.6675         estimate D2E/DX2                !
 --------------------------------------------------------------------------------
 Trust Radius=3.00D-01 FncErr=1.00D-07 GrdErr=1.00D-06 EigMax=2.50D+02 EigMin=1.00D-04
 Number of steps in this run=    186 maximum allowed number of steps=    186.
 GradGradGradGradGradGradGradGradGradGradGradGradGradGradGradGradGradGrad

                          Input orientation:                          
 ---------------------------------------------------------------------
 Center     Atomic      Atomic             Coordinates (Angstroms)
 Number     Number       Type             X           Y           Z
 ---------------------------------------------------------------------
      1          6           0       -3.758698    0.322354   -0.170581
      2          6           0       -1.004167   -0.179404    0.574066
      3          6           0        1.105277   -0.074754   -0.663474
      4          6           0       -3.176212   -1.078008   -0.360531
      5          8           0        3.221917   -1.136841   -0.213014
      6          6           0        3.732777    0.001652    0.457583
      7          6           0       -2.652470    1.362083   -0.234073
      8          6           0        1.590165    1.218210   -0.013802
      9          6           0        1.824986   -1.287665   -0.077261
     10          6           0        3.118867    1.277563   -0.095148
     11          8           0       -1.617131    1.078226    0.698029
     12          8           0       -0.301496   -0.260845   -0.636046
     13          6           0       -2.035602   -1.297698    0.634077
     14          1           0       -4.255437    0.386747    0.794800
     15          1           0       -4.498715    0.545609   -0.933903
     16          1           0        1.340538   -0.035530   -1.719776
     17          1           0       -3.941915   -1.833858   -0.215545
     18          1           0       -2.811185   -1.187515   -1.378370
     19          1           0        4.804162   -0.016341    0.312260
     20          1           0        3.529071   -0.092704    1.521918
     21          1           0       -2.233124    1.414524   -1.233079
     22          1           0       -3.017215    2.345255    0.029307
     23          1           0        1.289214    1.254387    1.028696
     24          1           0        1.145075    2.072458   -0.513579
     25          1           0        3.432402    1.403651   -1.128307
     26          1           0        3.493747    2.128997    0.464796
     27          1           0       -2.436255   -1.316769    1.644147
     28          1           0       -1.534510   -2.244572    0.463621
     29          1           0       -0.329741   -0.245443    1.411472
     30          1           0        1.577110   -1.425520    0.971789
     31          1           0        1.550912   -2.183681   -0.617134
 ---------------------------------------------------------------------
                    Distance matrix (angstroms):
                    1          2          3          4          5
     1  C    0.000000
     2  C    2.897189   0.000000
     3  C    4.904986   2.447899   0.000000
     4  C    1.528524   2.529573   4.407884   0.000000
     5  O    7.131622   4.404085   2.410624   6.400100   0.000000
     6  C    7.524602   4.741834   2.857685   7.040533   1.416631
     7  C    1.519476   2.397118   4.045930   2.498868   6.383846
     8  C    5.425631   3.004908   1.526088   5.301998   2.872032
     9  C    5.811919   3.107503   1.527344   5.013599   1.411592
    10  C    6.943991   4.423800   2.491245   6.726601   2.419475
    11  O    2.431488   1.404537   3.254928   2.863674   5.399343
    12  O    3.536810   1.401695   1.419293   3.001276   3.655238
    13  C    2.498220   1.522511   3.611696   1.529215   5.327752
    14  H    1.087592   3.307568   5.574657   2.155232   7.697261
    15  H    1.086337   3.874465   5.644706   2.171152   7.934638
    16  H    5.341376   3.283299   1.082894   4.830666   2.650057
    17  H    2.164449   3.462812   5.363696   1.085648   7.197661
    18  H    2.153193   2.844927   4.133762   1.086845   6.144831
    19  H    8.583148   5.816513   3.825862   8.078747   2.008714
    20  H    7.493224   4.632082   3.263593   7.033865   2.048061
    21  H    2.156180   2.704943   3.699638   2.804188   6.107984
    22  H    2.163765   3.274603   4.830251   3.449055   7.149159
    23  H    5.271467   2.742634   2.159604   5.225902   3.315894
    24  H    5.217998   3.297438   2.152806   5.349989   3.834477
    25  H    7.334737   5.008721   2.795937   7.100837   2.708536
    26  H    7.501041   5.056865   3.440102   7.446771   3.346493
    27  H    2.780075   2.118855   4.405697   2.150181   5.957880
    28  H    3.455189   2.135036   3.598184   2.176071   4.930365
    29  H    3.818774   1.077247   2.528599   3.454787   4.005973
    30  H    5.729827   2.893783   2.172851   4.948728   2.047556
    31  H    5.888258   3.458976   2.155994   4.861487   2.012820
                    6          7          8          9         10
     6  C    0.000000
     7  C    6.565100   0.000000
     8  C    2.508586   4.250785   0.000000
     9  C    2.363908   5.205129   2.517653   0.000000
    10  C    1.519982   5.773628   1.532015   2.873124   0.000000
    11  O    5.462448   1.421730   3.288320   4.248139   4.806094
    12  O    4.188113   2.884884   2.480559   2.426628   3.789215
    13  C    5.915544   2.865073   4.460463   3.925588   5.807950
    14  H    8.004597   2.139945   5.959550   6.366764   7.481037
    15  H    8.365978   2.136589   6.194630   6.639573   7.698495
    16  H    3.234978   4.483832   2.131789   2.121412   2.743371
    17  H    7.919791   3.446310   6.321371   5.794359   7.716870
    18  H    6.899875   2.799117   5.198215   4.816326   6.548953
    19  H    1.081346   7.602624   3.458354   3.262435   2.163420
    20  H    1.087754   6.588730   2.799337   2.624731   2.158889
    21  H    6.359758   1.084718   4.017800   5.010589   5.473340
    22  H    7.158092   1.081219   4.743421   6.054451   6.229523
    23  H    2.804731   4.140417   1.085671   2.823512   2.147369
    24  H    3.453635   3.873513   1.085183   3.455876   2.168593
    25  H    2.137960   6.150370   2.161099   3.306307   1.087023
    26  H    2.140744   6.233182   2.163842   3.840855   1.085823
    27  H    6.418966   3.278827   5.038549   4.595897   6.372997
    28  H    5.726244   3.839866   4.688538   3.534747   5.862728
    29  H    4.180313   3.269102   2.803520   2.818759   4.059846
    30  H    2.635930   5.207128   2.821501   1.086716   3.289685
    31  H    3.269745   5.512495   3.455201   1.081399   3.835513
                   11         12         13         14         15
    11  O    0.000000
    12  O    2.302990   0.000000
    13  C    2.413343   2.386504   0.000000
    14  H    2.729133   4.254450   2.791210   0.000000
    15  H    3.354163   4.284359   3.453008   1.752950   0.000000
    16  H    3.979201   1.980281   4.304882   6.149500   5.920489
    17  H    3.836596   3.987962   2.154844   2.459711   2.547141
    18  H    3.297087   2.776383   2.159540   3.047430   2.459477
    19  H    6.525327   5.198732   6.966191   9.081391   9.402778
    20  H    5.341654   4.399809   5.762452   7.833080   8.419255
    21  H    2.054683   2.625737   3.298702   3.042757   2.444877
    22  H    2.003194   3.822248   3.821049   2.440272   2.522170
    23  H    2.930395   2.756384   4.209901   5.616998   6.152583
    24  H    3.175889   2.748066   4.774073   5.806807   5.861766
    25  H    5.379516   4.117628   6.348413   7.989700   7.979765
    26  H    5.222987   4.618124   6.507272   7.949477   8.266978
    27  H    2.702241   3.297188   1.086797   2.633017   3.790585
    28  H    3.332080   2.581620   1.084767   3.799600   4.304032
    29  H    1.979513   2.047771   2.149778   4.023809   4.848391
    30  H    4.067784   2.733269   3.630713   6.110175   6.665783
    31  H    4.733517   2.670032   3.900459   6.504948   6.644347
                   16         17         18         19         20
    16  H    0.000000
    17  H    5.779360   0.000000
    18  H    4.322086   1.745987   0.000000
    19  H    4.015748   8.948509   7.888180   0.000000
    20  H    3.911716   7.865496   7.057558   1.759250   0.000000
    21  H    3.887234   3.808849   2.669433   7.345668   6.562365
    22  H    5.264735   4.287191   3.808473   8.175031   7.143206
    23  H    3.036547   6.200815   5.345103   3.805639   2.659865
    24  H    2.436541   6.420716   5.198777   4.293484   3.809805
    25  H    2.607100   8.105254   6.764544   2.444041   3.045015
    26  H    3.754176   8.453174   7.358579   2.518517   2.460632
    27  H    5.217444   2.448029   3.048424   7.475873   6.090845
    28  H    4.232374   2.534867   2.477943   6.720617   5.602712
    29  H    3.555082   4.268260   3.850751   5.255256   3.863413
    30  H    3.038513   5.660048   4.983676   3.582545   2.426766
    31  H    2.423763   5.518587   4.538691   4.018056   3.586202
                   21         22         23         24         25
    21  H    0.000000
    22  H    1.753476   0.000000
    23  H    4.189049   4.553471   0.000000
    24  H    3.516075   4.206400   1.751750   0.000000
    25  H    5.666505   6.619988   3.044371   2.461109   0.000000
    26  H    6.015838   6.529092   2.437805   2.544931   1.751533
    27  H    3.972361   4.044211   4.568232   5.382245   7.037636
    28  H    4.093389   4.842887   4.531605   5.174151   6.365059
    29  H    3.656776   3.980529   2.239871   3.354634   4.829463
    30  H    5.238814   6.017877   2.695927   3.824764   3.982050
    31  H    5.257889   6.465055   3.820675   4.276698   4.082922
                   26         27         28         29         30
    26  H    0.000000
    27  H    6.959102   0.000000
    28  H    6.664194   1.751458   0.000000
    29  H    4.599263   2.374716   2.519208   0.000000
    30  H    4.070028   4.070748   3.257493   2.285166   0.000000
    31  H    4.852254   4.665022   3.269796   3.377701   1.760730
                   31
    31  H    0.000000
 Stoichiometry    C10H18O3
 Framework group  C1[X(C10H18O3)]
 Deg. of freedom    87
 Full point group                 C1      NOp   1
 Largest Abelian subgroup         C1      NOp   1
 Largest concise Abelian subgroup C1      NOp   1
                         Standard orientation:                         
 ---------------------------------------------------------------------
 Center     Atomic      Atomic             Coordinates (Angstroms)
 Number     Number       Type             X           Y           Z
 ---------------------------------------------------------------------
      1          6           0       -3.758698    0.322354   -0.170581
      2          6           0       -1.004167   -0.179404    0.574066
      3          6           0        1.105277   -0.074754   -0.663474
      4          6           0       -3.176212   -1.078008   -0.360531
      5          8           0        3.221917   -1.136841   -0.213014
      6          6           0        3.732777    0.001652    0.457583
      7          6           0       -2.652470    1.362083   -0.234073
      8          6           0        1.590165    1.218210   -0.013802
      9          6           0        1.824986   -1.287665   -0.077261
     10          6           0        3.118867    1.277563   -0.095148
     11          8           0       -1.617131    1.078226    0.698029
     12          8           0       -0.301496   -0.260845   -0.636046
     13          6           0       -2.035602   -1.297698    0.634077
     14          1           0       -4.255437    0.386747    0.794800
     15          1           0       -4.498715    0.545609   -0.933903
     16          1           0        1.340538   -0.035530   -1.719776
     17          1           0       -3.941915   -1.833858   -0.215545
     18          1           0       -2.811185   -1.187515   -1.378370
     19          1           0        4.804162   -0.016341    0.312260
     20          1           0        3.529071   -0.092704    1.521918
     21          1           0       -2.233124    1.414524   -1.233079
     22          1           0       -3.017215    2.345255    0.029307
     23          1           0        1.289214    1.254387    1.028696
     24          1           0        1.145075    2.072458   -0.513579
     25          1           0        3.432402    1.403651   -1.128307
     26          1           0        3.493747    2.128997    0.464796
     27          1           0       -2.436255   -1.316769    1.644147
     28          1           0       -1.534510   -2.244572    0.463621
     29          1           0       -0.329741   -0.245443    1.411472
     30          1           0        1.577110   -1.425520    0.971789
     31          1           0        1.550912   -2.183681   -0.617134
 ---------------------------------------------------------------------
 Rotational constants (GHZ):           2.0342414           0.4130228           0.3703427
 Standard basis: 6-311++G(2d,2p) (5D, 7F)
 There are   557 symmetry adapted cartesian basis functions of A   symmetry.
 There are   531 symmetry adapted basis functions of A   symmetry.
   531 basis functions,   762 primitive gaussians,   557 cartesian basis functions
    51 alpha electrons       51 beta electrons
       nuclear repulsion energy       894.0358226533 Hartrees.
 NAtoms=   31 NActive=   31 NUniq=   31 SFac= 1.00D+00 NAtFMM=   60 NAOKFM=F Big=F
 Integral buffers will be    131072 words long.
 Raffenetti 2 integral format.
 Two-electron integral symmetry is turned on.
 ------------------------------------------------------------------------------
 Polarizable Continuum Model (PCM)
 =================================
 Model                : PCM.
 Atomic radii         : UFF (Universal Force Field).
 Polarization charges : Total charges.
 Charge compensation  : None.
 Solution method      : On-the-fly selection.
 Cavity type          : Scaled VdW (van der Waals Surface) (Alpha=1.100).
 Cavity algorithm     : GePol (No added spheres)
                        Default sphere list used, NSphG=   31.
                        Lebedev-Laikov grids with approx.  5.0 points / Ang**2.
                        Smoothing algorithm: York/Karplus (Gamma=1.0000).
                        Polarization charges: spherical gaussians, with
                                              point-specific exponents (IZeta= 3).
                        Self-potential: point-specific (ISelfS= 7).
                        Self-field    : sphere-specific E.n sum rule (ISelfD= 2).
 1st derivatives      : Analytical E(r).r(x)/FMM algorithm (CHGder, D1EAlg=3).
                        Cavity 1st derivative terms included.
 Solvent              : Water, Eps=  78.355300 Eps(inf)=   1.777849
 ------------------------------------------------------------------------------
 One-electron integrals computed using PRISM.
 NBasis=   531 RedAO= T EigKep=  5.03D-06  NBF=   531
 NBsUse=   531 1.00D-06 EigRej= -1.00D+00 NBFU=   531
 ExpMin= 3.60D-02 ExpMax= 8.59D+03 ExpMxC= 1.30D+03 IAcc=3 IRadAn=         5 AccDes= 0.00D+00
 Harris functional with IExCor= 1009 and IRadAn=       5 diagonalized for initial guess.
 HarFok:  IExCor= 1009 AccDes= 0.00D+00 IRadAn=         5 IDoV= 1 UseB2=F ITyADJ=14
 ICtDFT=  3500011 ScaDFX=  1.000000  1.000000  1.000000  1.000000
 FoFCou: FMM=F IPFlag=           0 FMFlag=      100000 FMFlg1=           0
         NFxFlg=           0 DoJE=T BraDBF=F KetDBF=T FulRan=T
         wScrn=  0.000000 ICntrl=       500 IOpCl=  0 I1Cent=   200000004 NGrid=           0
         NMat0=    1 NMatS0=      1 NMatT0=    0 NMatD0=    1 NMtDS0=    0 NMtDT0=    0
 Petite list used in FoFCou.
 Requested convergence on RMS density matrix=1.00D-08 within 128 cycles.
 Requested convergence on MAX density matrix=1.00D-06.
 Requested convergence on             energy=1.00D-06.
 No special actions if energy rises.
 Inv3:  Mode=1 IEnd=    12632112.
 Iteration    1 A*A^-1 deviation from unit magnitude is 6.44D-15 for   2045.
 Iteration    1 A*A^-1 deviation from orthogonality  is 2.36D-15 for   2028    830.
 Iteration    1 A^-1*A deviation from unit magnitude is 6.88D-15 for   2045.
 Iteration    1 A^-1*A deviation from orthogonality  is 1.73D-15 for   2046    961.
 Error on total polarization charges =  0.01470
 SCF Done:  E(RM062X) =  -617.497689484     A.U. after   12 cycles
            NFock= 12  Conv=0.59D-08     -V/T= 2.0035

 **********************************************************************

            Population analysis using the SCF density.

 **********************************************************************

 Orbital symmetries:
       Occupied  (A) (A) (A) (A) (A) (A) (A) (A) (A) (A) (A) (A)
                 (A) (A) (A) (A) (A) (A) (A) (A) (A) (A) (A) (A)
                 (A) (A) (A) (A) (A) (A) (A) (A) (A) (A) (A) (A)
                 (A) (A) (A) (A) (A) (A) (A) (A) (A) (A) (A) (A)
                 (A) (A) (A)
       Virtual   (A) (A) (A) (A) (A) (A) (A) (A) (A) (A) (A) (A)
                 (A) (A) (A) (A) (A) (A) (A) (A) (A) (A) (A) (A)
                 (A) (A) (A) (A) (A) (A) (A) (A) (A) (A) (A) (A)
                 (A) (A) (A) (A) (A) (A) (A) (A) (A) (A) (A) (A)
                 (A) (A) (A) (A) (A) (A) (A) (A) (A) (A) (A) (A)
                 (A) (A) (A) (A) (A) (A) (A) (A) (A) (A) (A) (A)
                 (A) (A) (A) (A) (A) (A) (A) (A) (A) (A) (A) (A)
                 (A) (A) (A) (A) (A) (A) (A) (A) (A) (A) (A) (A)
                 (A) (A) (A) (A) (A) (A) (A) (A) (A) (A) (A) (A)
                 (A) (A) (A) (A) (A) (A) (A) (A) (A) (A) (A) (A)
                 (A) (A) (A) (A) (A) (A) (A) (A) (A) (A) (A) (A)
                 (A) (A) (A) (A) (A) (A) (A) (A) (A) (A) (A) (A)
                 (A) (A) (A) (A) (A) (A) (A) (A) (A) (A) (A) (A)
                 (A) (A) (A) (A) (A) (A) (A) (A) (A) (A) (A) (A)
                 (A) (A) (A) (A) (A) (A) (A) (A) (A) (A) (A) (A)
                 (A) (A) (A) (A) (A) (A) (A) (A) (A) (A) (A) (A)
                 (A) (A) (A) (A) (A) (A) (A) (A) (A) (A) (A) (A)
                 (A) (A) (A) (A) (A) (A) (A) (A) (A) (A) (A) (A)
                 (A) (A) (A) (A) (A) (A) (A) (A) (A) (A) (A) (A)
                 (A) (A) (A) (A) (A) (A) (A) (A) (A) (A) (A) (A)
                 (A) (A) (A) (A) (A) (A) (A) (A) (A) (A) (A) (A)
                 (A) (A) (A) (A) (A) (A) (A) (A) (A) (A) (A) (A)
                 (A) (A) (A) (A) (A) (A) (A) (A) (A) (A) (A) (A)
                 (A) (A) (A) (A) (A) (A) (A) (A) (A) (A) (A) (A)
                 (A) (A) (A) (A) (A) (A) (A) (A) (A) (A) (A) (A)
                 (A) (A) (A) (A) (A) (A) (A) (A) (A) (A) (A) (A)
                 (A) (A) (A) (A) (A) (A) (A) (A) (A) (A) (A) (A)
                 (A) (A) (A) (A) (A) (A) (A) (A) (A) (A) (A) (A)
                 (A) (A) (A) (A) (A) (A) (A) (A) (A) (A) (A) (A)
                 (A) (A) (A) (A) (A) (A) (A) (A) (A) (A) (A) (A)
                 (A) (A) (A) (A) (A) (A) (A) (A) (A) (A) (A) (A)
                 (A) (A) (A) (A) (A) (A) (A) (A) (A) (A) (A) (A)
                 (A) (A) (A) (A) (A) (A) (A) (A) (A) (A) (A) (A)
                 (A) (A) (A) (A) (A) (A) (A) (A) (A) (A) (A) (A)
                 (A) (A) (A) (A) (A) (A) (A) (A) (A) (A) (A) (A)
                 (A) (A) (A) (A) (A) (A) (A) (A) (A) (A) (A) (A)
                 (A) (A) (A) (A) (A) (A) (A) (A) (A) (A) (A) (A)
                 (A) (A) (A) (A) (A) (A) (A) (A) (A) (A) (A) (A)
                 (A) (A) (A) (A) (A) (A) (A) (A) (A) (A) (A) (A)
                 (A) (A) (A) (A) (A) (A) (A) (A) (A) (A) (A) (A)
 The electronic state is 1-A.
 Alpha  occ. eigenvalues --  -19.62991 -19.62962 -19.62564 -10.63422 -10.58936
 Alpha  occ. eigenvalues --  -10.57973 -10.57919 -10.57534 -10.53238 -10.53196
 Alpha  occ. eigenvalues --  -10.52939 -10.52884 -10.52705  -1.19942  -1.16820
 Alpha  occ. eigenvalues --   -1.13478  -0.90797  -0.89695  -0.87538  -0.84928
 Alpha  occ. eigenvalues --   -0.75077  -0.74433  -0.73220  -0.71250  -0.66812
 Alpha  occ. eigenvalues --   -0.62675  -0.60611  -0.58869  -0.56763  -0.55518
 Alpha  occ. eigenvalues --   -0.54536  -0.53377  -0.52752  -0.51092  -0.50039
 Alpha  occ. eigenvalues --   -0.48951  -0.46579  -0.46166  -0.45352  -0.44972
 Alpha  occ. eigenvalues --   -0.43803  -0.43603  -0.41027  -0.40368  -0.39329
 Alpha  occ. eigenvalues --   -0.38356  -0.37786  -0.36982  -0.34472  -0.33140
 Alpha  occ. eigenvalues --   -0.31596
 Alpha virt. eigenvalues --   -0.00082   0.00696   0.00800   0.01125   0.02164
 Alpha virt. eigenvalues --    0.02489   0.02622   0.03351   0.03574   0.04322
 Alpha virt. eigenvalues --    0.04527   0.04855   0.05539   0.05937   0.06913
 Alpha virt. eigenvalues --    0.07336   0.07475   0.07778   0.09047   0.09659
 Alpha virt. eigenvalues --    0.10305   0.10730   0.11121   0.11702   0.11922
 Alpha virt. eigenvalues --    0.12028   0.12589   0.12776   0.13069   0.13572
 Alpha virt. eigenvalues --    0.13893   0.13961   0.14495   0.14635   0.14830
 Alpha virt. eigenvalues --    0.15049   0.15211   0.15410   0.15688   0.15932
 Alpha virt. eigenvalues --    0.16504   0.16787   0.17143   0.17554   0.17845
 Alpha virt. eigenvalues --    0.18148   0.18289   0.18539   0.18994   0.19627
 Alpha virt. eigenvalues --    0.19756   0.19841   0.20319   0.20888   0.21144
 Alpha virt. eigenvalues --    0.21461   0.22382   0.22865   0.23619   0.24296
 Alpha virt. eigenvalues --    0.24724   0.25670   0.25998   0.26537   0.27296
 Alpha virt. eigenvalues --    0.27651   0.28136   0.28852   0.29056   0.29623
 Alpha virt. eigenvalues --    0.29903   0.30004   0.30977   0.31200   0.31394
 Alpha virt. eigenvalues --    0.32404   0.32824   0.33426   0.33866   0.34397
 Alpha virt. eigenvalues --    0.34990   0.35087   0.35355   0.35788   0.36358
 Alpha virt. eigenvalues --    0.36781   0.37004   0.37523   0.38000   0.38199
 Alpha virt. eigenvalues --    0.38479   0.39102   0.39668   0.40377   0.41062
 Alpha virt. eigenvalues --    0.41537   0.41904   0.43006   0.44251   0.44504
 Alpha virt. eigenvalues --    0.45898   0.46515   0.48900   0.49485   0.50260
 Alpha virt. eigenvalues --    0.51256   0.52299   0.53275   0.54020   0.54365
 Alpha virt. eigenvalues --    0.55265   0.56330   0.57719   0.59002   0.59418
 Alpha virt. eigenvalues --    0.60082   0.60820   0.61159   0.61374   0.61593
 Alpha virt. eigenvalues --    0.62019   0.62837   0.63583   0.63787   0.64132
 Alpha virt. eigenvalues --    0.64827   0.65438   0.65867   0.66281   0.67331
 Alpha virt. eigenvalues --    0.68091   0.68448   0.69185   0.69417   0.70060
 Alpha virt. eigenvalues --    0.70927   0.71208   0.71700   0.72410   0.72942
 Alpha virt. eigenvalues --    0.73381   0.73904   0.74485   0.75184   0.75705
 Alpha virt. eigenvalues --    0.76166   0.77200   0.77467   0.78189   0.79066
 Alpha virt. eigenvalues --    0.80815   0.81190   0.83173   0.85071   0.85629
 Alpha virt. eigenvalues --    0.86398   0.87596   0.88167   0.88493   0.89454
 Alpha virt. eigenvalues --    0.90493   0.91716   0.92080   0.93707   0.95936
 Alpha virt. eigenvalues --    0.96904   0.97610   0.99787   1.01265   1.02556
 Alpha virt. eigenvalues --    1.03021   1.03598   1.05250   1.06594   1.06964
 Alpha virt. eigenvalues --    1.07959   1.08806   1.09800   1.10992   1.11348
 Alpha virt. eigenvalues --    1.12402   1.14698   1.14860   1.15440   1.16362
 Alpha virt. eigenvalues --    1.17807   1.17944   1.19287   1.19534   1.19713
 Alpha virt. eigenvalues --    1.20785   1.21449   1.22664   1.23398   1.24000
 Alpha virt. eigenvalues --    1.24757   1.25257   1.25769   1.26423   1.27600
 Alpha virt. eigenvalues --    1.28376   1.28620   1.29379   1.30477   1.30986
 Alpha virt. eigenvalues --    1.31633   1.32068   1.33704   1.34096   1.35056
 Alpha virt. eigenvalues --    1.36141   1.36392   1.37193   1.37391   1.38203
 Alpha virt. eigenvalues --    1.38642   1.38877   1.40082   1.41476   1.42288
 Alpha virt. eigenvalues --    1.42455   1.43390   1.43866   1.44331   1.44862
 Alpha virt. eigenvalues --    1.46589   1.47154   1.47453   1.47738   1.48207
 Alpha virt. eigenvalues --    1.49666   1.50402   1.51083   1.51830   1.52041
 Alpha virt. eigenvalues --    1.52977   1.54085   1.54879   1.55339   1.56083
 Alpha virt. eigenvalues --    1.56564   1.57017   1.57695   1.58138   1.59208
 Alpha virt. eigenvalues --    1.59434   1.60005   1.60604   1.61520   1.61627
 Alpha virt. eigenvalues --    1.62858   1.65087   1.65986   1.66825   1.67354
 Alpha virt. eigenvalues --    1.67971   1.68817   1.70141   1.70797   1.72159
 Alpha virt. eigenvalues --    1.73088   1.73688   1.75569   1.76488   1.77715
 Alpha virt. eigenvalues --    1.78759   1.80695   1.81730   1.83624   1.84673
 Alpha virt. eigenvalues --    1.86495   1.88548   1.90777   1.94640   1.95768
 Alpha virt. eigenvalues --    2.00906   2.06304   2.12507   2.15932   2.21528
 Alpha virt. eigenvalues --    2.23885   2.26527   2.30971   2.33746   2.39373
 Alpha virt. eigenvalues --    2.41001   2.44577   2.45684   2.47625   2.54743
 Alpha virt. eigenvalues --    2.57662   2.75429   2.77114   2.79200   2.80994
 Alpha virt. eigenvalues --    2.84561   2.89639   2.92928   2.93433   2.94351
 Alpha virt. eigenvalues --    2.96307   2.97213   3.00960   3.02196   3.04267
 Alpha virt. eigenvalues --    3.06782   3.07678   3.08868   3.10109   3.12064
 Alpha virt. eigenvalues --    3.13907   3.14657   3.17140   3.19351   3.23280
 Alpha virt. eigenvalues --    3.25957   3.28489   3.31002   3.33558   3.34187
 Alpha virt. eigenvalues --    3.35462   3.36256   3.37693   3.39868   3.41396
 Alpha virt. eigenvalues --    3.42886   3.43555   3.44091   3.45001   3.46565
 Alpha virt. eigenvalues --    3.47870   3.49639   3.50222   3.51048   3.52151
 Alpha virt. eigenvalues --    3.52765   3.53730   3.54878   3.55319   3.55693
 Alpha virt. eigenvalues --    3.56139   3.57148   3.58125   3.58866   3.60207
 Alpha virt. eigenvalues --    3.60971   3.62270   3.63178   3.64342   3.64906
 Alpha virt. eigenvalues --    3.66555   3.67213   3.68359   3.68943   3.69696
 Alpha virt. eigenvalues --    3.70408   3.70875   3.72977   3.73323   3.74459
 Alpha virt. eigenvalues --    3.74956   3.75436   3.75875   3.76467   3.78354
 Alpha virt. eigenvalues --    3.80128   3.80272   3.81346   3.83052   3.85890
 Alpha virt. eigenvalues --    3.86266   3.87783   3.88488   3.89829   3.91293
 Alpha virt. eigenvalues --    3.93060   3.93729   3.94253   3.96175   3.97972
 Alpha virt. eigenvalues --    4.00319   4.01081   4.01982   4.03114   4.04110
 Alpha virt. eigenvalues --    4.04465   4.05640   4.06122   4.06557   4.07326
 Alpha virt. eigenvalues --    4.08410   4.09483   4.10322   4.10961   4.11992
 Alpha virt. eigenvalues --    4.12353   4.13117   4.14429   4.15241   4.16057
 Alpha virt. eigenvalues --    4.17430   4.17569   4.19126   4.20112   4.20396
 Alpha virt. eigenvalues --    4.21837   4.22683   4.25297   4.25900   4.27328
 Alpha virt. eigenvalues --    4.27750   4.29559   4.30669   4.31968   4.33051
 Alpha virt. eigenvalues --    4.33580   4.34428   4.35688   4.36199   4.39662
 Alpha virt. eigenvalues --    4.40403   4.42441   4.44962   4.45637   4.47620
 Alpha virt. eigenvalues --    4.57550   4.60593   4.75098   4.75864   4.83181
 Alpha virt. eigenvalues --    4.85431   4.92668   4.95395   4.99066   5.01623
 Alpha virt. eigenvalues --    5.06283   5.06913   5.07563   5.08452   5.11566
 Alpha virt. eigenvalues --    5.12091   5.13788   5.16628   5.30370   5.39733
 Alpha virt. eigenvalues --    5.40466   5.58529   5.59190   5.67320   5.85377
 Alpha virt. eigenvalues --    5.88683   6.00350   7.01531   7.04832   7.05368
 Alpha virt. eigenvalues --    7.09364   7.09754   7.12792   7.14156   7.18109
 Alpha virt. eigenvalues --    7.28102   7.36559   7.43122   7.44472   7.53758
 Alpha virt. eigenvalues --    7.56047   7.62801  23.95767  23.97428  24.06546
 Alpha virt. eigenvalues --   24.07009  24.10946  24.11895  24.12636  24.15841
 Alpha virt. eigenvalues --   24.16646  24.22107  50.17418  50.18209  50.28364
          Condensed to atoms (all electrons):
               1          2          3          4          5          6
     1  C    5.618187   0.453092  -0.049834   0.082826  -0.000083  -0.000609
     2  C    0.453092   7.553157  -0.939821  -0.265564  -0.011133   0.007651
     3  C   -0.049834  -0.939821   8.376064   0.137117   0.011015   0.105644
     4  C    0.082826  -0.265564   0.137117   5.634477  -0.000104   0.000076
     5  O   -0.000083  -0.011133   0.011015  -0.000104   8.358426   0.086685
     6  C   -0.000609   0.007651   0.105644   0.000076   0.086685   5.381220
     7  C   -0.074923  -0.557922   0.141996  -0.031150   0.000723   0.003551
     8  C    0.025289   0.242121  -1.412662  -0.028182  -0.046780  -0.092677
     9  C    0.002152   0.161339  -0.819518  -0.022818   0.158485  -0.190342
    10  C   -0.003077  -0.126389   0.211820  -0.000069  -0.002451   0.127940
    11  O   -0.061189   0.202541  -0.085699  -0.001953   0.000216  -0.001469
    12  O   -0.001545   0.339575  -0.126405  -0.045185  -0.000327  -0.001632
    13  C   -0.310222  -1.180905   0.009501   0.031387   0.005598  -0.010543
    14  H    0.493514  -0.009921  -0.008939  -0.019949   0.000000  -0.000072
    15  H    0.441195   0.009328   0.007393  -0.048292  -0.000002   0.000045
    16  H   -0.002497  -0.045318   0.626371   0.007425   0.005787   0.012981
    17  H   -0.017920   0.012391   0.006362   0.410204  -0.000008   0.000092
    18  H   -0.070445  -0.038526  -0.007013   0.518157   0.000125  -0.000328
    19  H   -0.000000   0.000937  -0.010265  -0.000083  -0.072734   0.427717
    20  H   -0.000061  -0.004386   0.042320   0.000645  -0.039894   0.453926
    21  H   -0.070997  -0.023457  -0.028976  -0.010814  -0.000103  -0.000101
    22  H   -0.027171   0.002500   0.009817   0.007893   0.000046  -0.000003
    23  H    0.001078  -0.069986   0.132512   0.002458   0.001142  -0.004251
    24  H   -0.002452   0.044822  -0.051148  -0.003786  -0.002196   0.002809
    25  H    0.000059  -0.009591  -0.013577   0.000535  -0.008962  -0.086451
    26  H    0.000307   0.002758   0.001052  -0.000076   0.008320  -0.033556
    27  H   -0.022843  -0.134379   0.008031  -0.013593   0.000058   0.000213
    28  H   -0.001196  -0.033188  -0.017338  -0.040432   0.001083  -0.000625
    29  H    0.026561   0.493081   0.019465  -0.027575  -0.000698  -0.010217
    30  H   -0.004442  -0.031090   0.175222   0.007996  -0.038819  -0.004915
    31  H    0.003178   0.024469  -0.120621  -0.001086  -0.070386   0.001365
               7          8          9         10         11         12
     1  C   -0.074923   0.025289   0.002152  -0.003077  -0.061189  -0.001545
     2  C   -0.557922   0.242121   0.161339  -0.126389   0.202541   0.339575
     3  C    0.141996  -1.412662  -0.819518   0.211820  -0.085699  -0.126405
     4  C   -0.031150  -0.028182  -0.022818  -0.000069  -0.001953  -0.045185
     5  O    0.000723  -0.046780   0.158485  -0.002451   0.000216  -0.000327
     6  C    0.003551  -0.092677  -0.190342   0.127940  -0.001469  -0.001632
     7  C    5.598233  -0.026351  -0.026443   0.017719   0.114813  -0.013537
     8  C   -0.026351   6.644660   0.473930  -0.335826   0.046127   0.014770
     9  C   -0.026443   0.473930   5.931827  -0.123809   0.006162   0.012597
    10  C    0.017719  -0.335826  -0.123809   5.854836   0.006278  -0.012616
    11  O    0.114813   0.046127   0.006162   0.006278   8.266092  -0.040536
    12  O   -0.013537   0.014770   0.012597  -0.012616  -0.040536   8.300728
    13  C    0.184831   0.003133  -0.009089   0.011639  -0.001462  -0.017872
    14  H   -0.090711   0.003099   0.000683  -0.000127  -0.003906   0.000785
    15  H   -0.037706  -0.002504  -0.000351   0.000004   0.010131  -0.000401
    16  H    0.010294  -0.085719  -0.128945   0.005608   0.002269  -0.091177
    17  H    0.009724  -0.001611  -0.002223   0.000170  -0.002963  -0.000242
    18  H    0.002368  -0.000493   0.006530  -0.000685   0.002072  -0.002771
    19  H    0.000031   0.009436   0.017669  -0.035581   0.000115   0.000491
    20  H    0.000172  -0.030000  -0.027781  -0.031843   0.000049  -0.000457
    21  H    0.476397   0.010576   0.003252  -0.002204  -0.034109   0.001857
    22  H    0.436728  -0.002567   0.000044   0.002067  -0.073491  -0.000720
    23  H    0.007348   0.401933  -0.069612  -0.040346  -0.000141  -0.021717
    24  H   -0.005372   0.415009   0.022064  -0.016393  -0.014440   0.010400
    25  H    0.000461  -0.024859   0.004822   0.498915   0.000452  -0.000036
    26  H   -0.000772  -0.047839   0.000648   0.439182   0.000350  -0.001144
    27  H    0.021501   0.001008  -0.003760   0.001417  -0.004690   0.008601
    28  H    0.003928   0.003485   0.015636  -0.001289   0.010319   0.005427
    29  H   -0.046152   0.009125  -0.005727  -0.004864  -0.081783  -0.026953
    30  H    0.006118  -0.122546   0.343872   0.018880  -0.000500  -0.017210
    31  H   -0.003802   0.025358   0.497657  -0.000075  -0.000553   0.012700
              13         14         15         16         17         18
     1  C   -0.310222   0.493514   0.441195  -0.002497  -0.017920  -0.070445
     2  C   -1.180905  -0.009921   0.009328  -0.045318   0.012391  -0.038526
     3  C    0.009501  -0.008939   0.007393   0.626371   0.006362  -0.007013
     4  C    0.031387  -0.019949  -0.048292   0.007425   0.410204   0.518157
     5  O    0.005598   0.000000  -0.000002   0.005787  -0.000008   0.000125
     6  C   -0.010543  -0.000072   0.000045   0.012981   0.000092  -0.000328
     7  C    0.184831  -0.090711  -0.037706   0.010294   0.009724   0.002368
     8  C    0.003133   0.003099  -0.002504  -0.085719  -0.001611  -0.000493
     9  C   -0.009089   0.000683  -0.000351  -0.128945  -0.002223   0.006530
    10  C    0.011639  -0.000127   0.000004   0.005608   0.000170  -0.000685
    11  O   -0.001462  -0.003906   0.010131   0.002269  -0.002963   0.002072
    12  O   -0.017872   0.000785  -0.000401  -0.091177  -0.000242  -0.002771
    13  C    6.966850   0.001541  -0.007296  -0.009870  -0.037147  -0.032663
    14  H    0.001541   0.482117  -0.010332  -0.000463  -0.000851   0.001332
    15  H   -0.007296  -0.010332   0.486059   0.000414  -0.008406  -0.004266
    16  H   -0.009870  -0.000463   0.000414   0.438048   0.000088  -0.000436
    17  H   -0.037147  -0.000851  -0.008406   0.000088   0.468418  -0.004364
    18  H   -0.032663   0.001332  -0.004266  -0.000436  -0.004364   0.457638
    19  H   -0.000079  -0.000002   0.000001  -0.002357   0.000003  -0.000030
    20  H    0.001584   0.000010  -0.000006   0.001924   0.000005   0.000059
    21  H    0.040729   0.004218   0.000833  -0.003745  -0.000242  -0.002243
    22  H   -0.014857  -0.005473  -0.008793   0.000736   0.000168  -0.001793
    23  H   -0.017164  -0.000589   0.000233   0.015414  -0.000034  -0.000122
    24  H   -0.008642   0.000085   0.000047  -0.009784  -0.000026   0.000128
    25  H    0.002663   0.000009  -0.000000  -0.000010   0.000009   0.000000
    26  H   -0.000180   0.000007  -0.000013  -0.001057   0.000002  -0.000025
    27  H    0.517445  -0.001871  -0.002735   0.000459  -0.003670   0.002684
    28  H    0.416469  -0.001213   0.001335   0.000834  -0.011501  -0.001748
    29  H   -0.087155   0.001664   0.001784  -0.008338   0.000966  -0.003536
    30  H    0.002906  -0.000271   0.000020   0.011710   0.000268   0.000438
    31  H   -0.006184   0.000020   0.000019  -0.010200  -0.000119  -0.000714
              19         20         21         22         23         24
     1  C   -0.000000  -0.000061  -0.070997  -0.027171   0.001078  -0.002452
     2  C    0.000937  -0.004386  -0.023457   0.002500  -0.069986   0.044822
     3  C   -0.010265   0.042320  -0.028976   0.009817   0.132512  -0.051148
     4  C   -0.000083   0.000645  -0.010814   0.007893   0.002458  -0.003786
     5  O   -0.072734  -0.039894  -0.000103   0.000046   0.001142  -0.002196
     6  C    0.427717   0.453926  -0.000101  -0.000003  -0.004251   0.002809
     7  C    0.000031   0.000172   0.476397   0.436728   0.007348  -0.005372
     8  C    0.009436  -0.030000   0.010576  -0.002567   0.401933   0.415009
     9  C    0.017669  -0.027781   0.003252   0.000044  -0.069612   0.022064
    10  C   -0.035581  -0.031843  -0.002204   0.002067  -0.040346  -0.016393
    11  O    0.000115   0.000049  -0.034109  -0.073491  -0.000141  -0.014440
    12  O    0.000491  -0.000457   0.001857  -0.000720  -0.021717   0.010400
    13  C   -0.000079   0.001584   0.040729  -0.014857  -0.017164  -0.008642
    14  H   -0.000002   0.000010   0.004218  -0.005473  -0.000589   0.000085
    15  H    0.000001  -0.000006   0.000833  -0.008793   0.000233   0.000047
    16  H   -0.002357   0.001924  -0.003745   0.000736   0.015414  -0.009784
    17  H    0.000003   0.000005  -0.000242   0.000168  -0.000034  -0.000026
    18  H   -0.000030   0.000059  -0.002243  -0.001793  -0.000122   0.000128
    19  H    0.468669  -0.007069  -0.000029   0.000005  -0.002041   0.000804
    20  H   -0.007069   0.498249   0.000008   0.000003  -0.004934  -0.000281
    21  H   -0.000029   0.000008   0.492631  -0.011989  -0.001271  -0.000753
    22  H    0.000005   0.000003  -0.011989   0.481552   0.000469  -0.000599
    23  H   -0.002041  -0.004934  -0.001271   0.000469   0.497749  -0.029165
    24  H    0.000804  -0.000281  -0.000753  -0.000599  -0.029165   0.482793
    25  H   -0.003112   0.001589   0.000083   0.000002   0.003325  -0.006954
    26  H   -0.008737   0.004864   0.000008  -0.000005  -0.005318  -0.010885
    27  H    0.000035  -0.000031  -0.001176   0.000240   0.001118  -0.000704
    28  H   -0.000023  -0.000038  -0.000861   0.001413   0.000167  -0.000013
    29  H    0.000030  -0.002855   0.002478   0.000028  -0.014072   0.005002
    30  H   -0.004583   0.008175  -0.000638   0.000151   0.004356   0.000015
    31  H    0.003535  -0.003056   0.000423  -0.000041  -0.004092  -0.000609
              25         26         27         28         29         30
     1  C    0.000059   0.000307  -0.022843  -0.001196   0.026561  -0.004442
     2  C   -0.009591   0.002758  -0.134379  -0.033188   0.493081  -0.031090
     3  C   -0.013577   0.001052   0.008031  -0.017338   0.019465   0.175222
     4  C    0.000535  -0.000076  -0.013593  -0.040432  -0.027575   0.007996
     5  O   -0.008962   0.008320   0.000058   0.001083  -0.000698  -0.038819
     6  C   -0.086451  -0.033556   0.000213  -0.000625  -0.010217  -0.004915
     7  C    0.000461  -0.000772   0.021501   0.003928  -0.046152   0.006118
     8  C   -0.024859  -0.047839   0.001008   0.003485   0.009125  -0.122546
     9  C    0.004822   0.000648  -0.003760   0.015636  -0.005727   0.343872
    10  C    0.498915   0.439182   0.001417  -0.001289  -0.004864   0.018880
    11  O    0.000452   0.000350  -0.004690   0.010319  -0.081783  -0.000500
    12  O   -0.000036  -0.001144   0.008601   0.005427  -0.026953  -0.017210
    13  C    0.002663  -0.000180   0.517445   0.416469  -0.087155   0.002906
    14  H    0.000009   0.000007  -0.001871  -0.001213   0.001664  -0.000271
    15  H   -0.000000  -0.000013  -0.002735   0.001335   0.001784   0.000020
    16  H   -0.000010  -0.001057   0.000459   0.000834  -0.008338   0.011710
    17  H    0.000009   0.000002  -0.003670  -0.011501   0.000966   0.000268
    18  H    0.000000  -0.000025   0.002684  -0.001748  -0.003536   0.000438
    19  H   -0.003112  -0.008737   0.000035  -0.000023   0.000030  -0.004583
    20  H    0.001589   0.004864  -0.000031  -0.000038  -0.002855   0.008175
    21  H    0.000083   0.000008  -0.001176  -0.000861   0.002478  -0.000638
    22  H    0.000002  -0.000005   0.000240   0.001413   0.000028   0.000151
    23  H    0.003325  -0.005318   0.001118   0.000167  -0.014072   0.004356
    24  H   -0.006954  -0.010885  -0.000704  -0.000013   0.005002   0.000015
    25  H    0.474819  -0.011290  -0.000021   0.000080   0.000464  -0.000966
    26  H   -0.011290   0.494291   0.000032  -0.000058   0.000135  -0.001889
    27  H   -0.000021   0.000032   0.455675  -0.004451  -0.016086  -0.000287
    28  H    0.000080  -0.000058  -0.004451   0.500153  -0.005774  -0.002758
    29  H    0.000464   0.000135  -0.016086  -0.005774   0.491939  -0.034256
    30  H   -0.000966  -0.001889  -0.000287  -0.002758  -0.034256   0.530432
    31  H   -0.000801   0.001724   0.000019  -0.006652   0.006036  -0.031710
              31
     1  C    0.003178
     2  C    0.024469
     3  C   -0.120621
     4  C   -0.001086
     5  O   -0.070386
     6  C    0.001365
     7  C   -0.003802
     8  C    0.025358
     9  C    0.497657
    10  C   -0.000075
    11  O   -0.000553
    12  O    0.012700
    13  C   -0.006184
    14  H    0.000020
    15  H    0.000019
    16  H   -0.010200
    17  H   -0.000119
    18  H   -0.000714
    19  H    0.003535
    20  H   -0.003056
    21  H    0.000423
    22  H   -0.000041
    23  H   -0.004092
    24  H   -0.000609
    25  H   -0.000801
    26  H    0.001724
    27  H    0.000019
    28  H   -0.006652
    29  H    0.006036
    30  H   -0.031710
    31  H    0.482977
 Mulliken charges:
               1
     1  C   -0.425929
     2  C   -0.068187
     3  C   -0.329886
     4  C   -0.280485
     5  O   -0.343031
     6  C   -0.174127
     7  C   -0.122096
     8  C   -0.068445
     9  C   -0.228949
    10  C   -0.458832
    11  O   -0.259100
    12  O   -0.285451
    13  C   -0.444946
    14  H    0.165603
    15  H    0.172263
    16  H    0.259553
    17  H    0.182457
    18  H    0.180669
    19  H    0.217247
    20  H    0.139111
    21  H    0.160215
    22  H    0.203642
    23  H    0.215553
    24  H    0.180225
    25  H    0.178342
    26  H    0.169164
    27  H    0.191761
    28  H    0.168829
    29  H    0.317284
    30  H    0.186323
    31  H    0.201222
 Sum of Mulliken charges =  -0.00000
 Mulliken charges with hydrogens summed into heavy atoms:
               1
     1  C   -0.088063
     2  C    0.249098
     3  C   -0.070333
     4  C    0.082641
     5  O   -0.343031
     6  C    0.182230
     7  C    0.241762
     8  C    0.327333
     9  C    0.158596
    10  C   -0.111325
    11  O   -0.259100
    12  O   -0.285451
    13  C   -0.084356
 Electronic spatial extent (au):  <R**2>=           3084.0892
 Charge=              0.0000 electrons
 Dipole moment (field-independent basis, Debye):
    X=             -0.7579    Y=              0.5072    Z=              0.8421  Tot=              1.2413
 Quadrupole moment (field-independent basis, Debye-Ang):
   XX=            -76.0940   YY=            -81.0338   ZZ=            -80.2938
   XY=              7.4298   XZ=              4.0919   YZ=             -3.5635
 Traceless Quadrupole moment (field-independent basis, Debye-Ang):
   XX=              3.0466   YY=             -1.8933   ZZ=             -1.1533
   XY=              7.4298   XZ=              4.0919   YZ=             -3.5635
 Octapole moment (field-independent basis, Debye-Ang**2):
  XXX=            -20.5969  YYY=              0.9687  ZZZ=             -0.6307  XYY=             -7.4483
  XXY=             28.3322  XXZ=              7.2812  XZZ=              4.7731  YZZ=             -1.5842
  YYZ=             -2.3459  XYZ=              2.5784
 Hexadecapole moment (field-independent basis, Debye-Ang**3):
 XXXX=          -3138.2142 YYYY=           -622.2846 ZZZZ=           -244.9308 XXXY=             67.9176
 XXXZ=             45.9229 YYYX=             -9.1034 YYYZ=              3.1535 ZZZX=             -2.8871
 ZZZY=             -2.2087 XXYY=           -659.6481 XXZZ=           -579.6086 YYZZ=           -150.2633
 XXYZ=            -15.2214 YYXZ=              3.5067 ZZXY=             -0.5943
 N-N= 8.940358226533D+02 E-N=-3.229844936809D+03  KE= 6.153336771279D+02
 D1PCM: PCM CHGder 1st derivatives, ID1Alg=3 FixD1E=F DoIter=F DoCFld=F I1PDM=0.
 Calling FoFJK, ICntrl=      2127 FMM=F ISym2X=0 I1Cent= 0 IOpClX= 0 NMat=1 NMatS=1 NMatT=0.
 ***** Axes restored to original set *****
 -------------------------------------------------------------------
 Center     Atomic                   Forces (Hartrees/Bohr)
 Number     Number              X              Y              Z
 -------------------------------------------------------------------
      1        6           0.002128294   -0.000577991   -0.001585417
      2        6          -0.005773070    0.000685131   -0.006233481
      3        6          -0.002695293    0.002271519    0.008288132
      4        6           0.001642267    0.002805344    0.002273436
      5        8           0.005274809   -0.005915947   -0.004643605
      6        6          -0.005607862    0.001803880   -0.003557916
      7        6          -0.000593244   -0.006630143    0.001374775
      8        6           0.003262410   -0.003436481   -0.002607266
      9        6           0.003234271    0.007182938   -0.002254339
     10        6          -0.001330173   -0.001032629    0.002577318
     11        8           0.003875368    0.006902406    0.008958177
     12        8          -0.004268581   -0.005224596   -0.008959576
     13        6          -0.000349359    0.000735832   -0.002274880
     14        1          -0.000888110    0.000155965    0.003212465
     15        1          -0.002080174    0.000248400   -0.001937831
     16        1           0.002482503    0.000133901   -0.005366488
     17        1          -0.001810697   -0.001777044    0.000445040
     18        1           0.002147568    0.000273012   -0.002971784
     19        1           0.004309819   -0.000037511   -0.000683228
     20        1          -0.001546039    0.000613939    0.005980512
     21        1           0.002114829   -0.000828597   -0.005799585
     22        1          -0.001615135    0.003953546    0.001216792
     23        1          -0.002028028   -0.000750339    0.004438332
     24        1          -0.001946808    0.002111680   -0.001383180
     25        1           0.000744095   -0.000331290   -0.003155273
     26        1           0.000946779    0.002584452    0.001316461
     27        1          -0.001473887    0.000458967    0.003139979
     28        1           0.001724142   -0.002834073   -0.000850972
     29        1           0.005398441   -0.000217810    0.006840385
     30        1          -0.003291564    0.000312272    0.006693373
     31        1          -0.001987574   -0.003638733   -0.002490357
 -------------------------------------------------------------------
 Cartesian Forces:  Max     0.008959576 RMS     0.003530636

 GradGradGradGradGradGradGradGradGradGradGradGradGradGradGradGradGradGrad
 Berny optimization.
 FormGI is forming the generalized inverse of G from B-inverse, IUseBI=4.
 Internal  Forces:  Max     0.015524692 RMS     0.002203836
 Search for a local minimum.
 Step number   1 out of a maximum of  186
 All quantities printed in internal units (Hartrees-Bohrs-Radians)
 Mixed Optimization -- RFO/linear search
 Second derivative matrix not updated -- first step.
 ITU=  0
     Eigenvalues ---    0.00627   0.00629   0.00714   0.00723   0.01409
     Eigenvalues ---    0.01434   0.01437   0.02666   0.02702   0.03075
     Eigenvalues ---    0.03160   0.04093   0.04094   0.04659   0.04745
     Eigenvalues ---    0.04847   0.04870   0.05112   0.05152   0.05196
     Eigenvalues ---    0.05212   0.05683   0.05721   0.06121   0.06168
     Eigenvalues ---    0.06367   0.06881   0.06884   0.07334   0.07740
     Eigenvalues ---    0.07842   0.07951   0.08001   0.08058   0.08101
     Eigenvalues ---    0.08236   0.08885   0.09600   0.10805   0.11576
     Eigenvalues ---    0.11612   0.11706   0.11761   0.12396   0.12520
     Eigenvalues ---    0.14454   0.14929   0.16029   0.16716   0.18004
     Eigenvalues ---    0.18960   0.21601   0.21955   0.25000   0.28437
     Eigenvalues ---    0.28486   0.28594   0.28838   0.28943   0.29065
     Eigenvalues ---    0.30087   0.30279   0.35074   0.35092   0.35159
     Eigenvalues ---    0.35180   0.35185   0.35195   0.35239   0.35300
     Eigenvalues ---    0.35318   0.35320   0.35375   0.35424   0.35430
     Eigenvalues ---    0.35647   0.35826   0.35832   0.35847   0.36329
     Eigenvalues ---    0.40829   0.41441   0.42249   0.42567   0.43295
     Eigenvalues ---    0.453411000.000001000.000001000.000001000.00000
     Eigenvalues --- 1000.000001000.000001000.000001000.000001000.00000
     Eigenvalues --- 1000.000001000.000001000.000001000.000001000.00000
     Eigenvalues --- 1000.000001000.000001000.000001000.000001000.00000
     Eigenvalues --- 1000.000001000.000001000.000001000.000001000.00000
     Eigenvalues --- 1000.000001000.000001000.000001000.000001000.00000
     Eigenvalues --- 1000.000001000.000001000.000001000.000001000.00000
     Eigenvalues --- 1000.000001000.000001000.000001000.000001000.00000
     Eigenvalues --- 1000.000001000.000001000.000001000.000001000.00000
     Eigenvalues --- 1000.000001000.000001000.000001000.000001000.00000
     Eigenvalues --- 1000.000001000.000001000.000001000.000001000.00000
     Eigenvalues --- 1000.000001000.000001000.000001000.000001000.00000
     Eigenvalues --- 1000.000001000.000001000.000001000.000001000.00000
     Eigenvalues --- 1000.000001000.000001000.000001000.000001000.00000
     Eigenvalues --- 1000.000001000.000001000.000001000.000001000.00000
     Eigenvalues --- 1000.000001000.000001000.000001000.000001000.00000
     Eigenvalues --- 1000.000001000.000001000.000001000.000001000.00000
     Eigenvalues --- 1000.000001000.000001000.000001000.000001000.00000
     Eigenvalues --- 1000.000001000.000001000.000001000.000001000.00000
     Eigenvalues --- 1000.000001000.000001000.000001000.000001000.00000
 RFO step:  Lambda=-3.63434478D-03 EMin= 6.26763764D-03
 Linear search not attempted -- first point.
 Iteration  1 RMS(Cart)=  0.04840557 RMS(Int)=  0.00053737
 Iteration  2 RMS(Cart)=  0.00139958 RMS(Int)=  0.00005831
 Iteration  3 RMS(Cart)=  0.00000064 RMS(Int)=  0.00005831
 Iteration  1 RMS(Cart)=  0.00002353 RMS(Int)=  0.00000468
 Iteration  2 RMS(Cart)=  0.00001235 RMS(Int)=  0.00000523
 Iteration  3 RMS(Cart)=  0.00000649 RMS(Int)=  0.00000588
 Iteration  4 RMS(Cart)=  0.00000340 RMS(Int)=  0.00000629
 Iteration  5 RMS(Cart)=  0.00000179 RMS(Int)=  0.00000652
 Iteration  6 RMS(Cart)=  0.00000094 RMS(Int)=  0.00000664
 Variable       Old X    -DE/DX   Delta X   Delta X   Delta X     New X
                                 (Linear)    (Quad)   (Total)
    R1        2.88849  -0.00082   0.00000  -0.00257  -0.00257   2.88592
    R2        2.87139   0.00019   0.00000   0.00064   0.00068   2.87208
    R3        2.05525   0.00327   0.00000   0.00922   0.00922   2.06447
    R4        2.05288   0.00283   0.00000   0.00794   0.00794   2.06082
    R5        2.65419   0.00289   0.00000   0.00629   0.00629   2.66048
    R6        2.64882   0.00300   0.00000   0.00656   0.00656   2.65538
    R7        2.87713  -0.00045   0.00000  -0.00149  -0.00154   2.87559
    R8        2.03570   0.00871   0.00000   0.02374   0.02374   2.05944
    R9        2.88389  -0.00204   0.00000  -0.00648  -0.00648   2.87741
   R10        2.88626  -0.00068   0.00000  -0.00184  -0.00182   2.88444
   R11        2.68207   0.00001   0.00000   0.00002   0.00002   2.68210
   R12        2.04637   0.00578   0.00000   0.01605   0.01605   2.06242
   R13        2.88980  -0.00162   0.00000  -0.00535  -0.00535   2.88445
   R14        2.05158   0.00258   0.00000   0.00722   0.00722   2.05879
   R15        2.05384   0.00348   0.00000   0.00978   0.00978   2.06362
   R16        2.67705   0.00346   0.00000   0.00779   0.00779   2.68484
   R17        2.66752   0.00315   0.00000   0.00719   0.00721   2.67473
   R18        2.87235   0.00035   0.00000   0.00073   0.00071   2.87306
   R19        2.04345   0.00436   0.00000   0.01205   0.01205   2.05550
   R20        2.05556   0.00609   0.00000   0.01717   0.01717   2.07273
   R21        2.68668   0.00279   0.00000   0.00648   0.00648   2.69316
   R22        2.04982   0.00612   0.00000   0.01709   0.01709   2.06691
   R23        2.04321   0.00444   0.00000   0.01225   0.01225   2.05546
   R24        2.89509  -0.00044   0.00000  -0.00158  -0.00161   2.89348
   R25        2.05162   0.00480   0.00000   0.01345   0.01345   2.06507
   R26        2.05070   0.00310   0.00000   0.00867   0.00867   2.05937
   R27        2.05360   0.00717   0.00000   0.02016   0.02016   2.07376
   R28        2.04355   0.00476   0.00000   0.01316   0.01316   2.05671
   R29        2.05418   0.00318   0.00000   0.00894   0.00894   2.06312
   R30        2.05191   0.00303   0.00000   0.00850   0.00850   2.06041
   R31        2.05375   0.00345   0.00000   0.00972   0.00972   2.06346
   R32        2.04991   0.00341   0.00000   0.00952   0.00952   2.05943
    A1        1.92225  -0.00102   0.00000  -0.00597  -0.00617   1.91608
    A2        1.91622   0.00088   0.00000   0.00147   0.00155   1.91778
    A3        1.93966  -0.00052   0.00000  -0.00175  -0.00171   1.93794
    A4        1.90614   0.00011   0.00000  -0.00071  -0.00065   1.90549
    A5        1.90282   0.00059   0.00000   0.00368   0.00372   1.90654
    A6        1.87591  -0.00001   0.00000   0.00353   0.00350   1.87941
    A7        1.92516   0.00077   0.00000   0.00376   0.00392   1.92908
    A8        1.93751   0.00359   0.00000   0.01065   0.01047   1.94798
    A9        1.83331  -0.00254   0.00000  -0.00466  -0.00469   1.82862
   A10        1.90812  -0.00305   0.00000  -0.01672  -0.01665   1.89147
   A11        1.93232   0.00118   0.00000   0.00724   0.00718   1.93950
   A12        1.92673   0.00017   0.00000   0.00066   0.00072   1.92745
   A13        1.93875  -0.00039   0.00000  -0.00900  -0.00911   1.92964
   A14        2.00181  -0.00170   0.00000  -0.01461  -0.01476   1.98704
   A15        1.89182   0.00080   0.00000   0.00726   0.00733   1.89916
   A16        1.93427   0.00072   0.00000  -0.00415  -0.00441   1.92986
   A17        1.87631  -0.00022   0.00000   0.00460   0.00460   1.88091
   A18        1.81207   0.00098   0.00000   0.01952   0.01959   1.83165
   A19        1.91243   0.00178   0.00000  -0.00255  -0.00257   1.90987
   A20        1.93101  -0.00022   0.00000   0.00212   0.00219   1.93320
   A21        1.91418  -0.00078   0.00000  -0.00110  -0.00120   1.91298
   A22        1.91685  -0.00052   0.00000   0.00158   0.00157   1.91842
   A23        1.92210  -0.00093   0.00000  -0.00603  -0.00603   1.91608
   A24        1.86690   0.00062   0.00000   0.00610   0.00611   1.87301
   A25        1.97928  -0.00473   0.00000  -0.02713  -0.02707   1.95221
   A26        1.93566   0.00197   0.00000   0.00819   0.00822   1.94389
   A27        1.85491  -0.00121   0.00000  -0.00332  -0.00332   1.85159
   A28        1.90280   0.00066   0.00000   0.00684   0.00686   1.90966
   A29        1.94472  -0.00025   0.00000  -0.00247  -0.00248   1.94224
   A30        1.93156  -0.00171   0.00000  -0.01000  -0.01004   1.92152
   A31        1.89189   0.00057   0.00000   0.00117   0.00114   1.89303
   A32        1.94567   0.00241   0.00000   0.00643   0.00638   1.95205
   A33        1.93159  -0.00166   0.00000  -0.00760  -0.00764   1.92395
   A34        1.94598  -0.00030   0.00000  -0.00217  -0.00211   1.94387
   A35        1.90915   0.00012   0.00000   0.00118   0.00124   1.91039
   A36        1.84161  -0.00134   0.00000  -0.00207  -0.00207   1.83953
   A37        1.88683   0.00078   0.00000   0.00458   0.00456   1.89140
   A38        1.90420   0.00131   0.00000   0.00032   0.00032   1.90453
   A39        1.92723  -0.00118   0.00000  -0.00938  -0.00937   1.91786
   A40        1.91831  -0.00063   0.00000  -0.00356  -0.00358   1.91473
   A41        1.90318  -0.00006   0.00000   0.00473   0.00471   1.90789
   A42        1.93298   0.00027   0.00000   0.00728   0.00728   1.94026
   A43        1.87791   0.00025   0.00000   0.00061   0.00055   1.87845
   A44        1.92257   0.00210   0.00000   0.01190   0.01197   1.93454
   A45        1.94310  -0.00245   0.00000  -0.01780  -0.01787   1.92523
   A46        1.92512  -0.00085   0.00000  -0.00745  -0.00757   1.91755
   A47        1.90934   0.00104   0.00000   0.00995   0.01002   1.91936
   A48        1.86641  -0.00055   0.00000   0.00413   0.00414   1.87055
   A49        1.89549   0.00079   0.00000   0.00014  -0.00004   1.89545
   A50        1.92964  -0.00095   0.00000  -0.00613  -0.00620   1.92344
   A51        1.90339  -0.00011   0.00000  -0.00267  -0.00266   1.90073
   A52        1.90843   0.00067   0.00000   0.00472   0.00473   1.91316
   A53        1.92066   0.00068   0.00000   0.00002   0.00002   1.92068
   A54        1.92570  -0.00023   0.00000   0.00123   0.00125   1.92695
   A55        1.87507  -0.00002   0.00000   0.00310   0.00309   1.87816
   A56        2.02497  -0.00590   0.00000  -0.03618  -0.03614   1.98883
   A57        2.10127  -0.01552   0.00000  -0.06121  -0.06121   2.04006
   A58        1.95427  -0.00190   0.00000  -0.01533  -0.01551   1.93876
   A59        1.87472   0.00027   0.00000   0.00556   0.00557   1.88029
   A60        1.89864   0.00077   0.00000  -0.00135  -0.00131   1.89733
   A61        1.90926   0.00119   0.00000   0.00731   0.00742   1.91668
   A62        1.94738  -0.00019   0.00000  -0.00183  -0.00193   1.94545
   A63        1.87656  -0.00005   0.00000   0.00678   0.00675   1.88331
    D1        0.92430  -0.00006   0.00000   0.00984   0.00984   0.93414
    D2        3.04032   0.00032   0.00000   0.01150   0.01153   3.05185
    D3       -1.18751   0.00047   0.00000   0.01958   0.01961  -1.16790
    D4       -1.17527  -0.00011   0.00000   0.01355   0.01354  -1.16173
    D5        0.94075   0.00027   0.00000   0.01520   0.01523   0.95598
    D6        2.99610   0.00042   0.00000   0.02329   0.02331   3.01942
    D7        3.03488  -0.00034   0.00000   0.00932   0.00928   3.04416
    D8       -1.13228   0.00003   0.00000   0.01097   0.01097  -1.12132
[...]
 267774,-0.28478621,0.00014140,-0.00003549,-0.00001021,0.00034642,0.000
 20289,0.00022338,-0.00000781,-0.00000376,0.00001583,0.00000068,0.00000
 020,-0.00000226,0.00000625,0.00000166,0.00000216,0.00007691,0.00042361
 ,0.00018580,0.00000686,0.00000120,0.00000148,-0.00000165,-0.00000179,-
 0.00000183,-0.00030156,-0.00008091,0.00061044,-0.00129306,0.00242905,0
 .00020829,0.00000185,0.00000267,0.00000433,0.00000753,-0.00000518,0.00
 000197,0.00000167,-0.00014892,0.00120958,0.00044090,-0.00006303,0.0005
 0599,-0.07956488,-0.02666879,0.30932945,0.00000344,-0.00000581,-0.0000
 2121,0.00076527,-0.00028827,-0.00112392,-0.00475834,0.00366878,0.00236
 701,0.00001465,-0.00003135,0.00002695,0.00070065,0.00466975,-0.0009002
 6,0.00438353,0.00807754,0.00869458,0.00013938,-0.00002515,0.00007680,-
 0.01239834,-0.02866257,-0.01722783,-0.00107096,0.00053348,-0.00017355,
 -0.07552740,-0.07036640,-0.04644894,-0.00029189,0.00029216,0.00010548,
 -0.00276901,-0.00261856,-0.00042394,-0.00006771,0.00008633,0.00015056,
 -0.00000455,0.00000056,0.00000888,-0.00001815,0.00000207,-0.00000594,0
 .00011204,0.00015220,-0.00015708,-0.00003298,-0.00000350,-0.00000401,0
 .00001312,0.00001150,0.00002197,0.00003324,-0.00083650,0.00039005,0.00
 040300,-0.00047319,-0.00007944,-0.00000328,-0.00001964,0.00000087,-0.0
 0002645,0.00001704,-0.00000052,0.00155301,0.00015040,0.00034375,0.0014
 0726,0.00060636,-0.00023760,0.00268591,0.00810155,0.00413565,0.0844028
 1,-0.00000109,0.00000007,-0.00001072,0.00021291,-0.00004485,-0.0002156
 5,0.00070851,0.00137555,0.00054186,0.00000008,-0.00001002,0.00001052,0
 .00130110,-0.00825980,0.00195472,-0.01146754,-0.01733187,-0.01652637,0
 .00004971,-0.00000849,0.00004004,-0.00013492,0.00085757,0.00092313,0.0
 0207128,0.00073147,-0.00015779,-0.07053367,-0.21628742,-0.10704476,-0.
 00014202,0.00006989,0.00002162,-0.00014003,0.00004536,0.00005265,-0.00
 000624,0.00001833,0.00000895,-0.00000112,-0.00000057,0.00000297,-0.000
 00659,-0.00000053,-0.00000219,0.00004338,-0.00008631,-0.00009404,-0.00
 001025,-0.00000154,-0.00000322,0.00000313,0.00000275,0.00000310,0.0004
 7300,0.00072726,-0.00017641,-0.00035933,0.00096571,0.00050908,-0.00000
 030,-0.00000420,-0.00000291,-0.00000951,0.00000576,-0.00000213,-0.0002
 3054,0.00013168,0.00011875,-0.00045099,0.00034569,0.00013678,0.0020331
 7,0.00331516,0.00167367,0.07710031,0.23348763,-0.00000178,-0.00000065,
 -0.00000679,0.00002218,-0.00010784,-0.00009834,0.00049933,0.00010673,0
 .00059561,0.00000190,-0.00000661,0.00000739,-0.00072235,0.00367150,0.0
 0083595,0.00596760,0.00940706,0.00618019,0.00002684,-0.00001099,0.0000
 2386,0.00180506,0.00302577,0.00058827,-0.00054008,0.00003829,-0.000191
 00,-0.04710615,-0.10920860,-0.11930118,-0.00006937,0.00002363,0.000001
 25,-0.00001538,-0.00006966,0.00040119,-0.00002315,0.00002520,0.0000326
 3,-0.00000071,-0.00000014,0.00000133,-0.00000406,-0.00000050,-0.000001
 33,0.00002174,0.00039073,0.00031729,-0.00000542,-0.00000084,-0.0000037
 4,0.00000148,0.00000127,-0.00000028,-0.00000807,-0.00058246,0.00032677
 ,0.00046432,-0.00081025,0.00022748,-0.00000056,-0.00000258,-0.00000239
 ,-0.00000454,0.00000356,-0.00000095,-0.00033635,0.00033285,0.00056250,
 -0.00022955,-0.00013091,-0.00016950,-0.01019295,-0.02420946,-0.0146354
 7,0.05033979,0.11819758,0.12434508,0.00128300,-0.00077611,-0.00011247,
 -0.00781924,0.00358759,0.02087756,0.00161654,-0.00059651,0.00087781,0.
 00904228,0.00061713,-0.02536543,-0.00028209,0.00002576,-0.00007005,0.0
 0004694,0.00005769,0.00010514,-0.00023262,-0.00004500,-0.00008196,-0.0
 0038633,0.00011179,0.00011387,0.00019359,-0.00012718,-0.00002338,0.000
 03529,-0.00014970,-0.00012812,0.00117119,0.00081921,-0.00105921,-0.006
 25587,-0.00445512,0.00255044,-0.08556962,-0.00177862,0.09218961,-0.000
 23262,0.00004503,0.00044662,-0.00004827,-0.00029915,0.00023802,-0.0004
 8546,-0.00004100,0.00006424,0.00122313,-0.00035215,0.00088175,-0.00342
 379,0.00136692,-0.00369997,-0.00002479,-0.00000036,-0.00001317,0.00000
 809,-0.00000467,-0.00002026,-0.00006234,0.00001470,-0.00000625,0.00007
 463,0.00002108,0.00000140,0.00001164,-0.00000161,-0.00003275,0.0000113
 0,-0.00000735,0.00001121,0.00000168,0.00000582,0.00000662,-0.00008655,
 -0.00001695,-0.00001474,0.09570869,-0.00053224,0.00022358,0.00082131,-
 0.00704672,-0.00046123,0.02278827,0.00075340,-0.00043315,0.00102041,-0
 .00168422,-0.00070223,0.00344244,-0.00013082,0.00007605,-0.00006147,0.
 00003143,0.00001531,0.00004749,-0.00013882,-0.00011607,0.00012486,-0.0
 0016271,0.00007865,0.00005849,0.00004107,-0.00016840,0.00005249,0.0000
 1804,-0.00008362,-0.00006894,0.00028992,0.00097959,-0.00080424,-0.0057
 5530,-0.00190541,0.00148237,0.00108116,-0.05114705,-0.00070824,0.00019
 051,0.00003915,-0.00000762,-0.00000075,0.00003665,-0.00010647,-0.00041
 475,-0.00002123,0.00004158,0.00012338,0.00017531,-0.00039388,0.0003448
 1,0.00082008,0.00061331,-0.00001222,0.00000263,-0.00000536,0.00000236,
 -0.00000232,-0.00000949,0.00000112,0.00006166,-0.00006425,0.00001974,-
 0.00000497,-0.00000659,0.00001229,-0.00001055,-0.00002844,0.00000565,-
 0.00000846,0.00000003,0.00000472,0.00000319,0.00000217,-0.00004878,-0.
 00000732,-0.00001130,0.00228341,0.05006611,0.00093633,-0.00059986,0.00
 073335,-0.00021189,-0.00177814,-0.00290113,-0.00063449,0.00017795,-0.0
 0003339,0.00725366,-0.00010156,-0.02205436,0.00009942,-0.00001727,0.00
 002521,-0.00001490,-0.00001577,-0.00003267,-0.00027817,0.00014845,-0.0
 0015305,0.00015577,-0.00002511,-0.00001513,-0.00005734,0.00006987,-0.0
 0002627,-0.00001822,0.00005479,0.00003451,-0.00055914,0.00016310,0.000
 86455,0.00112256,-0.00003949,0.00120254,0.09413238,0.00262426,-0.27141
 544,-0.00031452,0.00067720,0.00031861,-0.00024179,-0.00009997,0.000330
 66,0.00007888,0.00002152,-0.00002061,0.00009262,-0.00032993,0.00096565
 ,-0.00379464,0.00084970,-0.00177559,0.00000850,-0.00000069,0.00000424,
 -0.00000311,0.00000164,0.00000695,-0.00003993,-0.00009065,0.00002002,0
 .00005608,0.00007197,0.00001967,-0.00000800,-0.00001076,-0.00000805,-0
 .00000057,0.00000442,-0.00000584,0.00000523,-0.00000190,-0.00000445,0.
 00002874,0.00000491,0.00000307,-0.09948821,-0.00176795,0.29714212,-0.0
 0319693,-0.00047955,-0.00467590,0.01062588,-0.01807572,-0.00255931,-0.
 00012375,0.00024430,-0.00009896,-0.01044706,0.02135513,0.00552286,0.00
 003878,0.00003346,-0.00000822,-0.00000522,-0.00003691,-0.00001727,-0.0
 0150456,-0.00023558,-0.00079784,0.00003739,-0.00000449,-0.00001495,-0.
 00007367,-0.00010732,0.00010979,-0.00000007,0.00001433,0.00001195,-0.0
 0111970,-0.00710411,0.00062110,0.00120065,-0.00018091,-0.00082921,-0.1
 0514400,0.10887278,0.02122198,0.00015733,-0.00040535,0.00001065,-0.000
 39325,0.00178294,-0.00004885,0.00003322,0.00000706,-0.00001381,0.00048
 878,-0.00040136,0.00079450,0.00105670,-0.00044235,0.00005895,0.0000047
 2,0.00000742,0.00000414,-0.00000306,0.00000207,0.00000248,0.00014168,0
 .00002444,0.00011012,0.00026057,0.00007179,0.00015703,0.00000660,-0.00
 000955,0.00000309,0.00000405,0.00001018,-0.00001002,-0.00000064,0.0000
 0054,0.00000066,0.00000690,0.00000259,0.00000151,-0.00583779,0.0102552
 7,0.00145666,0.11315385,0.00038755,0.00144101,0.00082305,0.01464582,-0
 .01992989,-0.00431800,-0.00031758,0.00012768,0.00012602,0.00099534,-0.
 00202502,0.00007025,0.00009851,0.00010469,-0.00000602,-0.00000975,-0.0
 0005360,-0.00003928,-0.00114367,0.00089597,-0.00138899,0.00007114,-0.0
 0003330,-0.00006815,-0.00024868,-0.00011973,0.00003654,0.00001015,0.00
 004527,0.00005031,-0.00316923,-0.00665845,0.00050505,0.00069069,0.0024
 4602,-0.00066970,0.10527413,-0.25267950,-0.03719525,0.00000647,-0.0000
 1269,-0.00010349,-0.00000991,-0.00020465,-0.00020493,-0.00002849,0.000
 01606,-0.00001205,0.00027963,0.00036534,0.00030464,0.00005899,0.000158
 33,0.00021449,0.00000561,0.00001144,0.00000431,-0.00000317,0.00000216,
 0.00000533,0.00009810,-0.00003357,0.00021800,0.00013992,-0.00005782,0.
 00008972,0.00002527,0.00000635,0.00004339,-0.00000655,0.00001478,-0.00
 001115,-0.00001308,-0.00000017,0.00000209,0.00001233,0.00000482,0.0000
 0028,-0.00098189,0.00165539,-0.00040497,-0.11642338,0.27391362,-0.0033
 6264,-0.00031469,-0.00302007,0.00052381,0.00260396,-0.00234266,0.00004
 995,-0.00009888,0.00007683,-0.00996808,0.02138784,0.00360124,0.0000136
 7,-0.00000494,-0.00001872,-0.00000440,-0.00000223,0.00000284,-0.000408
 60,-0.00031551,-0.00021018,-0.00003574,-0.00000015,0.00000437,-0.00002
 378,0.00001513,0.00002463,-0.00000160,-0.00000790,-0.00000514,-0.00008
 484,-0.00032756,0.00141445,-0.00008794,0.00078228,0.00021906,0.0210027
 6,-0.04053115,-0.05508006,-0.00019734,0.00023155,0.00021743,-0.0005880
 0,0.00117116,0.00025585,-0.00003220,0.00000687,0.00000143,0.00068784,-
 0.00055119,0.00072406,0.00095228,0.00000500,0.00084530,-0.00000065,0.0
 0000036,-0.00000084,-0.00000075,0.00000024,-0.00000101,0.00007232,-0.0
 0000444,0.00004607,0.00009335,0.00000061,0.00007755,0.00000352,0.00000
 029,-0.00000089,-0.00000080,0.00000125,-0.00000193,0.00000078,-0.00000
 111,-0.00000019,-0.00000423,-0.00000075,-0.00000114,0.01201126,-0.0259
 9704,-0.00385304,-0.02063614,0.04196170,0.05706799,0.00041510,-0.00004
 332,-0.00002959,-0.17064326,0.00938641,-0.13496331,0.00133561,-0.00019
 792,0.00076938,-0.00100132,-0.00383263,0.00153452,0.00000599,-0.000246
 28,0.00018604,-0.00002280,-0.00004974,0.00007048,0.00189083,0.00174536
 ,0.00226986,-0.00102241,-0.00100491,-0.00001721,-0.00075716,0.00097826
 ,-0.00027223,0.00001853,0.00004576,0.00015311,-0.01399998,0.01058087,-
 0.01157464,0.01105047,-0.00138632,0.02004670,-0.01405618,0.00006558,-0
 .01577633,-0.00005936,0.00003276,0.00009956,-0.00006589,-0.00000530,-0
 .00001126,0.00002386,0.00003418,-0.00031066,-0.00095985,0.00022747,-0.
 00083709,0.00005263,-0.00000330,-0.00013564,0.00000834,0.00000758,-0.0
 0002515,0.00002732,0.00001833,-0.00006557,-0.00018025,0.00005349,-0.00
 026814,-0.00054139,0.00023460,-0.00050010,-0.00127793,-0.00155276,0.00
 097744,0.00005973,0.00001377,0.00012824,-0.00005862,0.00002086,0.00003
 483,0.00001530,0.00000442,-0.00000300,0.00035709,0.00047328,0.00023244
 ,0.00056786,-0.00033566,0.00007649,0.19053393,0.00037467,-0.00058271,0
 .00030324,0.00139349,-0.04888255,0.00730306,-0.00017994,0.00029086,0.0
 0044404,-0.00245374,-0.00393280,0.00154233,-0.00015979,-0.00005185,0.0
 0019237,0.00002831,0.00015304,0.00003497,-0.00011974,-0.00441187,-0.00
 300805,-0.00021555,-0.00035944,0.00048823,0.00039138,-0.00005825,-0.00
 057450,-0.00006152,0.00007138,-0.00014310,0.03331780,-0.01485999,0.026
 02089,-0.00005760,0.00375481,-0.00156652,-0.01783908,0.00380476,-0.017
 67788,0.00000158,0.00012623,-0.00000666,0.00012490,0.00038228,-0.00001
 086,0.00000266,-0.00016243,-0.00005168,-0.00125719,0.00027820,-0.00100
 250,0.00020478,-0.00002007,-0.00006315,0.00000374,-0.00003185,-0.00000
 663,0.00000282,-0.00000286,-0.00000732,0.00005769,-0.00005836,0.000315
 22,0.00124635,-0.00039430,0.00104976,-0.00145787,-0.00116015,0.0004815
 6,0.00001699,-0.00001978,-0.00006415,0.00008342,-0.00000513,-0.0000101
 2,0.00003959,-0.00000027,0.00000908,0.00062065,0.00081065,0.00040990,0
 .00107475,0.00061138,0.00001569,-0.01664424,0.06524691,-0.00005645,0.0
 0000649,-0.00008500,-0.12909807,0.01516784,-0.19639364,-0.00489492,-0.
 00102051,-0.00026706,0.00060551,0.00070322,0.00081572,-0.00039338,-0.0
 0031547,0.00063913,0.00009521,0.00009857,0.00000162,0.00077126,-0.0009
 6327,0.00191430,0.00021339,-0.00017671,-0.00035710,0.00071017,0.000388
 31,-0.00105487,0.00004977,0.00012435,0.00047298,0.00082280,0.00064429,
 0.00523121,-0.00788531,0.00053011,-0.03860064,0.00153925,-0.00043684,0
 .00387368,0.00000608,0.00000113,-0.00003350,0.00001048,-0.00000847,-0.
 00005577,0.00035341,0.00000321,0.00025596,0.00020091,0.00006851,0.0000
 6212,0.00015927,0.00004050,0.00013734,-0.00003250,-0.00000015,0.000000
 47,0.00005427,-0.00000831,-0.00002425,0.00023534,-0.00017491,0.0001500
 3,0.00000976,-0.00008193,0.00002288,0.00016549,0.00060975,0.00105385,-
 0.00012976,-0.00012992,0.00022114,-0.00020109,0.00000134,0.00002212,0.
 00006519,-0.00001452,-0.00000957,-0.00023470,-0.00042698,0.00063908,-0
 .00031892,-0.00009658,-0.00000884,0.13690332,-0.01397699,0.21994148,0.
 00001443,0.00001377,0.00002990,-0.00101859,0.00075800,-0.00003813,0.00
 540687,0.00168990,-0.01549589,0.00003288,0.00001885,-0.00007461,-0.031
 09766,-0.00808840,0.03658787,0.00244225,0.00422659,0.00486551,-0.00004
 714,0.00003516,-0.00004166,0.00012757,-0.00102434,0.00034875,-0.055495
 28,-0.00632053,0.04290078,-0.00034003,-0.00044454,-0.00054352,-0.00001
 948,-0.00003473,-0.00006512,0.00164392,-0.00159692,0.00159935,0.000069
 41,-0.00006198,0.00031197,0.00000028,-0.00000015,-0.00000256,0.0000100
 7,-0.00001319,0.00000042,-0.00147372,0.00301030,-0.00106141,0.00003033
 ,-0.00000246,0.00001962,-0.00000051,-0.00000252,0.00000420,0.00007512,
 0.00013136,-0.00041796,0.00052971,-0.00016216,-0.00145384,0.00000587,0
 .00000304,-0.00000295,0.00000149,-0.00000792,-0.00000378,0.00010008,0.
 00004640,0.00042006,-0.00012082,-0.00009607,0.00014139,-0.00007615,0.0
 0009088,-0.00007163,0.00020277,-0.00026742,0.00000865,-0.00003339,0.00
 000120,0.00000138,0.00002679,-0.00007595,-0.00003095,-0.00184913,0.001
 48743,0.00036742,0.07735982,0.00000406,0.00000150,-0.00001716,0.000599
 29,0.00009408,0.00051378,-0.00618054,-0.00284451,0.02838056,-0.0000581
 4,-0.00009996,0.00004694,-0.00326238,0.00228449,0.00112779,-0.00068444
 ,0.00028893,0.00254993,0.00004816,0.00001425,0.00010488,-0.00046247,0.
 00196101,0.00074341,-0.00493651,-0.05760246,0.02226753,0.00003879,-0.0
 0027434,-0.00010810,-0.00020203,0.00008422,-0.00017733,-0.00019708,0.0
 0098846,-0.00188375,-0.00007441,0.00016897,-0.00034756,-0.00000104,0.0
 0000103,0.00000360,-0.00001063,-0.00000088,-0.00000274,0.00236051,-0.0
 0369548,0.00207469,-0.00003732,0.00000380,-0.00002794,0.00000370,0.000
 00072,-0.00000337,0.00009404,0.00000922,-0.00009774,0.00008226,0.00014
 574,-0.00013052,-0.00000732,0.00000067,-0.00000641,-0.00002549,0.00001
 474,-0.00001048,0.00010715,-0.00019313,-0.00063963,0.00020183,0.000205
 02,-0.00043402,0.00005398,0.00005917,-0.00013561,-0.00001929,-0.000007
 57,-0.00003505,0.00004601,0.00001453,0.00000564,0.00007075,-0.00003813
 ,0.00000526,0.00140056,-0.00047344,-0.00064705,0.00504703,0.05470449,-
 0.00000508,-0.00001550,0.00003418,-0.00026153,-0.00048047,-0.00212377,
 0.00389896,0.00057434,-0.01496083,0.00003800,0.00007610,-0.00003717,0.
 01038089,0.00045395,0.00030234,-0.00163501,-0.00082423,0.00206135,-0.0
 0003088,-0.00010445,-0.00016887,-0.00013109,-0.00066845,0.00052882,0.0
 4639418,0.02296313,-0.28347272,0.00018763,0.00000306,0.00002583,0.0005
 4344,-0.00020748,0.00073440,-0.00130983,0.00011314,0.00131135,-0.00017
 890,-0.00001002,0.00022908,0.00000017,0.00000069,-0.00000628,0.0000175
 8,0.00000391,0.00000384,-0.00113635,0.00237568,0.00009189,0.00003042,0
 .00000136,0.00002768,0.00000346,-0.00000062,0.00002093,0.00008649,0.00
 013855,0.00044404,0.00075448,0.00125958,0.00020707,0.00001285,-0.00000
 922,0.00003637,0.00005355,-0.00002305,0.00004826,0.00024932,0.00068336
 ,0.00045927,-0.00018054,0.00004483,0.00020324,-0.00010818,-0.00006500,
 -0.00019002,0.00006291,0.00008277,-0.00000551,-0.00001118,-0.00005180,
 -0.00001227,-0.00007837,-0.00000260,-0.00002176,0.00128514,-0.00046278
 ,0.00122289,-0.06141321,-0.02777173,0.30692296,-0.00000517,0.00000251,
 -0.00000586,-0.00003450,-0.00001093,0.00028842,0.00407681,0.01219463,0
 .00825727,-0.00000803,-0.00001425,0.00001316,-0.02110369,-0.03550425,-
 0.02054570,-0.00530778,0.00241992,0.00286929,0.00001209,0.00000022,0.0
 0002463,-0.00172769,0.00273264,-0.00181211,-0.06052404,-0.04589670,-0.
 02663853,-0.00064655,-0.00044487,-0.00039306,-0.00007486,-0.00005891,-
 0.00010950,0.00210164,-0.00052327,0.00022913,-0.00006666,0.00003036,-0
 .00001012,0.00000120,0.00000068,0.00000014,-0.00000283,-0.00000323,-0.
 00000084,0.00049772,-0.00074180,-0.00003486,-0.00000420,0.,-0.00000335
 ,0.00000349,-0.00000074,-0.00000680,-0.00078494,-0.00164164,-0.0007485
 2,0.00009607,0.00002942,-0.00030140,-0.00000391,0.00000348,-0.00000562
 ,-0.00000479,0.00000380,-0.00000722,-0.00007387,-0.00024953,-0.0001192
 4,0.00052184,0.00103246,0.00029814,0.00008787,-0.00000747,0.00004126,0
 .00021330,-0.00022510,0.00011780,-0.00000432,-0.00000543,0.00000427,0.
 00003795,-0.00003264,-0.00001931,0.00013293,-0.00002671,-0.00009320,0.
 00349223,0.00600100,0.00248066,0.07910270,-0.00000822,-0.00000269,0.00
 000038,0.00005272,-0.00008552,-0.00005951,-0.00690591,-0.02365184,-0.0
 1427249,0.00000791,0.00003504,-0.00000201,-0.00484015,-0.00031809,-0.0
 0048304,0.00051976,0.00212002,0.00144421,-0.00002843,0.00001867,-0.000
 02239,0.00328889,-0.00253408,0.00367326,-0.05401808,-0.23649929,-0.112
 04609,0.00047891,0.00032039,-0.00011805,-0.00001808,0.00004781,0.00006
 026,-0.00014308,0.00247610,0.00006680,0.00008780,-0.00007481,-0.000019
 10,0.00000040,-0.00000040,-0.00000128,0.00000341,0.00000483,0.00000103
 ,-0.00042681,0.00123264,0.00009081,0.00000979,-0.00000036,0.00000649,-
 0.00000140,-0.00000222,-0.00000028,-0.00001462,-0.00009731,-0.00013874
 ,0.00005938,-0.00007316,-0.00013790,-0.00000008,-0.00000005,0.00000136
 ,0.00000523,-0.00000272,-0.00000270,0.00007176,0.00016833,-0.00005181,
 -0.00060106,-0.00148153,-0.00066461,-0.00009899,0.00001299,0.00005292,
 -0.00012295,-0.00003396,-0.00004566,0.00001057,0.00001347,-0.00000130,
 0.00007679,0.00002622,-0.00003166,-0.00002117,-0.00006240,0.00009097,0
 .00163935,0.00418485,0.00192295,0.06093636,0.25425908,-0.00000554,-0.0
 0000373,0.00000492,-0.00026237,-0.00012913,-0.00039868,0.00268734,0.01
 415609,0.00703916,0.00001683,0.00005859,0.00000145,0.00070724,0.003865
 93,0.00319023,0.00032424,0.00079813,0.00069033,-0.00005482,-0.00002032
 ,-0.00006981,-0.00162140,0.00166689,-0.00057219,-0.03372591,-0.1151777
 5,-0.12223657,-0.00004627,-0.00004221,-0.00005620,0.00026947,-0.000149
 90,0.00009768,0.00147944,-0.00085372,0.00000983,0.00003126,-0.00013831
 ,0.00009329,0.00000175,0.00000037,-0.00000356,0.00000742,0.00000666,0.
 00000170,0.00061840,-0.00048194,0.00096606,0.00001751,-0.00000063,0.00
 001063,0.00000287,-0.00000613,-0.00000351,-0.00007295,-0.00018551,0.00
 030469,0.00013063,0.00026836,0.00046407,0.00000636,0.00000424,0.000008
 05,0.00001907,-0.00000969,0.00001172,0.00000252,0.00037012,0.00022995,
 0.00006513,0.00061577,0.00039240,0.00004251,-0.00003325,-0.00000539,-0
 .00001070,-0.00003164,-0.00002269,-0.00001369,0.00002481,0.00000106,0.
 00002030,0.00006600,-0.00001266,0.00002235,0.00002254,0.00021222,-0.00
 689006,-0.02534785,-0.01391658,0.03623108,0.12068719,0.12356838\\-0.00
 001112,-0.00001566,0.00001080,0.00248315,-0.00003220,0.00129725,0.0002
 9462,-0.00209579,0.00026552,-0.00001032,-0.00001035,-0.00001025,-0.000
 00371,0.00000796,0.00000269,-0.00000219,-0.00000889,-0.00000929,0.0000
 4603,-0.00001477,0.00002560,-0.00002261,-0.00000329,-0.00000866,0.0000
 2355,0.00000606,-0.00000325,0.00000300,0.00000463,0.,-0.00174768,-0.00
 067682,-0.00088158,-0.00102960,0.00282519,-0.00069273,-0.00001733,-0.0
 0002154,0.00000534,0.00000401,-0.00000534,-0.00000710,0.00000362,0.000
 00411,0.00000431,-0.00000339,-0.00000044,0.00000964,0.00001019,0.00001
 146,-0.00000606,-0.00000122,-0.00000137,0.00000417,-0.00002015,-0.0000
 0056,0.00000061,0.00000578,0.00000733,-0.00000465,-0.00001107,0.000001
 03,0.00000769,0.00000420,-0.00001656,-0.00000017,-0.00000535,-0.000001
 21,0.00000124,0.00000085,-0.00000700,0.00001126,-0.00000613,0.00000041
 ,0.00000833,0.00000608,-0.00000614,-0.00000359,0.00001380,0.00000728,-
 0.00001116,0.00000453,0.00001263,0.00000621,-0.00001398,0.00001314,-0.
 00002161,-0.00000327,-0.00000194,-0.00000877,0.00000568,0.00001864,0.0
 0000819\\\@


 The chemist is a guest at the physicist's table and
 frequently dines well.
                   -- Richard Bersohn
 Job cpu time:       0 days 14 hours 26 minutes 35.1 seconds.
 Elapsed time:       0 days  0 hours 54 minutes 11.0 seconds.
 File lengths (MBytes):  RWF=    680 Int=      0 D2E=      0 Chk=     33 Scr=      1
 Normal termination of Gaussian 16 at Sun Nov  4 22:49:55 2018.
