 Entering Gaussian System, Link 0=g16
 Initial command:
 /apps/gaussian/g16a03/g16/l1.exe "/jobfs/local/2011948.r-man2/Gau-21242.inp" -scrdir="/jobfs/local/2011948.r-man2/"
 Entering Link 1 = /apps/gaussian/g16a03/g16/l1.exe PID=     21243.
  
 Copyright (c) 1988,1990,1992,1993,1995,1998,2003,2009,2016,
            Gaussian, Inc.  All Rights Reserved.
  
 This is part of the Gaussian(R) 16 program.  It is based on
 the Gaussian(R) 09 system (copyright 2009, Gaussian, Inc.),
 the Gaussian(R) 03 system (copyright 2003, Gaussian, Inc.),
 the Gaussian(R) 98 system (copyright 1998, Gaussian, Inc.),
 the Gaussian(R) 94 system (copyright 1995, Gaussian, Inc.),
 the Gaussian 92(TM) system (copyright 1992, Gaussian, Inc.),
 the Gaussian 90(TM) system (copyright 1990, Gaussian, Inc.),
 the Gaussian 88(TM) system (copyright 1988, Gaussian, Inc.),
 the Gaussian 86(TM) system (copyright 1986, Carnegie Mellon
 University), and the Gaussian 82(TM) system (copyright 1983,
 Carnegie Mellon University). Gaussian is a federally registered
 trademark of Gaussian, Inc.
  
 This software contains proprietary and confidential information,
 including trade secrets, belonging to Gaussian, Inc.
  
 This software is provided under written license and may be
 used, copied, transmitted, or stored only in accord with that
 written license.
  
 The following legend is applicable only to US Government
 contracts under FAR:
  
                    RESTRICTED RIGHTS LEGEND
  
 Use, reproduction and disclosure by the US Government is
 subject to restrictions as set forth in subparagraphs (a)
 and (c) of the Commercial Computer Software - Restricted
 Rights clause in FAR 52.227-19.
  
 Gaussian, Inc.
 340 Quinnipiac St., Bldg. 40, Wallingford CT 06492
  
  
 ---------------------------------------------------------------
 Warning -- This program may not be used in any manner that
 competes with the business of Gaussian, Inc. or will provide
 assistance to any competitor of Gaussian, Inc.  The licensee
 of this program is prohibited from giving any competitor of
 Gaussian, Inc. access to this program.  By using this program,
 the user acknowledges that Gaussian, Inc. is engaged in the
 business of creating and licensing software in the field of
 computational chemistry and represents and warrants to the
 licensee that it is not a competitor of Gaussian, Inc. and that
 it will not use this program in any manner prohibited above.
 ---------------------------------------------------------------
  

 Cite this work as:
 Gaussian 16, Revision A.03,
 M. J. Frisch, G. W. Trucks, H. B. Schlegel, G. E. Scuseria, 
 M. A. Robb, J. R. Cheeseman, G. Scalmani, V. Barone, 
 G. A. Petersson, H. Nakatsuji, X. Li, M. Caricato, A. V. Marenich, 
 J. Bloino, B. G. Janesko, R. Gomperts, B. Mennucci, H. P. Hratchian, 
 J. V. Ortiz, A. F. Izmaylov, J. L. Sonnenberg, D. Williams-Young, 
 F. Ding, F. Lipparini, F. Egidi, J. Goings, B. Peng, A. Petrone, 
 T. Henderson, D. Ranasinghe, V. G. Zakrzewski, J. Gao, N. Rega, 
 G. Zheng, W. Liang, M. Hada, M. Ehara, K. Toyota, R. Fukuda, 
 J. Hasegawa, M. Ishida, T. Nakajima, Y. Honda, O. Kitao, H. Nakai, 
 T. Vreven, K. Throssell, J. A. Montgomery, Jr., J. E. Peralta, 
 F. Ogliaro, M. J. Bearpark, J. J. Heyd, E. N. Brothers, K. N. Kudin, 
 V. N. Staroverov, T. A. Keith, R. Kobayashi, J. Normand, 
 K. Raghavachari, A. P. Rendell, J. C. Burant, S. S. Iyengar, 
 J. Tomasi, M. Cossi, J. M. Millam, M. Klene, C. Adamo, R. Cammi, 
 J. W. Ochterski, R. L. Martin, K. Morokuma, O. Farkas, 
 J. B. Foresman, and D. J. Fox, Gaussian, Inc., Wallingford CT, 2016.
 
 ******************************************
 Gaussian 16:  ES64L-G16RevA.03 25-Dec-2016
                 4-Nov-2018 
 ******************************************
 %mem=6000mb
 %nproc=24
 Will use up to   24 processors via shared memory.
 %chk=D_1a_4e_D_PHI.inp_extract_5.chk
 ----------------------------------------------------------------------
 #M062X/6-311++G(2d,2p) opt=ModRedundant freq=noraman SCRF=(Solvent=Wat
 er)
 ----------------------------------------------------------------------
 1/18=120,19=15,26=3,38=1/1,3;
 2/9=110,12=2,17=6,18=5,40=1/2;
 3/5=4,6=6,7=1212,11=2,25=1,30=1,70=2201,71=1,72=1,74=-55/1,2,3;
 4//1;
 5/5=2,38=5,53=1/2;
 6/7=2,8=2,9=2,10=2,28=1/1;
 7//1,2,3,16;
 1/18=20,19=15,26=3/3(2);
 2/9=110/2;
 99//99;
 2/9=110/2;
 3/5=4,6=6,7=1212,11=2,25=1,30=1,70=2205,71=1,72=1,74=-55/1,2,3;
 4/5=5,16=3,69=1/1;
 5/5=2,38=5,53=1/2;
 7//1,2,3,16;
 1/18=20,19=15,26=3/3(-5);
 2/9=110/2;
 6/7=2,8=2,9=2,10=2,19=2,28=1/1;
 99/9=1/99;
 ---------------------------
 D_1a_4e_D_PHI.inp_extract_5
 ---------------------------
 Symbolic Z-matrix:
 Charge =  0 Multiplicity = 1
 C                    -3.52127  -0.78446   0.03111 
 C                    -1.13626   0.83474   0.36683 
 C                     1.09254   0.40745  -0.65373 
 C                    -2.25308  -1.42564   0.59342 
 O                     2.88916  -1.19374  -0.71843 
 C                     3.57585  -0.57834   0.35655 
 C                    -3.162     0.40236  -0.8462 
 C                     1.77044   1.16361   0.48519 
 C                     1.48561  -1.06756  -0.62761 
 C                     3.28028   0.91196   0.40853 
 O                    -2.33732   1.33239  -0.15288 
 O                    -0.31939   0.53972  -0.7417 
 C                    -1.40092  -0.35769   1.27893 
 H                    -4.1555   -0.44742   0.84773 
 H                    -4.09494  -1.4967   -0.55514 
 H                     1.45629   0.81651  -1.58911 
 H                    -2.50329  -2.2084    1.3029 
 H                    -1.69105  -1.89379  -0.21039 
 H                     4.62817  -0.76602   0.19305 
 H                     3.28194  -1.0599    1.28653 
 H                    -2.65662   0.07489  -1.74773 
 H                    -4.04087   0.96083  -1.13684 
 H                     1.40192   0.81698   1.44585 
 H                     1.55953   2.22569   0.41376 
 H                     3.69175   1.38763  -0.47785 
 H                     3.7766    1.34635   1.27098 
 H                    -1.93064   0.02519   2.14784 
 H                    -0.46297  -0.76502   1.63471 
 H                    -0.71146   1.6539    0.92412 
 H                     1.13643  -1.55392   0.27746 
 H                     1.06802  -1.58234  -1.48191 
 
 The following ModRedundant input section has been read:
 D      11       2      12       3 F                                           
 

 GradGradGradGradGradGradGradGradGradGradGradGradGradGradGradGradGradGrad
 Berny optimization.
 Initialization pass.
                           ----------------------------
                           !    Initial Parameters    !
                           ! (Angstroms and Degrees)  !
 --------------------------                            --------------------------
 ! Name  Definition              Value          Derivative Info.                !
 --------------------------------------------------------------------------------
 ! R1    R(1,4)                  1.5283         estimate D2E/DX2                !
 ! R2    R(1,7)                  1.519          estimate D2E/DX2                !
 ! R3    R(1,14)                 1.0875         estimate D2E/DX2                !
 ! R4    R(1,15)                 1.0863         estimate D2E/DX2                !
 ! R5    R(2,11)                 1.4001         estimate D2E/DX2                !
 ! R6    R(2,12)                 1.4082         estimate D2E/DX2                !
 ! R7    R(2,13)                 1.5244         estimate D2E/DX2                !
 ! R8    R(2,29)                 1.078          estimate D2E/DX2                !
 ! R9    R(3,8)                  1.5259         estimate D2E/DX2                !
 ! R10   R(3,9)                  1.5267         estimate D2E/DX2                !
 ! R11   R(3,12)                 1.4208         estimate D2E/DX2                !
 ! R12   R(3,16)                 1.0838         estimate D2E/DX2                !
 ! R13   R(4,13)                 1.5286         estimate D2E/DX2                !
 ! R14   R(4,17)                 1.0857         estimate D2E/DX2                !
 ! R15   R(4,18)                 1.0868         estimate D2E/DX2                !
 ! R16   R(5,6)                  1.4163         estimate D2E/DX2                !
 ! R17   R(5,9)                  1.4121         estimate D2E/DX2                !
 ! R18   R(6,10)                 1.5202         estimate D2E/DX2                !
 ! R19   R(6,19)                 1.0814         estimate D2E/DX2                !
 ! R20   R(6,20)                 1.0877         estimate D2E/DX2                !
 ! R21   R(7,11)                 1.4233         estimate D2E/DX2                !
 ! R22   R(7,21)                 1.0842         estimate D2E/DX2                !
 ! R23   R(7,22)                 1.0811         estimate D2E/DX2                !
 ! R24   R(8,10)                 1.5326         estimate D2E/DX2                !
 ! R25   R(8,23)                 1.0857         estimate D2E/DX2                !
 ! R26   R(8,24)                 1.0852         estimate D2E/DX2                !
 ! R27   R(9,30)                 1.0852         estimate D2E/DX2                !
 ! R28   R(9,31)                 1.0813         estimate D2E/DX2                !
 ! R29   R(10,25)                1.0868         estimate D2E/DX2                !
 ! R30   R(10,26)                1.0857         estimate D2E/DX2                !
 ! R31   R(13,27)                1.0873         estimate D2E/DX2                !
 ! R32   R(13,28)                1.0827         estimate D2E/DX2                !
 ! A1    A(4,1,7)              110.1233         estimate D2E/DX2                !
 ! A2    A(4,1,14)             109.7353         estimate D2E/DX2                !
 ! A3    A(4,1,15)             111.2055         estimate D2E/DX2                !
 ! A4    A(7,1,14)             109.2374         estimate D2E/DX2                !
 ! A5    A(7,1,15)             108.995          estimate D2E/DX2                !
 ! A6    A(14,1,15)            107.4852         estimate D2E/DX2                !
 ! A7    A(11,2,12)            106.2524         estimate D2E/DX2                !
 ! A8    A(11,2,13)            110.5604         estimate D2E/DX2                !
 ! A9    A(11,2,29)            105.0611         estimate D2E/DX2                !
 ! A10   A(12,2,13)            114.0681         estimate D2E/DX2                !
 ! A11   A(12,2,29)            109.728          estimate D2E/DX2                !
 ! A12   A(13,2,29)            110.7015         estimate D2E/DX2                !
 ! A13   A(8,3,9)              110.5861         estimate D2E/DX2                !
 ! A14   A(8,3,12)             116.2024         estimate D2E/DX2                !
 ! A15   A(8,3,16)             107.9407         estimate D2E/DX2                !
 ! A16   A(9,3,12)             110.2944         estimate D2E/DX2                !
 ! A17   A(9,3,16)             107.0387         estimate D2E/DX2                !
 ! A18   A(12,3,16)            104.1793         estimate D2E/DX2                !
 ! A19   A(1,4,13)             109.5421         estimate D2E/DX2                !
 ! A20   A(1,4,17)             110.5905         estimate D2E/DX2                !
 ! A21   A(1,4,18)             109.7379         estimate D2E/DX2                !
 ! A22   A(13,4,17)            109.8244         estimate D2E/DX2                !
 ! A23   A(13,4,18)            110.1416         estimate D2E/DX2                !
 ! A24   A(17,4,18)            106.9738         estimate D2E/DX2                !
 ! A25   A(6,5,9)              113.22           estimate D2E/DX2                !
 ! A26   A(5,6,10)             110.9562         estimate D2E/DX2                !
 ! A27   A(5,6,19)             106.3587         estimate D2E/DX2                !
 ! A28   A(5,6,20)             108.9997         estimate D2E/DX2                !
 ! A29   A(10,6,19)            111.3781         estimate D2E/DX2                !
 ! A30   A(10,6,20)            110.6242         estimate D2E/DX2                !
 ! A31   A(19,6,20)            108.3844         estimate D2E/DX2                !
 ! A32   A(1,7,11)             111.4841         estimate D2E/DX2                !
 ! A33   A(1,7,21)             110.7645         estimate D2E/DX2                !
 ! A34   A(1,7,22)             111.5067         estimate D2E/DX2                !
 ! A35   A(11,7,21)            109.4107         estimate D2E/DX2                !
 ! A36   A(11,7,22)            105.3339         estimate D2E/DX2                !
 ! A37   A(21,7,22)            108.1461         estimate D2E/DX2                !
 ! A38   A(3,8,10)             108.6001         estimate D2E/DX2                !
 ! A39   A(3,8,23)             110.5731         estimate D2E/DX2                !
 ! A40   A(3,8,24)             110.4583         estimate D2E/DX2                !
 ! A41   A(10,8,23)            109.039          estimate D2E/DX2                !
 ! A42   A(10,8,24)            110.4191         estimate D2E/DX2                !
 ! A43   A(23,8,24)            107.7421         estimate D2E/DX2                !
 ! A44   A(3,9,5)              109.9451         estimate D2E/DX2                !
 ! A45   A(3,9,30)             111.3731         estimate D2E/DX2                !
 ! A46   A(3,9,31)             110.3044         estimate D2E/DX2                !
 ! A47   A(5,9,30)             109.4755         estimate D2E/DX2                !
 ! A48   A(5,9,31)             106.887          estimate D2E/DX2                !
 ! A49   A(30,9,31)            108.742          estimate D2E/DX2                !
 ! A50   A(6,10,8)             110.7454         estimate D2E/DX2                !
 ! A51   A(6,10,25)            109.1202         estimate D2E/DX2                !
 ! A52   A(6,10,26)            109.2989         estimate D2E/DX2                !
 ! A53   A(8,10,25)            109.9925         estimate D2E/DX2                !
 ! A54   A(8,10,26)            110.1767         estimate D2E/DX2                !
 ! A55   A(25,10,26)           107.4374         estimate D2E/DX2                !
 ! A56   A(2,11,7)             116.4625         estimate D2E/DX2                !
 ! A57   A(2,12,3)             123.1749         estimate D2E/DX2                !
 ! A58   A(2,13,4)             112.0213         estimate D2E/DX2                !
 ! A59   A(2,13,27)            106.6959         estimate D2E/DX2                !
 ! A60   A(2,13,28)            109.9072         estimate D2E/DX2                !
 ! A61   A(4,13,27)            109.4388         estimate D2E/DX2                !
 ! A62   A(4,13,28)            111.5592         estimate D2E/DX2                !
 ! A63   A(27,13,28)           106.9741         estimate D2E/DX2                !
 ! D1    D(7,1,4,13)            52.8971         estimate D2E/DX2                !
 ! D2    D(7,1,4,17)           174.0802         estimate D2E/DX2                !
 ! D3    D(7,1,4,18)           -68.1372         estimate D2E/DX2                !
 ! D4    D(14,1,4,13)          -67.3845         estimate D2E/DX2                !
 ! D5    D(14,1,4,17)           53.7986         estimate D2E/DX2                !
 ! D6    D(14,1,4,18)          171.5813         estimate D2E/DX2                !
 ! D7    D(15,1,4,13)          173.8267         estimate D2E/DX2                !
 ! D8    D(15,1,4,17)          -64.9901         estimate D2E/DX2                !
 ! D9    D(15,1,4,18)           52.7925         estimate D2E/DX2                !
 ! D10   D(4,1,7,11)           -54.1335         estimate D2E/DX2                !
 ! D11   D(4,1,7,21)            67.9527         estimate D2E/DX2                !
 ! D12   D(4,1,7,22)          -171.5561         estimate D2E/DX2                !
 ! D13   D(14,1,7,11)           66.448          estimate D2E/DX2                !
 ! D14   D(14,1,7,21)         -171.4658         estimate D2E/DX2                !
 ! D15   D(14,1,7,22)          -50.9745         estimate D2E/DX2                !
 ! D16   D(15,1,7,11)         -176.3788         estimate D2E/DX2                !
 ! D17   D(15,1,7,21)          -54.2926         estimate D2E/DX2                !
 ! D18   D(15,1,7,22)           66.1986         estimate D2E/DX2                !
 ! D19   D(12,2,11,7)           68.9318         estimate D2E/DX2                !
 ! D20   D(13,2,11,7)          -55.3346         estimate D2E/DX2                !
 ! D21   D(29,2,11,7)         -174.801          estimate D2E/DX2                !
 ! D22   D(11,2,12,3)          160.06           Frozen                          !
 ! D23   D(13,2,12,3)          -77.8769         estimate D2E/DX2                !
 ! D24   D(29,2,12,3)           46.9759         estimate D2E/DX2                !
 ! D25   D(11,2,13,4)           52.5297         estimate D2E/DX2                !
 ! D26   D(11,2,13,27)         -67.2128         estimate D2E/DX2                !
 ! D27   D(11,2,13,28)         177.1434         estimate D2E/DX2                !
 ! D28   D(12,2,13,4)          -67.1337         estimate D2E/DX2                !
 ! D29   D(12,2,13,27)         173.1239         estimate D2E/DX2                !
 ! D30   D(12,2,13,28)          57.48           estimate D2E/DX2                !
 ! D31   D(29,2,13,4)          168.5332         estimate D2E/DX2                !
 ! D32   D(29,2,13,27)          48.7908         estimate D2E/DX2                !
 ! D33   D(29,2,13,28)         -66.853          estimate D2E/DX2                !
 ! D34   D(9,3,8,10)            53.8355         estimate D2E/DX2                !
 ! D35   D(9,3,8,23)           -65.7652         estimate D2E/DX2                !
 ! D36   D(9,3,8,24)           175.0632         estimate D2E/DX2                !
 ! D37   D(12,3,8,10)         -179.454          estimate D2E/DX2                !
 ! D38   D(12,3,8,23)           60.9453         estimate D2E/DX2                !
 ! D39   D(12,3,8,24)          -58.2262         estimate D2E/DX2                !
 ! D40   D(16,3,8,10)          -62.9475         estimate D2E/DX2                !
 ! D41   D(16,3,8,23)          177.4519         estimate D2E/DX2                !
 ! D42   D(16,3,8,24)           58.2803         estimate D2E/DX2                !
 ! D43   D(8,3,9,5)            -57.7783         estimate D2E/DX2                !
 ! D44   D(8,3,9,30)            63.7479         estimate D2E/DX2                !
 ! D45   D(8,3,9,31)          -175.4085         estimate D2E/DX2                !
 ! D46   D(12,3,9,5)           172.2974         estimate D2E/DX2                !
 ! D47   D(12,3,9,30)          -66.1765         estimate D2E/DX2                !
 ! D48   D(12,3,9,31)           54.6672         estimate D2E/DX2                !
 ! D49   D(16,3,9,5)            59.561          estimate D2E/DX2                !
 ! D50   D(16,3,9,30)         -178.9128         estimate D2E/DX2                !
 ! D51   D(16,3,9,31)          -58.0692         estimate D2E/DX2                !
 ! D52   D(8,3,12,2)           -25.9536         estimate D2E/DX2                !
 ! D53   D(9,3,12,2)           100.9024         estimate D2E/DX2                !
 ! D54   D(16,3,12,2)         -144.5367         estimate D2E/DX2                !
 ! D55   D(1,4,13,2)           -52.6785         estimate D2E/DX2                !
 ! D56   D(1,4,13,27)           65.445          estimate D2E/DX2                !
 ! D57   D(1,4,13,28)         -176.3705         estimate D2E/DX2                !
 ! D58   D(17,4,13,2)         -174.3233         estimate D2E/DX2                !
 ! D59   D(17,4,13,27)         -56.1998         estimate D2E/DX2                !
 ! D60   D(17,4,13,28)          61.9848         estimate D2E/DX2                !
 ! D61   D(18,4,13,2)           68.1111         estimate D2E/DX2                !
 ! D62   D(18,4,13,27)        -173.7653         estimate D2E/DX2                !
 ! D63   D(18,4,13,28)         -55.5808         estimate D2E/DX2                !
 ! D64   D(9,5,6,10)           -60.3892         estimate D2E/DX2                !
 ! D65   D(9,5,6,19)           178.3303         estimate D2E/DX2                !
 ! D66   D(9,5,6,20)            61.6696         estimate D2E/DX2                !
 ! D67   D(6,5,9,3)             61.1771         estimate D2E/DX2                !
 ! D68   D(6,5,9,30)           -61.4761         estimate D2E/DX2                !
 ! D69   D(6,5,9,31)          -179.0906         estimate D2E/DX2                !
 ! D70   D(5,6,10,8)            55.4691         estimate D2E/DX2                !
 ! D71   D(5,6,10,25)          -65.7465         estimate D2E/DX2                !
 ! D72   D(5,6,10,26)          177.0315         estimate D2E/DX2                !
 ! D73   D(19,6,10,8)          173.7507         estimate D2E/DX2                !
 ! D74   D(19,6,10,25)          52.5351         estimate D2E/DX2                !
 ! D75   D(19,6,10,26)         -64.6869         estimate D2E/DX2                !
 ! D76   D(20,6,10,8)          -65.6378         estimate D2E/DX2                !
 ! D77   D(20,6,10,25)         173.1466         estimate D2E/DX2                !
 ! D78   D(20,6,10,26)          55.9246         estimate D2E/DX2                !
 ! D79   D(1,7,11,2)            57.1056         estimate D2E/DX2                !
 ! D80   D(21,7,11,2)          -65.7585         estimate D2E/DX2                !
 ! D81   D(22,7,11,2)          178.2001         estimate D2E/DX2                !
 ! D82   D(3,8,10,6)           -52.6333         estimate D2E/DX2                !
 ! D83   D(3,8,10,25)           68.0657         estimate D2E/DX2                !
 ! D84   D(3,8,10,26)         -173.6777         estimate D2E/DX2                !
 ! D85   D(23,8,10,6)           67.9214         estimate D2E/DX2                !
 ! D86   D(23,8,10,25)        -171.3795         estimate D2E/DX2                !
 ! D87   D(23,8,10,26)         -53.123          estimate D2E/DX2                !
 ! D88   D(24,8,10,6)         -173.8851         estimate D2E/DX2                !
 ! D89   D(24,8,10,25)         -53.1861         estimate D2E/DX2                !
 ! D90   D(24,8,10,26)          65.0704         estimate D2E/DX2                !
 --------------------------------------------------------------------------------
 Trust Radius=3.00D-01 FncErr=1.00D-07 GrdErr=1.00D-06 EigMax=2.50D+02 EigMin=1.00D-04
 Number of steps in this run=    186 maximum allowed number of steps=    186.
 GradGradGradGradGradGradGradGradGradGradGradGradGradGradGradGradGradGrad

                          Input orientation:                          
 ---------------------------------------------------------------------
 Center     Atomic      Atomic             Coordinates (Angstroms)
 Number     Number       Type             X           Y           Z
 ---------------------------------------------------------------------
      1          6           0       -3.521271   -0.784462    0.031109
      2          6           0       -1.136264    0.834739    0.366830
      3          6           0        1.092542    0.407449   -0.653732
      4          6           0       -2.253079   -1.425638    0.593421
      5          8           0        2.889161   -1.193741   -0.718433
      6          6           0        3.575850   -0.578340    0.356553
      7          6           0       -3.162002    0.402362   -0.846204
      8          6           0        1.770439    1.163611    0.485187
      9          6           0        1.485605   -1.067561   -0.627608
     10          6           0        3.280283    0.911962    0.408534
     11          8           0       -2.337322    1.332386   -0.152881
     12          8           0       -0.319390    0.539720   -0.741698
     13          6           0       -1.400919   -0.357686    1.278933
     14          1           0       -4.155499   -0.447420    0.847732
     15          1           0       -4.094943   -1.496702   -0.555142
     16          1           0        1.456293    0.816512   -1.589109
     17          1           0       -2.503293   -2.208403    1.302898
     18          1           0       -1.691054   -1.893792   -0.210394
     19          1           0        4.628168   -0.766023    0.193047
     20          1           0        3.281936   -1.059895    1.286533
     21          1           0       -2.656616    0.074894   -1.747727
     22          1           0       -4.040867    0.960828   -1.136839
     23          1           0        1.401922    0.816983    1.445845
     24          1           0        1.559527    2.225695    0.413760
     25          1           0        3.691751    1.387627   -0.477847
     26          1           0        3.776602    1.346352    1.270982
     27          1           0       -1.930644    0.025185    2.147839
     28          1           0       -0.462971   -0.765021    1.634711
     29          1           0       -0.711461    1.653902    0.924123
     30          1           0        1.136434   -1.553921    0.277455
     31          1           0        1.068020   -1.582342   -1.481912
 ---------------------------------------------------------------------
                    Distance matrix (angstroms):
                    1          2          3          4          5
     1  C    0.000000
     2  C    2.902202   0.000000
     3  C    4.814242   2.488313   0.000000
     4  C    1.528271   2.531388   4.013574   0.000000
     5  O    6.467067   4.636440   2.407454   5.312002   0.000000
     6  C    7.107568   4.919443   2.856444   5.894950   1.416282
     7  C    1.518981   2.400420   4.258898   2.498048   6.259428
     8  C    5.657152   2.927642   1.525930   4.785877   2.873560
     9  C    5.057950   3.388488   1.526707   3.949290   1.412140
    10  C    7.020074   4.417419   2.483778   6.009713   2.420127
    11  O    2.432413   1.400104   3.587524   2.858454   5.832434
    12  O    3.550032   1.408245   1.420840   3.063385   3.646948
    13  C    2.497017   1.524418   3.246224   1.528602   4.805543
    14  H    1.087527   3.315264   5.525136   2.154248   7.255143
    15  H    1.086313   3.878071   5.526799   2.171799   6.992579
    16  H    5.473972   3.247673   1.083779   4.852846   2.617691
    17  H    2.163639   3.464925   4.858098   1.085673   5.847553
    18  H    2.153748   2.843565   3.638773   1.086811   4.661174
    19  H    8.151069   5.985091   3.820304   6.924374   2.009449
    20  H    6.923552   4.894485   3.272793   5.590220   2.047456
    21  H    2.156474   2.712966   3.919643   2.809878   5.781395
    22  H    2.163358   3.273169   5.185702   3.447493   7.269286
    23  H    5.366930   2.758075   2.161402   4.372071   3.307414
    24  H    5.917937   3.033851   2.159545   5.282090   3.839574
    25  H    7.550145   4.932433   2.783446   6.663564   2.713944
    26  H    7.703026   5.021503   3.433692   6.670837   3.346251
    27  H    2.768785   2.111495   4.139394   2.150597   5.738625
    28  H    3.453276   2.149437   3.005208   2.173749   4.117994
    29  H    3.825980   1.077989   2.701425   3.459699   4.875607
    30  H    4.727258   3.298309   2.171637   3.406624   2.047822
    31  H    4.897697   3.757525   2.155401   3.919345   2.012577
                    6          7          8          9         10
     6  C    0.000000
     7  C    6.914264   0.000000
     8  C    2.512061   5.165373   0.000000
     9  C    2.361575   4.879417   2.509496   0.000000
    10  C    1.520218   6.583092   1.532590   2.865828   0.000000
    11  O    6.235062   1.423284   4.160447   4.538709   5.661222
    12  O    4.198703   2.847847   2.502373   2.419582   3.797268
    13  C    5.066330   2.862742   3.605813   3.531408   4.927804
    14  H    7.748042   2.139763   6.151715   5.863724   7.571768
    15  H    7.779180   2.135776   6.523975   5.597493   7.818203
    16  H    3.197458   4.695964   2.126469   2.115437   2.706774
    17  H    6.364641   3.445088   5.504899   4.575990   6.632218
    18  H    5.458216   2.800047   4.670490   3.308759   5.741909
    19  H    1.081357   7.945559   3.460556   3.261917   2.163068
    20  H    1.087724   6.943421   2.805487   2.625033   2.158496
    21  H    6.610472   1.084156   5.076419   4.440480   6.371571
    22  H    7.912878   1.081090   6.036834   5.908940   7.482633
    23  H    2.803470   5.123944   1.085735   2.803162   2.147854
    24  H    3.454192   5.215831   1.085177   3.454772   2.164930
    25  H    2.138851   6.934001   2.160800   3.304157   1.086846
    26  H    2.140309   7.315587   2.162304   3.831486   1.085746
    27  H    5.821892   3.259263   4.214077   4.535191   5.564649
    28  H    4.240355   3.847401   3.166883   3.001094   4.281090
    29  H    4.866834   3.271935   2.567660   3.826399   4.092716
    30  H    2.628453   4.854504   2.798231   1.085175   3.270145
    31  H    3.267596   4.715534   3.450091   1.081301   3.832681
                   11         12         13         14         15
    11  O    0.000000
    12  O    2.246569   0.000000
    13  C    2.404846   2.461299   0.000000
    14  H    2.733990   4.268075   2.789569   0.000000
    15  H    3.354815   4.293788   3.452384   1.752916   0.000000
    16  H    4.089058   1.986899   4.215218   6.247234   6.102153
    17  H    3.831974   4.062264   2.154288   2.457239   2.547976
    18  H    3.290774   2.843541   2.159142   3.047148   2.460734
    19  H    7.282928   5.201639   6.139689   8.813792   8.785576
    20  H    6.274630   4.431934   4.735218   7.475501   7.615833
    21  H    2.055911   2.586655   3.305234   3.042346   2.441507
    22  H    2.002072   3.766014   3.813628   2.436150   2.526015
    23  H    4.099209   2.797344   3.043620   5.730740   6.290677
    24  H    4.037885   2.776315   4.023260   6.324191   6.838716
    25  H    6.038077   4.108262   5.662833   8.167245   8.304091
    26  H    6.277551   4.634510   5.450737   8.143401   8.566149
    27  H    2.677214   3.348180   1.087289   2.619850   3.782385
    28  H    3.332836   2.714827   1.082703   3.788795   4.303723
    29  H    1.976546   2.042078   2.155859   4.035194   4.854120
    30  H    4.536842   2.746166   2.978606   5.436370   5.297527
    31  H    4.675288   2.641206   3.900988   5.830990   5.246182
                   16         17         18         19         20
    16  H    0.000000
    17  H    5.761262   0.000000
    18  H    4.376345   1.746071   0.000000
    19  H    3.967529   7.360025   6.431733   0.000000
    20  H    3.888855   5.898153   5.259924   1.759094   0.000000
    21  H    4.182245   3.813563   2.677952   7.585633   6.764679
    22  H    5.517621   4.284913   3.811663   8.938835   7.973675
    23  H    3.035441   4.942074   4.433726   3.805795   2.661297
    24  H    2.451110   6.079334   5.284507   4.291346   3.810975
    25  H    2.560927   7.381128   6.309820   2.442373   3.044889
    26  H    3.720845   7.216258   6.525969   2.519769   2.456616
    27  H    5.105127   2.455762   3.049777   6.889502   5.393537
    28  H    4.071589   2.521183   2.487313   5.291322   3.772600
    29  H    3.422969   4.274521   3.851346   5.907804   4.841823
    30  H    3.034028   3.837642   2.889325   3.580519   2.421875
    31  H    2.432437   4.571804   3.053891   4.018273   3.583108
                   21         22         23         24         25
    21  H    0.000000
    22  H    1.753344   0.000000
    23  H    5.217406   6.026185   0.000000
    24  H    5.203252   5.947156   1.753428   0.000000
    25  H    6.605878   7.772375   3.044592   2.458394   0.000000
    26  H    7.219107   8.188959   2.439244   2.534462   1.751373
    27  H    3.962946   4.014670   3.496532   4.475552   6.353094
    28  H    4.118061   4.843695   2.452801   3.811247   5.134054
    29  H    3.662742   3.976539   2.332170   2.396832   4.628682
    30  H    4.598003   5.926942   2.656465   3.805665   3.968984
    31  H    4.085340   5.717300   3.800002   4.282090   4.088132
                   26         27         28         29         30
    26  H    0.000000
    27  H    5.923430   0.000000
    28  H    4.750176   1.744073   0.000000
    29  H    4.511941   2.374154   2.533352   0.000000
    30  H    4.045883   3.924141   2.241117   3.758061   0.000000
    31  H    4.846864   4.975060   3.567252   4.407815   1.760926
                   31
    31  H    0.000000
 Stoichiometry    C10H18O3
 Framework group  C1[X(C10H18O3)]
 Deg. of freedom    87
 Full point group                 C1      NOp   1
 Largest Abelian subgroup         C1      NOp   1
 Largest concise Abelian subgroup C1      NOp   1
                         Standard orientation:                         
 ---------------------------------------------------------------------
 Center     Atomic      Atomic             Coordinates (Angstroms)
 Number     Number       Type             X           Y           Z
 ---------------------------------------------------------------------
      1          6           0        3.521271    0.784462    0.031109
      2          6           0        1.136264   -0.834739    0.366830
      3          6           0       -1.092542   -0.407449   -0.653732
      4          6           0        2.253079    1.425638    0.593421
      5          8           0       -2.889161    1.193741   -0.718433
      6          6           0       -3.575850    0.578340    0.356553
      7          6           0        3.162002   -0.402362   -0.846204
      8          6           0       -1.770439   -1.163611    0.485187
      9          6           0       -1.485605    1.067561   -0.627608
     10          6           0       -3.280283   -0.911962    0.408534
     11          8           0        2.337322   -1.332386   -0.152881
     12          8           0        0.319390   -0.539720   -0.741698
     13          6           0        1.400919    0.357686    1.278933
     14          1           0        4.155499    0.447420    0.847732
     15          1           0        4.094943    1.496702   -0.555142
     16          1           0       -1.456293   -0.816512   -1.589109
     17          1           0        2.503293    2.208403    1.302898
     18          1           0        1.691054    1.893792   -0.210394
     19          1           0       -4.628168    0.766023    0.193047
     20          1           0       -3.281936    1.059895    1.286533
     21          1           0        2.656616   -0.074894   -1.747727
     22          1           0        4.040867   -0.960828   -1.136839
     23          1           0       -1.401922   -0.816983    1.445845
     24          1           0       -1.559527   -2.225695    0.413760
     25          1           0       -3.691751   -1.387627   -0.477847
     26          1           0       -3.776602   -1.346352    1.270982
     27          1           0        1.930644   -0.025185    2.147839
     28          1           0        0.462971    0.765021    1.634711
     29          1           0        0.711461   -1.653902    0.924123
     30          1           0       -1.136434    1.553921    0.277455
     31          1           0       -1.068020    1.582342   -1.481912
 ---------------------------------------------------------------------
 Rotational constants (GHZ):           1.8670349           0.4256398           0.3976812
 Standard basis: 6-311++G(2d,2p) (5D, 7F)
 There are   557 symmetry adapted cartesian basis functions of A   symmetry.
 There are   531 symmetry adapted basis functions of A   symmetry.
   531 basis functions,   762 primitive gaussians,   557 cartesian basis functions
    51 alpha electrons       51 beta electrons
       nuclear repulsion energy       898.2599955424 Hartrees.
 NAtoms=   31 NActive=   31 NUniq=   31 SFac= 1.00D+00 NAtFMM=   60 NAOKFM=F Big=F
 Integral buffers will be    131072 words long.
 Raffenetti 2 integral format.
 Two-electron integral symmetry is turned on.
 ------------------------------------------------------------------------------
 Polarizable Continuum Model (PCM)
 =================================
 Model                : PCM.
 Atomic radii         : UFF (Universal Force Field).
 Polarization charges : Total charges.
 Charge compensation  : None.
 Solution method      : On-the-fly selection.
 Cavity type          : Scaled VdW (van der Waals Surface) (Alpha=1.100).
 Cavity algorithm     : GePol (No added spheres)
                        Default sphere list used, NSphG=   31.
                        Lebedev-Laikov grids with approx.  5.0 points / Ang**2.
                        Smoothing algorithm: York/Karplus (Gamma=1.0000).
                        Polarization charges: spherical gaussians, with
                                              point-specific exponents (IZeta= 3).
                        Self-potential: point-specific (ISelfS= 7).
                        Self-field    : sphere-specific E.n sum rule (ISelfD= 2).
 1st derivatives      : Analytical E(r).r(x)/FMM algorithm (CHGder, D1EAlg=3).
                        Cavity 1st derivative terms included.
 Solvent              : Water, Eps=  78.355300 Eps(inf)=   1.777849
 ------------------------------------------------------------------------------
 One-electron integrals computed using PRISM.
 NBasis=   531 RedAO= T EigKep=  3.79D-06  NBF=   531
 NBsUse=   531 1.00D-06 EigRej= -1.00D+00 NBFU=   531
 ExpMin= 3.60D-02 ExpMax= 8.59D+03 ExpMxC= 1.30D+03 IAcc=3 IRadAn=         5 AccDes= 0.00D+00
 Harris functional with IExCor= 1009 and IRadAn=       5 diagonalized for initial guess.
 HarFok:  IExCor= 1009 AccDes= 0.00D+00 IRadAn=         5 IDoV= 1 UseB2=F ITyADJ=14
 ICtDFT=  3500011 ScaDFX=  1.000000  1.000000  1.000000  1.000000
 FoFCou: FMM=F IPFlag=           0 FMFlag=      100000 FMFlg1=           0
         NFxFlg=           0 DoJE=T BraDBF=F KetDBF=T FulRan=T
         wScrn=  0.000000 ICntrl=       500 IOpCl=  0 I1Cent=   200000004 NGrid=           0
         NMat0=    1 NMatS0=      1 NMatT0=    0 NMatD0=    1 NMtDS0=    0 NMtDT0=    0
 Petite list used in FoFCou.
 Requested convergence on RMS density matrix=1.00D-08 within 128 cycles.
 Requested convergence on MAX density matrix=1.00D-06.
 Requested convergence on             energy=1.00D-06.
 No special actions if energy rises.
 Inv3:  Mode=1 IEnd=    12350523.
 Iteration    1 A*A^-1 deviation from unit magnitude is 4.33D-15 for   2009.
 Iteration    1 A*A^-1 deviation from orthogonality  is 2.29D-15 for   1792    462.
 Iteration    1 A^-1*A deviation from unit magnitude is 4.33D-15 for   2009.
 Iteration    1 A^-1*A deviation from orthogonality  is 1.27D-15 for    517    124.
 Error on total polarization charges =  0.01472
 SCF Done:  E(RM062X) =  -617.493430993     A.U. after   12 cycles
            NFock= 12  Conv=0.64D-08     -V/T= 2.0035

 **********************************************************************

            Population analysis using the SCF density.

 **********************************************************************

 Orbital symmetries:
       Occupied  (A) (A) (A) (A) (A) (A) (A) (A) (A) (A) (A) (A)
                 (A) (A) (A) (A) (A) (A) (A) (A) (A) (A) (A) (A)
                 (A) (A) (A) (A) (A) (A) (A) (A) (A) (A) (A) (A)
                 (A) (A) (A) (A) (A) (A) (A) (A) (A) (A) (A) (A)
                 (A) (A) (A)
       Virtual   (A) (A) (A) (A) (A) (A) (A) (A) (A) (A) (A) (A)
                 (A) (A) (A) (A) (A) (A) (A) (A) (A) (A) (A) (A)
                 (A) (A) (A) (A) (A) (A) (A) (A) (A) (A) (A) (A)
                 (A) (A) (A) (A) (A) (A) (A) (A) (A) (A) (A) (A)
                 (A) (A) (A) (A) (A) (A) (A) (A) (A) (A) (A) (A)
                 (A) (A) (A) (A) (A) (A) (A) (A) (A) (A) (A) (A)
                 (A) (A) (A) (A) (A) (A) (A) (A) (A) (A) (A) (A)
                 (A) (A) (A) (A) (A) (A) (A) (A) (A) (A) (A) (A)
                 (A) (A) (A) (A) (A) (A) (A) (A) (A) (A) (A) (A)
                 (A) (A) (A) (A) (A) (A) (A) (A) (A) (A) (A) (A)
                 (A) (A) (A) (A) (A) (A) (A) (A) (A) (A) (A) (A)
                 (A) (A) (A) (A) (A) (A) (A) (A) (A) (A) (A) (A)
                 (A) (A) (A) (A) (A) (A) (A) (A) (A) (A) (A) (A)
                 (A) (A) (A) (A) (A) (A) (A) (A) (A) (A) (A) (A)
                 (A) (A) (A) (A) (A) (A) (A) (A) (A) (A) (A) (A)
                 (A) (A) (A) (A) (A) (A) (A) (A) (A) (A) (A) (A)
                 (A) (A) (A) (A) (A) (A) (A) (A) (A) (A) (A) (A)
                 (A) (A) (A) (A) (A) (A) (A) (A) (A) (A) (A) (A)
                 (A) (A) (A) (A) (A) (A) (A) (A) (A) (A) (A) (A)
                 (A) (A) (A) (A) (A) (A) (A) (A) (A) (A) (A) (A)
                 (A) (A) (A) (A) (A) (A) (A) (A) (A) (A) (A) (A)
                 (A) (A) (A) (A) (A) (A) (A) (A) (A) (A) (A) (A)
                 (A) (A) (A) (A) (A) (A) (A) (A) (A) (A) (A) (A)
                 (A) (A) (A) (A) (A) (A) (A) (A) (A) (A) (A) (A)
                 (A) (A) (A) (A) (A) (A) (A) (A) (A) (A) (A) (A)
                 (A) (A) (A) (A) (A) (A) (A) (A) (A) (A) (A) (A)
                 (A) (A) (A) (A) (A) (A) (A) (A) (A) (A) (A) (A)
                 (A) (A) (A) (A) (A) (A) (A) (A) (A) (A) (A) (A)
                 (A) (A) (A) (A) (A) (A) (A) (A) (A) (A) (A) (A)
                 (A) (A) (A) (A) (A) (A) (A) (A) (A) (A) (A) (A)
                 (A) (A) (A) (A) (A) (A) (A) (A) (A) (A) (A) (A)
                 (A) (A) (A) (A) (A) (A) (A) (A) (A) (A) (A) (A)
                 (A) (A) (A) (A) (A) (A) (A) (A) (A) (A) (A) (A)
                 (A) (A) (A) (A) (A) (A) (A) (A) (A) (A) (A) (A)
                 (A) (A) (A) (A) (A) (A) (A) (A) (A) (A) (A) (A)
                 (A) (A) (A) (A) (A) (A) (A) (A) (A) (A) (A) (A)
                 (A) (A) (A) (A) (A) (A) (A) (A) (A) (A) (A) (A)
                 (A) (A) (A) (A) (A) (A) (A) (A) (A) (A) (A) (A)
                 (A) (A) (A) (A) (A) (A) (A) (A) (A) (A) (A) (A)
                 (A) (A) (A) (A) (A) (A) (A) (A) (A) (A) (A) (A)
 The electronic state is 1-A.
 Alpha  occ. eigenvalues --  -19.62971 -19.62868 -19.62755 -10.63617 -10.59083
 Alpha  occ. eigenvalues --  -10.57965 -10.57849 -10.57624 -10.53651 -10.53380
 Alpha  occ. eigenvalues --  -10.53042 -10.52968 -10.52777  -1.19977  -1.16832
 Alpha  occ. eigenvalues --   -1.13336  -0.90551  -0.90087  -0.87685  -0.85130
 Alpha  occ. eigenvalues --   -0.75519  -0.73975  -0.73616  -0.71123  -0.66896
 Alpha  occ. eigenvalues --   -0.62954  -0.60274  -0.58474  -0.56857  -0.56110
 Alpha  occ. eigenvalues --   -0.55327  -0.53397  -0.52372  -0.51117  -0.49713
 Alpha  occ. eigenvalues --   -0.49159  -0.47517  -0.46243  -0.45612  -0.44847
 Alpha  occ. eigenvalues --   -0.44469  -0.43339  -0.40957  -0.40212  -0.39312
 Alpha  occ. eigenvalues --   -0.38088  -0.37839  -0.36682  -0.35361  -0.33180
 Alpha  occ. eigenvalues --   -0.31168
 Alpha virt. eigenvalues --   -0.00089   0.00767   0.00825   0.01052   0.02236
 Alpha virt. eigenvalues --    0.02492   0.02706   0.03505   0.03563   0.04461
 Alpha virt. eigenvalues --    0.04646   0.04805   0.05788   0.05922   0.07257
 Alpha virt. eigenvalues --    0.07553   0.07872   0.07924   0.08885   0.09478
 Alpha virt. eigenvalues --    0.10389   0.11015   0.11316   0.11598   0.11947
 Alpha virt. eigenvalues --    0.12440   0.12965   0.13023   0.13159   0.13598
 Alpha virt. eigenvalues --    0.13832   0.14033   0.14175   0.14555   0.14723
 Alpha virt. eigenvalues --    0.15065   0.15144   0.15828   0.15875   0.16316
 Alpha virt. eigenvalues --    0.16537   0.16954   0.17065   0.17508   0.17522
 Alpha virt. eigenvalues --    0.17718   0.18083   0.18539   0.18810   0.19648
 Alpha virt. eigenvalues --    0.19892   0.20274   0.20708   0.20900   0.21187
 Alpha virt. eigenvalues --    0.21504   0.21871   0.22982   0.23376   0.24241
 Alpha virt. eigenvalues --    0.24719   0.25866   0.26149   0.26780   0.27546
 Alpha virt. eigenvalues --    0.27864   0.28042   0.28516   0.28656   0.29604
 Alpha virt. eigenvalues --    0.30459   0.30778   0.31657   0.31828   0.32144
 Alpha virt. eigenvalues --    0.32433   0.32957   0.33310   0.33949   0.34167
 Alpha virt. eigenvalues --    0.34823   0.35496   0.35677   0.36018   0.36408
 Alpha virt. eigenvalues --    0.36942   0.37283   0.37612   0.38060   0.38468
 Alpha virt. eigenvalues --    0.38879   0.39230   0.39496   0.40125   0.40384
 Alpha virt. eigenvalues --    0.40745   0.41772   0.42488   0.43057   0.45875
 Alpha virt. eigenvalues --    0.45988   0.46927   0.49343   0.49984   0.50936
 Alpha virt. eigenvalues --    0.51452   0.52301   0.52487   0.53764   0.54243
 Alpha virt. eigenvalues --    0.54870   0.56638   0.58220   0.58880   0.59655
 Alpha virt. eigenvalues --    0.60104   0.60366   0.60870   0.61497   0.61579
 Alpha virt. eigenvalues --    0.61778   0.62710   0.63001   0.63483   0.64161
 Alpha virt. eigenvalues --    0.65089   0.65781   0.66163   0.66536   0.67406
 Alpha virt. eigenvalues --    0.68053   0.68194   0.68833   0.69648   0.70404
 Alpha virt. eigenvalues --    0.71135   0.71554   0.72500   0.72624   0.73110
 Alpha virt. eigenvalues --    0.73692   0.74384   0.75197   0.75984   0.76527
 Alpha virt. eigenvalues --    0.76981   0.77492   0.78148   0.78585   0.79168
 Alpha virt. eigenvalues --    0.80215   0.81307   0.83389   0.84498   0.85253
 Alpha virt. eigenvalues --    0.86499   0.87177   0.88365   0.89310   0.90408
 Alpha virt. eigenvalues --    0.91360   0.92106   0.93323   0.94348   0.95654
 Alpha virt. eigenvalues --    0.96257   0.97058   0.98500   1.00246   1.02054
 Alpha virt. eigenvalues --    1.03457   1.03720   1.04885   1.05442   1.06654
 Alpha virt. eigenvalues --    1.09304   1.09462   1.09736   1.10906   1.11058
 Alpha virt. eigenvalues --    1.12831   1.14623   1.15142   1.16155   1.16823
 Alpha virt. eigenvalues --    1.17426   1.18305   1.18770   1.19148   1.19980
 Alpha virt. eigenvalues --    1.20998   1.21706   1.23077   1.24013   1.24616
 Alpha virt. eigenvalues --    1.25346   1.25879   1.26446   1.26856   1.27942
 Alpha virt. eigenvalues --    1.28603   1.29115   1.30346   1.31055   1.31390
 Alpha virt. eigenvalues --    1.32633   1.33233   1.33972   1.34604   1.35137
 Alpha virt. eigenvalues --    1.35215   1.36486   1.36968   1.37120   1.38081
 Alpha virt. eigenvalues --    1.39396   1.39861   1.40522   1.41425   1.41722
 Alpha virt. eigenvalues --    1.43098   1.43645   1.44049   1.44692   1.45392
 Alpha virt. eigenvalues --    1.45816   1.46459   1.47911   1.48059   1.48542
 Alpha virt. eigenvalues --    1.49590   1.50304   1.51294   1.52260   1.52721
 Alpha virt. eigenvalues --    1.53590   1.53816   1.54742   1.55281   1.56124
 Alpha virt. eigenvalues --    1.56742   1.57218   1.58015   1.58726   1.59400
 Alpha virt. eigenvalues --    1.59726   1.60369   1.61099   1.62406   1.63469
 Alpha virt. eigenvalues --    1.64214   1.64977   1.65881   1.67142   1.67871
 Alpha virt. eigenvalues --    1.68527   1.68594   1.69655   1.71538   1.72649
 Alpha virt. eigenvalues --    1.72977   1.73438   1.75713   1.76366   1.76672
 Alpha virt. eigenvalues --    1.78484   1.79570   1.80143   1.81946   1.83847
 Alpha virt. eigenvalues --    1.84860   1.89213   1.90507   1.93242   1.97995
 Alpha virt. eigenvalues --    2.06456   2.07975   2.12014   2.15849   2.19611
 Alpha virt. eigenvalues --    2.24002   2.25895   2.29525   2.32063   2.39908
 Alpha virt. eigenvalues --    2.40825   2.44083   2.45068   2.47522   2.50561
 Alpha virt. eigenvalues --    2.60331   2.76114   2.76167   2.79296   2.82506
 Alpha virt. eigenvalues --    2.85938   2.88714   2.92241   2.92856   2.94907
 Alpha virt. eigenvalues --    2.95563   2.99641   3.01442   3.02690   3.04157
 Alpha virt. eigenvalues --    3.07176   3.07814   3.08733   3.09765   3.11809
 Alpha virt. eigenvalues --    3.12661   3.14819   3.16360   3.21417   3.23196
 Alpha virt. eigenvalues --    3.25516   3.27875   3.30581   3.33504   3.33897
 Alpha virt. eigenvalues --    3.36363   3.36854   3.37785   3.38726   3.41690
 Alpha virt. eigenvalues --    3.43506   3.43903   3.44143   3.45845   3.46824
 Alpha virt. eigenvalues --    3.47330   3.48349   3.50098   3.50788   3.52098
 Alpha virt. eigenvalues --    3.53905   3.54400   3.55247   3.55761   3.55991
 Alpha virt. eigenvalues --    3.56995   3.58185   3.58403   3.58971   3.59802
 Alpha virt. eigenvalues --    3.60758   3.62580   3.63341   3.64173   3.64826
 Alpha virt. eigenvalues --    3.66429   3.66939   3.67311   3.69146   3.70018
 Alpha virt. eigenvalues --    3.70890   3.71683   3.72533   3.73596   3.73864
 Alpha virt. eigenvalues --    3.75238   3.75683   3.75876   3.77210   3.78099
 Alpha virt. eigenvalues --    3.78326   3.80464   3.82342   3.82710   3.84187
 Alpha virt. eigenvalues --    3.87410   3.87714   3.88181   3.90406   3.90854
 Alpha virt. eigenvalues --    3.93379   3.95057   3.95608   3.96821   3.97722
 Alpha virt. eigenvalues --    3.98404   4.01773   4.02817   4.03106   4.04721
 Alpha virt. eigenvalues --    4.05132   4.06138   4.06620   4.07433   4.08311
 Alpha virt. eigenvalues --    4.08963   4.10116   4.10445   4.11268   4.12216
 Alpha virt. eigenvalues --    4.13083   4.13906   4.14316   4.15525   4.16686
 Alpha virt. eigenvalues --    4.17723   4.17945   4.19086   4.19772   4.21614
 Alpha virt. eigenvalues --    4.22421   4.23027   4.24788   4.26277   4.27320
 Alpha virt. eigenvalues --    4.30056   4.30810   4.30934   4.31730   4.32999
 Alpha virt. eigenvalues --    4.34682   4.36412   4.36678   4.39015   4.40594
 Alpha virt. eigenvalues --    4.41494   4.42139   4.45186   4.48329   4.50504
 Alpha virt. eigenvalues --    4.57657   4.60261   4.75463   4.76649   4.83952
 Alpha virt. eigenvalues --    4.85798   4.92598   4.95462   4.98866   5.00498
 Alpha virt. eigenvalues --    5.06405   5.07324   5.08279   5.08704   5.12038
 Alpha virt. eigenvalues --    5.12809   5.14610   5.16221   5.30749   5.34699
 Alpha virt. eigenvalues --    5.40557   5.58100   5.59251   5.63048   5.84779
 Alpha virt. eigenvalues --    5.88164   5.98835   7.01298   7.04193   7.05877
 Alpha virt. eigenvalues --    7.09055   7.12049   7.12541   7.13082   7.16949
 Alpha virt. eigenvalues --    7.26477   7.36419   7.39852   7.48946   7.54026
 Alpha virt. eigenvalues --    7.55516   7.63373  23.94979  23.98471  24.06443
 Alpha virt. eigenvalues --   24.07317  24.09933  24.12140  24.12966  24.15941
 Alpha virt. eigenvalues --   24.18372  24.19698  50.17909  50.18983  50.24191
          Condensed to atoms (all electrons):
               1          2          3          4          5          6
     1  C    5.793929   0.378299  -0.029671   0.110760  -0.000615  -0.000794
     2  C    0.378299   7.979874  -1.163074   0.112934  -0.012913  -0.011714
     3  C   -0.029671  -1.163074   7.929362   0.082188  -0.024087   0.102367
     4  C    0.110760   0.112934   0.082188   5.922986   0.002999  -0.003858
     5  O   -0.000615  -0.012913  -0.024087   0.002999   8.334267   0.075188
     6  C   -0.000794  -0.011714   0.102367  -0.003858   0.075188   5.394659
     7  C   -0.078936  -0.622612   0.114728  -0.074536   0.000999   0.001980
     8  C    0.018824   0.542119  -1.125362   0.016999  -0.003433  -0.076190
     9  C    0.018943   0.297997  -0.878968  -0.011031   0.202404  -0.181041
    10  C   -0.001016  -0.109607   0.069619   0.010187  -0.033480   0.089662
    11  O   -0.071992   0.116203   0.027796   0.028216   0.000097  -0.000104
    12  O   -0.023128   0.289381  -0.064617  -0.081266  -0.000030   0.000062
    13  C   -0.374135  -1.804982   0.532144  -0.563449   0.002787   0.008256
    14  H    0.484951   0.003011  -0.004853  -0.023051   0.000002  -0.000022
    15  H    0.440555   0.023933   0.001274  -0.045061  -0.000018   0.000002
    16  H   -0.003049  -0.052034   0.593736  -0.013296   0.008158   0.007496
    17  H   -0.003196   0.021609  -0.002882   0.423851   0.000261  -0.000367
    18  H   -0.111302  -0.080020  -0.017419   0.466094   0.001965  -0.000443
    19  H   -0.000145  -0.002580  -0.008040  -0.000191  -0.071486   0.427161
    20  H    0.000489  -0.000432   0.051865  -0.000005  -0.038619   0.456701
    21  H   -0.101363   0.011183  -0.010179   0.000647   0.000049   0.000008
    22  H   -0.025022  -0.008287   0.000883  -0.006875   0.000011   0.000116
    23  H   -0.001844   0.025429   0.035501  -0.018477  -0.000612   0.002824
    24  H    0.000938  -0.008788  -0.036600   0.005894  -0.001695   0.003106
    25  H    0.000171  -0.001133  -0.012966   0.000998  -0.008349  -0.082758
    26  H    0.000032   0.000426   0.013277  -0.000325   0.008918  -0.035508
    27  H   -0.041183  -0.173600   0.015733  -0.033856  -0.000432   0.002214
    28  H   -0.016318  -0.108549   0.029087  -0.010118   0.003855  -0.006452
    29  H    0.018875   0.532456  -0.117486  -0.060318  -0.000619  -0.001938
    30  H   -0.007513  -0.043616   0.169339   0.008152  -0.046938   0.002274
    31  H    0.010986   0.033584  -0.097295   0.002989  -0.063091   0.000010
               7          8          9         10         11         12
     1  C   -0.078936   0.018824   0.018943  -0.001016  -0.071992  -0.023128
     2  C   -0.622612   0.542119   0.297997  -0.109607   0.116203   0.289381
     3  C    0.114728  -1.125362  -0.878968   0.069619   0.027796  -0.064617
     4  C   -0.074536   0.016999  -0.011031   0.010187   0.028216  -0.081266
     5  O    0.000999  -0.003433   0.202404  -0.033480   0.000097  -0.000030
     6  C    0.001980  -0.076190  -0.181041   0.089662  -0.000104   0.000062
     7  C    5.561877  -0.049824  -0.028998  -0.011587   0.127555   0.000046
     8  C   -0.049824   6.728225   0.359445  -0.597597  -0.010877   0.003684
     9  C   -0.028998   0.359445   5.949063   0.105934  -0.010800   0.014306
    10  C   -0.011587  -0.597597   0.105934   6.210799  -0.004835   0.015008
    11  O    0.127555  -0.010877  -0.010800  -0.004835   8.304184  -0.005585
    12  O    0.000046   0.003684   0.014306   0.015008  -0.005585   8.317383
    13  C    0.434493  -0.273270  -0.179914  -0.023447  -0.004889   0.041575
    14  H   -0.070475   0.000401   0.000593  -0.000347  -0.003993  -0.000832
    15  H   -0.040450   0.000043  -0.000530   0.000267   0.008066  -0.001494
    16  H    0.012624  -0.030816  -0.152872  -0.047268   0.002984  -0.092825
    17  H    0.005817   0.000487   0.003476   0.000428   0.000048   0.000250
    18  H    0.018711   0.007022   0.004351  -0.002307   0.000387   0.015664
    19  H    0.000148  -0.001862   0.021999  -0.027029  -0.000017   0.000525
    20  H   -0.000206  -0.004207  -0.035667  -0.060357  -0.000080  -0.002155
    21  H    0.491771  -0.003087   0.004604   0.000591  -0.038418  -0.013072
    22  H    0.435073  -0.001091  -0.001131  -0.000619  -0.073321   0.000559
    23  H    0.003817   0.477256  -0.062986  -0.109060   0.004291  -0.005098
    24  H   -0.003327   0.388886   0.009601   0.044303  -0.001257   0.006963
    25  H   -0.000018   0.012370   0.000691   0.455044   0.000202   0.000924
    26  H   -0.000111  -0.054471  -0.000381   0.441845  -0.000069  -0.001801
    27  H    0.025755  -0.012761  -0.008996  -0.001592  -0.008788   0.008803
    28  H    0.013676   0.000722  -0.006651  -0.006661   0.013495  -0.004303
    29  H   -0.021201   0.041029   0.029538  -0.000015  -0.091015  -0.036102
    30  H   -0.004028  -0.102559   0.297357  -0.002638  -0.000012  -0.012408
    31  H   -0.007929   0.013278   0.491941   0.007994  -0.000481   0.006369
              13         14         15         16         17         18
     1  C   -0.374135   0.484951   0.440555  -0.003049  -0.003196  -0.111302
     2  C   -1.804982   0.003011   0.023933  -0.052034   0.021609  -0.080020
     3  C    0.532144  -0.004853   0.001274   0.593736  -0.002882  -0.017419
     4  C   -0.563449  -0.023051  -0.045061  -0.013296   0.423851   0.466094
     5  O    0.002787   0.000002  -0.000018   0.008158   0.000261   0.001965
     6  C    0.008256  -0.000022   0.000002   0.007496  -0.000367  -0.000443
     7  C    0.434493  -0.070475  -0.040450   0.012624   0.005817   0.018711
     8  C   -0.273270   0.000401   0.000043  -0.030816   0.000487   0.007022
     9  C   -0.179914   0.000593  -0.000530  -0.152872   0.003476   0.004351
    10  C   -0.023447  -0.000347   0.000267  -0.047268   0.000428  -0.002307
    11  O   -0.004889  -0.003993   0.008066   0.002984   0.000048   0.000387
    12  O    0.041575  -0.000832  -0.001494  -0.092825   0.000250   0.015664
    13  C    7.444441  -0.021783  -0.011079   0.050646  -0.066888   0.053273
    14  H   -0.021783   0.474462  -0.005415  -0.000099  -0.003650   0.001832
    15  H   -0.011079  -0.005415   0.486152  -0.000482  -0.008423  -0.007940
    16  H    0.050646  -0.000099  -0.000482   0.461182  -0.000108   0.002236
    17  H   -0.066888  -0.003650  -0.008423  -0.000108   0.474392  -0.012327
    18  H    0.053273   0.001832  -0.007940   0.002236  -0.012327   0.508141
    19  H    0.000735  -0.000004   0.000000  -0.002617   0.000014  -0.000047
    20  H    0.002756  -0.000002   0.000000   0.002051  -0.000062   0.000058
    21  H    0.003792   0.002357   0.003960  -0.001713  -0.000300  -0.002757
    22  H    0.019818  -0.003918  -0.011549   0.000470   0.000908  -0.001790
    23  H    0.004116  -0.000012  -0.000374   0.013032   0.000433  -0.000791
    24  H   -0.012703  -0.000045   0.000100  -0.009030  -0.000082   0.000027
    25  H   -0.000324   0.000012   0.000000  -0.000829   0.000021   0.000043
    26  H    0.000796  -0.000003   0.000002  -0.000860   0.000003  -0.000066
    27  H    0.585233   0.000367  -0.003452   0.001529  -0.009412   0.011395
    28  H    0.422708  -0.000335   0.001094   0.000560  -0.008960   0.002318
    29  H   -0.045138   0.000320   0.001782  -0.006991   0.000758  -0.001517
    30  H    0.048195   0.000283  -0.000199   0.009510  -0.001172  -0.001829
    31  H   -0.031331   0.000136   0.000644  -0.011755   0.000448  -0.011604
              19         20         21         22         23         24
     1  C   -0.000145   0.000489  -0.101363  -0.025022  -0.001844   0.000938
     2  C   -0.002580  -0.000432   0.011183  -0.008287   0.025429  -0.008788
     3  C   -0.008040   0.051865  -0.010179   0.000883   0.035501  -0.036600
     4  C   -0.000191  -0.000005   0.000647  -0.006875  -0.018477   0.005894
     5  O   -0.071486  -0.038619   0.000049   0.000011  -0.000612  -0.001695
     6  C    0.427161   0.456701   0.000008   0.000116   0.002824   0.003106
     7  C    0.000148  -0.000206   0.491771   0.435073   0.003817  -0.003327
     8  C   -0.001862  -0.004207  -0.003087  -0.001091   0.477256   0.388886
     9  C    0.021999  -0.035667   0.004604  -0.001131  -0.062986   0.009601
    10  C   -0.027029  -0.060357   0.000591  -0.000619  -0.109060   0.044303
    11  O   -0.000017  -0.000080  -0.038418  -0.073321   0.004291  -0.001257
    12  O    0.000525  -0.002155  -0.013072   0.000559  -0.005098   0.006963
    13  C    0.000735   0.002756   0.003792   0.019818   0.004116  -0.012703
    14  H   -0.000004  -0.000002   0.002357  -0.003918  -0.000012  -0.000045
    15  H    0.000000   0.000000   0.003960  -0.011549  -0.000374   0.000100
    16  H   -0.002617   0.002051  -0.001713   0.000470   0.013032  -0.009030
    17  H    0.000014  -0.000062  -0.000300   0.000908   0.000433  -0.000082
    18  H   -0.000047   0.000058  -0.002757  -0.001790  -0.000791   0.000027
    19  H    0.465393  -0.007870  -0.000020   0.000006  -0.000782   0.001364
    20  H   -0.007870   0.500481   0.000008  -0.000008  -0.009091   0.000326
    21  H   -0.000020   0.000008   0.488826  -0.013456  -0.000228   0.000151
    22  H    0.000006  -0.000008  -0.013456   0.468807   0.000361  -0.000153
    23  H   -0.000782  -0.009091  -0.000228   0.000361   0.486252  -0.026604
    24  H    0.001364   0.000326   0.000151  -0.000153  -0.026604   0.465210
    25  H   -0.003190   0.001508  -0.000026  -0.000007   0.000665  -0.006036
    26  H   -0.009458   0.005351   0.000001  -0.000014  -0.006166  -0.011540
    27  H    0.000051   0.000354  -0.000926  -0.000153  -0.002910   0.000392
    28  H   -0.000264  -0.002158  -0.000138   0.001791  -0.009604  -0.000418
    29  H   -0.000617   0.000655   0.000203   0.002252  -0.011953  -0.003021
    30  H   -0.002645   0.003895   0.001778  -0.000618   0.002390  -0.000813
    31  H    0.003257  -0.003042  -0.001383   0.000076  -0.001946  -0.000434
              25         26         27         28         29         30
     1  C    0.000171   0.000032  -0.041183  -0.016318   0.018875  -0.007513
     2  C   -0.001133   0.000426  -0.173600  -0.108549   0.532456  -0.043616
     3  C   -0.012966   0.013277   0.015733   0.029087  -0.117486   0.169339
     4  C    0.000998  -0.000325  -0.033856  -0.010118  -0.060318   0.008152
     5  O   -0.008349   0.008918  -0.000432   0.003855  -0.000619  -0.046938
     6  C   -0.082758  -0.035508   0.002214  -0.006452  -0.001938   0.002274
     7  C   -0.000018  -0.000111   0.025755   0.013676  -0.021201  -0.004028
     8  C    0.012370  -0.054471  -0.012761   0.000722   0.041029  -0.102559
     9  C    0.000691  -0.000381  -0.008996  -0.006651   0.029538   0.297357
    10  C    0.455044   0.441845  -0.001592  -0.006661  -0.000015  -0.002638
    11  O    0.000202  -0.000069  -0.008788   0.013495  -0.091015  -0.000012
    12  O    0.000924  -0.001801   0.008803  -0.004303  -0.036102  -0.012408
    13  C   -0.000324   0.000796   0.585233   0.422708  -0.045138   0.048195
    14  H    0.000012  -0.000003   0.000367  -0.000335   0.000320   0.000283
    15  H    0.000000   0.000002  -0.003452   0.001094   0.001782  -0.000199
    16  H   -0.000829  -0.000860   0.001529   0.000560  -0.006991   0.009510
    17  H    0.000021   0.000003  -0.009412  -0.008960   0.000758  -0.001172
    18  H    0.000043  -0.000066   0.011395   0.002318  -0.001517  -0.001829
    19  H   -0.003190  -0.009458   0.000051  -0.000264  -0.000617  -0.002645
    20  H    0.001508   0.005351   0.000354  -0.002158   0.000655   0.003895
    21  H   -0.000026   0.000001  -0.000926  -0.000138   0.000203   0.001778
    22  H   -0.000007  -0.000014  -0.000153   0.001791   0.002252  -0.000618
    23  H    0.000665  -0.006166  -0.002910  -0.009604  -0.011953   0.002390
    24  H   -0.006036  -0.011540   0.000392  -0.000418  -0.003021  -0.000813
    25  H    0.474208  -0.009363  -0.000190   0.001463  -0.000027  -0.002649
    26  H   -0.009363   0.487538  -0.000059  -0.000184   0.000870  -0.000960
    27  H   -0.000190  -0.000059   0.453335  -0.010206  -0.011088   0.005241
    28  H    0.001463  -0.000184  -0.010206   0.541375  -0.001892  -0.031744
    29  H   -0.000027   0.000870  -0.011088  -0.001892   0.479921  -0.006683
    30  H   -0.002649  -0.000960   0.005241  -0.031744  -0.006683   0.539405
    31  H    0.000159   0.001489  -0.001922   0.002419   0.001835  -0.029532
              31
     1  C    0.010986
     2  C    0.033584
     3  C   -0.097295
     4  C    0.002989
     5  O   -0.063091
     6  C    0.000010
     7  C   -0.007929
     8  C    0.013278
     9  C    0.491941
    10  C    0.007994
    11  O   -0.000481
    12  O    0.006369
    13  C   -0.031331
    14  H    0.000136
    15  H    0.000644
    16  H   -0.011755
    17  H    0.000448
    18  H   -0.011604
    19  H    0.003257
    20  H   -0.003042
    21  H   -0.001383
    22  H    0.000076
    23  H   -0.001946
    24  H   -0.000434
    25  H    0.000159
    26  H    0.001489
    27  H   -0.001922
    28  H    0.002419
    29  H    0.001835
    30  H   -0.029532
    31  H    0.479271
 Mulliken charges:
               1
     1  C   -0.386532
     2  C   -0.164497
     3  C   -0.175402
     4  C   -0.250178
     5  O   -0.335543
     6  C   -0.172898
     7  C   -0.234832
     8  C   -0.263382
     9  C   -0.252277
    10  C   -0.412216
    11  O   -0.306993
    12  O   -0.376783
    13  C   -0.242433
    14  H    0.170114
    15  H    0.168593
    16  H    0.260430
    17  H    0.184626
    18  H    0.158644
    19  H    0.218210
    20  H    0.137462
    21  H    0.177137
    22  H    0.216883
    23  H    0.212171
    24  H    0.195284
    25  H    0.179385
    26  H    0.170791
    27  H    0.211120
    28  H    0.190392
    29  H    0.307129
    30  H    0.210735
    31  H    0.204860
 Sum of Mulliken charges =  -0.00000
 Mulliken charges with hydrogens summed into heavy atoms:
               1
     1  C   -0.047825
     2  C    0.142632
     3  C    0.085028
     4  C    0.093091
     5  O   -0.335543
     6  C    0.182774
     7  C    0.159188
     8  C    0.144073
     9  C    0.163317
    10  C   -0.062039
    11  O   -0.306993
    12  O   -0.376783
    13  C    0.159079
 Electronic spatial extent (au):  <R**2>=           2965.4250
 Charge=              0.0000 electrons
 Dipole moment (field-independent basis, Debye):
    X=             -0.5194    Y=              0.7062    Z=              2.7927  Tot=              2.9270
 Quadrupole moment (field-independent basis, Debye-Ang):
   XX=            -76.4043   YY=            -84.0303   ZZ=            -79.7474
   XY=             10.4832   XZ=             -5.2115   YZ=              0.2807
 Traceless Quadrupole moment (field-independent basis, Debye-Ang):
   XX=              3.6564   YY=             -3.9696   ZZ=              0.3132
   XY=             10.4832   XZ=             -5.2115   YZ=              0.2807
 Octapole moment (field-independent basis, Debye-Ang**2):
  XXX=              4.1865  YYY=             -1.3121  ZZZ=             -2.5408  XYY=             -3.0715
  XXY=             -4.8018  XXZ=             10.7091  XZZ=              4.3006  YZZ=             -0.9114
  YYZ=              2.6466  XYZ=             -6.2849
 Hexadecapole moment (field-independent basis, Debye-Ang**3):
 XXXX=          -2845.2518 YYYY=           -583.6566 ZZZZ=           -359.3957 XXXY=             39.8921
 XXXZ=            -83.2240 YYYX=             15.5318 YYYZ=             -1.4178 ZZZX=              0.5104
 ZZZY=             -1.7129 XXYY=           -633.5107 XXZZ=           -558.8895 YYZZ=           -153.1989
 XXYZ=             23.8617 YYXZ=             -6.6986 ZZXY=              1.8906
 N-N= 8.982599955424D+02 E-N=-3.238091997948D+03  KE= 6.153251187568D+02
 D1PCM: PCM CHGder 1st derivatives, ID1Alg=3 FixD1E=F DoIter=F DoCFld=F I1PDM=0.
 Calling FoFJK, ICntrl=      2127 FMM=F ISym2X=0 I1Cent= 0 IOpClX= 0 NMat=1 NMatS=1 NMatT=0.
 ***** Axes restored to original set *****
 -------------------------------------------------------------------
 Center     Atomic                   Forces (Hartrees/Bohr)
 Number     Number              X              Y              Z
 -------------------------------------------------------------------
      1        6           0.002373767    0.000022176   -0.001428513
      2        6          -0.004231652   -0.007330567   -0.002166442
      3        6          -0.003616469   -0.000515616    0.007886589
      4        6          -0.000444932    0.003686101    0.000282722
      5        8           0.004069627   -0.004468140   -0.006797059
      6        6          -0.005068469    0.004191369   -0.002327672
      7        6           0.002949081   -0.003821513    0.005142108
      8        6           0.002054788   -0.002741003   -0.004423421
      9        6           0.005342217    0.006184092    0.000560102
     10        6          -0.001667265   -0.001507379    0.001982557
     11        8          -0.000948818    0.009427742    0.002832207
     12        8          -0.002520325   -0.003995869   -0.008411347
     13        6          -0.000977550   -0.000471235   -0.002872732
     14        1          -0.001420945    0.001453680    0.002620015
     15        1          -0.001381366   -0.002144513   -0.001216145
     16        1           0.003515225    0.001729839   -0.004773708
     17        1          -0.000544890   -0.001792454    0.001676146
     18        1           0.002520285   -0.000580504   -0.003227008
     19        1           0.004226125   -0.000591529   -0.000721829
     20        1          -0.001814162   -0.001595181    0.005756492
     21        1           0.003249602   -0.002730338   -0.004480741
     22        1          -0.003733904    0.002294646   -0.000969886
     23        1          -0.002204876   -0.002379338    0.004164412
     24        1          -0.001059239    0.003257927   -0.000243051
     25        1           0.000798923    0.000905235   -0.002980282
     26        1           0.001291453    0.001532953    0.002283546
     27        1          -0.001780285    0.001162501    0.002774255
     28        1           0.004535556   -0.001732514    0.001211815
     29        1           0.003232891    0.006178321    0.004951876
     30        1          -0.004108193   -0.001918348    0.006621056
     31        1          -0.002636200   -0.001710543   -0.003706063
 -------------------------------------------------------------------
 Cartesian Forces:  Max     0.009427742 RMS     0.003464687

 GradGradGradGradGradGradGradGradGradGradGradGradGradGradGradGradGradGrad
 Berny optimization.
 FormGI is forming the generalized inverse of G from B-inverse, IUseBI=4.
 Internal  Forces:  Max     0.016999713 RMS     0.002350171
 Search for a local minimum.
 Step number   1 out of a maximum of  186
 All quantities printed in internal units (Hartrees-Bohrs-Radians)
 Mixed Optimization -- RFO/linear search
 Second derivative matrix not updated -- first step.
 ITU=  0
     Eigenvalues ---    0.00630   0.00634   0.00718   0.00725   0.01406
     Eigenvalues ---    0.01416   0.01436   0.02646   0.02695   0.03072
     Eigenvalues ---    0.03176   0.04061   0.04079   0.04651   0.04740
     Eigenvalues ---    0.04830   0.04857   0.05016   0.05126   0.05167
     Eigenvalues ---    0.05232   0.05656   0.05752   0.06134   0.06137
     Eigenvalues ---    0.06402   0.06664   0.06803   0.07394   0.07656
     Eigenvalues ---    0.07839   0.07953   0.08024   0.08046   0.08243
     Eigenvalues ---    0.08353   0.09084   0.09546   0.10782   0.11592
     Eigenvalues ---    0.11601   0.11705   0.11769   0.12408   0.12506
     Eigenvalues ---    0.14589   0.14889   0.15994   0.16678   0.17996
     Eigenvalues ---    0.19115   0.21521   0.21999   0.25000   0.28435
     Eigenvalues ---    0.28454   0.28538   0.28856   0.28964   0.29068
     Eigenvalues ---    0.30094   0.30236   0.35077   0.35100   0.35128
     Eigenvalues ---    0.35180   0.35184   0.35242   0.35309   0.35310
     Eigenvalues ---    0.35318   0.35376   0.35376   0.35497   0.35542
     Eigenvalues ---    0.35670   0.35831   0.35838   0.35863   0.36238
     Eigenvalues ---    0.40615   0.41507   0.42157   0.42334   0.43966
     Eigenvalues ---    0.442811000.000001000.000001000.000001000.00000
     Eigenvalues --- 1000.000001000.000001000.000001000.000001000.00000
     Eigenvalues --- 1000.000001000.000001000.000001000.000001000.00000
     Eigenvalues --- 1000.000001000.000001000.000001000.000001000.00000
     Eigenvalues --- 1000.000001000.000001000.000001000.000001000.00000
     Eigenvalues --- 1000.000001000.000001000.000001000.000001000.00000
     Eigenvalues --- 1000.000001000.000001000.000001000.000001000.00000
     Eigenvalues --- 1000.000001000.000001000.000001000.000001000.00000
     Eigenvalues --- 1000.000001000.000001000.000001000.000001000.00000
     Eigenvalues --- 1000.000001000.000001000.000001000.000001000.00000
     Eigenvalues --- 1000.000001000.000001000.000001000.000001000.00000
     Eigenvalues --- 1000.000001000.000001000.000001000.000001000.00000
     Eigenvalues --- 1000.000001000.000001000.000001000.000001000.00000
     Eigenvalues --- 1000.000001000.000001000.000001000.000001000.00000
     Eigenvalues --- 1000.000001000.000001000.000001000.000001000.00000
     Eigenvalues --- 1000.000001000.000001000.000001000.000001000.00000
     Eigenvalues --- 1000.000001000.000001000.000001000.000001000.00000
     Eigenvalues --- 1000.000001000.000001000.000001000.000001000.00000
     Eigenvalues --- 1000.000001000.000001000.000001000.000001000.00000
     Eigenvalues --- 1000.000001000.000001000.000001000.000001000.00000
 RFO step:  Lambda=-4.40624049D-03 EMin= 6.30180648D-03
 Linear search not attempted -- first point.
 Iteration  1 RMS(Cart)=  0.07878129 RMS(Int)=  0.00118918
 Iteration  2 RMS(Cart)=  0.00311071 RMS(Int)=  0.00008823
 Iteration  3 RMS(Cart)=  0.00000414 RMS(Int)=  0.00008821
 Iteration  4 RMS(Cart)=  0.00000000 RMS(Int)=  0.00008821
 Iteration  1 RMS(Cart)=  0.00003381 RMS(Int)=  0.00000668
 Iteration  2 RMS(Cart)=  0.00001806 RMS(Int)=  0.00000747
 Iteration  3 RMS(Cart)=  0.00000964 RMS(Int)=  0.00000841
 Iteration  4 RMS(Cart)=  0.00000515 RMS(Int)=  0.00000902
 Iteration  5 RMS(Cart)=  0.00000275 RMS(Int)=  0.00000937
 Iteration  6 RMS(Cart)=  0.00000147 RMS(Int)=  0.00000956
 Iteration  7 RMS(Cart)=  0.00000078 RMS(Int)=  0.00000967
 Variable       Old X    -DE/DX   Delta X   Delta X   Delta X     New X
                                 (Linear)    (Quad)   (Total)
    R1        2.88801  -0.00093   0.00000  -0.00150  -0.00154   2.88647
    R2        2.87046   0.00023   0.00000   0.00223   0.00229   2.87275
    R3        2.05513   0.00325   0.00000   0.00914   0.00914   2.06426
    R4        2.05283   0.00279   0.00000   0.00782   0.00782   2.06065
    R5        2.64581   0.00070   0.00000   0.00052   0.00057   2.64638
    R6        2.66120   0.00283   0.00000   0.00632   0.00632   2.66752
    R7        2.88073  -0.00046   0.00000  -0.00308  -0.00313   2.87760
    R8        2.03710   0.00853   0.00000   0.02326   0.02326   2.06036
    R9        2.88359  -0.00211   0.00000  -0.00639  -0.00637   2.87722
   R10        2.88506  -0.00043   0.00000  -0.00073  -0.00069   2.88437
   R11        2.68500  -0.00070   0.00000  -0.00163  -0.00163   2.68337
   R12        2.04805   0.00595   0.00000   0.01654   0.01654   2.06459
   R13        2.88864  -0.00193   0.00000  -0.00671  -0.00672   2.88192
   R14        2.05162   0.00251   0.00000   0.00702   0.00702   2.05865
   R15        2.05378   0.00394   0.00000   0.01106   0.01106   2.06484
   R16        2.67639   0.00354   0.00000   0.00777   0.00775   2.68413
   R17        2.66856   0.00291   0.00000   0.00666   0.00668   2.67524
   R18        2.87280   0.00050   0.00000   0.00093   0.00088   2.87368
   R19        2.04347   0.00432   0.00000   0.01192   0.01192   2.05539
   R20        2.05550   0.00612   0.00000   0.01723   0.01723   2.07273
   R21        2.68962   0.00297   0.00000   0.00711   0.00711   2.69673
   R22        2.04876   0.00606   0.00000   0.01687   0.01687   2.06563
   R23        2.04296   0.00448   0.00000   0.01235   0.01235   2.05531
   R24        2.89618  -0.00077   0.00000  -0.00276  -0.00278   2.89339
   R25        2.05174   0.00519   0.00000   0.01453   0.01453   2.06627
   R26        2.05069   0.00341   0.00000   0.00952   0.00952   2.06020
   R27        2.05068   0.00770   0.00000   0.02151   0.02151   2.07219
   R28        2.04336   0.00476   0.00000   0.01313   0.01313   2.05649
   R29        2.05384   0.00313   0.00000   0.00878   0.00878   2.06262
   R30        2.05176   0.00302   0.00000   0.00844   0.00844   2.06020
   R31        2.05468   0.00349   0.00000   0.00982   0.00982   2.06450
   R32        2.04601   0.00498   0.00000   0.01379   0.01379   2.05980
    A1        1.92201  -0.00130   0.00000  -0.00334  -0.00363   1.91839
    A2        1.91524   0.00096   0.00000   0.00085   0.00095   1.91619
    A3        1.94090  -0.00050   0.00000  -0.00310  -0.00303   1.93787
    A4        1.90655   0.00027   0.00000  -0.00041  -0.00027   1.90628
    A5        1.90232   0.00066   0.00000   0.00297   0.00300   1.90533
    A6        1.87597  -0.00004   0.00000   0.00322   0.00318   1.87915
    A7        1.85445   0.00172   0.00000   0.00886   0.00919   1.86364
    A8        1.92964   0.00408   0.00000   0.02065   0.02055   1.95019
    A9        1.83366  -0.00176   0.00000  -0.00249  -0.00255   1.83112
   A10        1.99086  -0.00565   0.00000  -0.02797  -0.02795   1.96291
   A11        1.91511   0.00273   0.00000   0.00950   0.00924   1.92435
   A12        1.93211  -0.00068   0.00000  -0.00574  -0.00580   1.92631
   A13        1.93009  -0.00019   0.00000  -0.00890  -0.00907   1.92102
   A14        2.02812  -0.00182   0.00000  -0.01726  -0.01754   2.01058
   A15        1.88392   0.00070   0.00000   0.00824   0.00833   1.89225
   A16        1.92500   0.00032   0.00000  -0.00873  -0.00913   1.91587
   A17        1.86818  -0.00019   0.00000   0.00540   0.00543   1.87360
   A18        1.81827   0.00140   0.00000   0.02582   0.02595   1.84422
   A19        1.91187   0.00142   0.00000  -0.00499  -0.00500   1.90687
   A20        1.93017   0.00003   0.00000   0.00371   0.00383   1.93400
   A21        1.91529  -0.00076   0.00000  -0.00086  -0.00103   1.91426
   A22        1.91680  -0.00044   0.00000   0.00250   0.00245   1.91925
   A23        1.92233  -0.00085   0.00000  -0.00635  -0.00631   1.91602
   A24        1.86705   0.00055   0.00000   0.00619   0.00619   1.87324
   A25        1.97606  -0.00478   0.00000  -0.02708  -0.02702   1.94904
   A26        1.93655   0.00213   0.00000   0.00870   0.00873   1.94528
   A27        1.85631  -0.00124   0.00000  -0.00340  -0.00340   1.85291
   A28        1.90240   0.00064   0.00000   0.00718   0.00720   1.90960
   A29        1.94391  -0.00040   0.00000  -0.00337  -0.00338   1.94054
   A30        1.93076  -0.00172   0.00000  -0.00998  -0.01003   1.92073
   A31        1.89167   0.00061   0.00000   0.00128   0.00124   1.89291
   A32        1.94576   0.00279   0.00000   0.00895   0.00900   1.95476
   A33        1.93321  -0.00187   0.00000  -0.00866  -0.00874   1.92446
   A34        1.94616  -0.00025   0.00000  -0.00205  -0.00199   1.94416
   A35        1.90958   0.00001   0.00000   0.00034   0.00037   1.90995
   A36        1.83842  -0.00151   0.00000  -0.00260  -0.00264   1.83579
   A37        1.88751   0.00083   0.00000   0.00434   0.00433   1.89183
   A38        1.89543   0.00125   0.00000   0.00045   0.00048   1.89591
   A39        1.92987  -0.00100   0.00000  -0.00777  -0.00777   1.92209
   A40        1.92786  -0.00039   0.00000  -0.00091  -0.00094   1.92692
   A41        1.90309  -0.00033   0.00000   0.00062   0.00059   1.90368
   A42        1.92718   0.00012   0.00000   0.00557   0.00556   1.93274
   A43        1.88045   0.00034   0.00000   0.00205   0.00204   1.88250
   A44        1.91890   0.00189   0.00000   0.01193   0.01205   1.93095
   A45        1.94383  -0.00253   0.00000  -0.01825  -0.01834   1.92549
   A46        1.92518  -0.00086   0.00000  -0.00854  -0.00870   1.91648
   A47        1.91071   0.00124   0.00000   0.01193   0.01198   1.92269
   A48        1.86553  -0.00038   0.00000   0.00497   0.00497   1.87050
   A49        1.89791   0.00073   0.00000  -0.00104  -0.00125   1.89666
   A50        1.93287  -0.00107   0.00000  -0.00715  -0.00721   1.92566
   A51        1.90451  -0.00002   0.00000  -0.00121  -0.00120   1.90331
   A52        1.90763   0.00072   0.00000   0.00455   0.00455   1.91218
   A53        1.91973   0.00068   0.00000   0.00012   0.00011   1.91985
   A54        1.92295  -0.00024   0.00000   0.00057   0.00060   1.92354
   A55        1.87514  -0.00002   0.00000   0.00347   0.00346   1.87860
   A56        2.03265  -0.00608   0.00000  -0.04159  -0.04142   1.99123
   A57        2.14981  -0.01700   0.00000  -0.06682  -0.06682   2.08299
   A58        1.95514  -0.00175   0.00000  -0.01903  -0.01916   1.93598
   A59        1.86219   0.00037   0.00000   0.01023   0.01021   1.87240
   A60        1.91824   0.00059   0.00000  -0.00375  -0.00376   1.91449
   A61        1.91007   0.00138   0.00000   0.01099   0.01115   1.92122
   A62        1.94707  -0.00031   0.00000  -0.00189  -0.00213   1.94495
   A63        1.86705  -0.00016   0.00000   0.00529   0.00528   1.87233
    D1        0.92323   0.00000   0.00000   0.01063   0.01071   0.93394
    D2        3.03827   0.00040   0.00000   0.01286   0.01295   3.05122
    D3       -1.18922   0.00063   0.00000   0.02216   0.02225  -1.16697
    D4       -1.17608  -0.00013   0.00000   0.01269   0.01273  -1.16336
    D5        0.93896   0.00027   0.00000   0.01492   0.01496   0.95392
    D6        2.99466   0.00050   0.00000   0.02422   0.02427   3.01892
    D7        3.03385  -0.00038   0.00000   0.01008   0.01007   3.04392
[...]
 .22902125,0.00011381,0.00000210,0.00004217,0.00017534,0.00005196,0.000
 13226,-0.00001057,0.00001317,-0.00002032,0.00000147,-0.00000124,-0.000
 00217,0.00000658,0.00000208,0.00000267,-0.00011746,0.00026491,0.000366
 66,0.00000759,0.00000850,-0.00000026,-0.00000491,-0.00000394,0.0000001
 9,-0.00032022,0.00043037,0.00031603,-0.00030588,-0.00015673,0.00113623
 ,0.00000098,0.00000431,-0.00000057,0.00000907,0.00000208,0.00000320,0.
 00018019,-0.00034632,0.00111996,0.00031658,-0.00018517,0.00026985,-0.0
 9158729,-0.09823841,0.24581863,0.00001143,-0.00001421,-0.00001625,0.00
 108872,-0.00038728,-0.00105047,-0.00432596,0.00335284,0.00365720,0.000
 01643,0.00000399,0.00002858,0.00151433,0.00223869,0.00055526,0.0017394
 9,0.00083418,0.00547514,0.00010441,0.00011219,0.00003015,-0.01678834,-
 0.01456186,-0.02651466,-0.00037213,0.00076628,0.00013907,-0.09973091,-
 0.04947188,-0.09564641,-0.00043660,0.00006045,0.00001743,-0.00284788,-
 0.00126199,-0.00138321,-0.00006100,0.00004803,0.00005752,-0.00000622,0
 .00000072,0.00001014,-0.00001605,-0.00001115,-0.00000357,0.00016031,0.
 00017364,-0.00010943,-0.00002416,-0.00002274,0.00000878,0.00000536,0.0
 0002706,0.00001067,-0.00003532,-0.00068991,0.00002944,0.00022202,-0.00
 023130,-0.00007971,0.00000178,-0.00000432,0.00003012,-0.00003685,-0.00
 000159,0.00000414,0.00140653,-0.00034270,0.00028811,0.00151600,0.00030
 344,0.00008985,0.00559075,0.00614995,0.00947926,0.11098605,-0.00000295
 ,-0.00000130,0.00000547,-0.00008134,0.00009033,0.00015531,0.00161814,0
 .00007236,-0.00005791,0.00000403,-0.00000258,-0.00000804,-0.00097170,-
 0.00965202,-0.00270675,-0.01609043,-0.00756981,-0.02600146,-0.00000522
 ,-0.00000687,0.00000083,0.00289477,0.00291555,0.00658839,0.00240357,-0
 .00009367,0.00016153,-0.04947080,-0.09422307,-0.08552875,0.00002211,-0
 .00001270,-0.00001815,0.00071717,0.00050546,0.00024561,0.00001840,-0.0
 0001029,0.00000066,-0.00000207,0.00000177,-0.00000141,-0.00000060,0.00
 000076,-0.00000114,0.00002286,-0.00016083,-0.00029926,-0.00000168,0.00
 000037,0.00000173,0.00000828,0.00000574,0.00000627,0.00066460,0.001023
 31,0.00010374,-0.00034405,0.00111851,0.00088022,0.00000023,-0.00000133
 ,-0.00000471,0.00000147,-0.00000054,-0.00000251,-0.00038837,0.00012680
 ,-0.00019460,-0.00058270,0.00028849,0.00036391,0.00705541,0.00583266,0
 .01059274,0.05309447,0.09962350,0.00000142,-0.00000896,-0.00000468,0.0
 0014625,-0.00005725,-0.00011495,0.00090607,0.00001309,0.00075403,0.000
 00042,0.00000808,0.00000858,-0.00028633,-0.00079128,0.00136221,0.00087
 553,0.00145984,-0.00088701,0.00002663,0.00003363,0.00001802,0.00244974
 ,0.00224974,0.00254813,0.00048065,0.00031000,-0.00007106,-0.09698035,-
 0.08734373,-0.21752892,-0.00012429,-0.00000230,-0.00002482,-0.00012468
 ,-0.00009000,0.00039319,-0.00000813,-0.00000413,0.00001842,-0.00000262
 ,0.00000161,0.00000165,-0.00000609,-0.00000263,-0.00000205,0.00003728,
 0.00015105,0.00040623,-0.00000751,-0.00000815,0.00000145,0.00000502,0.
 00000782,0.00000406,0.00011846,-0.00031284,0.00010299,0.00015748,-0.00
 051617,0.00025695,0.00000175,-0.00000398,0.00000068,-0.00000877,-0.000
 00218,-0.00000341,-0.00038958,0.00018026,0.00064250,-0.00039715,0.0001
 8450,-0.00005148,-0.01152262,-0.01108298,-0.01999584,0.10478437,0.0957
 0882,0.23223654,0.00139594,-0.00013231,-0.00051071,-0.00501476,0.00368
 701,0.00258914,0.00094505,0.00025995,-0.00042235,0.00866787,-0.0059985
 2,-0.01541555,-0.00053637,-0.00006390,0.00016309,0.00010823,0.00006808
 ,0.00013883,-0.00002604,-0.00008393,-0.00009965,-0.00014335,0.00008168
 ,-0.00027565,0.00037339,0.00042719,-0.00056002,0.00006573,-0.00009071,
 0.00000228,0.00068440,0.00027709,-0.00078437,0.00027031,-0.00166561,0.
 00213424,-0.11594966,0.04309766,0.10678394,-0.00015567,-0.00007049,0.0
 0037521,0.00013031,-0.00002647,0.00026532,-0.00014235,-0.00005050,0.00
 002962,0.00070063,0.00072366,0.00058712,-0.00144048,-0.00264346,-0.002
 17420,-0.00003407,0.00000434,-0.00000910,0.00002230,-0.00001152,-0.000
 02454,-0.00004938,-0.00000453,0.00002212,0.00003212,0.00002720,-0.0000
 0653,-0.00006347,-0.00001980,0.00020512,-0.00001467,-0.00007007,0.0000
 3828,-0.00004700,0.00001043,0.00003188,-0.00004597,-0.00000876,-0.0000
 1738,0.12401203,0.00101808,0.00068891,0.00090200,-0.01299928,0.0092419
 6,0.01969862,0.00140850,-0.00037078,0.00022888,0.01231404,-0.00990651,
 -0.02101388,0.00010133,0.00017502,-0.00011794,-0.00001681,-0.00005386,
 0.00000364,-0.00024988,-0.00022797,0.00012736,-0.00015233,0.00011772,0
 .00009728,-0.00014644,-0.00035842,0.00020068,0.00000783,-0.00004684,-0
 .00008490,-0.00031928,0.00091635,-0.00118882,-0.00267958,-0.00347572,0
 .00678286,0.04505536,-0.07556365,-0.06860177,-0.00050764,0.00041833,0.
 00013427,-0.00006151,-0.00008284,0.00035746,-0.00034518,0.00005411,-0.
 00004509,0.00059032,0.00072404,0.00067928,-0.00344630,-0.00284085,-0.0
 0234489,0.00000007,0.00000981,-0.00000039,-0.00000245,0.00000696,-0.00
 000206,-0.00003059,-0.00006769,-0.00001167,0.00003232,0.00008598,-0.00
 005056,0.00003571,-0.00002431,-0.00012155,0.00002848,0.00000252,-0.000
 00791,0.00000975,0.00000132,0.00000024,-0.00003987,0.00001122,-0.00000
 552,-0.04504025,0.08376482,0.00088043,0.00028163,0.00019415,0.01019835
 ,-0.00925628,-0.01612196,-0.00140599,0.00038934,-0.00037999,0.00686138
 ,-0.00530864,-0.01207121,0.00010529,-0.00013287,0.00011749,-0.00001248
 ,0.00002280,-0.00006753,-0.00019848,-0.00006594,-0.00032670,0.00013977
 ,-0.00012183,-0.00005662,-0.00011521,0.00022680,0.00002038,-0.00002311
 ,0.00005307,0.00009550,-0.00041985,-0.00042501,0.00173790,0.00264849,0
 .00363844,-0.00363374,0.10441905,-0.06593397,-0.21413858,-0.00054966,0
 .00021482,-0.00007746,-0.00016303,0.00003825,0.00028619,0.00038779,-0.
 00006038,0.00000906,-0.00021656,0.00014213,0.00077516,-0.00161608,-0.0
 0197007,-0.00033273,0.00001234,-0.00000899,0.00000670,-0.00000152,-0.0
 0000466,0.00001079,0.00004299,-0.00003481,0.00012215,-0.00001351,0.000
 05371,-0.00001958,0.00004279,0.00003361,-0.00002201,-0.00000594,0.0000
 0906,-0.00000507,-0.00000337,-0.00000209,-0.00000369,0.00005138,-0.000
 00740,0.00001194,-0.11602379,0.07486150,0.23359145,-0.00030844,-0.0039
 2380,-0.00174974,0.00365055,-0.00155663,0.00272892,0.00007816,0.000238
 74,-0.00043730,-0.01399062,0.00625241,-0.00412918,-0.00032003,-0.00016
 167,0.00032098,0.00007416,-0.00002856,0.00011748,-0.00010483,-0.000496
 25,0.00050969,-0.00051752,-0.00034856,-0.00037729,-0.00075735,0.000836
 27,0.00019285,-0.00002383,-0.00006841,0.00015388,0.00182465,-0.0012804
 3,0.00096018,0.00116218,0.00012833,-0.00087196,-0.25615522,0.08460453,
 -0.07572826,0.00032830,-0.00011151,0.00019175,-0.00088558,0.00068337,-
 0.00069466,0.00002291,0.00002230,-0.00005142,0.00028262,0.00001391,0.0
 0048210,0.00069196,-0.00003531,-0.00000433,-0.00000053,0.00000797,-0.0
 0003002,0.00007121,0.00004599,-0.00009433,0.00003116,0.00002951,-0.000
 05499,0.00001741,0.00015217,-0.00001191,-0.00100162,-0.00107768,0.0005
 0859,-0.00005212,-0.00003116,0.00007594,-0.00006573,0.00001316,0.00002
 759,0.00001254,-0.00000564,-0.00000446,-0.01369128,0.00550900,-0.00480
 284,0.28101181,-0.00220444,-0.00407527,-0.00273690,0.02464362,-0.00585
 671,0.00365470,-0.00013424,-0.00008306,0.00086016,-0.02282838,0.010639
 20,-0.00751615,0.00003587,0.00000728,-0.00009566,-0.00001018,0.0000791
 9,0.00003270,-0.00126581,-0.00163564,-0.00089452,-0.00021405,-0.000177
 50,0.00059397,0.00010059,-0.00025785,-0.00016880,-0.00005754,0.0001183
 4,-0.00016272,0.00214371,-0.00560070,0.00642886,-0.00077911,0.00124301
 ,-0.00148059,0.08279611,-0.08179226,0.03248329,0.00004097,-0.00003892,
 0.00012133,-0.00136154,0.00062563,-0.00078063,-0.00007066,-0.00003502,
 -0.00009657,0.00061777,0.00096070,0.00086586,0.00096091,0.00090254,0.0
 0029652,0.00001555,-0.00002538,-0.00001114,-0.00002549,0.00000092,0.00
 001800,0.00011966,0.00022413,0.00014008,0.00017994,0.00026128,0.000080
 65,-0.00097146,-0.00076566,-0.00022100,0.00011151,0.00009497,-0.000181
 24,0.00011451,-0.00002729,-0.00003454,0.00002423,-0.00000315,0.0000127
 7,0.00786101,-0.00422116,0.00317771,-0.09051843,0.08900848,-0.00071689
 ,-0.00296136,-0.00051139,-0.01912394,0.00461022,-0.00658630,0.00021123
 ,0.00067502,-0.00076810,-0.01296567,0.00560479,-0.00565817,-0.00080414
 ,-0.00016788,0.00020124,0.00017371,0.00012045,0.00019920,0.00073979,0.
 00037992,0.00090888,0.00002918,0.00000266,-0.00032749,0.00104959,0.000
 36095,-0.00105022,0.00006537,-0.00010547,0.00005162,-0.00120826,0.0047
 1176,-0.00264225,0.00056755,-0.00125301,0.00157655,-0.07289331,0.03057
 292,-0.07484837,-0.00033488,0.00017645,0.00007492,-0.00074337,0.000401
 50,-0.00003451,0.00005777,-0.00016158,0.00011233,0.00054537,-0.0000338
 1,0.00048572,0.00025843,0.00051189,0.00028765,-0.00005284,-0.00000065,
 -0.00001258,0.00005249,-0.00001551,-0.00004328,-0.00001128,-0.00007488
 ,-0.00009015,-0.00004761,-0.00004510,-0.00001582,-0.00004491,0.0000397
 9,0.00053212,-0.00009764,-0.00012702,0.00009029,-0.00007660,0.00001366
 ,0.00003685,-0.00003966,-0.00001926,-0.00002054,0.02250942,-0.00931986
 ,0.00933975,0.08126421,-0.03254552,0.07887293,-0.00005745,0.00011828,-
 0.00033062,-0.09308292,-0.08443331,-0.05206379,0.00284813,0.00031089,0
 .00017040,0.00085362,-0.00005387,0.00050075,-0.00013162,0.00004471,-0.
 00006840,0.00004668,0.00009453,0.00005562,-0.00155260,0.00476639,-0.00
 049164,-0.00324461,0.00081780,-0.00030215,-0.00017404,-0.00003417,-0.0
 0015336,0.00005148,0.00001547,0.00059929,-0.02867607,-0.02177634,-0.02
 276603,0.00509560,0.01701487,0.01865497,0.00143781,-0.00406274,-0.0014
 4859,-0.00003175,-0.00000973,0.00011271,0.00001821,-0.00016961,0.00015
 274,0.00007706,-0.00005376,-0.00004794,-0.00003944,-0.00005947,-0.0000
 5398,-0.00008870,-0.00011820,-0.00003516,-0.00000745,-0.00002591,-0.00
 004770,-0.00000546,0.00000469,-0.00000153,-0.00022739,-0.00032878,-0.0
 0037397,-0.00088255,-0.00087065,-0.00074595,-0.00195767,0.00017048,-0.
 00011641,-0.00146344,-0.00035626,-0.00018449,-0.00005366,0.00002250,-0
 .00001301,0.00009631,-0.00001837,0.00000167,0.00006897,-0.00005501,-0.
 00019013,0.00009004,-0.00042460,0.00046963,0.12104007,0.00062486,0.000
 08558,0.00030065,-0.09068492,-0.21349039,-0.09730076,-0.00225851,0.000
 53567,-0.00092185,0.00035130,-0.00223849,0.00487298,0.00030581,-0.0000
 4884,0.00008919,-0.00020101,-0.00016555,-0.00011449,0.00223604,-0.0000
 0508,0.00141741,-0.00092578,0.00019443,-0.00027484,-0.00002458,0.00001
 345,0.00014149,0.00017285,0.00016402,0.00068527,0.00924517,0.01330766,
 0.00852315,0.00432776,-0.00266594,-0.01002267,-0.01274842,-0.01885180,
 -0.01144165,-0.00008758,0.00005946,-0.00002621,-0.00009521,0.00015230,
 -0.00020334,0.00028671,0.00002733,0.00008680,-0.00098230,-0.00117470,-
 0.00088718,0.00024871,0.00014469,-0.00011522,-0.00000934,0.00008586,0.
 00000885,0.00001526,0.00000918,0.00000400,0.00010792,0.00007252,0.0001
 5832,0.00035342,0.00034778,0.00024124,0.00056377,-0.00056994,0.0006002
 5,-0.00065633,0.00039758,-0.00019518,-0.00022440,0.00004111,0.00005008
 ,0.00005449,-0.00002610,-0.00002911,-0.00016376,0.00080723,0.00032963,
 0.00058806,0.00051681,-0.00021941,0.08958934,0.22219990,-0.00043748,-0
 .00013111,-0.00032302,-0.04992279,-0.08974638,-0.10735669,-0.00486463,
 -0.00029614,-0.00038654,-0.00025068,0.00300553,-0.00295082,0.00053451,
 -0.00033497,0.00017693,-0.00020387,-0.00010523,-0.00017704,-0.00090803
 ,0.00229421,0.00117455,-0.00039113,0.00003675,0.00057699,0.00033175,0.
 00046915,0.00006292,0.00000327,0.00033226,0.00036374,-0.01396050,-0.00
 902099,-0.00721423,0.00238039,-0.02648119,-0.02824985,0.00906031,0.016
 01854,0.01143400,0.00005593,-0.00006370,0.00000654,0.00008991,-0.00017
 601,0.00010747,0.00015882,0.00000877,-0.00009146,0.00077417,0.00101063
 ,0.00054360,-0.00003815,0.00014976,0.00010879,0.00002493,0.00005629,0.
 00003377,0.00000639,0.00000530,0.00002386,0.00016582,0.00002931,0.0000
 6062,-0.00040152,-0.00047207,-0.00026842,-0.00068068,0.00024302,0.0002
 9638,0.00036842,0.00047544,0.00009807,-0.00009389,0.00000807,-0.000002
 43,0.00009612,-0.00001581,-0.00001423,-0.00005511,-0.00096242,0.000816
 96,-0.00059024,-0.00068278,0.00031082,0.05874930,0.10423744,0.13073320
 ,-0.00003189,0.00007965,-0.00007642,0.00003989,0.00031892,-0.00002144,
 0.00406250,0.00353411,-0.00655209,-0.00008503,-0.00002885,0.00027019,-
 0.03516819,-0.01328769,0.02936676,0.00270744,0.00110389,0.00638156,-0.
 00000770,-0.00000135,-0.00005398,-0.00015506,-0.00060842,0.00010480,-0
 .06880176,-0.03427375,0.05891768,-0.00038501,-0.00012526,-0.00071427,0
 .00008710,-0.00011128,0.00008343,0.00155049,-0.00189914,0.00035393,-0.
 00096728,0.00037775,0.00084647,0.00003683,-0.00003090,-0.00001241,0.00
 004214,-0.00000390,0.00001527,-0.00022287,0.00212884,0.00020980,0.0000
 1591,-0.00000789,0.00001140,0.00002793,-0.00007109,-0.00019656,0.00014
 845,0.00027544,-0.00039232,0.00059684,0.00029536,-0.00140570,-0.000004
 24,0.00000302,0.00000403,0.00000477,-0.00001525,0.00001256,0.00005558,
 -0.00017951,0.00016934,-0.00005066,-0.00002922,-0.00000608,-0.00002009
 ,0.00013192,-0.00002684,0.00012839,-0.00027470,-0.00011124,-0.00006938
 ,-0.00004746,-0.00002093,-0.00149679,0.00106619,0.00126059,-0.00001341
 ,-0.00002156,0.00000326,0.09223848,-0.00004292,-0.00012409,-0.00003038
 ,0.00009545,-0.00060311,0.00079132,-0.01212752,-0.01563104,0.03033636,
 0.00003669,0.00026021,0.00003428,0.00198524,0.00624332,-0.00561823,-0.
 00061866,-0.00033455,0.00001095,-0.00000516,-0.00000747,0.00008351,0.0
 0003310,0.00196247,0.00143851,-0.03374216,-0.09887612,0.08943222,-0.00
 000654,-0.00015648,-0.00002469,0.00007895,0.00012044,-0.00030519,0.000
 66883,0.00264675,-0.00225650,0.00069727,-0.00014545,0.00034971,-0.0000
 0979,0.00000994,-0.00000266,-0.00005449,0.00001593,-0.00003778,0.00134
 907,-0.00604949,-0.00008930,-0.00002448,-0.00006123,0.00001962,0.00013
 623,0.00005074,-0.00002764,0.00002373,-0.00001166,-0.00017199,-0.00041
 319,-0.00024097,0.00001994,-0.00000212,-0.00000852,-0.00001491,-0.0000
 0871,0.00000860,-0.00001534,-0.00006861,-0.00021225,-0.00092861,0.0003
 4768,0.00033056,-0.00036955,0.00012345,0.00004617,-0.00001472,-0.00008
 085,0.00005672,-0.00002208,-0.00031585,0.00017990,-0.00014131,0.000533
 75,-0.00006505,-0.00105333,0.00003640,-0.00001729,-0.00005496,0.036262
 13,0.10319958,0.00006147,-0.00003793,-0.00008810,0.00001932,0.00032713
 ,-0.00054265,0.00152312,-0.00055456,-0.00181619,-0.00028116,-0.0000284
 4,0.00003289,0.00811215,-0.00103012,0.00119470,-0.00205322,-0.00130383
 ,0.00235030,0.00003850,0.00006317,-0.00001770,-0.00028176,-0.00024001,
 0.00081892,0.06219394,0.08991249,-0.23027118,0.00014481,-0.00013089,-0
 .00005138,-0.00015171,-0.00002927,0.00013071,-0.00157924,0.00046961,0.
 00062343,0.00067259,-0.00018933,-0.00106569,0.00004647,-0.00002408,0.0
 0003796,0.00000777,-0.00000089,0.00002483,-0.00008177,0.00011700,0.001
 16995,0.00006026,0.00001855,-0.00008121,-0.00029225,-0.00011641,-0.000
 18259,0.00010322,-0.00006352,0.00037881,0.00092595,0.00082790,0.000646
 80,0.00000123,0.00000230,0.00000228,-0.00000078,-0.00001850,0.00000738
 ,0.00034755,0.00040885,0.00036130,-0.00007948,0.00010437,0.00008822,-0
 .00007353,0.00007671,-0.00022441,0.00006144,0.00005494,0.00000467,0.00
 035780,-0.00017044,0.00006641,0.00202368,-0.00108020,-0.00068134,0.000
 00318,-0.00002613,0.00007478,-0.07920368,-0.09863456,0.24662640,0.0000
 0503,-0.00002983,-0.00001196,0.00001447,0.00000616,0.00020658,0.002961
 57,0.00247609,0.00584451,-0.00005036,-0.00000016,0.00002869,-0.0270267
 0,-0.01740220,-0.03266451,-0.00464909,0.00232331,0.00395696,0.00000867
 ,0.00001461,0.00001337,-0.00029913,0.00222465,0.00007444,-0.08116680,-
 0.04458167,-0.07193418,-0.00055940,0.00001376,-0.00048268,-0.00001415,
 0.00000411,-0.00006316,0.00145151,-0.00032900,0.00050580,0.00007450,0.
 00003969,0.00005314,0.00000643,-0.00000060,0.00000667,-0.00000853,0.00
 000211,-0.00000071,0.00031209,-0.00043815,-0.00024808,0.00000299,-0.00
 000894,-0.00001239,0.00001497,-0.00001678,0.00001432,-0.00100674,-0.00
 091291,-0.00136972,0.00012420,0.00012106,-0.00034389,0.00001118,-0.000
 01153,-0.00000906,-0.00000159,-0.00000131,-0.00000308,-0.00008032,-0.0
 0011496,-0.00024673,0.00041564,0.00044580,0.00034944,0.00005106,-0.000
 04012,0.00004507,0.00012652,-0.00027615,-0.00000155,-0.00005340,0.0000
 2907,-0.00000759,0.00002180,0.00003376,-0.00009331,-0.00003374,0.00001
 225,-0.00000461,0.00573659,0.00511307,0.00737416,0.10361073,0.00000487
 ,-0.00001262,0.00000061,0.00008116,0.00018855,-0.00002747,-0.01225814,
 -0.01703176,-0.02785315,0.00005034,-0.00001971,-0.00003421,0.00159638,
 0.00443216,0.00558110,0.00172544,0.00036877,0.00067875,0.00001246,-0.0
 0002369,-0.00000787,0.00274802,-0.00572386,0.00191295,-0.04902773,-0.1
 1089787,-0.10163322,0.00067785,0.00022647,0.00020549,0.00005269,0.0000
 3373,-0.00000673,-0.00110178,0.00221958,0.00109332,0.00001051,0.000070
 18,0.00015084,-0.00000067,-0.00000032,0.00000327,-0.00000367,0.0000031
 0,-0.00000207,-0.00032461,0.00163696,0.00032631,-0.00000542,0.00000373
 ,0.00000487,0.00007206,0.00002594,-0.00002850,0.00028738,0.00031916,0.
 00009123,-0.00003920,-0.00005382,-0.00030631,0.00000344,-0.00000876,-0
 .00000296,0.00000421,0.00000577,0.00000229,0.00012427,0.00007314,-0.00
 007970,-0.00095328,-0.00105498,-0.00154273,-0.00012252,0.00003631,0.00
 004783,-0.00012298,0.00009071,-0.00003791,-0.00006488,0.00003442,0.000
 00173,-0.00001544,-0.00002186,-0.00007830,-0.00015558,0.00009156,0.000
 16329,0.00544001,0.00741343,0.01129608,0.05130482,0.11757558,-0.000000
 68,0.00005511,0.00009937,-0.00010345,0.00013239,0.00002294,-0.00004352
 ,0.00260288,0.00148316,-0.00000681,-0.00017809,-0.00017910,-0.00041866
 ,0.00248382,0.00433380,0.00080134,0.00076226,0.00172641,-0.00004130,-0
 .00006655,-0.00004975,-0.00006232,-0.00009356,0.00105453,-0.08196088,-
 0.10261971,-0.22688558,0.00020545,0.00010919,-0.00003247,0.00016220,-0
 .00004347,0.00005216,0.00133483,-0.00004103,0.00017646,-0.00013432,-0.
 00005022,-0.00037142,-0.00003586,0.00001908,-0.00001216,0.00001679,-0.
 00000321,0.00000602,0.00029587,-0.00046633,0.00088603,-0.00003862,0.00
 002660,0.00005381,0.00019113,0.00011450,0.00000647,-0.00011610,-0.0002
 4716,0.00013545,0.00015439,-0.00000316,0.00043609,0.00001013,-0.000002
 99,0.00001216,0.00000589,0.00001110,0.00000701,0.00009733,0.00025447,0
 .00034666,-0.00023267,-0.00003287,0.00006787,-0.00001151,-0.00002782,0
 .00000228,-0.00006081,-0.00000302,-0.00005325,0.00014556,-0.00002438,0
 .00005489,0.00007508,-0.00007763,0.00020964,-0.00003542,0.00003131,0.0
 0003076,-0.00921713,-0.01270269,-0.01961830,0.08902407,0.11008116,0.23
 599804\\-0.00000454,-0.00000488,0.00000209,-0.00030660,-0.00052959,-0.
 00011885,0.00007099,0.00080249,-0.00015694,-0.00000437,-0.00000171,0.0
 0000353,0.00002700,-0.00000851,-0.00002172,-0.00000801,-0.00000971,-0.
 00000298,0.00002620,0.00002520,0.00001017,0.00001312,-0.00000672,-0.00
 001687,-0.00000016,0.00001346,-0.00000129,-0.00000244,0.00000508,0.000
 00087,0.00020617,0.00074302,0.00000703,-0.00002667,-0.00100693,0.00026
 460,-0.00000052,-0.00000243,0.00001271,0.00000483,0.00000167,-0.000001
 26,-0.00000927,0.00000832,-0.00000382,0.00001106,-0.00000891,0.0000022
 0,0.00000181,0.00000196,-0.00000463,-0.00000299,0.00000860,0.00000485,
 -0.00000967,-0.00000714,-0.00000193,0.00000189,0.00000139,0.00000062,-
 0.00001061,0.00000082,0.00000417,0.00000539,0.00000610,0.00000301,-0.0
 0000112,-0.00000257,0.00000252,-0.00000050,-0.00000357,0.00000715,-0.0
 0000212,-0.00000862,0.00000645,0.00000991,-0.00000514,0.00000219,0.000
 00539,-0.00000435,-0.00000725,0.00001066,0.00000351,0.00001012,-0.0000
 0292,-0.00000887,-0.00001394,-0.00000381,-0.00000159,-0.00000069,0.000
 00188,-0.00000042,0.00000789\\\@


 Spring appears, and we are once more children.
                                  -- Anonymous
 Job cpu time:       0 days 14 hours 44 minutes 30.3 seconds.
 Elapsed time:       0 days  0 hours 55 minutes 18.5 seconds.
 File lengths (MBytes):  RWF=    686 Int=      0 D2E=      0 Chk=     32 Scr=      1
 Normal termination of Gaussian 16 at Sun Nov  4 22:57:17 2018.
