 Entering Gaussian System, Link 0=g16
 Initial command:
 /apps/gaussian/g16a03/g16/l1.exe "/jobfs/local/2011941.r-man2/Gau-10312.inp" -scrdir="/jobfs/local/2011941.r-man2/"
 Entering Link 1 = /apps/gaussian/g16a03/g16/l1.exe PID=     10313.
  
 Copyright (c) 1988,1990,1992,1993,1995,1998,2003,2009,2016,
            Gaussian, Inc.  All Rights Reserved.
  
 This is part of the Gaussian(R) 16 program.  It is based on
 the Gaussian(R) 09 system (copyright 2009, Gaussian, Inc.),
 the Gaussian(R) 03 system (copyright 2003, Gaussian, Inc.),
 the Gaussian(R) 98 system (copyright 1998, Gaussian, Inc.),
 the Gaussian(R) 94 system (copyright 1995, Gaussian, Inc.),
 the Gaussian 92(TM) system (copyright 1992, Gaussian, Inc.),
 the Gaussian 90(TM) system (copyright 1990, Gaussian, Inc.),
 the Gaussian 88(TM) system (copyright 1988, Gaussian, Inc.),
 the Gaussian 86(TM) system (copyright 1986, Carnegie Mellon
 University), and the Gaussian 82(TM) system (copyright 1983,
 Carnegie Mellon University). Gaussian is a federally registered
 trademark of Gaussian, Inc.
  
 This software contains proprietary and confidential information,
 including trade secrets, belonging to Gaussian, Inc.
  
 This software is provided under written license and may be
 used, copied, transmitted, or stored only in accord with that
 written license.
  
 The following legend is applicable only to US Government
 contracts under FAR:
  
                    RESTRICTED RIGHTS LEGEND
  
 Use, reproduction and disclosure by the US Government is
 subject to restrictions as set forth in subparagraphs (a)
 and (c) of the Commercial Computer Software - Restricted
 Rights clause in FAR 52.227-19.
  
 Gaussian, Inc.
 340 Quinnipiac St., Bldg. 40, Wallingford CT 06492
  
  
 ---------------------------------------------------------------
 Warning -- This program may not be used in any manner that
 competes with the business of Gaussian, Inc. or will provide
 assistance to any competitor of Gaussian, Inc.  The licensee
 of this program is prohibited from giving any competitor of
 Gaussian, Inc. access to this program.  By using this program,
 the user acknowledges that Gaussian, Inc. is engaged in the
 business of creating and licensing software in the field of
 computational chemistry and represents and warrants to the
 licensee that it is not a competitor of Gaussian, Inc. and that
 it will not use this program in any manner prohibited above.
 ---------------------------------------------------------------
  

 Cite this work as:
 Gaussian 16, Revision A.03,
 M. J. Frisch, G. W. Trucks, H. B. Schlegel, G. E. Scuseria, 
 M. A. Robb, J. R. Cheeseman, G. Scalmani, V. Barone, 
 G. A. Petersson, H. Nakatsuji, X. Li, M. Caricato, A. V. Marenich, 
 J. Bloino, B. G. Janesko, R. Gomperts, B. Mennucci, H. P. Hratchian, 
 J. V. Ortiz, A. F. Izmaylov, J. L. Sonnenberg, D. Williams-Young, 
 F. Ding, F. Lipparini, F. Egidi, J. Goings, B. Peng, A. Petrone, 
 T. Henderson, D. Ranasinghe, V. G. Zakrzewski, J. Gao, N. Rega, 
 G. Zheng, W. Liang, M. Hada, M. Ehara, K. Toyota, R. Fukuda, 
 J. Hasegawa, M. Ishida, T. Nakajima, Y. Honda, O. Kitao, H. Nakai, 
 T. Vreven, K. Throssell, J. A. Montgomery, Jr., J. E. Peralta, 
 F. Ogliaro, M. J. Bearpark, J. J. Heyd, E. N. Brothers, K. N. Kudin, 
 V. N. Staroverov, T. A. Keith, R. Kobayashi, J. Normand, 
 K. Raghavachari, A. P. Rendell, J. C. Burant, S. S. Iyengar, 
 J. Tomasi, M. Cossi, J. M. Millam, M. Klene, C. Adamo, R. Cammi, 
 J. W. Ochterski, R. L. Martin, K. Morokuma, O. Farkas, 
 J. B. Foresman, and D. J. Fox, Gaussian, Inc., Wallingford CT, 2016.
 
 ******************************************
 Gaussian 16:  ES64L-G16RevA.03 25-Dec-2016
                 4-Nov-2018 
 ******************************************
 %mem=6000mb
 %nproc=24
 Will use up to   24 processors via shared memory.
 %chk=D_1a_4e_D_PHI.inp_extract_22.chk
 ----------------------------------------------------------------------
 #M062X/6-311++G(2d,2p) opt=ModRedundant freq=noraman SCRF=(Solvent=Wat
 er)
 ----------------------------------------------------------------------
 1/18=120,19=15,26=3,38=1/1,3;
 2/9=110,12=2,17=6,18=5,40=1/2;
 3/5=4,6=6,7=1212,11=2,25=1,30=1,70=2201,71=1,72=1,74=-55/1,2,3;
 4//1;
 5/5=2,38=5,53=1/2;
 6/7=2,8=2,9=2,10=2,28=1/1;
 7//1,2,3,16;
 1/18=20,19=15,26=3/3(2);
 2/9=110/2;
 99//99;
 2/9=110/2;
 3/5=4,6=6,7=1212,11=2,25=1,30=1,70=2205,71=1,72=1,74=-55/1,2,3;
 4/5=5,16=3,69=1/1;
 5/5=2,38=5,53=1/2;
 7//1,2,3,16;
 1/18=20,19=15,26=3/3(-5);
 2/9=110/2;
 6/7=2,8=2,9=2,10=2,19=2,28=1/1;
 99/9=1/99;
 ----------------------------
 D_1a_4e_D_PHI.inp_extract_22
 ----------------------------
 Symbolic Z-matrix:
 Charge =  0 Multiplicity = 1
 C                    -3.48667  -0.82381  -0.38616 
 C                    -1.25428   0.96937   0.00819 
 C                     0.96143   0.00471  -0.04568 
 C                    -3.18715  -0.30612   1.02079 
 O                     2.92251  -1.3956    0.13049 
 C                     3.80975  -0.29115   0.13654 
 C                    -2.21552  -0.84814  -1.21807 
 C                     1.84391   1.24868  -0.10342 
 C                     1.67088  -1.10878   0.71359 
 C                     3.22721   0.87524  -0.64403 
 O                    -1.5863    0.42726  -1.24083 
 O                    -0.25295   0.22608   0.64759 
 C                    -2.45954   1.03627   0.93263 
 H                    -4.21734  -0.17878  -0.86865 
 H                    -3.90689  -1.82497  -0.35276 
 H                     0.74888  -0.34194  -1.04939 
 H                    -4.10545  -0.18912   1.58794 
 H                    -2.57535  -1.02903   1.55354 
 H                     4.73312  -0.64106  -0.3043 
 H                     4.00832  -0.00276   1.16633 
 H                    -1.51987  -1.58609  -0.83277 
 H                    -2.42207  -1.0871   -2.25203 
 H                     1.93853   1.65497   0.90137 
 H                     1.39291   2.0146   -0.72503 
 H                     3.15391   0.59952  -1.6931 
 H                     3.9007    1.72448  -0.57834 
 H                    -3.13298   1.78845   0.53109 
 H                    -2.13495   1.37867   1.90934 
 H                    -0.88602   1.96077  -0.21191 
 H                     1.80723  -0.81923   1.75303 
 H                     1.09115  -2.02083   0.68139 
 
 The following ModRedundant input section has been read:
 D      11       2      12       3 F                                           
 

 GradGradGradGradGradGradGradGradGradGradGradGradGradGradGradGradGradGrad
 Berny optimization.
 Initialization pass.
                           ----------------------------
                           !    Initial Parameters    !
                           ! (Angstroms and Degrees)  !
 --------------------------                            --------------------------
 ! Name  Definition              Value          Derivative Info.                !
 --------------------------------------------------------------------------------
 ! R1    R(1,4)                  1.5288         estimate D2E/DX2                !
 ! R2    R(1,7)                  1.5194         estimate D2E/DX2                !
 ! R3    R(1,14)                 1.0875         estimate D2E/DX2                !
 ! R4    R(1,15)                 1.0863         estimate D2E/DX2                !
 ! R5    R(2,11)                 1.4015         estimate D2E/DX2                !
 ! R6    R(2,12)                 1.4014         estimate D2E/DX2                !
 ! R7    R(2,13)                 1.5204         estimate D2E/DX2                !
 ! R8    R(2,29)                 1.0802         estimate D2E/DX2                !
 ! R9    R(3,8)                  1.5263         estimate D2E/DX2                !
 ! R10   R(3,9)                  1.523          estimate D2E/DX2                !
 ! R11   R(3,12)                 1.4157         estimate D2E/DX2                !
 ! R12   R(3,16)                 1.0829         estimate D2E/DX2                !
 ! R13   R(4,13)                 1.5294         estimate D2E/DX2                !
 ! R14   R(4,17)                 1.0856         estimate D2E/DX2                !
 ! R15   R(4,18)                 1.0866         estimate D2E/DX2                !
 ! R16   R(5,6)                  1.4167         estimate D2E/DX2                !
 ! R17   R(5,9)                  1.4103         estimate D2E/DX2                !
 ! R18   R(6,10)                 1.5196         estimate D2E/DX2                !
 ! R19   R(6,19)                 1.0814         estimate D2E/DX2                !
 ! R20   R(6,20)                 1.0877         estimate D2E/DX2                !
 ! R21   R(7,11)                 1.4223         estimate D2E/DX2                !
 ! R22   R(7,21)                 1.0849         estimate D2E/DX2                !
 ! R23   R(7,22)                 1.0811         estimate D2E/DX2                !
 ! R24   R(8,10)                 1.5314         estimate D2E/DX2                !
 ! R25   R(8,23)                 1.0879         estimate D2E/DX2                !
 ! R26   R(8,24)                 1.0846         estimate D2E/DX2                !
 ! R27   R(9,30)                 1.0876         estimate D2E/DX2                !
 ! R28   R(9,31)                 1.0812         estimate D2E/DX2                !
 ! R29   R(10,25)                1.0872         estimate D2E/DX2                !
 ! R30   R(10,26)                1.0859         estimate D2E/DX2                !
 ! R31   R(13,27)                1.0865         estimate D2E/DX2                !
 ! R32   R(13,28)                1.0847         estimate D2E/DX2                !
 ! A1    A(4,1,7)              110.2068         estimate D2E/DX2                !
 ! A2    A(4,1,14)             109.8206         estimate D2E/DX2                !
 ! A3    A(4,1,15)             111.0743         estimate D2E/DX2                !
 ! A4    A(7,1,14)             109.1886         estimate D2E/DX2                !
 ! A5    A(7,1,15)             109.0092         estimate D2E/DX2                !
 ! A6    A(14,1,15)            107.48           estimate D2E/DX2                !
 ! A7    A(11,2,12)            111.7611         estimate D2E/DX2                !
 ! A8    A(11,2,13)            111.7824         estimate D2E/DX2                !
 ! A9    A(11,2,29)            104.7251         estimate D2E/DX2                !
 ! A10   A(12,2,13)            108.1995         estimate D2E/DX2                !
 ! A11   A(12,2,29)            109.642          estimate D2E/DX2                !
 ! A12   A(13,2,29)            110.7157         estimate D2E/DX2                !
 ! A13   A(8,3,9)              110.2058         estimate D2E/DX2                !
 ! A14   A(8,3,12)             112.7701         estimate D2E/DX2                !
 ! A15   A(8,3,16)             109.8347         estimate D2E/DX2                !
 ! A16   A(9,3,12)             105.6496         estimate D2E/DX2                !
 ! A17   A(9,3,16)             108.6291         estimate D2E/DX2                !
 ! A18   A(12,3,16)            109.6065         estimate D2E/DX2                !
 ! A19   A(1,4,13)             109.7162         estimate D2E/DX2                !
 ! A20   A(1,4,17)             110.5821         estimate D2E/DX2                !
 ! A21   A(1,4,18)             109.6479         estimate D2E/DX2                !
 ! A22   A(13,4,17)            109.7506         estimate D2E/DX2                !
 ! A23   A(13,4,18)            110.1406         estimate D2E/DX2                !
 ! A24   A(17,4,18)            106.9669         estimate D2E/DX2                !
 ! A25   A(6,5,9)              113.2973         estimate D2E/DX2                !
 ! A26   A(5,6,10)             110.8618         estimate D2E/DX2                !
 ! A27   A(5,6,19)             106.3057         estimate D2E/DX2                !
 ! A28   A(5,6,20)             108.9701         estimate D2E/DX2                !
 ! A29   A(10,6,19)            111.4881         estimate D2E/DX2                !
 ! A30   A(10,6,20)            110.6591         estimate D2E/DX2                !
 ! A31   A(19,6,20)            108.4132         estimate D2E/DX2                !
 ! A32   A(1,7,11)             111.3774         estimate D2E/DX2                !
 ! A33   A(1,7,21)             110.6651         estimate D2E/DX2                !
 ! A34   A(1,7,22)             111.5519         estimate D2E/DX2                !
 ! A35   A(11,7,21)            109.3878         estimate D2E/DX2                !
 ! A36   A(11,7,22)            105.5098         estimate D2E/DX2                !
 ! A37   A(21,7,22)            108.169          estimate D2E/DX2                !
 ! A38   A(3,8,10)             109.6865         estimate D2E/DX2                !
 ! A39   A(3,8,23)             108.6457         estimate D2E/DX2                !
 ! A40   A(3,8,24)             110.9037         estimate D2E/DX2                !
 ! A41   A(10,8,23)            109.7879         estimate D2E/DX2                !
 ! A42   A(10,8,24)            110.2108         estimate D2E/DX2                !
 ! A43   A(23,8,24)            107.563          estimate D2E/DX2                !
 ! A44   A(3,9,5)              110.8539         estimate D2E/DX2                !
 ! A45   A(3,9,30)             109.8897         estimate D2E/DX2                !
 ! A46   A(3,9,31)             110.6169         estimate D2E/DX2                !
 ! A47   A(5,9,30)             109.7576         estimate D2E/DX2                !
 ! A48   A(5,9,31)             106.9777         estimate D2E/DX2                !
 ! A49   A(30,9,31)            108.6784         estimate D2E/DX2                !
 ! A50   A(6,10,8)             110.6171         estimate D2E/DX2                !
 ! A51   A(6,10,25)            109.0778         estimate D2E/DX2                !
 ! A52   A(6,10,26)            109.3575         estimate D2E/DX2                !
 ! A53   A(8,10,25)            109.9737         estimate D2E/DX2                !
 ! A54   A(8,10,26)            110.3757         estimate D2E/DX2                !
 ! A55   A(25,10,26)           107.3698         estimate D2E/DX2                !
 ! A56   A(2,11,7)             115.9375         estimate D2E/DX2                !
 ! A57   A(2,12,3)             118.1895         estimate D2E/DX2                !
 ! A58   A(2,13,4)             111.9347         estimate D2E/DX2                !
 ! A59   A(2,13,27)            107.2832         estimate D2E/DX2                !
 ! A60   A(2,13,28)            108.9149         estimate D2E/DX2                !
 ! A61   A(4,13,27)            109.515          estimate D2E/DX2                !
 ! A62   A(4,13,28)            111.5624         estimate D2E/DX2                !
 ! A63   A(27,13,28)           107.44           estimate D2E/DX2                !
 ! D1    D(7,1,4,13)            52.9686         estimate D2E/DX2                !
 ! D2    D(7,1,4,17)           174.1683         estimate D2E/DX2                !
 ! D3    D(7,1,4,18)           -68.1178         estimate D2E/DX2                !
 ! D4    D(14,1,4,13)          -67.3595         estimate D2E/DX2                !
 ! D5    D(14,1,4,17)           53.8402         estimate D2E/DX2                !
 ! D6    D(14,1,4,18)          171.5541         estimate D2E/DX2                !
 ! D7    D(15,1,4,13)          173.8855         estimate D2E/DX2                !
 ! D8    D(15,1,4,17)          -64.9149         estimate D2E/DX2                !
 ! D9    D(15,1,4,18)           52.7991         estimate D2E/DX2                !
 ! D10   D(4,1,7,11)           -54.9803         estimate D2E/DX2                !
 ! D11   D(4,1,7,21)            66.9334         estimate D2E/DX2                !
 ! D12   D(4,1,7,22)          -172.5837         estimate D2E/DX2                !
 ! D13   D(14,1,7,11)           65.7275         estimate D2E/DX2                !
 ! D14   D(14,1,7,21)         -172.3588         estimate D2E/DX2                !
 ! D15   D(14,1,7,22)          -51.8759         estimate D2E/DX2                !
 ! D16   D(15,1,7,11)         -177.1252         estimate D2E/DX2                !
 ! D17   D(15,1,7,21)          -55.2115         estimate D2E/DX2                !
 ! D18   D(15,1,7,22)           65.2714         estimate D2E/DX2                !
 ! D19   D(12,2,11,7)           66.8041         estimate D2E/DX2                !
 ! D20   D(13,2,11,7)          -54.6402         estimate D2E/DX2                !
 ! D21   D(29,2,11,7)         -174.5668         estimate D2E/DX2                !
 ! D22   D(11,2,12,3)           55.0601         Frozen                          !
 ! D23   D(13,2,12,3)          178.5534         estimate D2E/DX2                !
 ! D24   D(29,2,12,3)          -60.6023         estimate D2E/DX2                !
 ! D25   D(11,2,13,4)           51.2247         estimate D2E/DX2                !
 ! D26   D(11,2,13,27)         -68.9375         estimate D2E/DX2                !
 ! D27   D(11,2,13,28)         175.0597         estimate D2E/DX2                !
 ! D28   D(12,2,13,4)          -72.2556         estimate D2E/DX2                !
 ! D29   D(12,2,13,27)         167.5821         estimate D2E/DX2                !
 ! D30   D(12,2,13,28)          51.5793         estimate D2E/DX2                !
 ! D31   D(29,2,13,4)          167.5697         estimate D2E/DX2                !
 ! D32   D(29,2,13,27)          47.4075         estimate D2E/DX2                !
 ! D33   D(29,2,13,28)         -68.5953         estimate D2E/DX2                !
 ! D34   D(9,3,8,10)            52.377          estimate D2E/DX2                !
 ! D35   D(9,3,8,23)           -67.6361         estimate D2E/DX2                !
 ! D36   D(9,3,8,24)           174.3437         estimate D2E/DX2                !
 ! D37   D(12,3,8,10)          170.1664         estimate D2E/DX2                !
 ! D38   D(12,3,8,23)           50.1533         estimate D2E/DX2                !
 ! D39   D(12,3,8,24)          -67.8669         estimate D2E/DX2                !
 ! D40   D(16,3,8,10)          -67.2671         estimate D2E/DX2                !
 ! D41   D(16,3,8,23)          172.7198         estimate D2E/DX2                !
 ! D42   D(16,3,8,24)           54.6996         estimate D2E/DX2                !
 ! D43   D(8,3,9,5)            -56.3476         estimate D2E/DX2                !
 ! D44   D(8,3,9,30)            65.1529         estimate D2E/DX2                !
 ! D45   D(8,3,9,31)          -174.848          estimate D2E/DX2                !
 ! D46   D(12,3,9,5)          -178.4473         estimate D2E/DX2                !
 ! D47   D(12,3,9,30)          -56.9469         estimate D2E/DX2                !
 ! D48   D(12,3,9,31)           63.0522         estimate D2E/DX2                !
 ! D49   D(16,3,9,5)            64.0248         estimate D2E/DX2                !
 ! D50   D(16,3,9,30)         -174.4747         estimate D2E/DX2                !
 ! D51   D(16,3,9,31)          -54.4756         estimate D2E/DX2                !
 ! D52   D(8,3,12,2)            74.3493         estimate D2E/DX2                !
 ! D53   D(9,3,12,2)          -165.2135         estimate D2E/DX2                !
 ! D54   D(16,3,12,2)          -48.3449         estimate D2E/DX2                !
 ! D55   D(1,4,13,2)           -51.3681         estimate D2E/DX2                !
 ! D56   D(1,4,13,27)           67.4822         estimate D2E/DX2                !
 ! D57   D(1,4,13,28)         -173.7047         estimate D2E/DX2                !
 ! D58   D(17,4,13,2)         -173.0671         estimate D2E/DX2                !
 ! D59   D(17,4,13,27)         -54.2169         estimate D2E/DX2                !
 ! D60   D(17,4,13,28)          64.5962         estimate D2E/DX2                !
 ! D61   D(18,4,13,2)           69.4208         estimate D2E/DX2                !
 ! D62   D(18,4,13,27)        -171.7289         estimate D2E/DX2                !
 ! D63   D(18,4,13,28)         -52.9158         estimate D2E/DX2                !
 ! D64   D(9,5,6,10)           -60.3326         estimate D2E/DX2                !
 ! D65   D(9,5,6,19)           178.3407         estimate D2E/DX2                !
 ! D66   D(9,5,6,20)            61.6893         estimate D2E/DX2                !
 ! D67   D(6,5,9,3)             60.9402         estimate D2E/DX2                !
 ! D68   D(6,5,9,30)           -60.6378         estimate D2E/DX2                !
 ! D69   D(6,5,9,31)          -178.3776         estimate D2E/DX2                !
 ! D70   D(5,6,10,8)            55.173          estimate D2E/DX2                !
 ! D71   D(5,6,10,25)          -65.9105         estimate D2E/DX2                !
 ! D72   D(5,6,10,26)          176.9396         estimate D2E/DX2                !
 ! D73   D(19,6,10,8)          173.3977         estimate D2E/DX2                !
 ! D74   D(19,6,10,25)          52.3141         estimate D2E/DX2                !
 ! D75   D(19,6,10,26)         -64.8357         estimate D2E/DX2                !
 ! D76   D(20,6,10,8)          -65.8568         estimate D2E/DX2                !
 ! D77   D(20,6,10,25)         173.0597         estimate D2E/DX2                !
 ! D78   D(20,6,10,26)          55.9098         estimate D2E/DX2                !
 ! D79   D(1,7,11,2)            57.0566         estimate D2E/DX2                !
 ! D80   D(21,7,11,2)          -65.594          estimate D2E/DX2                !
 ! D81   D(22,7,11,2)          178.2562         estimate D2E/DX2                !
 ! D82   D(3,8,10,6)           -52.0459         estimate D2E/DX2                !
 ! D83   D(3,8,10,25)           68.505          estimate D2E/DX2                !
 ! D84   D(3,8,10,26)         -173.2114         estimate D2E/DX2                !
 ! D85   D(23,8,10,6)           67.2682         estimate D2E/DX2                !
 ! D86   D(23,8,10,25)        -172.1809         estimate D2E/DX2                !
 ! D87   D(23,8,10,26)         -53.8973         estimate D2E/DX2                !
 ! D88   D(24,8,10,6)         -174.4256         estimate D2E/DX2                !
 ! D89   D(24,8,10,25)         -53.8747         estimate D2E/DX2                !
 ! D90   D(24,8,10,26)          64.4089         estimate D2E/DX2                !
 --------------------------------------------------------------------------------
 Trust Radius=3.00D-01 FncErr=1.00D-07 GrdErr=1.00D-06 EigMax=2.50D+02 EigMin=1.00D-04
 Number of steps in this run=    186 maximum allowed number of steps=    186.
 GradGradGradGradGradGradGradGradGradGradGradGradGradGradGradGradGradGrad

                          Input orientation:                          
 ---------------------------------------------------------------------
 Center     Atomic      Atomic             Coordinates (Angstroms)
 Number     Number       Type             X           Y           Z
 ---------------------------------------------------------------------
      1          6           0       -3.486667   -0.823812   -0.386157
      2          6           0       -1.254278    0.969365    0.008185
      3          6           0        0.961425    0.004711   -0.045679
      4          6           0       -3.187151   -0.306124    1.020793
      5          8           0        2.922505   -1.395601    0.130485
      6          6           0        3.809751   -0.291147    0.136535
      7          6           0       -2.215517   -0.848142   -1.218065
      8          6           0        1.843911    1.248682   -0.103420
      9          6           0        1.670877   -1.108775    0.713585
     10          6           0        3.227209    0.875241   -0.644034
     11          8           0       -1.586304    0.427256   -1.240826
     12          8           0       -0.252946    0.226078    0.647593
     13          6           0       -2.459538    1.036266    0.932626
     14          1           0       -4.217343   -0.178775   -0.868648
     15          1           0       -3.906888   -1.824974   -0.352755
     16          1           0        0.748878   -0.341942   -1.049387
     17          1           0       -4.105451   -0.189119    1.587942
     18          1           0       -2.575352   -1.029026    1.553544
     19          1           0        4.733119   -0.641058   -0.304301
     20          1           0        4.008322   -0.002760    1.166330
     21          1           0       -1.519865   -1.586094   -0.832770
     22          1           0       -2.422073   -1.087100   -2.252034
     23          1           0        1.938532    1.654970    0.901369
     24          1           0        1.392912    2.014596   -0.725026
     25          1           0        3.153913    0.599522   -1.693095
     26          1           0        3.900697    1.724477   -0.578344
     27          1           0       -3.132976    1.788448    0.531092
     28          1           0       -2.134953    1.378674    1.909344
     29          1           0       -0.886022    1.960765   -0.211909
     30          1           0        1.807228   -0.819230    1.753032
     31          1           0        1.091149   -2.020832    0.681393
 ---------------------------------------------------------------------
                    Distance matrix (angstroms):
                    1          2          3          4          5
     1  C    0.000000
     2  C    2.890424   0.000000
     3  C    4.537389   2.417188   0.000000
     4  C    1.528797   2.527498   4.294725   0.000000
     5  O    6.455335   4.801410   2.416142   6.269570   0.000000
     6  C    7.334484   5.220130   2.869442   7.052572   1.416708
     7  C    1.519370   2.393951   3.492106   2.500068   5.340184
     8  C    5.726276   3.112756   1.526296   5.384502   2.865364
     9  C    5.281183   3.656882   1.523041   4.933463   1.410265
    10  C    6.930326   4.529677   2.499926   6.731366   2.418563
    11  O    2.430434   1.401482   2.845671   2.866265   5.052985
    12  O    3.553570   1.401422   1.415742   3.005341   3.602878
    13  C    2.500814   1.520434   3.704615   1.529446   5.960184
    14  H    1.087547   3.296485   5.246959   2.155806   7.311386
    15  H    1.086290   3.869748   5.209848   2.170613   6.859919
    16  H    4.314153   2.617369   1.082947   4.447387   2.688299
    17  H    2.163977   3.459321   5.327243   1.085644   7.278183
    18  H    2.152916   2.850778   4.016829   1.086604   5.690862
    19  H    8.222225   6.208062   3.835307   8.037334   2.009153
    20  H    7.698000   5.475517   3.279116   7.203336   2.047432
    21  H    2.156119   2.703352   3.050733   2.802474   4.549593
    22  H    2.164296   3.271297   4.184270   3.450603   5.859700
    23  H    6.102038   3.385538   2.138923   5.489333   3.296733
    24  H    5.655235   2.939000   2.165025   5.423154   3.834188
    25  H    6.916015   4.739545   2.806204   6.956614   2.712842
    26  H    7.816896   5.242898   3.446831   7.544413   3.345771
    27  H    2.791119   2.115144   4.503166   2.151737   6.853284
    28  H    3.456501   2.134837   3.911195   2.176049   6.036458
    29  H    3.814130   1.080244   2.695708   3.457388   5.087957
    30  H    5.709770   3.951757   2.151656   5.073783   2.051513
    31  H    4.850662   3.859471   2.155989   4.621609   2.012033
                    6          7          8          9         10
     6  C    0.000000
     7  C    6.200729   0.000000
     8  C    2.508621   4.702984   0.000000
     9  C    2.361416   4.347788   2.501008   0.000000
    10  C    1.519574   5.737842   1.531416   2.863847   0.000000
    11  O    5.615215   1.422346   3.706050   4.097358   4.871012
    12  O    4.127252   2.913128   2.450826   2.342495   3.768447
    13  C    6.457536   2.869845   4.431499   4.659346   5.903463
    14  H    8.090566   2.139498   6.273915   6.167617   7.522151
    15  H    7.882801   2.136281   6.525429   5.723765   7.633567
    16  H    3.282976   3.012031   2.150357   2.132179   2.790693
    17  H    8.047820   3.446714   6.350030   5.914071   7.738377
    18  H    6.581939   2.800717   5.240550   4.329244   6.490400
    19  H    1.081380   7.011518   3.458178   3.260702   2.163873
    20  H    1.087693   6.718347   2.804113   2.625242   2.158342
    21  H    5.569672   1.084877   4.459024   3.577692   5.350561
    22  H    6.721193   1.081137   5.317052   5.054464   6.192805
    23  H    2.806030   5.292796   1.087945   2.783018   2.157994
    24  H    3.449616   4.632399   1.084628   3.449973   2.160864
    25  H    2.137981   5.581412   2.159764   3.302996   1.087162
    26  H    2.140575   6.666010   2.163863   3.829947   1.085865
    27  H    7.258226   3.294372   5.046123   5.612861   6.531984
    28  H    6.424224   3.840037   4.460883   4.701232   5.960366
    29  H    5.219464   3.266476   2.823361   4.100774   4.275952
    30  H    2.627172   5.001073   2.779212   1.087602   3.260905
    31  H    3.267947   3.989634   3.445621   1.081189   3.834938
                   11         12         13         14         15
    11  O    0.000000
    12  O    2.320440   0.000000
    13  C    2.420191   2.367846   0.000000
    14  H    2.725464   4.263723   2.794779   0.000000
    15  H    3.353553   4.307993   3.454522   1.752855   0.000000
    16  H    2.466047   2.050863   4.015192   4.972187   4.935670
    17  H    3.837701   3.987285   2.154075   2.459159   2.545929
    18  H    3.302647   2.790986   2.159718   3.047306   2.457742
    19  H    6.477151   5.149648   7.488506   8.980143   8.720879
    20  H    6.105666   4.298821   6.554953   8.475475   8.263089
    21  H    2.055359   2.660926   3.297936   3.042733   2.446499
    22  H    2.003578   3.851933   3.827812   2.441681   2.521189
    23  H    4.303574   2.628443   4.441485   6.662610   6.917498
    24  H    3.414883   2.791367   4.306543   6.025485   6.555056
    25  H    4.764859   4.150297   6.212567   7.457940   7.584827
    26  H    5.677045   4.582671   6.573375   8.343214   8.579503
    27  H    2.717486   3.278589   1.086520   2.646713   3.799598
    28  H    3.336133   2.542134   1.084701   3.805159   4.303511
    29  H    1.975023   2.036828   2.154208   4.013308   4.845337
    30  H    4.693929   2.561051   4.724534   6.601427   6.172275
    31  H    4.105705   2.618461   4.692158   5.828884   5.107661
                   16         17         18         19         20
    16  H    0.000000
    17  H    5.526606   0.000000
    18  H    4.277597   1.745804   0.000000
    19  H    4.064333   9.050147   7.550884   0.000000
    20  H    3.955809   8.126857   6.674423   1.759406   0.000000
    21  H    2.596542   3.807445   2.668121   6.346037   6.088037
    22  H    3.472254   4.287837   3.809106   7.428956   7.362811
    23  H    3.034532   6.356239   5.291910   3.812493   2.665015
    24  H    2.464399   6.359102   5.495692   4.287947   3.806222
    25  H    2.661749   8.005343   6.783606   2.441655   3.044515
    26  H    3.798148   8.511936   7.352954   2.522654   2.457401
    27  H    4.701624   2.444056   3.048690   8.275012   7.389864
    28  H    4.475611   2.538530   2.473371   7.493327   6.340367
    29  H    2.945628   4.269214   3.861284   6.192961   5.450649
    30  H    3.033391   5.948451   4.392131   3.581229   2.419847
    31  H    2.435451   5.584054   3.897122   4.017377   3.580178
                   21         22         23         24         25
    21  H    0.000000
    22  H    1.754219   0.000000
    23  H    5.047003   6.039683   0.000000
    24  H    4.632585   5.148435   1.752767   0.000000
    25  H    5.230801   5.852241   3.053255   2.457787   0.000000
    26  H    6.356658   7.119243   2.458551   2.528769   1.750965
    27  H    3.981178   4.064474   5.086759   4.702408   6.773886
    28  H    4.085018   4.845570   4.205429   4.448610   6.446452
    29  H    3.656150   3.976310   3.051394   2.336606   4.513089
    30  H    4.282990   5.830891   2.619969   3.787215   3.962601
    31  H    3.049439   4.671143   3.778620   4.284128   4.093830
                   26         27         28         29         30
    26  H    0.000000
    27  H    7.120920   0.000000
    28  H    6.537373   1.750298   0.000000
    29  H    4.806536   2.372877   2.529501   0.000000
    30  H    4.035886   5.718281   4.516194   4.340848   0.000000
    31  H    4.848488   5.690030   4.844816   4.534348   1.762109
                   31
    31  H    0.000000
 Stoichiometry    C10H18O3
 Framework group  C1[X(C10H18O3)]
 Deg. of freedom    87
 Full point group                 C1      NOp   1
 Largest Abelian subgroup         C1      NOp   1
 Largest concise Abelian subgroup C1      NOp   1
                         Standard orientation:                         
 ---------------------------------------------------------------------
 Center     Atomic      Atomic             Coordinates (Angstroms)
 Number     Number       Type             X           Y           Z
 ---------------------------------------------------------------------
      1          6           0        3.486667   -0.823812    0.386157
      2          6           0        1.254278    0.969365   -0.008185
      3          6           0       -0.961425    0.004711    0.045679
      4          6           0        3.187151   -0.306124   -1.020793
      5          8           0       -2.922505   -1.395601   -0.130485
      6          6           0       -3.809751   -0.291147   -0.136535
      7          6           0        2.215517   -0.848142    1.218065
      8          6           0       -1.843911    1.248682    0.103420
      9          6           0       -1.670877   -1.108775   -0.713585
     10          6           0       -3.227209    0.875241    0.644034
     11          8           0        1.586304    0.427256    1.240826
     12          8           0        0.252946    0.226078   -0.647593
     13          6           0        2.459538    1.036266   -0.932626
     14          1           0        4.217343   -0.178775    0.868648
     15          1           0        3.906888   -1.824974    0.352755
     16          1           0       -0.748878   -0.341942    1.049387
     17          1           0        4.105451   -0.189119   -1.587942
     18          1           0        2.575352   -1.029026   -1.553544
     19          1           0       -4.733119   -0.641058    0.304301
     20          1           0       -4.008322   -0.002760   -1.166330
     21          1           0        1.519865   -1.586094    0.832770
     22          1           0        2.422073   -1.087100    2.252034
     23          1           0       -1.938532    1.654970   -0.901369
     24          1           0       -1.392912    2.014596    0.725026
     25          1           0       -3.153913    0.599522    1.693095
     26          1           0       -3.900697    1.724477    0.578344
     27          1           0        3.132976    1.788448   -0.531092
     28          1           0        2.134953    1.378674   -1.909344
     29          1           0        0.886022    1.960765    0.211909
     30          1           0       -1.807228   -0.819230   -1.753032
     31          1           0       -1.091149   -2.020832   -0.681393
 ---------------------------------------------------------------------
 Rotational constants (GHZ):           1.9059367           0.4049188           0.3919362
 Standard basis: 6-311++G(2d,2p) (5D, 7F)
 There are   557 symmetry adapted cartesian basis functions of A   symmetry.
 There are   531 symmetry adapted basis functions of A   symmetry.
   531 basis functions,   762 primitive gaussians,   557 cartesian basis functions
    51 alpha electrons       51 beta electrons
       nuclear repulsion energy       894.4943831455 Hartrees.
 NAtoms=   31 NActive=   31 NUniq=   31 SFac= 1.00D+00 NAtFMM=   60 NAOKFM=F Big=F
 Integral buffers will be    131072 words long.
 Raffenetti 2 integral format.
 Two-electron integral symmetry is turned on.
 ------------------------------------------------------------------------------
 Polarizable Continuum Model (PCM)
 =================================
 Model                : PCM.
 Atomic radii         : UFF (Universal Force Field).
 Polarization charges : Total charges.
 Charge compensation  : None.
 Solution method      : On-the-fly selection.
 Cavity type          : Scaled VdW (van der Waals Surface) (Alpha=1.100).
 Cavity algorithm     : GePol (No added spheres)
                        Default sphere list used, NSphG=   31.
                        Lebedev-Laikov grids with approx.  5.0 points / Ang**2.
                        Smoothing algorithm: York/Karplus (Gamma=1.0000).
                        Polarization charges: spherical gaussians, with
                                              point-specific exponents (IZeta= 3).
                        Self-potential: point-specific (ISelfS= 7).
                        Self-field    : sphere-specific E.n sum rule (ISelfD= 2).
 1st derivatives      : Analytical E(r).r(x)/FMM algorithm (CHGder, D1EAlg=3).
                        Cavity 1st derivative terms included.
 Solvent              : Water, Eps=  78.355300 Eps(inf)=   1.777849
 ------------------------------------------------------------------------------
 One-electron integrals computed using PRISM.
 NBasis=   531 RedAO= T EigKep=  5.09D-06  NBF=   531
 NBsUse=   531 1.00D-06 EigRej= -1.00D+00 NBFU=   531
 ExpMin= 3.60D-02 ExpMax= 8.59D+03 ExpMxC= 1.30D+03 IAcc=3 IRadAn=         5 AccDes= 0.00D+00
 Harris functional with IExCor= 1009 and IRadAn=       5 diagonalized for initial guess.
 HarFok:  IExCor= 1009 AccDes= 0.00D+00 IRadAn=         5 IDoV= 1 UseB2=F ITyADJ=14
 ICtDFT=  3500011 ScaDFX=  1.000000  1.000000  1.000000  1.000000
 FoFCou: FMM=F IPFlag=           0 FMFlag=      100000 FMFlg1=           0
         NFxFlg=           0 DoJE=T BraDBF=F KetDBF=T FulRan=T
         wScrn=  0.000000 ICntrl=       500 IOpCl=  0 I1Cent=   200000004 NGrid=           0
         NMat0=    1 NMatS0=      1 NMatT0=    0 NMatD0=    1 NMtDS0=    0 NMtDT0=    0
 Petite list used in FoFCou.
 Requested convergence on RMS density matrix=1.00D-08 within 128 cycles.
 Requested convergence on MAX density matrix=1.00D-06.
 Requested convergence on             energy=1.00D-06.
 No special actions if energy rises.
 Inv3:  Mode=1 IEnd=    12644427.
 Iteration    1 A*A^-1 deviation from unit magnitude is 5.33D-15 for   2035.
 Iteration    1 A*A^-1 deviation from orthogonality  is 5.67D-15 for   2035    864.
 Iteration    1 A^-1*A deviation from unit magnitude is 5.33D-15 for   2035.
 Iteration    1 A^-1*A deviation from orthogonality  is 2.62D-15 for   2044    974.
 Error on total polarization charges =  0.01491
 SCF Done:  E(RM062X) =  -617.502845719     A.U. after   12 cycles
            NFock= 12  Conv=0.46D-08     -V/T= 2.0035

 **********************************************************************

            Population analysis using the SCF density.

 **********************************************************************

 Orbital symmetries:
       Occupied  (A) (A) (A) (A) (A) (A) (A) (A) (A) (A) (A) (A)
                 (A) (A) (A) (A) (A) (A) (A) (A) (A) (A) (A) (A)
                 (A) (A) (A) (A) (A) (A) (A) (A) (A) (A) (A) (A)
                 (A) (A) (A) (A) (A) (A) (A) (A) (A) (A) (A) (A)
                 (A) (A) (A)
       Virtual   (A) (A) (A) (A) (A) (A) (A) (A) (A) (A) (A) (A)
                 (A) (A) (A) (A) (A) (A) (A) (A) (A) (A) (A) (A)
                 (A) (A) (A) (A) (A) (A) (A) (A) (A) (A) (A) (A)
                 (A) (A) (A) (A) (A) (A) (A) (A) (A) (A) (A) (A)
                 (A) (A) (A) (A) (A) (A) (A) (A) (A) (A) (A) (A)
                 (A) (A) (A) (A) (A) (A) (A) (A) (A) (A) (A) (A)
                 (A) (A) (A) (A) (A) (A) (A) (A) (A) (A) (A) (A)
                 (A) (A) (A) (A) (A) (A) (A) (A) (A) (A) (A) (A)
                 (A) (A) (A) (A) (A) (A) (A) (A) (A) (A) (A) (A)
                 (A) (A) (A) (A) (A) (A) (A) (A) (A) (A) (A) (A)
                 (A) (A) (A) (A) (A) (A) (A) (A) (A) (A) (A) (A)
                 (A) (A) (A) (A) (A) (A) (A) (A) (A) (A) (A) (A)
                 (A) (A) (A) (A) (A) (A) (A) (A) (A) (A) (A) (A)
                 (A) (A) (A) (A) (A) (A) (A) (A) (A) (A) (A) (A)
                 (A) (A) (A) (A) (A) (A) (A) (A) (A) (A) (A) (A)
                 (A) (A) (A) (A) (A) (A) (A) (A) (A) (A) (A) (A)
                 (A) (A) (A) (A) (A) (A) (A) (A) (A) (A) (A) (A)
                 (A) (A) (A) (A) (A) (A) (A) (A) (A) (A) (A) (A)
                 (A) (A) (A) (A) (A) (A) (A) (A) (A) (A) (A) (A)
                 (A) (A) (A) (A) (A) (A) (A) (A) (A) (A) (A) (A)
                 (A) (A) (A) (A) (A) (A) (A) (A) (A) (A) (A) (A)
                 (A) (A) (A) (A) (A) (A) (A) (A) (A) (A) (A) (A)
                 (A) (A) (A) (A) (A) (A) (A) (A) (A) (A) (A) (A)
                 (A) (A) (A) (A) (A) (A) (A) (A) (A) (A) (A) (A)
                 (A) (A) (A) (A) (A) (A) (A) (A) (A) (A) (A) (A)
                 (A) (A) (A) (A) (A) (A) (A) (A) (A) (A) (A) (A)
                 (A) (A) (A) (A) (A) (A) (A) (A) (A) (A) (A) (A)
                 (A) (A) (A) (A) (A) (A) (A) (A) (A) (A) (A) (A)
                 (A) (A) (A) (A) (A) (A) (A) (A) (A) (A) (A) (A)
                 (A) (A) (A) (A) (A) (A) (A) (A) (A) (A) (A) (A)
                 (A) (A) (A) (A) (A) (A) (A) (A) (A) (A) (A) (A)
                 (A) (A) (A) (A) (A) (A) (A) (A) (A) (A) (A) (A)
                 (A) (A) (A) (A) (A) (A) (A) (A) (A) (A) (A) (A)
                 (A) (A) (A) (A) (A) (A) (A) (A) (A) (A) (A) (A)
                 (A) (A) (A) (A) (A) (A) (A) (A) (A) (A) (A) (A)
                 (A) (A) (A) (A) (A) (A) (A) (A) (A) (A) (A) (A)
                 (A) (A) (A) (A) (A) (A) (A) (A) (A) (A) (A) (A)
                 (A) (A) (A) (A) (A) (A) (A) (A) (A) (A) (A) (A)
                 (A) (A) (A) (A) (A) (A) (A) (A) (A) (A) (A) (A)
                 (A) (A) (A) (A) (A) (A) (A) (A) (A) (A) (A) (A)
 The electronic state is 1-A.
 Alpha  occ. eigenvalues --  -19.63083 -19.62920 -19.62918 -10.63401 -10.58503
 Alpha  occ. eigenvalues --  -10.57904 -10.57853 -10.57742 -10.53173 -10.53099
 Alpha  occ. eigenvalues --  -10.53002 -10.52958 -10.52802  -1.20351  -1.16784
 Alpha  occ. eigenvalues --   -1.13628  -0.90990  -0.89706  -0.87818  -0.84613
 Alpha  occ. eigenvalues --   -0.75254  -0.74179  -0.73077  -0.70886  -0.65762
 Alpha  occ. eigenvalues --   -0.64149  -0.60109  -0.58835  -0.57803  -0.56047
 Alpha  occ. eigenvalues --   -0.54338  -0.53298  -0.51865  -0.51216  -0.50067
 Alpha  occ. eigenvalues --   -0.48541  -0.47623  -0.45988  -0.45566  -0.45134
 Alpha  occ. eigenvalues --   -0.44014  -0.41829  -0.41572  -0.40594  -0.39404
 Alpha  occ. eigenvalues --   -0.38531  -0.37802  -0.36053  -0.34759  -0.33412
 Alpha  occ. eigenvalues --   -0.32147
 Alpha virt. eigenvalues --   -0.00081   0.00772   0.00953   0.00966   0.02171
 Alpha virt. eigenvalues --    0.02463   0.02653   0.03380   0.03694   0.04409
 Alpha virt. eigenvalues --    0.04557   0.04800   0.05514   0.05743   0.07156
 Alpha virt. eigenvalues --    0.07475   0.07672   0.08245   0.08820   0.09193
 Alpha virt. eigenvalues --    0.10060   0.10757   0.11092   0.11794   0.11973
 Alpha virt. eigenvalues --    0.12542   0.12721   0.12867   0.13031   0.13268
 Alpha virt. eigenvalues --    0.13696   0.13981   0.14361   0.14614   0.14872
 Alpha virt. eigenvalues --    0.15481   0.15563   0.15659   0.16052   0.16282
 Alpha virt. eigenvalues --    0.16709   0.16778   0.16978   0.17305   0.17694
 Alpha virt. eigenvalues --    0.18469   0.18583   0.18898   0.18984   0.19473
 Alpha virt. eigenvalues --    0.20041   0.20401   0.20719   0.21223   0.21495
 Alpha virt. eigenvalues --    0.21873   0.22092   0.23124   0.23533   0.23692
 Alpha virt. eigenvalues --    0.24816   0.25356   0.26167   0.26599   0.27112
 Alpha virt. eigenvalues --    0.27548   0.27885   0.28360   0.29143   0.29217
 Alpha virt. eigenvalues --    0.29609   0.30112   0.30422   0.31215   0.31727
 Alpha virt. eigenvalues --    0.32760   0.32804   0.33611   0.33740   0.34652
 Alpha virt. eigenvalues --    0.34759   0.35236   0.35832   0.36072   0.36603
 Alpha virt. eigenvalues --    0.36847   0.37138   0.37484   0.37618   0.38021
 Alpha virt. eigenvalues --    0.38670   0.39320   0.39326   0.39819   0.41088
 Alpha virt. eigenvalues --    0.41499   0.41849   0.42278   0.44465   0.44567
 Alpha virt. eigenvalues --    0.45894   0.46594   0.48873   0.50220   0.50317
 Alpha virt. eigenvalues --    0.52019   0.52536   0.54010   0.54672   0.55431
 Alpha virt. eigenvalues --    0.55765   0.56217   0.57161   0.58646   0.59367
 Alpha virt. eigenvalues --    0.59988   0.60232   0.61040   0.61385   0.61601
 Alpha virt. eigenvalues --    0.62346   0.62856   0.63435   0.63887   0.64293
 Alpha virt. eigenvalues --    0.64474   0.64864   0.65679   0.66367   0.67292
 Alpha virt. eigenvalues --    0.67568   0.68825   0.69066   0.69572   0.70400
 Alpha virt. eigenvalues --    0.70959   0.71628   0.71786   0.72512   0.72534
 Alpha virt. eigenvalues --    0.73289   0.73656   0.74998   0.75325   0.75810
 Alpha virt. eigenvalues --    0.75943   0.76206   0.77591   0.78464   0.79240
 Alpha virt. eigenvalues --    0.80498   0.81819   0.84256   0.85216   0.85712
 Alpha virt. eigenvalues --    0.86778   0.87452   0.87880   0.88080   0.88944
 Alpha virt. eigenvalues --    0.90196   0.90711   0.91471   0.93676   0.94892
 Alpha virt. eigenvalues --    0.97244   0.99044   0.99882   1.01087   1.01883
 Alpha virt. eigenvalues --    1.03003   1.04401   1.04752   1.05321   1.05545
 Alpha virt. eigenvalues --    1.07605   1.08546   1.09361   1.11511   1.12534
 Alpha virt. eigenvalues --    1.13175   1.14194   1.14761   1.15703   1.16929
 Alpha virt. eigenvalues --    1.17049   1.17835   1.19008   1.19785   1.20042
 Alpha virt. eigenvalues --    1.21020   1.21548   1.21671   1.23740   1.24493
 Alpha virt. eigenvalues --    1.24567   1.25501   1.26155   1.27382   1.28434
 Alpha virt. eigenvalues --    1.28822   1.29906   1.30258   1.30367   1.31260
 Alpha virt. eigenvalues --    1.31554   1.32333   1.33071   1.34254   1.34536
 Alpha virt. eigenvalues --    1.35107   1.35839   1.36542   1.37672   1.37934
 Alpha virt. eigenvalues --    1.38772   1.39145   1.39696   1.40241   1.41315
 Alpha virt. eigenvalues --    1.41982   1.42730   1.43362   1.44880   1.45150
 Alpha virt. eigenvalues --    1.46210   1.47057   1.47226   1.47697   1.48274
 Alpha virt. eigenvalues --    1.48568   1.49157   1.49989   1.50845   1.51778
 Alpha virt. eigenvalues --    1.52471   1.53715   1.53792   1.54864   1.55671
 Alpha virt. eigenvalues --    1.56456   1.57164   1.57900   1.58214   1.58411
 Alpha virt. eigenvalues --    1.59402   1.60007   1.60760   1.61662   1.62461
 Alpha virt. eigenvalues --    1.62836   1.64432   1.64486   1.65844   1.66997
 Alpha virt. eigenvalues --    1.68160   1.69022   1.69791   1.71935   1.72872
 Alpha virt. eigenvalues --    1.73577   1.74736   1.75194   1.75783   1.77874
 Alpha virt. eigenvalues --    1.78165   1.79179   1.80174   1.81556   1.82416
 Alpha virt. eigenvalues --    1.86088   1.87388   1.93403   1.94753   1.99980
 Alpha virt. eigenvalues --    2.02539   2.07198   2.14298   2.17280   2.21417
 Alpha virt. eigenvalues --    2.24945   2.25822   2.29249   2.34091   2.39448
 Alpha virt. eigenvalues --    2.41994   2.43365   2.45008   2.46020   2.52549
 Alpha virt. eigenvalues --    2.60179   2.75698   2.76950   2.79551   2.81441
 Alpha virt. eigenvalues --    2.82947   2.90019   2.92831   2.93096   2.94181
 Alpha virt. eigenvalues --    2.96270   2.97286   2.99929   3.02955   3.03208
 Alpha virt. eigenvalues --    3.06298   3.07228   3.07872   3.09120   3.11642
 Alpha virt. eigenvalues --    3.13831   3.15250   3.17451   3.19161   3.22661
 Alpha virt. eigenvalues --    3.24897   3.29703   3.31268   3.33824   3.34784
 Alpha virt. eigenvalues --    3.35189   3.36355   3.38100   3.39215   3.42144
 Alpha virt. eigenvalues --    3.42794   3.43077   3.43580   3.45085   3.45704
 Alpha virt. eigenvalues --    3.48104   3.48695   3.48886   3.51141   3.52364
 Alpha virt. eigenvalues --    3.52604   3.53658   3.54290   3.55037   3.56111
 Alpha virt. eigenvalues --    3.56785   3.57361   3.58366   3.59524   3.59711
 Alpha virt. eigenvalues --    3.60459   3.62014   3.62273   3.64836   3.65773
 Alpha virt. eigenvalues --    3.66276   3.66709   3.67746   3.68735   3.69569
 Alpha virt. eigenvalues --    3.69930   3.70669   3.71864   3.73922   3.74035
 Alpha virt. eigenvalues --    3.74879   3.75053   3.76349   3.77189   3.77861
 Alpha virt. eigenvalues --    3.78484   3.79602   3.79898   3.82717   3.84522
 Alpha virt. eigenvalues --    3.86862   3.88084   3.88984   3.90431   3.92172
 Alpha virt. eigenvalues --    3.93161   3.93748   3.94372   3.95917   3.97628
 Alpha virt. eigenvalues --    3.99402   4.01060   4.02276   4.03480   4.03953
 Alpha virt. eigenvalues --    4.04947   4.06506   4.06768   4.06969   4.07689
 Alpha virt. eigenvalues --    4.08233   4.08490   4.08784   4.09620   4.10792
 Alpha virt. eigenvalues --    4.11915   4.12150   4.14137   4.14206   4.15832
 Alpha virt. eigenvalues --    4.16838   4.17233   4.18193   4.18610   4.21185
 Alpha virt. eigenvalues --    4.21534   4.23780   4.24183   4.25046   4.26790
 Alpha virt. eigenvalues --    4.28387   4.29335   4.31578   4.31839   4.32273
 Alpha virt. eigenvalues --    4.32797   4.34846   4.36500   4.37615   4.40432
 Alpha virt. eigenvalues --    4.41564   4.42253   4.45319   4.45879   4.47497
 Alpha virt. eigenvalues --    4.58285   4.61575   4.74787   4.77170   4.82968
 Alpha virt. eigenvalues --    4.84972   4.92676   4.95255   4.99558   5.01252
 Alpha virt. eigenvalues --    5.06524   5.06815   5.07782   5.08773   5.12055
 Alpha virt. eigenvalues --    5.12448   5.14014   5.14950   5.30272   5.38966
 Alpha virt. eigenvalues --    5.40199   5.57875   5.58782   5.64242   5.85774
 Alpha virt. eigenvalues --    5.87509   6.05795   7.03408   7.05140   7.05798
 Alpha virt. eigenvalues --    7.08232   7.10447   7.13194   7.13762   7.20328
 Alpha virt. eigenvalues --    7.24868   7.36528   7.38030   7.47800   7.54173
 Alpha virt. eigenvalues --    7.55224   7.65903  23.95982  23.96935  24.05109
 Alpha virt. eigenvalues --   24.08382  24.11171  24.12058  24.14776  24.15338
 Alpha virt. eigenvalues --   24.16159  24.21548  50.16977  50.17696  50.24985
          Condensed to atoms (all electrons):
               1          2          3          4          5          6
     1  C    5.807812   0.287373  -0.013335  -0.083357   0.000751  -0.002492
     2  C    0.287373   7.503943  -1.198237  -0.215557  -0.006006  -0.027316
     3  C   -0.013335  -1.198237   8.372036   0.092257   0.036222   0.213269
     4  C   -0.083357  -0.215557   0.092257   5.820069  -0.000655  -0.000141
     5  O    0.000751  -0.006006   0.036222  -0.000655   8.319499   0.102413
     6  C   -0.002492  -0.027316   0.213269  -0.000141   0.102413   5.436843
     7  C   -0.080502  -0.490231   0.167477  -0.019724   0.002242   0.003976
     8  C    0.021807   0.389500  -1.717210  -0.070636  -0.030650  -0.139779
     9  C    0.004025   0.092011  -0.482872   0.016905   0.176683  -0.218937
    10  C   -0.001700  -0.044214  -0.099347   0.009756  -0.023378   0.025219
    11  O   -0.069996   0.243479   0.107296   0.010067   0.000957   0.002110
    12  O   -0.014263   0.290849   0.137797  -0.021875  -0.002654   0.008977
    13  C   -0.167188  -1.023953   0.416046  -0.097964   0.001383   0.016373
    14  H    0.490358   0.004649  -0.001480  -0.019488   0.000001   0.000019
    15  H    0.440254   0.005157  -0.000711  -0.048202  -0.000036  -0.000101
    16  H   -0.011420  -0.101683   0.504375  -0.015240  -0.021061   0.025646
    17  H   -0.024601   0.016088   0.006589   0.423798  -0.000014   0.000172
    18  H   -0.075396  -0.008518  -0.009509   0.531564   0.000256  -0.001001
    19  H   -0.000228  -0.002973  -0.003336   0.000221  -0.070690   0.431176
    20  H    0.000179   0.003690   0.048111  -0.000198  -0.045352   0.452184
    21  H   -0.102331  -0.001536  -0.002820   0.020726   0.000123  -0.000121
    22  H   -0.012764  -0.021056   0.011839   0.005115   0.000122   0.000211
    23  H    0.000574   0.013235  -0.063831   0.000027  -0.000328  -0.010409
    24  H    0.002111  -0.001910  -0.031550   0.002886  -0.001254  -0.007309
    25  H    0.000519   0.003713  -0.019711   0.000536   0.001177  -0.087346
    26  H    0.000128   0.000445  -0.023467  -0.000451   0.006557  -0.036664
    27  H   -0.015259  -0.151546   0.016175   0.005619   0.000006  -0.000042
    28  H   -0.000247  -0.035899  -0.012778  -0.044549   0.000037  -0.000379
    29  H    0.013891   0.542537  -0.064429  -0.022096  -0.000941   0.002165
    30  H   -0.000437  -0.000446   0.003542   0.003844  -0.038037  -0.008022
    31  H    0.007313   0.009595  -0.089658  -0.008180  -0.076988   0.006630
               7          8          9         10         11         12
     1  C   -0.080502   0.021807   0.004025  -0.001700  -0.069996  -0.014263
     2  C   -0.490231   0.389500   0.092011  -0.044214   0.243479   0.290849
     3  C    0.167477  -1.717210  -0.482872  -0.099347   0.107296   0.137797
     4  C   -0.019724  -0.070636   0.016905   0.009756   0.010067  -0.021875
     5  O    0.002242  -0.030650   0.176683  -0.023378   0.000957  -0.002654
     6  C    0.003976  -0.139779  -0.218937   0.025219   0.002110   0.008977
     7  C    5.497966  -0.062937  -0.008245  -0.001603   0.119896  -0.014653
     8  C   -0.062937   7.381292  -0.083618  -0.154634  -0.096441  -0.065885
     9  C   -0.008245  -0.083618   6.155850   0.194642   0.016856  -0.203163
    10  C   -0.001603  -0.154634   0.194642   5.743220   0.003835  -0.016541
    11  O    0.119896  -0.096441   0.016856   0.003835   8.175528  -0.052413
    12  O   -0.014653  -0.065885  -0.203163  -0.016541  -0.052413   8.299841
    13  C    0.251762  -0.174805  -0.088775  -0.004885  -0.032831  -0.078318
    14  H   -0.090313  -0.000423   0.000060  -0.000165  -0.002586  -0.000577
    15  H   -0.038538   0.001676  -0.000398   0.000134   0.010104   0.000937
    16  H    0.010136   0.026686  -0.107094  -0.014588  -0.004846  -0.019752
    17  H    0.007965  -0.002425  -0.001127  -0.000062  -0.004292   0.000614
    18  H    0.003312   0.004143   0.005488   0.000353   0.001853  -0.005563
    19  H    0.000058   0.008426   0.017101  -0.044297   0.000029   0.000734
    20  H    0.000577  -0.031057  -0.038040  -0.034238   0.000049  -0.000622
    21  H    0.470604  -0.001941  -0.017522  -0.001351  -0.028724   0.012423
    22  H    0.433343   0.000704  -0.000348  -0.000616  -0.067253   0.000968
    23  H   -0.003494   0.524573  -0.024987  -0.074110  -0.000659   0.006743
    24  H    0.002845   0.383648   0.015684   0.047466   0.002853  -0.009560
    25  H    0.001092  -0.030935   0.011951   0.500469  -0.000301   0.000707
    26  H   -0.000842   0.002025  -0.003862   0.416842  -0.000289  -0.001046
    27  H    0.013787  -0.006865   0.001371   0.000367  -0.007413   0.008012
    28  H    0.002194   0.012161  -0.004872   0.000499   0.006640  -0.002272
    29  H   -0.028499   0.057936  -0.005037  -0.028089  -0.057598  -0.025582
    30  H    0.004014  -0.036376   0.390204   0.007321   0.000301   0.006687
    31  H   -0.008945   0.054371   0.428424   0.001860  -0.000674   0.008303
              13         14         15         16         17         18
     1  C   -0.167188   0.490358   0.440254  -0.011420  -0.024601  -0.075396
     2  C   -1.023953   0.004649   0.005157  -0.101683   0.016088  -0.008518
     3  C    0.416046  -0.001480  -0.000711   0.504375   0.006589  -0.009509
     4  C   -0.097964  -0.019488  -0.048202  -0.015240   0.423798   0.531564
     5  O    0.001383   0.000001  -0.000036  -0.021061  -0.000014   0.000256
     6  C    0.016373   0.000019  -0.000101   0.025646   0.000172  -0.001001
     7  C    0.251762  -0.090313  -0.038538   0.010136   0.007965   0.003312
     8  C   -0.174805  -0.000423   0.001676   0.026686  -0.002425   0.004143
     9  C   -0.088775   0.000060  -0.000398  -0.107094  -0.001127   0.005488
    10  C   -0.004885  -0.000165   0.000134  -0.014588  -0.000062   0.000353
    11  O   -0.032831  -0.002586   0.010104  -0.004846  -0.004292   0.001853
    12  O   -0.078318  -0.000577   0.000937  -0.019752   0.000614  -0.005563
    13  C    6.590553  -0.013387   0.000702   0.017076  -0.050106  -0.064387
    14  H   -0.013387   0.480911  -0.011340   0.000266  -0.002538   0.001130
    15  H    0.000702  -0.011340   0.486762   0.000164  -0.006468  -0.003857
    16  H    0.017076   0.000266   0.000164   0.463889   0.000105  -0.000953
    17  H   -0.050106  -0.002538  -0.006468   0.000105   0.470074  -0.006570
    18  H   -0.064387   0.001130  -0.003857  -0.000953  -0.006570   0.459541
    19  H    0.000524  -0.000003  -0.000000   0.001829   0.000010  -0.000042
    20  H   -0.000520  -0.000008   0.000008  -0.005689  -0.000016   0.000028
    21  H    0.015542   0.004618   0.000189  -0.011330  -0.000644   0.000294
    22  H    0.005712  -0.005626  -0.009970  -0.000602   0.001398  -0.002072
    23  H   -0.004246   0.000048  -0.000011   0.002606   0.000105  -0.000259
    24  H   -0.002944  -0.000254   0.000071  -0.010151  -0.000155   0.000355
    25  H   -0.000395  -0.000032   0.000015  -0.015334   0.000010   0.000108
    26  H   -0.001132   0.000006  -0.000001   0.000393  -0.000008  -0.000023
    27  H    0.518384  -0.002921  -0.001988  -0.000110  -0.002849   0.001811
    28  H    0.452068  -0.001507   0.000874  -0.000719  -0.008847  -0.002750
    29  H   -0.082302   0.000631   0.001189   0.002094   0.002775  -0.002601
    30  H    0.005963  -0.000085  -0.000001  -0.011834   0.000218   0.000574
    31  H    0.000533   0.000292  -0.000044   0.002278  -0.000375  -0.002538
              19         20         21         22         23         24
     1  C   -0.000228   0.000179  -0.102331  -0.012764   0.000574   0.002111
     2  C   -0.002973   0.003690  -0.001536  -0.021056   0.013235  -0.001910
     3  C   -0.003336   0.048111  -0.002820   0.011839  -0.063831  -0.031550
     4  C    0.000221  -0.000198   0.020726   0.005115   0.000027   0.002886
     5  O   -0.070690  -0.045352   0.000123   0.000122  -0.000328  -0.001254
     6  C    0.431176   0.452184  -0.000121   0.000211  -0.010409  -0.007309
     7  C    0.000058   0.000577   0.470604   0.433343  -0.003494   0.002845
     8  C    0.008426  -0.031057  -0.001941   0.000704   0.524573   0.383648
     9  C    0.017101  -0.038040  -0.017522  -0.000348  -0.024987   0.015684
    10  C   -0.044297  -0.034238  -0.001351  -0.000616  -0.074110   0.047466
    11  O    0.000029   0.000049  -0.028724  -0.067253  -0.000659   0.002853
    12  O    0.000734  -0.000622   0.012423   0.000968   0.006743  -0.009560
    13  C    0.000524  -0.000520   0.015542   0.005712  -0.004246  -0.002944
    14  H   -0.000003  -0.000008   0.004618  -0.005626   0.000048  -0.000254
    15  H   -0.000000   0.000008   0.000189  -0.009970  -0.000011   0.000071
    16  H    0.001829  -0.005689  -0.011330  -0.000602   0.002606  -0.010151
    17  H    0.000010  -0.000016  -0.000644   0.001398   0.000105  -0.000155
    18  H   -0.000042   0.000028   0.000294  -0.002072  -0.000259   0.000355
    19  H    0.474221  -0.008413   0.000056  -0.000021  -0.000663   0.001231
    20  H   -0.008413   0.502869   0.000036   0.000036  -0.006242   0.001056
    21  H    0.000056   0.000036   0.536056  -0.020995   0.000777  -0.001787
    22  H   -0.000021   0.000036  -0.020995   0.476703  -0.000212   0.000538
    23  H   -0.000663  -0.006242   0.000777  -0.000212   0.438591  -0.016000
    24  H    0.001231   0.001056  -0.001787   0.000538  -0.016000   0.488538
    25  H   -0.005088   0.004758   0.000524  -0.000029   0.001770  -0.002645
    26  H   -0.008057   0.001415  -0.000034  -0.000009  -0.002818  -0.011037
    27  H    0.000005   0.000027  -0.002352   0.000708  -0.000299   0.000968
    28  H   -0.000004   0.000042   0.000348   0.000954  -0.000292   0.000166
    29  H   -0.000369  -0.000398   0.000924  -0.001582   0.004923  -0.013264
    30  H   -0.003111   0.013825   0.000854   0.000097  -0.000993  -0.000604
    31  H    0.002340  -0.005106  -0.007195   0.000900  -0.001835  -0.000182
              25         26         27         28         29         30
     1  C    0.000519   0.000128  -0.015259  -0.000247   0.013891  -0.000437
     2  C    0.003713   0.000445  -0.151546  -0.035899   0.542537  -0.000446
     3  C   -0.019711  -0.023467   0.016175  -0.012778  -0.064429   0.003542
     4  C    0.000536  -0.000451   0.005619  -0.044549  -0.022096   0.003844
     5  O    0.001177   0.006557   0.000006   0.000037  -0.000941  -0.038037
     6  C   -0.087346  -0.036664  -0.000042  -0.000379   0.002165  -0.008022
     7  C    0.001092  -0.000842   0.013787   0.002194  -0.028499   0.004014
     8  C   -0.030935   0.002025  -0.006865   0.012161   0.057936  -0.036376
     9  C    0.011951  -0.003862   0.001371  -0.004872  -0.005037   0.390204
    10  C    0.500469   0.416842   0.000367   0.000499  -0.028089   0.007321
    11  O   -0.000301  -0.000289  -0.007413   0.006640  -0.057598   0.000301
    12  O    0.000707  -0.001046   0.008012  -0.002272  -0.025582   0.006687
    13  C   -0.000395  -0.001132   0.518384   0.452068  -0.082302   0.005963
    14  H   -0.000032   0.000006  -0.002921  -0.001507   0.000631  -0.000085
    15  H    0.000015  -0.000001  -0.001988   0.000874   0.001189  -0.000001
    16  H   -0.015334   0.000393  -0.000110  -0.000719   0.002094  -0.011834
    17  H    0.000010  -0.000008  -0.002849  -0.008847   0.002775   0.000218
    18  H    0.000108  -0.000023   0.001811  -0.002750  -0.002601   0.000574
    19  H   -0.005088  -0.008057   0.000005  -0.000004  -0.000369  -0.003111
    20  H    0.004758   0.001415   0.000027   0.000042  -0.000398   0.013825
    21  H    0.000524  -0.000034  -0.002352   0.000348   0.000924   0.000854
    22  H   -0.000029  -0.000009   0.000708   0.000954  -0.001582   0.000097
    23  H    0.001770  -0.002818  -0.000299  -0.000292   0.004923  -0.000993
    24  H   -0.002645  -0.011037   0.000968   0.000166  -0.013264  -0.000604
    25  H    0.475535  -0.009648   0.000003  -0.000001  -0.000429   0.004247
    26  H   -0.009648   0.491307  -0.000037   0.000062   0.001088  -0.003853
    27  H    0.000003  -0.000037   0.448283  -0.003995  -0.013030   0.000282
    28  H   -0.000001   0.000062  -0.003995   0.470556  -0.009648  -0.000986
    29  H   -0.000429   0.001088  -0.013030  -0.009648   0.462022  -0.001878
    30  H    0.004247  -0.003853   0.000282  -0.000986  -0.001878   0.496152
    31  H   -0.003422   0.003127  -0.000099   0.000775   0.000600  -0.027128
              31
     1  C    0.007313
     2  C    0.009595
     3  C   -0.089658
     4  C   -0.008180
     5  O   -0.076988
     6  C    0.006630
     7  C   -0.008945
     8  C    0.054371
     9  C    0.428424
    10  C    0.001860
    11  O   -0.000674
    12  O    0.008303
    13  C    0.000533
    14  H    0.000292
    15  H   -0.000044
    16  H    0.002278
    17  H   -0.000375
    18  H   -0.002538
    19  H    0.002340
    20  H   -0.005106
    21  H   -0.007195
    22  H    0.000900
    23  H   -0.001835
    24  H   -0.000182
    25  H   -0.003422
    26  H    0.003127
    27  H   -0.000099
    28  H    0.000775
    29  H    0.000600
    30  H   -0.027128
    31  H    0.507469
 Mulliken charges:
               1
     1  C   -0.401579
     2  C   -0.075186
     3  C   -0.298751
     4  C   -0.275077
     5  O   -0.330385
     6  C   -0.187323
     7  C   -0.144719
     8  C   -0.162332
     9  C   -0.238357
    10  C   -0.408166
    11  O   -0.275534
    12  O   -0.248851
    13  C   -0.404484
    14  H    0.169746
    15  H    0.173430
    16  H    0.294861
    17  H    0.181176
    18  H    0.175229
    19  H    0.209337
    20  H    0.147013
    21  H    0.136587
    22  H    0.203808
    23  H    0.217717
    24  H    0.160189
    25  H    0.168181
    26  H    0.179883
    27  H    0.192997
    28  H    0.182367
    29  H    0.265000
    30  H    0.195664
    31  H    0.197560
 Sum of Mulliken charges =  -0.00000
 Mulliken charges with hydrogens summed into heavy atoms:
               1
     1  C   -0.058404
     2  C    0.189813
     3  C   -0.003890
     4  C    0.081327
     5  O   -0.330385
     6  C    0.169027
     7  C    0.195677
     8  C    0.215574
     9  C    0.154867
    10  C   -0.060102
    11  O   -0.275534
    12  O   -0.248851
    13  C   -0.029120
 Electronic spatial extent (au):  <R**2>=           3054.1985
 Charge=             -0.0000 electrons
 Dipole moment (field-independent basis, Debye):
    X=              0.7634    Y=              1.3924    Z=             -0.5477  Tot=              1.6797
 Quadrupole moment (field-independent basis, Debye-Ang):
   XX=            -72.2998   YY=            -80.3771   ZZ=            -82.2168
   XY=             -8.3402   XZ=             -0.7988   YZ=             -1.7530
 Traceless Quadrupole moment (field-independent basis, Debye-Ang):
   XX=              5.9981   YY=             -2.0792   ZZ=             -3.9189
   XY=             -8.3402   XZ=             -0.7988   YZ=             -1.7530
 Octapole moment (field-independent basis, Debye-Ang**2):
  XXX=             -3.4670  YYY=              5.9636  ZZZ=             -0.1240  XYY=             13.7452
  XXY=             17.2818  XXZ=             -1.7800  XZZ=             -4.0087  YZZ=             -4.6352
  YYZ=              0.3287  XYZ=             -6.0630
 Hexadecapole moment (field-independent basis, Debye-Ang**3):
 XXXX=          -2989.2833 YYYY=           -517.6565 ZZZZ=           -401.2620 XXXY=            -51.6323
 XXXZ=             -4.3228 YYYX=            -14.2643 YYYZ=              3.8726 ZZZX=             10.5312
 ZZZY=             -8.9091 XXYY=           -640.0389 XXZZ=           -586.9068 YYZZ=           -155.2770
 XXYZ=            -12.8879 YYXZ=              2.7559 ZZXY=             -2.5512
 N-N= 8.944943831455D+02 E-N=-3.230799109378D+03  KE= 6.153469202035D+02
 D1PCM: PCM CHGder 1st derivatives, ID1Alg=3 FixD1E=F DoIter=F DoCFld=F I1PDM=0.
 Calling FoFJK, ICntrl=      2127 FMM=F ISym2X=0 I1Cent= 0 IOpClX= 0 NMat=1 NMatS=1 NMatT=0.
 ***** Axes restored to original set *****
 -------------------------------------------------------------------
 Center     Atomic                   Forces (Hartrees/Bohr)
 Number     Number              X              Y              Z
 -------------------------------------------------------------------
      1        6           0.002431601   -0.000595183    0.001562251
      2        6          -0.001694749   -0.004913038   -0.000075089
      3        6           0.000490515    0.005137367    0.003931112
      4        6           0.001393234    0.001696017   -0.003295948
      5        8           0.001745268   -0.007764411   -0.003658609
      6        6          -0.006300087    0.001922697   -0.002060382
      7        6          -0.002882657    0.003339516    0.005232841
      8        6           0.001685030   -0.004221321   -0.001383438
      9        6           0.003283350    0.004374990   -0.004713671
     10        6          -0.000616816    0.000321507    0.002514169
     11        8           0.001184730    0.004944744   -0.008704660
     12        8          -0.002924296   -0.007150121    0.010694876
     13        6           0.000871225   -0.002735010    0.000299275
     14        1          -0.001646490    0.002413085   -0.001578701
     15        1          -0.001325102   -0.002493225    0.000315091
     16        1          -0.000714623   -0.002333889   -0.006889038
     17        1          -0.002224055    0.000361510    0.001247358
     18        1           0.002895620   -0.001909580    0.001052016
     19        1           0.003679083   -0.001357419   -0.001932794
     20        1           0.000885378    0.002773352    0.005478916
     21        1           0.003784794   -0.004497812    0.003357711
     22        1          -0.000911152   -0.000922306   -0.004219202
     23        1          -0.000113617    0.000444031    0.003827722
     24        1          -0.001801699    0.002374360   -0.002139333
     25        1          -0.000418723   -0.001421124   -0.002858646
     26        1           0.001645042    0.002529572   -0.000069724
     27        1          -0.001957367    0.002084521   -0.001766950
     28        1           0.001226260    0.000700445    0.002872444
     29        1           0.002244703    0.007398498   -0.002559644
     30        1          -0.000554540    0.003172585    0.005830102
     31        1          -0.003359858   -0.003674357   -0.000310053
 -------------------------------------------------------------------
 Cartesian Forces:  Max     0.010694876 RMS     0.003360647

 GradGradGradGradGradGradGradGradGradGradGradGradGradGradGradGradGradGrad
 Berny optimization.
 FormGI is forming the generalized inverse of G from B-inverse, IUseBI=4.
 Internal  Forces:  Max     0.013541453 RMS     0.002088971
 Search for a local minimum.
 Step number   1 out of a maximum of  186
 All quantities printed in internal units (Hartrees-Bohrs-Radians)
 Mixed Optimization -- RFO/linear search
 Second derivative matrix not updated -- first step.
 ITU=  0
     Eigenvalues ---    0.00623   0.00630   0.00731   0.00740   0.01416
     Eigenvalues ---    0.01452   0.01484   0.02699   0.02758   0.03077
     Eigenvalues ---    0.03173   0.04088   0.04344   0.04750   0.04770
     Eigenvalues ---    0.04862   0.04962   0.05113   0.05144   0.05168
     Eigenvalues ---    0.05233   0.05680   0.05737   0.06157   0.06171
     Eigenvalues ---    0.06398   0.06798   0.06855   0.07368   0.07830
     Eigenvalues ---    0.07862   0.07962   0.08017   0.08103   0.08136
     Eigenvalues ---    0.08241   0.08868   0.09360   0.10873   0.11585
     Eigenvalues ---    0.11623   0.11703   0.11757   0.12403   0.12496
     Eigenvalues ---    0.14514   0.14558   0.16098   0.16528   0.17601
     Eigenvalues ---    0.19036   0.21639   0.21783   0.25000   0.28543
     Eigenvalues ---    0.28576   0.28716   0.28853   0.28949   0.29056
     Eigenvalues ---    0.30257   0.30375   0.35051   0.35081   0.35091
     Eigenvalues ---    0.35098   0.35143   0.35208   0.35218   0.35245
     Eigenvalues ---    0.35295   0.35321   0.35411   0.35432   0.35441
     Eigenvalues ---    0.35641   0.35828   0.35851   0.35857   0.35965
     Eigenvalues ---    0.40749   0.41439   0.42424   0.43108   0.43765
     Eigenvalues ---    0.453861000.000001000.000001000.000001000.00000
     Eigenvalues --- 1000.000001000.000001000.000001000.000001000.00000
     Eigenvalues --- 1000.000001000.000001000.000001000.000001000.00000
     Eigenvalues --- 1000.000001000.000001000.000001000.000001000.00000
     Eigenvalues --- 1000.000001000.000001000.000001000.000001000.00000
     Eigenvalues --- 1000.000001000.000001000.000001000.000001000.00000
     Eigenvalues --- 1000.000001000.000001000.000001000.000001000.00000
     Eigenvalues --- 1000.000001000.000001000.000001000.000001000.00000
     Eigenvalues --- 1000.000001000.000001000.000001000.000001000.00000
     Eigenvalues --- 1000.000001000.000001000.000001000.000001000.00000
     Eigenvalues --- 1000.000001000.000001000.000001000.000001000.00000
     Eigenvalues --- 1000.000001000.000001000.000001000.000001000.00000
     Eigenvalues --- 1000.000001000.000001000.000001000.000001000.00000
     Eigenvalues --- 1000.000001000.000001000.000001000.000001000.00000
     Eigenvalues --- 1000.000001000.000001000.000001000.000001000.00000
     Eigenvalues --- 1000.000001000.000001000.000001000.000001000.00000
     Eigenvalues --- 1000.000001000.000001000.000001000.000001000.00000
     Eigenvalues --- 1000.000001000.000001000.000001000.000001000.00000
     Eigenvalues --- 1000.000001000.000001000.000001000.000001000.00000
     Eigenvalues --- 1000.000001000.000001000.000001000.000001000.00000
 RFO step:  Lambda=-3.30101545D-03 EMin= 6.23232791D-03
 Linear search not attempted -- first point.
 Iteration  1 RMS(Cart)=  0.04130608 RMS(Int)=  0.00039774
 Iteration  2 RMS(Cart)=  0.00101879 RMS(Int)=  0.00004388
 Iteration  3 RMS(Cart)=  0.00000058 RMS(Int)=  0.00004388
 Iteration  1 RMS(Cart)=  0.00000897 RMS(Int)=  0.00000184
 Iteration  2 RMS(Cart)=  0.00000470 RMS(Int)=  0.00000205
 Iteration  3 RMS(Cart)=  0.00000246 RMS(Int)=  0.00000231
 Iteration  4 RMS(Cart)=  0.00000129 RMS(Int)=  0.00000247
 Iteration  5 RMS(Cart)=  0.00000067 RMS(Int)=  0.00000256
 Variable       Old X    -DE/DX   Delta X   Delta X   Delta X     New X
                                 (Linear)    (Quad)   (Total)
    R1        2.88901  -0.00094   0.00000  -0.00257  -0.00258   2.88642
    R2        2.87119  -0.00003   0.00000   0.00003   0.00004   2.87123
    R3        2.05517   0.00324   0.00000   0.00914   0.00914   2.06430
    R4        2.05279   0.00282   0.00000   0.00793   0.00793   2.06072
    R5        2.64842   0.00353   0.00000   0.00737   0.00738   2.65580
    R6        2.64830   0.00301   0.00000   0.00659   0.00659   2.65490
    R7        2.87320  -0.00080   0.00000  -0.00278  -0.00279   2.87041
    R8        2.04137   0.00808   0.00000   0.02225   0.02225   2.06362
    R9        2.88428  -0.00157   0.00000  -0.00532  -0.00534   2.87894
   R10        2.87813  -0.00072   0.00000  -0.00238  -0.00238   2.87575
   R11        2.67537   0.00141   0.00000   0.00324   0.00324   2.67861
   R12        2.04647   0.00727   0.00000   0.02022   0.02022   2.06669
   R13        2.89023  -0.00148   0.00000  -0.00479  -0.00480   2.88544
   R14        2.05157   0.00257   0.00000   0.00721   0.00721   2.05878
   R15        2.05338   0.00342   0.00000   0.00962   0.00962   2.06300
   R16        2.67719   0.00338   0.00000   0.00787   0.00789   2.68508
   R17        2.66501   0.00290   0.00000   0.00654   0.00656   2.67157
   R18        2.87158   0.00032   0.00000   0.00105   0.00105   2.87263
   R19        2.04351   0.00437   0.00000   0.01208   0.01208   2.05559
   R20        2.05544   0.00608   0.00000   0.01718   0.01718   2.07262
   R21        2.68784   0.00316   0.00000   0.00730   0.00730   2.69515
   R22        2.05012   0.00668   0.00000   0.01869   0.01869   2.06881
   R23        2.04305   0.00441   0.00000   0.01220   0.01220   2.05525
   R24        2.89396  -0.00073   0.00000  -0.00245  -0.00246   2.89150
   R25        2.05592   0.00369   0.00000   0.01044   0.01044   2.06635
   R26        2.04965   0.00365   0.00000   0.01021   0.01021   2.05986
   R27        2.05527   0.00635   0.00000   0.01792   0.01792   2.07319
   R28        2.04315   0.00491   0.00000   0.01357   0.01357   2.05672
   R29        2.05444   0.00315   0.00000   0.00887   0.00887   2.06331
   R30        2.05199   0.00300   0.00000   0.00841   0.00841   2.06040
   R31        2.05323   0.00331   0.00000   0.00931   0.00931   2.06253
   R32        2.04979   0.00317   0.00000   0.00888   0.00888   2.05866
    A1        1.92347  -0.00108   0.00000  -0.00584  -0.00603   1.91744
    A2        1.91673   0.00094   0.00000   0.00184   0.00191   1.91864
    A3        1.93861  -0.00044   0.00000  -0.00107  -0.00104   1.93757
    A4        1.90570   0.00004   0.00000  -0.00215  -0.00210   1.90360
    A5        1.90257   0.00060   0.00000   0.00389   0.00395   1.90652
    A6        1.87588  -0.00002   0.00000   0.00355   0.00352   1.87940
    A7        1.95060   0.00005   0.00000  -0.00704  -0.00693   1.94367
    A8        1.95097   0.00314   0.00000   0.01043   0.01018   1.96115
    A9        1.82780  -0.00174   0.00000  -0.00506  -0.00507   1.82273
   A10        1.88844  -0.00356   0.00000  -0.01926  -0.01920   1.86923
   A11        1.91361   0.00231   0.00000   0.01792   0.01794   1.93155
   A12        1.93235  -0.00002   0.00000   0.00438   0.00445   1.93680
   A13        1.92345   0.00002   0.00000  -0.00191  -0.00196   1.92149
   A14        1.96821  -0.00089   0.00000  -0.00341  -0.00340   1.96481
   A15        1.91698   0.00025   0.00000  -0.00235  -0.00233   1.91465
   A16        1.84393   0.00050   0.00000   0.00288   0.00290   1.84683
   A17        1.89594  -0.00014   0.00000   0.00048   0.00048   1.89642
   A18        1.91299   0.00028   0.00000   0.00464   0.00462   1.91762
   A19        1.91491   0.00198   0.00000  -0.00094  -0.00095   1.91396
   A20        1.93002  -0.00027   0.00000   0.00197   0.00202   1.93204
   A21        1.91372  -0.00090   0.00000  -0.00225  -0.00233   1.91139
   A22        1.91551  -0.00057   0.00000   0.00184   0.00184   1.91735
   A23        1.92232  -0.00098   0.00000  -0.00670  -0.00671   1.91560
   A24        1.86692   0.00067   0.00000   0.00616   0.00617   1.87310
   A25        1.97741  -0.00421   0.00000  -0.02517  -0.02510   1.95231
   A26        1.93490   0.00188   0.00000   0.00881   0.00879   1.94370
   A27        1.85538  -0.00112   0.00000  -0.00351  -0.00350   1.85188
   A28        1.90189   0.00065   0.00000   0.00700   0.00705   1.90893
   A29        1.94583  -0.00045   0.00000  -0.00369  -0.00370   1.94213
   A30        1.93137  -0.00153   0.00000  -0.00958  -0.00960   1.92176
   A31        1.89217   0.00060   0.00000   0.00139   0.00135   1.89352
   A32        1.94390   0.00221   0.00000   0.00537   0.00530   1.94920
   A33        1.93147  -0.00159   0.00000  -0.00740  -0.00743   1.92404
   A34        1.94695  -0.00024   0.00000  -0.00163  -0.00157   1.94538
   A35        1.90918   0.00023   0.00000   0.00249   0.00256   1.91174
   A36        1.84149  -0.00129   0.00000  -0.00213  -0.00213   1.83936
   A37        1.88790   0.00068   0.00000   0.00366   0.00364   1.89155
   A38        1.91439   0.00123   0.00000  -0.00209  -0.00212   1.91227
   A39        1.89622  -0.00114   0.00000  -0.00771  -0.00771   1.88852
   A40        1.93563  -0.00036   0.00000  -0.00140  -0.00137   1.93426
   A41        1.91616  -0.00003   0.00000   0.00361   0.00360   1.91976
   A42        1.92354  -0.00018   0.00000   0.00307   0.00307   1.92661
   A43        1.87733   0.00044   0.00000   0.00454   0.00451   1.88184
   A44        1.93477   0.00153   0.00000   0.00651   0.00653   1.94129
   A45        1.91794  -0.00232   0.00000  -0.01569  -0.01576   1.90218
   A46        1.93063  -0.00080   0.00000  -0.00763  -0.00768   1.92295
   A47        1.91563   0.00132   0.00000   0.01206   0.01210   1.92773
   A48        1.86711  -0.00046   0.00000   0.00341   0.00341   1.87053
   A49        1.89680   0.00080   0.00000   0.00202   0.00187   1.89867
   A50        1.93063  -0.00106   0.00000  -0.00749  -0.00753   1.92310
   A51        1.90377  -0.00018   0.00000  -0.00266  -0.00267   1.90109
   A52        1.90865   0.00081   0.00000   0.00541   0.00543   1.91408
   A53        1.91940   0.00079   0.00000   0.00139   0.00139   1.92079
   A54        1.92642  -0.00027   0.00000   0.00057   0.00058   1.92700
   A55        1.87396  -0.00005   0.00000   0.00309   0.00308   1.87704
   A56        2.02349  -0.00542   0.00000  -0.03531  -0.03523   1.98826
   A57        2.06280  -0.01354   0.00000  -0.05346  -0.05346   2.00934
   A58        1.95363  -0.00148   0.00000  -0.01387  -0.01399   1.93964
   A59        1.87244  -0.00003   0.00000   0.00368   0.00369   1.87614
   A60        1.90092   0.00070   0.00000  -0.00152  -0.00153   1.89940
   A61        1.91140   0.00125   0.00000   0.00859   0.00867   1.92007
   A62        1.94713  -0.00040   0.00000  -0.00258  -0.00268   1.94445
   A63        1.87518   0.00002   0.00000   0.00677   0.00675   1.88193
    D1        0.92448  -0.00011   0.00000   0.00768   0.00766   0.93214
    D2        3.03981   0.00031   0.00000   0.01063   0.01064   3.05045
    D3       -1.18888   0.00042   0.00000   0.01798   0.01800  -1.17088
    D4       -1.17565  -0.00006   0.00000   0.01287   0.01285  -1.16279
    D5        0.93969   0.00035   0.00000   0.01582   0.01584   0.95553
    D6        2.99418   0.00046   0.00000   0.02317   0.02319   3.01738
    D7        3.03487  -0.00036   0.00000   0.00796   0.00792   3.04279
    D8       -1.13298   0.00005   0.00000   0.01091   0.01090  -1.12207
    D9        0.92152   0.00016   0.00000   0.01827   0.01826   0.93977
[...]
 8,0.00002196,0.00001786,0.00000093,-0.00000138,0.00000079,0.00000345,0
 .00000201,0.00000026,0.00038940,0.00052053,-0.00001813,0.00000702,0.00
 000522,0.00000031,0.,-0.00000184,0.00000200,0.00006057,0.00017839,0.00
 103461,-0.00174493,0.00298365,-0.00110048,0.00000172,0.00000134,-0.000
 00498,0.00000527,0.00000384,0.00000481,0.00206809,-0.00035307,0.000387
 26,0.00015494,0.00005048,0.00071491,0.02467919,0.09504526,0.29830086,0
 .00000675,-0.00001516,0.00000831,0.00097944,-0.00073222,0.00070319,-0.
 00259521,0.00517288,0.00161118,-0.00001234,0.00003206,0.00002587,0.000
 64037,0.00422418,-0.00265490,0.00922888,0.01054247,0.00140916,0.000125
 50,0.00013006,0.00003526,-0.01859026,-0.02527331,0.00143574,-0.0009479
 3,0.00074426,-0.00012486,-0.13620141,-0.12685622,0.00392376,-0.0003162
 5,-0.00006904,-0.00029669,-0.00285477,-0.00155499,0.00111448,-0.000047
 09,0.00005609,-0.00011441,-0.00001070,0.00000687,-0.00000181,-0.000017
 32,-0.00001248,0.00000073,0.00016209,0.00005069,-0.00023260,-0.0000346
 4,-0.00001171,0.00000075,0.00000238,0.00002396,-0.00001748,0.00013829,
 -0.00067080,0.00079512,0.00043973,-0.00068815,0.00019218,0.00000597,0.
 00002162,0.00001238,-0.00002273,-0.00000942,-0.00002249,0.00140773,0.0
 0016329,-0.00000094,0.00110034,0.00000735,-0.00078572,-0.00206053,-0.0
 0184680,-0.00029818,0.14912238,0.00000025,-0.00000119,-0.00000103,-0.0
 0005547,0.00011459,-0.00003373,0.00184931,-0.00014650,-0.00060620,-0.0
 0000131,0.00000233,0.00000297,0.00085645,-0.00551567,0.00495083,-0.015
 07167,-0.01550495,-0.00303719,0.00001165,0.00000966,0.00000113,0.00653
 546,0.00934442,-0.00065957,0.00182049,-0.00020007,-0.00098927,-0.12660
 679,-0.22619490,0.00938164,-0.00002400,-0.00001349,-0.00000075,0.00073
 384,0.00050557,-0.00040080,-0.00000044,-0.00001703,-0.00000514,-0.0000
 0128,0.00000075,0.00000074,-0.00000108,-0.00000094,0.00000032,0.000023
 87,0.00008721,0.00006105,-0.00000049,-0.00000304,0.00000115,0.00000097
 ,-0.00000345,0.00000095,0.00038198,0.00039751,-0.00051296,0.00006115,0
 .00085865,0.00023472,0.00000175,0.00000189,-0.00000178,-0.00000165,-0.
 00000211,-0.00000142,-0.00057620,0.00041160,0.00028621,-0.00074346,0.0
 0043655,0.00028302,-0.00544458,-0.00888295,0.00034982,0.13670439,0.244
 24932,-0.00000289,0.00000415,-0.00000305,-0.00027142,0.00022741,-0.000
 25096,0.00109302,-0.00195222,0.00006884,0.00000386,-0.00000870,-0.0000
 0890,-0.00068030,0.00514113,-0.00195717,0.01313203,0.01330981,-0.00041
 522,-0.00003696,-0.00003690,-0.00000990,0.00830459,0.01039072,-0.00203
 059,-0.00106340,-0.00013317,0.00048156,0.00283287,0.00745386,-0.048551
 34,0.00008631,0.00002515,0.00009396,0.00112522,0.00041839,-0.00005805,
 0.00001745,-0.00002297,0.00003450,0.00000304,-0.00000218,0.00000057,0.
 00000490,0.00000354,0.00000019,0.00015364,0.00048239,0.00010538,0.0000
 1082,0.00000296,0.00000057,0.00000031,-0.00000745,0.00000564,-0.000172
 11,-0.00034474,0.00051293,0.00030288,-0.00095976,0.00029416,-0.0000051
 4,-0.00000532,-0.00000705,0.00000717,0.00000267,0.00000711,-0.00052853
 ,0.00042981,0.00036268,-0.00055197,-0.00032844,0.00021316,-0.01726454,
 -0.02449301,0.00220637,-0.00665610,-0.00948412,0.04899455,0.00068244,0
 .00039369,0.00063726,-0.01472020,0.01926943,-0.01341170,0.00073289,0.0
 0092318,-0.00150787,0.01053933,-0.01367837,0.00620775,-0.00050933,0.00
 022518,-0.00008739,0.00012737,0.00011423,0.00004154,-0.00018889,-0.000
 02591,0.00006196,-0.00017023,0.00019365,0.00011265,-0.00009479,-0.0002
 9864,0.00056867,0.00001731,-0.00018068,-0.00003772,0.00174083,-0.00103
 374,-0.00042334,-0.00781370,0.00136644,0.00465843,-0.14398348,0.113572
 52,-0.05349287,-0.00020616,0.00034101,-0.00000760,-0.00008392,0.000184
 08,0.00019165,-0.00018881,0.00009293,0.00020536,0.00091945,0.00085436,
 0.00016766,-0.00096002,-0.00365101,-0.00043568,-0.00003188,-0.00000311
 ,-0.00000131,-0.00000556,-0.00001969,-0.00001750,-0.00004586,-0.000059
 52,-0.00004898,0.00005345,0.00001779,0.00000659,-0.00000092,-0.0000201
 0,-0.00001738,0.00002154,-0.00004955,0.00000413,-0.00000287,0.00001229
 ,0.00000901,-0.00007943,0.00000079,0.00002402,0.15885287,0.00098732,0.
 00106139,0.00077534,-0.00004750,-0.00233003,0.00087761,-0.00024503,0.0
 0041262,0.00035095,0.01700126,-0.02291126,0.01073663,0.00001601,-0.000
 00978,-0.00000402,-0.00000846,-0.00000393,-0.00000895,-0.00018530,-0.0
 0029589,-0.00009464,0.00009205,-0.00005535,-0.00005532,-0.00003141,0.0
 0002275,-0.00001761,0.00000367,0.00003289,0.00000790,-0.00037713,0.000
 40596,-0.00029338,-0.00012075,0.00114505,-0.00015599,0.11528961,-0.181
 88913,0.06466307,-0.00030908,0.00003499,-0.00077280,-0.00036494,0.0003
 2636,0.00000572,-0.00002250,0.00000203,-0.00000008,-0.00001024,0.00143
 670,0.00004580,-0.00328179,-0.00443371,-0.00053938,0.00000267,-0.00000
 226,0.00000071,-0.00000029,0.00000061,0.00000193,-0.00006637,0.0000411
 5,0.00007225,0.00007863,0.00001473,-0.00006756,-0.00000325,-0.00000326
 ,0.00000438,-0.00001127,-0.00001117,0.00001014,0.00000119,-0.00000134,
 -0.00000232,0.00001305,-0.00000190,-0.00000453,-0.12291081,0.20025296,
 0.00056560,-0.00071292,0.00049177,0.01113879,-0.01492027,0.00555921,0.
 00041410,-0.00050581,0.00098862,0.00036432,0.00074079,-0.00103499,0.00
 023379,-0.00011519,0.00003609,-0.00005731,-0.00004970,-0.00000797,0.00
 021175,-0.00009055,0.00000072,0.00004306,-0.00008074,-0.00002054,0.000
 12705,0.00013555,-0.00028027,-0.00000120,0.00006335,-0.00000052,-0.000
 36567,0.00065186,0.00102135,0.00411516,-0.00068017,-0.00189216,-0.0577
 6291,0.06650947,-0.08259861,-0.00014775,-0.00001100,0.00022559,0.00004
 623,0.00005798,0.00003869,-0.00005280,-0.00000410,-0.00001475,-0.00003
 606,0.00018666,0.00006339,0.00043880,0.00002142,0.00102331,0.00001051,
 0.00000442,-0.00000118,0.00000296,0.00000763,0.00000579,-0.00002990,0.
 00006822,-0.00001499,-0.00002567,-0.00000137,0.00001373,0.00000495,0.0
 0000574,0.00000618,-0.00000899,0.00002882,-0.00001261,0.00000176,-0.00
 000377,-0.00000313,0.00002428,-0.00000007,-0.00000924,0.05927003,-0.07
 311760,0.08471831,-0.00099703,-0.00364002,0.00096206,0.00913938,0.0074
 0887,0.02317229,0.00036765,-0.00015985,-0.00003522,-0.00442261,-0.0023
 1441,-0.01514063,0.00004790,-0.00001823,0.00000932,-0.00001382,-0.0000
 1198,0.00000283,-0.00111036,-0.00140753,0.00005934,0.00001703,-0.00004
 039,0.00000721,0.00000755,0.00002556,-0.00006812,0.00000109,0.00002172
 ,-0.00000713,-0.00390719,0.00213257,0.00701182,0.00078856,-0.00025392,
 -0.00019548,-0.07013458,-0.01861459,-0.07170128,0.00009372,0.00013225,
 0.00044641,0.00014640,-0.00057594,-0.00116704,0.00008725,-0.00003313,0
 .00003379,0.00009729,0.00071445,-0.00002086,0.00072536,0.00027230,0.00
 048494,0.00000117,0.00000073,-0.00000118,-0.00000002,0.00000190,0.0000
 0041,0.00009525,0.00016418,-0.00003553,0.00020245,0.00019119,-0.000068
 24,0.00000079,-0.00000427,-0.00000946,-0.00000276,0.00001378,-0.000003
 41,0.00000077,-0.00000077,-0.00000026,0.00000626,-0.00000090,-0.000001
 46,-0.00522787,-0.00550232,-0.01782057,0.07334216,-0.00299325,-0.00514
 413,0.00178198,0.00076453,-0.00230127,-0.00146508,0.00001523,0.0000179
 1,0.00002288,-0.00721175,-0.00714271,-0.02836085,-0.00003202,0.0000086
 0,0.00000306,0.00000956,0.00000810,-0.00000136,-0.00061865,-0.00005785
 ,0.00051622,-0.00001603,0.00001991,0.00001291,0.00000907,-0.00002323,0
 .00001498,-0.00000383,-0.00001922,0.00000012,-0.00005589,0.00152999,0.
 00030917,0.00002062,0.00028023,0.00004250,-0.01795252,-0.06288985,-0.0
 6001774,-0.00015484,0.00013766,-0.00015853,-0.00027790,-0.00046666,-0.
 00176226,-0.00003909,0.00000384,0.00002561,0.00024774,0.00112382,0.000
 49256,0.00091147,0.00114720,0.00006187,-0.00000220,-0.00000084,0.00000
 076,0.00000017,-0.00000129,-0.00000114,0.00009348,0.00003648,-0.000002
 86,0.00010686,0.00011574,-0.00004669,0.00000116,-0.00000100,-0.0000038
 0,-0.00000144,-0.00000900,0.00001025,0.00000133,0.00000022,0.00000073,
 -0.00000704,0.,0.00000170,0.00484398,0.00619667,0.02160395,0.02198013,
 0.06747618,0.00017745,0.00022018,0.00134845,-0.00937275,-0.00431771,-0
 .01754621,0.00031752,0.00014158,0.00030702,0.00057631,0.00056955,0.002
 87470,0.00001033,-0.00000864,-0.00000640,0.00000497,-0.00000185,-0.000
 00853,0.00042076,0.00164819,0.00038277,0.00000752,0.00001404,-0.000044
 22,0.00002149,0.00002820,0.00001143,-0.00000206,-0.00001483,0.00002112
 ,0.00404418,-0.00131675,-0.00411148,-0.00122219,0.00047873,0.00160513,
 -0.06750470,-0.06190680,-0.28095000,0.00003986,0.00007803,0.00009668,0
 .00012327,0.00014084,-0.00001495,-0.00018188,0.00008041,0.00012425,-0.
 00033531,-0.00046776,0.00024277,-0.00012322,-0.00043983,0.00035495,0.0
 0000259,-0.00000240,0.00000199,-0.00000027,0.00000068,0.00000198,-0.00
 001910,-0.00021377,0.00003069,-0.00008603,-0.00013218,-0.00004601,0.00
 000945,0.00000425,0.00000193,-0.00000275,-0.00002718,0.00001807,0.0000
 0030,-0.00000051,-0.00000120,0.00000102,0.00000208,-0.00000119,-0.0022
 1849,-0.00192399,-0.00899901,0.07502064,0.06706982,0.30385955,0.000410
 56,0.00031811,0.00020278,-0.09815081,-0.10031321,0.01627225,0.00349385
 ,0.00077984,-0.00096154,-0.00289056,0.00209600,0.00360875,-0.00017254,
 -0.00004286,-0.00001181,-0.00005438,0.00011450,-0.00001693,0.00148393,
 0.00096216,-0.00101512,-0.00117167,-0.00053495,0.00101534,-0.00013982,
 -0.00013316,0.00011864,0.00013285,0.00028830,-0.00017578,-0.00186377,-
 0.00950210,-0.00381163,0.00384755,0.03083148,-0.00886650,-0.01053494,-
 0.02349228,0.00354269,-0.00006441,0.00005657,-0.00009724,0.00000745,-0
 .00003464,-0.00008835,-0.00029700,0.00004132,0.00018829,-0.00078438,-0
 .00138254,-0.00003000,0.00005102,-0.00019326,0.00009040,-0.00003788,-0
 .00003229,-0.00000463,-0.00000528,-0.00000619,0.00000026,-0.00011543,-
 0.00029704,-0.00005098,-0.00010936,-0.00033989,-0.00008000,-0.00002199
 ,-0.00033913,-0.00014592,-0.00290013,0.00016712,0.00066821,0.00006085,
 -0.00002450,-0.00003568,0.00005581,-0.00000684,-0.00001559,0.00062797,
 0.00001237,-0.00070191,0.00065243,0.00036117,0.00027887,0.10844034,0.0
 0008589,-0.00022066,-0.00009708,-0.09489732,-0.25969458,0.02395887,-0.
 00388490,0.00008279,0.00212570,0.00069656,0.00089862,-0.00060848,0.000
 53169,-0.00008585,0.00001077,-0.00034665,-0.00016169,0.00015619,0.0007
 0886,0.00338797,-0.00212160,-0.00006903,-0.00010188,0.00067405,-0.0000
 2413,0.00025243,-0.00028283,0.00011200,0.00066443,-0.00051078,-0.00976
 060,-0.01417795,-0.00766106,0.00662329,-0.02670787,0.01212732,0.000585
 53,0.00381619,0.00039623,-0.00002699,0.00000931,0.00001485,-0.00007503
 ,-0.00003309,0.00013590,0.00026407,-0.00009665,-0.00027126,0.00018434,
 0.00009961,-0.00003231,0.00007515,0.00012977,-0.00006113,-0.00001427,0
 .00009786,-0.00005425,0.00001197,0.00001850,0.00000568,0.00012568,0.00
 003097,0.00016301,-0.00038332,-0.00068863,-0.00003127,0.00016073,-0.00
 019206,0.00001289,-0.00055290,0.00086824,-0.00061596,-0.00001600,0.000
 01716,0.00003555,0.00007929,-0.00003661,-0.00002679,-0.00049287,0.0005
 6661,0.00021444,-0.00047871,-0.00004730,0.00030682,0.10080838,0.291163
 52,-0.00007276,-0.00052136,-0.00045774,0.02100626,0.03334748,-0.051076
 41,0.00194349,-0.00099614,-0.00131536,0.00281955,-0.00151440,-0.002045
 93,-0.00030878,0.00006506,-0.00001537,0.00007376,0.00004780,0.00004501
 ,0.00054034,0.00083362,-0.00521355,0.00010106,0.00004285,0.00034944,0.
 00014413,-0.00009415,0.00019763,-0.00008685,-0.00020582,-0.00012347,-0
 .02038008,-0.04049908,-0.00949464,-0.00346805,0.02164506,-0.00256578,0
 .00899974,0.01745272,0.00053167,-0.00004232,0.00005765,0.00009744,-0.0
 0022217,0.00008862,0.00032160,-0.00024135,0.00008268,0.00027925,0.0006
 2497,0.00113131,0.00007841,-0.00019317,-0.00004792,-0.00003148,-0.0000
 2329,-0.00000488,0.00000087,-0.00000792,-0.00001127,-0.00001394,-0.000
 03711,-0.00050215,-0.00000987,-0.00077114,-0.00153203,-0.00018062,-0.0
 0014327,-0.00007622,-0.00017204,0.00111428,-0.00020048,-0.00000256,0.0
 0002993,0.00000311,-0.00000130,-0.00008820,0.00001140,0.00003087,-0.00
 041481,-0.00050255,0.00068090,-0.00093590,-0.00014883,0.00044053,-0.00
 996003,-0.02789330,0.06965298,-0.00000903,-0.00001106,-0.00001785,0.00
 021390,-0.00027296,-0.00000845,-0.00262404,-0.00655418,-0.01682916,-0.
 00000758,0.00000836,-0.00000760,-0.00966347,0.01413832,0.03806933,0.00
 379887,0.00485170,0.00252463,0.00013252,0.00011658,0.00004721,0.000242
 83,-0.00084436,0.00083285,-0.05749466,-0.02148317,-0.04394789,-0.00044
 828,-0.00045035,-0.00016989,-0.00052602,0.00013039,0.00004821,0.001291
 21,-0.00030957,-0.00011577,-0.00002125,0.00002445,-0.00002344,-0.00001
 131,0.00000316,0.00000735,-0.00001305,-0.00000712,0.00000893,-0.001408
 25,0.00281639,-0.00121744,-0.00000758,-0.00000238,0.00000725,0.0000042
 9,-0.00000213,-0.00000190,0.00004817,0.00003395,-0.00029569,0.00031883
 ,-0.00029952,-0.00145771,0.00006677,0.00004078,-0.00000218,-0.00001715
 ,-0.00000318,-0.00001233,0.00030819,0.00038240,0.00030878,-0.00009531,
 0.00005544,0.00020823,-0.00012693,0.00003753,-0.00011705,0.00018707,-0
 .00023703,0.00002495,-0.00001601,-0.00000049,0.00000627,-0.00000288,0.
 00000202,0.00001314,0.00002626,-0.00000902,0.00000432,0.06684093,0.000
 01382,0.00000920,0.00000915,-0.00014846,0.00006067,0.00026500,0.005881
 87,0.00686802,0.02148697,0.00000280,0.00000085,0.00000628,0.00575795,-
 0.00215221,-0.01153137,-0.00117027,0.00020509,0.00259081,-0.00007140,-
 0.00013704,-0.00003563,0.00007062,0.00175158,0.00043226,-0.01962145,-0
 .08795557,-0.08240237,0.00020700,-0.00015537,0.00008142,0.00045933,-0.
 00007937,-0.00010813,-0.00202500,0.00084685,-0.00016658,-0.00000981,0.
 00001457,-0.00002231,0.00000456,0.00000052,-0.00000412,0.00000846,0.00
 000460,-0.00000770,0.00227003,-0.00213356,0.00205523,0.00000090,-0.000
 00159,-0.00000372,-0.00000016,-0.00000502,0.00000045,0.00016453,0.0000
 9992,0.00014671,0.00049210,0.00078829,-0.00009866,-0.00001064,-0.00002
 342,0.00002125,0.00000340,0.00000490,0.00000706,0.00020316,-0.00013422
 ,-0.00028220,0.00000775,0.00006741,-0.00032910,-0.00006559,-0.00007117
 ,-0.00014548,-0.00005242,0.00008039,-0.00005639,-0.00000608,0.00000029
 ,0.00000454,0.00000158,0.00000194,-0.00000890,-0.00001810,0.00000789,-
 0.00001402,0.01259273,0.09058940,-0.00000696,0.00000306,-0.00001356,-0
 .00007683,0.00013520,0.00014670,-0.00536745,-0.00822581,-0.02100059,-0
 .00000936,0.00001650,-0.00000088,0.01341716,-0.00811518,-0.01591091,-0
 .00212860,-0.00182320,0.00075631,0.00013050,0.00008274,0.00006154,0.00
 018984,-0.00125165,0.00071012,-0.04213503,-0.07984926,-0.25123183,0.00
 034687,0.00028660,0.00000678,-0.00018659,0.00002674,0.00025199,0.00065
 964,-0.00022047,0.00165965,-0.00004327,0.00004435,-0.00006776,-0.00001
 376,0.00000370,0.00000776,-0.00001088,-0.00000762,0.00000427,-0.001509
 74,0.00277174,-0.00118890,-0.00001140,-0.00000610,0.00000662,0.0000033
 7,0.00000076,-0.00000445,0.00021883,0.00027882,0.00040778,0.00066652,0
 .00106469,0.00004007,0.00003983,0.00004708,-0.00001185,-0.00001203,0.0
 0000012,-0.00001652,0.00043075,0.00075639,0.00018133,-0.00009647,0.000
 13034,0.00040585,-0.00012827,-0.00010803,0.00000631,0.00003135,0.00012
 343,-0.00007006,-0.00004027,0.00000055,0.00001757,-0.00000097,0.000000
 13,0.00000725,-0.00000402,0.00001193,-0.00002088,0.03633421,0.09285993
 ,0.28136242,0.00001305,-0.00002393,0.00002038,0.00011014,0.00000212,-0
 .00006439,0.00909061,0.01519159,-0.00058741,-0.00001550,0.00001111,-0.
 00000741,-0.02786015,-0.02913997,0.00613536,-0.00280294,0.00478313,0.0
 0285433,-0.00004950,0.00011564,-0.00002885,-0.00214171,0.00232554,-0.0
 0177173,-0.10963962,-0.10992234,0.00650304,-0.00072680,-0.00034144,-0.
 00000123,0.00003834,-0.00004352,0.00004401,0.00172194,-0.00071900,-0.0
 0033213,0.00000233,-0.00004300,0.00002780,0.00000919,-0.00000077,-0.00
 000691,0.00000066,0.00000220,-0.00000013,0.00076985,-0.00071611,0.0003
 9776,0.00000132,-0.00000247,-0.00000145,0.00002588,-0.00002444,0.00000
 677,-0.00105802,-0.00143626,0.00047377,0.00010296,0.00004229,-0.000191
 44,0.00014598,-0.00013408,0.00009606,0.00001806,-0.00001299,0.00000742
 ,-0.00004984,-0.00002994,0.00003577,0.00052777,0.00100162,-0.00028923,
 0.00008964,-0.00002387,0.00001271,0.00018162,-0.00020918,0.00012333,0.
 00001448,0.00000111,-0.00000869,-0.00000135,-0.00000209,-0.00000092,0.
 00002347,-0.00002172,-0.00000467,-0.00098701,-0.00494319,-0.00068699,0
 .13244514,0.00000595,0.00000989,-0.00000232,0.00016019,0.00031846,-0.0
 0011586,-0.01159884,-0.01902719,0.00040626,0.00000956,-0.00001631,-0.0
 0000723,0.00489331,0.01146432,-0.00041772,0.00225061,0.00114181,-0.000
 65986,-0.00002346,-0.00008434,-0.00002724,0.00367828,-0.00146915,0.003
 05271,-0.11883357,-0.25707249,0.01384545,0.00053373,0.00023883,-0.0004
 1450,0.00009752,0.00005471,0.00005427,-0.00024532,0.00124342,-0.000369
 75,0.00006275,-0.00002684,0.00006040,-0.00000128,0.00000055,-0.0000010
 2,0.00000599,0.00000428,-0.00000100,0.00004130,0.00120122,-0.00003379,
 0.00000383,0.00001006,-0.00000252,0.00001677,-0.00000840,0.00000062,0.
 00025607,0.00026899,-0.00000473,0.00012643,0.00007404,0.00008598,0.000
 12329,-0.00003361,0.00007968,-0.00000316,0.00001205,0.00000205,0.00014
 701,0.00031457,-0.00008871,-0.00091605,-0.00117816,0.00034091,-0.00006
 031,0.00003201,0.00005609,-0.00017275,0.00002439,-0.00002700,0.0000245
 4,-0.00000475,-0.00001157,-0.00000428,-0.00000014,-0.00000030,-0.00014
 434,0.00013295,-0.00004475,-0.00474769,-0.00855384,0.00096254,0.124313
 93,0.27092867,0.00000506,-0.00002166,0.00001854,-0.00008095,-0.0001257
 7,-0.00004505,0.00909801,0.01981481,-0.00203638,-0.00000269,0.00000044
 ,0.00001275,0.01346276,0.01376619,-0.00201626,0.00101462,-0.00175080,-
 0.00088534,-0.00002708,0.00011280,-0.00002559,-0.00266261,0.00146215,-
 0.00136772,0.00318980,0.00821536,-0.05256150,0.00001119,0.00000022,0.0
 0012247,-0.00001906,-0.00005562,-0.00003314,0.00071819,-0.00143778,0.0
 0042827,-0.00001976,-0.00001623,-0.00001715,0.00000905,-0.00000180,-0.
 00000857,-0.00000186,-0.00000065,-0.00000030,0.00086016,-0.00059306,0.
 00075528,-0.00000348,-0.00000282,-0.00000361,-0.00000622,0.00001064,-0
 .00000349,0.00040782,0.00050818,0.00023132,0.00027754,0.00043476,0.000
 35393,0.00002174,-0.00005715,0.00001332,0.00001035,-0.00001014,0.00000
 419,0.00012950,0.00035596,0.00015591,0.00049161,0.00095048,0.00007701,
 0.00003784,-0.00005717,-0.00003971,-0.00003038,0.00004257,-0.00004033,
 -0.00000378,0.00000775,-0.00000126,0.00000169,-0.00000208,-0.00000207,
 0.00008719,-0.00008212,0.00003433,-0.01422131,-0.02475037,0.00349784,-
 0.01275495,-0.01671710,0.05338229\\0.00000456,0.00000607,0.00000075,0.
 00031426,0.00030563,-0.00006318,0.00011176,0.00020543,0.00012275,0.000
 00754,0.00000044,-0.00000659,0.00000478,0.00000015,-0.00000128,-0.0000
 0038,0.00000249,0.00000239,-0.00001259,-0.00001358,0.00000240,-0.00000
 515,0.00000349,-0.00000025,-0.00000117,-0.00000123,0.00000448,0.000001
 57,0.00000217,0.00000032,-0.00018897,-0.00014640,0.00008258,-0.0002225
 6,-0.00035440,-0.00014772,-0.00001717,-0.00000414,0.00000826,0.0000024
 9,0.00000036,0.00000190,0.00000082,-0.00000120,0.00000282,-0.00000163,
 0.00000231,0.00000130,0.00000118,0.00000002,-0.00000007,0.00000198,0.0
 0000056,-0.00000158,-0.00000058,0.00000134,-0.00000044,0.00000062,-0.0
 0000165,-0.00000255,-0.00000475,0.00000384,0.00000133,-0.00000053,-0.0
 0000184,0.00000234,0.00000051,-0.00000069,0.00000081,-0.00000113,-0.00
 000173,0.00000017,-0.00000090,0.00000052,-0.00000041,-0.00000108,-0.00
 000070,-0.00000203,0.00000038,-0.00000117,-0.00000003,0.00000144,-0.00
 000448,0.00000115,0.00000394,-0.00000175,-0.00000548,-0.00000109,-0.00
 000079,-0.00000322,0.00000186,0.00000093,-0.00000093\\\@


 ERWIN WITH HIS PSI CAN DO
 CALCULATIONS QUITE A FEW.
 BUT ONE THING HAS NOT BEEN SEEN
 JUST WHAT DOES PSI REALLY MEAN.
 -- WALTER HUCKEL, TRANS. BY FELIX BLOCH
 Job cpu time:       0 days 14 hours 29 minutes 38.4 seconds.
 Elapsed time:       0 days  0 hours 54 minutes 23.2 seconds.
 File lengths (MBytes):  RWF=    687 Int=      0 D2E=      0 Chk=     33 Scr=      1
 Normal termination of Gaussian 16 at Sun Nov  4 23:52:32 2018.
