 Entering Gaussian System, Link 0=g16
 Initial command:
 /apps/gaussian/g16a03/g16/l1.exe "/jobfs/local/2012058.r-man2/Gau-8709.inp" -scrdir="/jobfs/local/2012058.r-man2/"
 Entering Link 1 = /apps/gaussian/g16a03/g16/l1.exe PID=      8710.
  
 Copyright (c) 1988,1990,1992,1993,1995,1998,2003,2009,2016,
            Gaussian, Inc.  All Rights Reserved.
  
 This is part of the Gaussian(R) 16 program.  It is based on
 the Gaussian(R) 09 system (copyright 2009, Gaussian, Inc.),
 the Gaussian(R) 03 system (copyright 2003, Gaussian, Inc.),
 the Gaussian(R) 98 system (copyright 1998, Gaussian, Inc.),
 the Gaussian(R) 94 system (copyright 1995, Gaussian, Inc.),
 the Gaussian 92(TM) system (copyright 1992, Gaussian, Inc.),
 the Gaussian 90(TM) system (copyright 1990, Gaussian, Inc.),
 the Gaussian 88(TM) system (copyright 1988, Gaussian, Inc.),
 the Gaussian 86(TM) system (copyright 1986, Carnegie Mellon
 University), and the Gaussian 82(TM) system (copyright 1983,
 Carnegie Mellon University). Gaussian is a federally registered
 trademark of Gaussian, Inc.
  
 This software contains proprietary and confidential information,
 including trade secrets, belonging to Gaussian, Inc.
  
 This software is provided under written license and may be
 used, copied, transmitted, or stored only in accord with that
 written license.
  
 The following legend is applicable only to US Government
 contracts under FAR:
  
                    RESTRICTED RIGHTS LEGEND
  
 Use, reproduction and disclosure by the US Government is
 subject to restrictions as set forth in subparagraphs (a)
 and (c) of the Commercial Computer Software - Restricted
 Rights clause in FAR 52.227-19.
  
 Gaussian, Inc.
 340 Quinnipiac St., Bldg. 40, Wallingford CT 06492
  
  
 ---------------------------------------------------------------
 Warning -- This program may not be used in any manner that
 competes with the business of Gaussian, Inc. or will provide
 assistance to any competitor of Gaussian, Inc.  The licensee
 of this program is prohibited from giving any competitor of
 Gaussian, Inc. access to this program.  By using this program,
 the user acknowledges that Gaussian, Inc. is engaged in the
 business of creating and licensing software in the field of
 computational chemistry and represents and warrants to the
 licensee that it is not a competitor of Gaussian, Inc. and that
 it will not use this program in any manner prohibited above.
 ---------------------------------------------------------------
  

 Cite this work as:
 Gaussian 16, Revision A.03,
 M. J. Frisch, G. W. Trucks, H. B. Schlegel, G. E. Scuseria, 
 M. A. Robb, J. R. Cheeseman, G. Scalmani, V. Barone, 
 G. A. Petersson, H. Nakatsuji, X. Li, M. Caricato, A. V. Marenich, 
 J. Bloino, B. G. Janesko, R. Gomperts, B. Mennucci, H. P. Hratchian, 
 J. V. Ortiz, A. F. Izmaylov, J. L. Sonnenberg, D. Williams-Young, 
 F. Ding, F. Lipparini, F. Egidi, J. Goings, B. Peng, A. Petrone, 
 T. Henderson, D. Ranasinghe, V. G. Zakrzewski, J. Gao, N. Rega, 
 G. Zheng, W. Liang, M. Hada, M. Ehara, K. Toyota, R. Fukuda, 
 J. Hasegawa, M. Ishida, T. Nakajima, Y. Honda, O. Kitao, H. Nakai, 
 T. Vreven, K. Throssell, J. A. Montgomery, Jr., J. E. Peralta, 
 F. Ogliaro, M. J. Bearpark, J. J. Heyd, E. N. Brothers, K. N. Kudin, 
 V. N. Staroverov, T. A. Keith, R. Kobayashi, J. Normand, 
 K. Raghavachari, A. P. Rendell, J. C. Burant, S. S. Iyengar, 
 J. Tomasi, M. Cossi, J. M. Millam, M. Klene, C. Adamo, R. Cammi, 
 J. W. Ochterski, R. L. Martin, K. Morokuma, O. Farkas, 
 J. B. Foresman, and D. J. Fox, Gaussian, Inc., Wallingford CT, 2016.
 
 ******************************************
 Gaussian 16:  ES64L-G16RevA.03 25-Dec-2016
                 4-Nov-2018 
 ******************************************
 %mem=6000mb
 %nproc=24
 Will use up to   24 processors via shared memory.
 %chk=L_a1-e4_D_PHI.inp_extract_6.chk
 ----------------------------------------------------------------------
 #M062X/6-311++G(2d,2p) opt=ModRedundant freq=noraman SCRF=(Solvent=Wat
 er)
 ----------------------------------------------------------------------
 1/18=120,19=15,26=3,38=1/1,3;
 2/9=110,12=2,17=6,18=5,40=1/2;
 3/5=4,6=6,7=1212,11=2,25=1,30=1,70=2201,71=1,72=1,74=-55/1,2,3;
 4//1;
 5/5=2,38=5,53=1/2;
 6/7=2,8=2,9=2,10=2,28=1/1;
 7//1,2,3,16;
 1/18=20,19=15,26=3/3(2);
 2/9=110/2;
 99//99;
 2/9=110/2;
 3/5=4,6=6,7=1212,11=2,25=1,30=1,70=2205,71=1,72=1,74=-55/1,2,3;
 4/5=5,16=3,69=1/1;
 5/5=2,38=5,53=1/2;
 7//1,2,3,16;
 1/18=20,19=15,26=3/3(-5);
 2/9=110/2;
 6/7=2,8=2,9=2,10=2,19=2,28=1/1;
 99/9=1/99;
 ---------------------------
 L_a1-e4_D_PHI.inp_extract_6
 ---------------------------
 Symbolic Z-matrix:
 Charge =  0 Multiplicity = 1
 C                    -1.95378  -1.40087  -0.68639 
 O                    -1.58709  -1.15506   0.67168 
 C                    -2.70516   0.96955  -0.87811 
 O                     2.6588   -1.30864  -0.10337 
 C                    -1.4656    0.14061   1.18028 
 C                    -2.51012   1.10384   0.62869 
 C                     2.95986   0.93648  -0.94875 
 O                    -0.16523   0.6925    1.06172 
 C                     1.76704   1.40515  -0.11271 
 C                     3.60961  -0.28004  -0.31024 
 C                     0.8208    0.24083   0.15449 
 C                     1.59832  -0.93086   0.74923 
 C                    -3.05376  -0.48296  -1.18759 
 H                    -1.07888  -1.31412  -1.31714 
 H                    -2.27018  -2.43445  -0.70165 
 H                    -1.80162   1.25929  -1.40949 
 H                    -3.49729   1.63392  -1.20888 
 H                    -1.60903   0.03025   2.24421 
 H                    -3.4514    0.88104   1.12499 
 H                    -2.22646   2.11043   0.91438 
 H                     3.69417   1.73125  -1.04075 
 H                     2.63251   0.67849  -1.95285 
 H                     2.11755   1.79545   0.84011 
 H                     1.23223   2.20427  -0.6163 
 H                     4.37756  -0.69871  -0.94628 
 H                     4.06007  -0.01722   0.64439 
 H                     0.37144  -0.06375  -0.77843 
 H                     0.97253  -1.8019    0.86922 
 H                     1.99216  -0.64784   1.72331 
 H                    -3.1751   -0.64765  -2.25419 
 H                    -3.99537  -0.73961  -0.70837 
 
 The following ModRedundant input section has been read:
 D       2       5       8      11 F                                           
 

 GradGradGradGradGradGradGradGradGradGradGradGradGradGradGradGradGradGrad
 Berny optimization.
 Initialization pass.
                           ----------------------------
                           !    Initial Parameters    !
                           ! (Angstroms and Degrees)  !
 --------------------------                            --------------------------
 ! Name  Definition              Value          Derivative Info.                !
 --------------------------------------------------------------------------------
 ! R1    R(1,2)                  1.428          estimate D2E/DX2                !
 ! R2    R(1,13)                 1.5178         estimate D2E/DX2                !
 ! R3    R(1,14)                 1.082          estimate D2E/DX2                !
 ! R4    R(1,15)                 1.081          estimate D2E/DX2                !
 ! R5    R(2,5)                  1.3972         estimate D2E/DX2                !
 ! R6    R(3,6)                  1.5253         estimate D2E/DX2                !
 ! R7    R(3,13)                 1.5255         estimate D2E/DX2                !
 ! R8    R(3,16)                 1.0875         estimate D2E/DX2                !
 ! R9    R(3,17)                 1.0855         estimate D2E/DX2                !
 ! R10   R(4,10)                 1.4159         estimate D2E/DX2                !
 ! R11   R(4,12)                 1.4122         estimate D2E/DX2                !
 ! R12   R(5,6)                  1.5242         estimate D2E/DX2                !
 ! R13   R(5,8)                  1.4176         estimate D2E/DX2                !
 ! R14   R(5,18)                 1.0792         estimate D2E/DX2                !
 ! R15   R(6,19)                 1.0872         estimate D2E/DX2                !
 ! R16   R(6,20)                 1.0841         estimate D2E/DX2                !
 ! R17   R(7,9)                  1.5302         estimate D2E/DX2                !
 ! R18   R(7,10)                 1.5198         estimate D2E/DX2                !
 ! R19   R(7,21)                 1.086          estimate D2E/DX2                !
 ! R20   R(7,22)                 1.0872         estimate D2E/DX2                !
 ! R21   R(8,11)                 1.414          estimate D2E/DX2                !
 ! R22   R(9,11)                 1.5239         estimate D2E/DX2                !
 ! R23   R(9,23)                 1.0877         estimate D2E/DX2                !
 ! R24   R(9,24)                 1.0855         estimate D2E/DX2                !
 ! R25   R(10,25)                1.0815         estimate D2E/DX2                !
 ! R26   R(10,26)                1.0878         estimate D2E/DX2                !
 ! R27   R(11,12)                1.5268         estimate D2E/DX2                !
 ! R28   R(11,27)                1.0794         estimate D2E/DX2                !
 ! R29   R(12,28)                1.0792         estimate D2E/DX2                !
 ! R30   R(12,29)                1.0881         estimate D2E/DX2                !
 ! R31   R(13,30)                1.086          estimate D2E/DX2                !
 ! R32   R(13,31)                1.0873         estimate D2E/DX2                !
 ! A1    A(2,1,13)             113.3305         estimate D2E/DX2                !
 ! A2    A(2,1,14)             109.4471         estimate D2E/DX2                !
 ! A3    A(2,1,15)             104.6647         estimate D2E/DX2                !
 ! A4    A(13,1,14)            110.1822         estimate D2E/DX2                !
 ! A5    A(13,1,15)            111.1889         estimate D2E/DX2                !
 ! A6    A(14,1,15)            107.7631         estimate D2E/DX2                !
 ! A7    A(1,2,5)              121.8797         estimate D2E/DX2                !
 ! A8    A(6,3,13)             108.2684         estimate D2E/DX2                !
 ! A9    A(6,3,16)             110.6704         estimate D2E/DX2                !
 ! A10   A(6,3,17)             109.905          estimate D2E/DX2                !
 ! A11   A(13,3,16)            110.1453         estimate D2E/DX2                !
 ! A12   A(13,3,17)            110.7438         estimate D2E/DX2                !
 ! A13   A(16,3,17)            107.1184         estimate D2E/DX2                !
 ! A14   A(10,4,12)            113.4617         estimate D2E/DX2                !
 ! A15   A(2,5,6)              113.2486         estimate D2E/DX2                !
 ! A16   A(2,5,8)              114.2261         estimate D2E/DX2                !
 ! A17   A(2,5,18)             104.6235         estimate D2E/DX2                !
 ! A18   A(6,5,8)              110.6298         estimate D2E/DX2                !
 ! A19   A(6,5,18)             109.2879         estimate D2E/DX2                !
 ! A20   A(8,5,18)             104.1335         estimate D2E/DX2                !
 ! A21   A(3,6,5)              112.9235         estimate D2E/DX2                !
 ! A22   A(3,6,19)             108.7964         estimate D2E/DX2                !
 ! A23   A(3,6,20)             112.057          estimate D2E/DX2                !
 ! A24   A(5,6,19)             107.3746         estimate D2E/DX2                !
 ! A25   A(5,6,20)             108.186          estimate D2E/DX2                !
 ! A26   A(19,6,20)            107.2489         estimate D2E/DX2                !
 ! A27   A(9,7,10)             110.4196         estimate D2E/DX2                !
 ! A28   A(9,7,21)             110.4401         estimate D2E/DX2                !
 ! A29   A(9,7,22)             110.0351         estimate D2E/DX2                !
 ! A30   A(10,7,21)            109.4093         estimate D2E/DX2                !
 ! A31   A(10,7,22)            109.0753         estimate D2E/DX2                !
 ! A32   A(21,7,22)            107.3986         estimate D2E/DX2                !
 ! A33   A(5,8,11)             124.679          estimate D2E/DX2                !
 ! A34   A(7,9,11)             110.2309         estimate D2E/DX2                !
 ! A35   A(7,9,23)             109.7141         estimate D2E/DX2                !
 ! A36   A(7,9,24)             110.8603         estimate D2E/DX2                !
 ! A37   A(11,9,23)            108.7023         estimate D2E/DX2                !
 ! A38   A(11,9,24)            109.7483         estimate D2E/DX2                !
 ! A39   A(23,9,24)            107.519          estimate D2E/DX2                !
 ! A40   A(4,10,7)             110.8409         estimate D2E/DX2                !
 ! A41   A(4,10,25)            106.3512         estimate D2E/DX2                !
 ! A42   A(4,10,26)            108.9883         estimate D2E/DX2                !
 ! A43   A(7,10,25)            111.4922         estimate D2E/DX2                !
 ! A44   A(7,10,26)            110.6312         estimate D2E/DX2                !
 ! A45   A(25,10,26)           108.3975         estimate D2E/DX2                !
 ! A46   A(8,11,9)             107.5438         estimate D2E/DX2                !
 ! A47   A(8,11,12)            110.5075         estimate D2E/DX2                !
 ! A48   A(8,11,27)            110.7551         estimate D2E/DX2                !
 ! A49   A(9,11,12)            109.7809         estimate D2E/DX2                !
 ! A50   A(9,11,27)            108.8171         estimate D2E/DX2                !
 ! A51   A(12,11,27)           109.3989         estimate D2E/DX2                !
 ! A52   A(4,12,11)            110.6424         estimate D2E/DX2                !
 ! A53   A(4,12,28)            106.6574         estimate D2E/DX2                !
 ! A54   A(4,12,29)            109.7696         estimate D2E/DX2                !
 ! A55   A(11,12,28)           111.5558         estimate D2E/DX2                !
 ! A56   A(11,12,29)           109.4766         estimate D2E/DX2                !
 ! A57   A(28,12,29)           108.6794         estimate D2E/DX2                !
 ! A58   A(1,13,3)             110.0739         estimate D2E/DX2                !
 ! A59   A(1,13,30)            108.2743         estimate D2E/DX2                !
 ! A60   A(1,13,31)            109.8361         estimate D2E/DX2                !
 ! A61   A(3,13,30)            111.6641         estimate D2E/DX2                !
 ! A62   A(3,13,31)            109.4659         estimate D2E/DX2                !
 ! A63   A(30,13,31)           107.4765         estimate D2E/DX2                !
 ! D1    D(13,1,2,5)           -41.1916         estimate D2E/DX2                !
 ! D2    D(14,1,2,5)            82.2264         estimate D2E/DX2                !
 ! D3    D(15,1,2,5)          -162.5069         estimate D2E/DX2                !
 ! D4    D(2,1,13,3)            50.2529         estimate D2E/DX2                !
 ! D5    D(2,1,13,30)          172.569          estimate D2E/DX2                !
 ! D6    D(2,1,13,31)          -70.3445         estimate D2E/DX2                !
 ! D7    D(14,1,13,3)          -72.7606         estimate D2E/DX2                !
 ! D8    D(14,1,13,30)          49.5555         estimate D2E/DX2                !
 ! D9    D(14,1,13,31)         166.642          estimate D2E/DX2                !
 ! D10   D(15,1,13,3)          167.8266         estimate D2E/DX2                !
 ! D11   D(15,1,13,30)         -69.8573         estimate D2E/DX2                !
 ! D12   D(15,1,13,31)          47.2292         estimate D2E/DX2                !
 ! D13   D(1,2,5,6)             37.3981         estimate D2E/DX2                !
 ! D14   D(1,2,5,8)            -90.467          estimate D2E/DX2                !
 ! D15   D(1,2,5,18)           156.3212         estimate D2E/DX2                !
 ! D16   D(13,3,6,5)            55.6244         estimate D2E/DX2                !
 ! D17   D(13,3,6,19)          -63.4815         estimate D2E/DX2                !
 ! D18   D(13,3,6,20)          178.1024         estimate D2E/DX2                !
 ! D19   D(16,3,6,5)           -65.1846         estimate D2E/DX2                !
 ! D20   D(16,3,6,19)          175.7095         estimate D2E/DX2                !
 ! D21   D(16,3,6,20)           57.2934         estimate D2E/DX2                !
 ! D22   D(17,3,6,5)           176.7034         estimate D2E/DX2                !
 ! D23   D(17,3,6,19)           57.5974         estimate D2E/DX2                !
 ! D24   D(17,3,6,20)          -60.8186         estimate D2E/DX2                !
 ! D25   D(6,3,13,1)           -57.9552         estimate D2E/DX2                !
 ! D26   D(6,3,13,30)         -178.2453         estimate D2E/DX2                !
 ! D27   D(6,3,13,31)           62.8648         estimate D2E/DX2                !
 ! D28   D(16,3,13,1)           63.1793         estimate D2E/DX2                !
 ! D29   D(16,3,13,30)         -57.1108         estimate D2E/DX2                !
 ! D30   D(16,3,13,31)        -176.0008         estimate D2E/DX2                !
 ! D31   D(17,3,13,1)         -178.5133         estimate D2E/DX2                !
 ! D32   D(17,3,13,30)          61.1966         estimate D2E/DX2                !
 ! D33   D(17,3,13,31)         -57.6933         estimate D2E/DX2                !
 ! D34   D(12,4,10,7)          -60.4216         estimate D2E/DX2                !
 ! D35   D(12,4,10,25)         178.2303         estimate D2E/DX2                !
 ! D36   D(12,4,10,26)          61.564          estimate D2E/DX2                !
 ! D37   D(10,4,12,11)          61.2577         estimate D2E/DX2                !
 ! D38   D(10,4,12,28)        -177.2404         estimate D2E/DX2                !
 ! D39   D(10,4,12,29)         -59.6738         estimate D2E/DX2                !
 ! D40   D(2,5,6,3)            -44.2556         estimate D2E/DX2                !
 ! D41   D(2,5,6,19)            75.6704         estimate D2E/DX2                !
 ! D42   D(2,5,6,20)          -168.873          estimate D2E/DX2                !
 ! D43   D(8,5,6,3)             85.4568         estimate D2E/DX2                !
 ! D44   D(8,5,6,19)          -154.6172         estimate D2E/DX2                !
 ! D45   D(8,5,6,20)           -39.1607         estimate D2E/DX2                !
 ! D46   D(18,5,6,3)          -160.4529         estimate D2E/DX2                !
 ! D47   D(18,5,6,19)          -40.5268         estimate D2E/DX2                !
 ! D48   D(18,5,6,20)           74.9297         estimate D2E/DX2                !
 ! D49   D(2,5,8,11)            20.4621         Frozen                          !
 ! D50   D(6,5,8,11)          -108.728          estimate D2E/DX2                !
 ! D51   D(18,5,8,11)          133.9648         estimate D2E/DX2                !
 ! D52   D(10,7,9,11)          -52.0802         estimate D2E/DX2                !
 ! D53   D(10,7,9,23)           67.5942         estimate D2E/DX2                !
 ! D54   D(10,7,9,24)         -173.8026         estimate D2E/DX2                !
 ! D55   D(21,7,9,11)         -173.2229         estimate D2E/DX2                !
 ! D56   D(21,7,9,23)          -53.5485         estimate D2E/DX2                !
 ! D57   D(21,7,9,24)           65.0547         estimate D2E/DX2                !
 ! D58   D(22,7,9,11)           68.3805         estimate D2E/DX2                !
 ! D59   D(22,7,9,23)         -171.9452         estimate D2E/DX2                !
 ! D60   D(22,7,9,24)          -53.3419         estimate D2E/DX2                !
 ! D61   D(9,7,10,4)            54.7969         estimate D2E/DX2                !
 ! D62   D(9,7,10,25)          173.0676         estimate D2E/DX2                !
 ! D63   D(9,7,10,26)          -66.2231         estimate D2E/DX2                !
 ! D64   D(21,7,10,4)          176.5506         estimate D2E/DX2                !
 ! D65   D(21,7,10,25)         -65.1787         estimate D2E/DX2                !
 ! D66   D(21,7,10,26)          55.5307         estimate D2E/DX2                !
 ! D67   D(22,7,10,4)          -66.2368         estimate D2E/DX2                !
 ! D68   D(22,7,10,25)          52.0339         estimate D2E/DX2                !
 ! D69   D(22,7,10,26)         172.7432         estimate D2E/DX2                !
 ! D70   D(5,8,11,9)           154.9176         estimate D2E/DX2                !
 ! D71   D(5,8,11,12)          -85.2678         estimate D2E/DX2                !
 ! D72   D(5,8,11,27)           36.1298         estimate D2E/DX2                !
 ! D73   D(7,9,11,8)           172.8798         estimate D2E/DX2                !
 ! D74   D(7,9,11,12)           52.6044         estimate D2E/DX2                !
 ! D75   D(7,9,11,27)          -67.0954         estimate D2E/DX2                !
 ! D76   D(23,9,11,8)           52.5944         estimate D2E/DX2                !
 ! D77   D(23,9,11,12)         -67.681          estimate D2E/DX2                !
 ! D78   D(23,9,11,27)         172.6192         estimate D2E/DX2                !
 ! D79   D(24,9,11,8)          -64.7406         estimate D2E/DX2                !
 ! D80   D(24,9,11,12)         174.9839         estimate D2E/DX2                !
 ! D81   D(24,9,11,27)          55.2842         estimate D2E/DX2                !
 ! D82   D(8,11,12,4)         -174.8791         estimate D2E/DX2                !
 ! D83   D(8,11,12,28)          66.5552         estimate D2E/DX2                !
 ! D84   D(8,11,12,29)         -53.7738         estimate D2E/DX2                !
 ! D85   D(9,11,12,4)          -56.42           estimate D2E/DX2                !
 ! D86   D(9,11,12,28)        -174.9857         estimate D2E/DX2                !
 ! D87   D(9,11,12,29)          64.6852         estimate D2E/DX2                !
 ! D88   D(27,11,12,4)          62.9238         estimate D2E/DX2                !
 ! D89   D(27,11,12,28)        -55.6419         estimate D2E/DX2                !
 ! D90   D(27,11,12,29)       -175.971          estimate D2E/DX2                !
 --------------------------------------------------------------------------------
 Trust Radius=3.00D-01 FncErr=1.00D-07 GrdErr=1.00D-06 EigMax=2.50D+02 EigMin=1.00D-04
 Number of steps in this run=    186 maximum allowed number of steps=    186.
 GradGradGradGradGradGradGradGradGradGradGradGradGradGradGradGradGradGrad

                          Input orientation:                          
 ---------------------------------------------------------------------
 Center     Atomic      Atomic             Coordinates (Angstroms)
 Number     Number       Type             X           Y           Z
 ---------------------------------------------------------------------
      1          6           0       -1.953782   -1.400873   -0.686391
      2          8           0       -1.587087   -1.155056    0.671680
      3          6           0       -2.705164    0.969554   -0.878106
      4          8           0        2.658799   -1.308642   -0.103372
      5          6           0       -1.465596    0.140611    1.180280
      6          6           0       -2.510116    1.103843    0.628691
      7          6           0        2.959855    0.936475   -0.948749
      8          8           0       -0.165226    0.692503    1.061718
      9          6           0        1.767042    1.405154   -0.112709
     10          6           0        3.609611   -0.280036   -0.310236
     11          6           0        0.820804    0.240829    0.154494
     12          6           0        1.598315   -0.930856    0.749234
     13          6           0       -3.053764   -0.482963   -1.187591
     14          1           0       -1.078877   -1.314118   -1.317137
     15          1           0       -2.270180   -2.434451   -0.701650
     16          1           0       -1.801615    1.259288   -1.409487
     17          1           0       -3.497292    1.633919   -1.208878
     18          1           0       -1.609033    0.030245    2.244209
     19          1           0       -3.451403    0.881039    1.124991
     20          1           0       -2.226456    2.110429    0.914375
     21          1           0        3.694165    1.731245   -1.040753
     22          1           0        2.632512    0.678487   -1.952854
     23          1           0        2.117552    1.795451    0.840111
     24          1           0        1.232227    2.204268   -0.616297
     25          1           0        4.377559   -0.698712   -0.946279
     26          1           0        4.060069   -0.017224    0.644385
     27          1           0        0.371435   -0.063750   -0.778425
     28          1           0        0.972525   -1.801903    0.869223
     29          1           0        1.992163   -0.647836    1.723313
     30          1           0       -3.175102   -0.647652   -2.254189
     31          1           0       -3.995366   -0.739614   -0.708373
 ---------------------------------------------------------------------
                    Distance matrix (angstroms):
                    1          2          3          4          5
     1  C    0.000000
     2  O    1.428022   0.000000
     3  C    2.494044   2.857604   0.000000
     4  O    4.650196   4.318778   5.878987   0.000000
     5  C    2.469607   1.397207   2.541777   4.556175   0.000000
     6  C    2.883149   2.440585   1.525292   5.750972   1.524168
     7  C    5.447555   5.260701   5.665556   2.417819   4.975016
     8  O    3.261448   2.363745   3.207953   3.652004   1.417605
     9  C    4.695469   4.291867   4.558092   2.856573   3.704165
    10  C    5.687628   5.360549   6.462224   1.415933   5.306252
    11  C    3.331756   2.830886   3.745631   2.417764   2.507968
    12  C    3.859965   3.194224   4.977924   1.412192   3.274354
    13  C    1.517801   2.461654   1.525486   5.872874   2.918550
    14  H    1.082047   2.058876   2.837731   3.929819   2.915970
    15  H    1.081029   1.997374   3.436219   5.091190   3.289371
    16  H    2.760884   3.194736   1.087526   5.309943   2.840993
    17  H    3.444616   3.868302   1.085476   6.912182   3.473591
    18  H    3.279538   1.969332   3.439863   5.051549   1.079213
    19  H    3.275835   2.797650   2.139417   6.605918   2.120075
    20  H    3.868597   3.336328   2.178014   6.049097   2.128332
    21  H    6.468001   6.257378   6.446552   3.345382   5.838342
    22  H    5.192471   5.296704   5.452576   2.714766   5.186553
    23  H    5.396523   4.739009   5.185843   3.289149   3.961459
    24  H    4.811716   4.570829   4.134744   3.826060   3.842476
    25  H    6.375457   6.197019   7.276862   2.009140   6.274486
    26  H    6.312832   5.760710   7.004291   2.047061   5.553834
    27  H    2.683841   2.670124   3.247016   2.690258   2.693134
    28  H    3.338268   2.647461   4.925396   2.008175   3.132818
    29  H    4.684466   3.764868   5.607871   2.053740   3.587845
    30  H    2.125313   3.367486   2.174811   6.252785   3.916548
    31  H    2.146116   2.806590   2.148182   6.705798   3.277429
                    6          7          8          9         10
     6  C    0.000000
     7  C    5.695341   0.000000
     8  O    2.419757   3.723927   0.000000
     9  C    4.351384   1.530172   2.370825   0.000000
    10  C    6.344113   1.519796   4.132491   2.504784   0.000000
    11  C    3.473425   2.505316   1.413973   1.523948   2.874842
    12  C    4.586255   2.867728   2.417233   2.495668   2.364605
    13  C    2.472324   6.183483   3.845096   5.287772   6.723950
    14  H    3.417781   4.638128   3.243491   4.116351   4.905619
    15  H    3.787730   6.227156   4.161507   5.602551   6.274285
    16  H    2.163402   4.794589   3.017593   3.799766   5.732298
    17  H    2.152245   6.499911   4.140596   5.382112   7.414773
    18  H    2.138799   5.647209   1.980265   4.340889   5.818566
    19  H    1.087187   6.738524   3.292189   5.388763   7.298348
    20  H    1.084110   5.634467   2.506171   4.183341   6.424459
    21  H    6.455523   1.085972   4.516001   2.163655   2.141508
    22  H    5.769916   1.087170   4.112807   2.159448   2.138149
    23  H    4.683837   2.155768   2.544932   1.087683   2.803067
    24  H    4.094638   2.168530   2.655945   1.085454   3.452158
    25  H    7.291763   2.164192   5.157948   3.454836   1.081473
    26  H    6.665161   2.158261   4.304764   2.802557   1.087788
    27  H    3.412709   2.780176   2.060595   2.132739   3.278988
    28  H    4.542026   3.840992   2.748380   3.446834   3.265184
    29  H    4.953493   3.253672   2.624604   2.763408   2.624259
    30  H    3.438159   6.469260   4.674463   5.764090   7.067278
    31  H    2.718831   7.158363   4.455800   6.177394   7.629246
                   11         12         13         14         15
    11  C    0.000000
    12  C    1.526789   0.000000
    13  C    4.163814   5.059025   0.000000
    14  H    2.862227   3.403548   2.146574   0.000000
    15  H    4.176636   4.396716   2.158344   1.747333   0.000000
    16  H    3.218754   4.584357   2.156978   2.674565   3.790026
    17  H    4.737661   6.031375   2.162952   3.814626   4.279570
    18  H    3.211754   3.666844   3.758707   3.843379   3.897426
    19  H    4.427582   5.378086   2.714158   4.051121   3.965398
    20  H    3.654944   4.889331   3.439241   4.245481   4.823835
    21  H    3.450530   3.831895   7.103437   5.668558   7.282954
    22  H    2.813316   3.310714   5.853916   4.260167   5.940731
    23  H    2.137399   2.776800   6.003770   4.953816   6.286596
    24  H    2.149065   3.439142   5.090904   4.267484   5.813076
    25  H    3.839915   3.263871   7.438369   5.503540   6.874959
    26  H    3.286247   2.627917   7.360684   5.651395   6.908462
    27  H    1.079370   2.142627   3.474931   1.989230   3.550246
    28  H    2.169472   1.079228   4.709680   3.037491   3.658264
    29  H    2.150116   1.088139   5.827686   4.372591   5.219196
    30  H    4.749570   5.646792   1.086037   2.390900   2.534149
    31  H    4.990120   5.783637   1.087260   3.034231   2.418426
                   16         17         18         19         20
    16  H    0.000000
    17  H    1.748117   0.000000
    18  H    3.859680   4.249836   0.000000
    19  H    3.047696   2.452729   2.317504   0.000000
    20  H    2.511029   2.519978   2.544963   1.748215   0.000000
    21  H    5.528319   7.194080   6.465933   7.514815   6.246604
    22  H    4.504893   6.248268   6.002188   6.821157   5.820741
    23  H    4.550608   5.979207   4.356016   5.650714   4.356045
    24  H    3.275108   4.800500   4.580571   5.169082   3.783418
    25  H    6.498501   8.217263   6.822747   8.250965   7.413927
    26  H    6.340916   7.954531   5.890705   7.580242   6.642304
    27  H    2.621224   4.246695   3.614887   4.373752   3.787039
    28  H    4.717972   6.008547   3.451347   5.180225   5.053896
    29  H    5.276771   6.628595   3.701316   5.685759   5.104817
    30  H    2.497280   2.530227   4.811206   3.719153   4.306592
    31  H    3.049543   2.476336   3.873630   2.506718   3.726271
                   21         22         23         24         25
    21  H    0.000000
    22  H    1.751381   0.000000
    23  H    2.455093   3.051794   0.000000
    24  H    2.542647   2.464790   1.752728   0.000000
    25  H    2.525994   2.440299   3.810468   4.292935   0.000000
    26  H    2.455752   3.044271   2.664108   3.810648   1.759386
    27  H    3.785678   2.653803   3.020797   2.431286   4.059604
    28  H    4.851646   4.107555   3.775300   4.280610   4.013394
    29  H    4.024537   3.960225   2.601042   3.766401   3.580422
    30  H    7.370102   5.964715   6.599669   5.499153   7.665241
    31  H    8.083595   6.891191   6.796479   6.000221   8.376404
                   26         27         28         29         30
    26  H    0.000000
    27  H    3.953805   0.000000
    28  H    3.573312   2.469257   0.000000
    29  H    2.416194   3.037533   1.760966   0.000000
    30  H    7.819646   3.885453   5.318910   6.520824   0.000000
    31  H    8.200112   4.419350   5.319512   6.463128   1.752380
                   31
    31  H    0.000000
 Stoichiometry    C10H18O3
 Framework group  C1[X(C10H18O3)]
 Deg. of freedom    87
 Full point group                 C1      NOp   1
 Largest Abelian subgroup         C1      NOp   1
 Largest concise Abelian subgroup C1      NOp   1
                         Standard orientation:                         
 ---------------------------------------------------------------------
 Center     Atomic      Atomic             Coordinates (Angstroms)
 Number     Number       Type             X           Y           Z
 ---------------------------------------------------------------------
      1          6           0        1.953782   -1.400873    0.686391
      2          8           0        1.587087   -1.155056   -0.671680
      3          6           0        2.705164    0.969554    0.878106
      4          8           0       -2.658799   -1.308642    0.103372
      5          6           0        1.465596    0.140611   -1.180280
      6          6           0        2.510116    1.103843   -0.628691
      7          6           0       -2.959855    0.936475    0.948749
      8          8           0        0.165226    0.692503   -1.061718
      9          6           0       -1.767042    1.405154    0.112709
     10          6           0       -3.609611   -0.280036    0.310236
     11          6           0       -0.820804    0.240829   -0.154494
     12          6           0       -1.598315   -0.930856   -0.749234
     13          6           0        3.053764   -0.482963    1.187591
     14          1           0        1.078877   -1.314118    1.317137
     15          1           0        2.270180   -2.434451    0.701650
     16          1           0        1.801615    1.259288    1.409487
     17          1           0        3.497292    1.633919    1.208878
     18          1           0        1.609033    0.030245   -2.244209
     19          1           0        3.451403    0.881039   -1.124991
     20          1           0        2.226456    2.110429   -0.914375
     21          1           0       -3.694165    1.731245    1.040753
     22          1           0       -2.632512    0.678487    1.952854
     23          1           0       -2.117552    1.795451   -0.840111
     24          1           0       -1.232227    2.204268    0.616297
     25          1           0       -4.377559   -0.698712    0.946279
     26          1           0       -4.060069   -0.017224   -0.644385
     27          1           0       -0.371435   -0.063750    0.778425
     28          1           0       -0.972525   -1.801903   -0.869223
     29          1           0       -1.992163   -0.647836   -1.723313
     30          1           0        3.175102   -0.647652    2.254189
     31          1           0        3.995366   -0.739614    0.708373
 ---------------------------------------------------------------------
 Rotational constants (GHZ):           1.5939474           0.4585921           0.4344838
 Standard basis: 6-311++G(2d,2p) (5D, 7F)
 There are   557 symmetry adapted cartesian basis functions of A   symmetry.
 There are   531 symmetry adapted basis functions of A   symmetry.
   531 basis functions,   762 primitive gaussians,   557 cartesian basis functions
    51 alpha electrons       51 beta electrons
       nuclear repulsion energy       902.1455262724 Hartrees.
 NAtoms=   31 NActive=   31 NUniq=   31 SFac= 1.00D+00 NAtFMM=   60 NAOKFM=F Big=F
 Integral buffers will be    131072 words long.
 Raffenetti 2 integral format.
 Two-electron integral symmetry is turned on.
 ------------------------------------------------------------------------------
 Polarizable Continuum Model (PCM)
 =================================
 Model                : PCM.
 Atomic radii         : UFF (Universal Force Field).
 Polarization charges : Total charges.
 Charge compensation  : None.
 Solution method      : On-the-fly selection.
 Cavity type          : Scaled VdW (van der Waals Surface) (Alpha=1.100).
 Cavity algorithm     : GePol (No added spheres)
                        Default sphere list used, NSphG=   31.
                        Lebedev-Laikov grids with approx.  5.0 points / Ang**2.
                        Smoothing algorithm: York/Karplus (Gamma=1.0000).
                        Polarization charges: spherical gaussians, with
                                              point-specific exponents (IZeta= 3).
                        Self-potential: point-specific (ISelfS= 7).
                        Self-field    : sphere-specific E.n sum rule (ISelfD= 2).
 1st derivatives      : Analytical E(r).r(x)/FMM algorithm (CHGder, D1EAlg=3).
                        Cavity 1st derivative terms included.
 Solvent              : Water, Eps=  78.355300 Eps(inf)=   1.777849
 ------------------------------------------------------------------------------
 One-electron integrals computed using PRISM.
 NBasis=   531 RedAO= T EigKep=  5.01D-06  NBF=   531
 NBsUse=   531 1.00D-06 EigRej= -1.00D+00 NBFU=   531
 ExpMin= 3.60D-02 ExpMax= 8.59D+03 ExpMxC= 1.30D+03 IAcc=3 IRadAn=         5 AccDes= 0.00D+00
 Harris functional with IExCor= 1009 and IRadAn=       5 diagonalized for initial guess.
 HarFok:  IExCor= 1009 AccDes= 0.00D+00 IRadAn=         5 IDoV= 1 UseB2=F ITyADJ=14
 ICtDFT=  3500011 ScaDFX=  1.000000  1.000000  1.000000  1.000000
 FoFCou: FMM=F IPFlag=           0 FMFlag=      100000 FMFlg1=           0
         NFxFlg=           0 DoJE=T BraDBF=F KetDBF=T FulRan=T
         wScrn=  0.000000 ICntrl=       500 IOpCl=  0 I1Cent=   200000004 NGrid=           0
         NMat0=    1 NMatS0=      1 NMatT0=    0 NMatD0=    1 NMtDS0=    0 NMtDT0=    0
 Petite list used in FoFCou.
 Requested convergence on RMS density matrix=1.00D-08 within 128 cycles.
 Requested convergence on MAX density matrix=1.00D-06.
 Requested convergence on             energy=1.00D-06.
 No special actions if energy rises.
 Inv3:  Mode=1 IEnd=    12619803.
 Iteration    1 A*A^-1 deviation from unit magnitude is 6.44D-15 for   2031.
 Iteration    1 A*A^-1 deviation from orthogonality  is 3.73D-15 for   2048    946.
 Iteration    1 A^-1*A deviation from unit magnitude is 6.00D-15 for   2031.
 Iteration    1 A^-1*A deviation from orthogonality  is 2.65D-15 for   2040    935.
 Error on total polarization charges =  0.01488
 SCF Done:  E(RM062X) =  -617.488415342     A.U. after   12 cycles
            NFock= 12  Conv=0.64D-08     -V/T= 2.0035

 **********************************************************************

            Population analysis using the SCF density.

 **********************************************************************

 Orbital symmetries:
       Occupied  (A) (A) (A) (A) (A) (A) (A) (A) (A) (A) (A) (A)
                 (A) (A) (A) (A) (A) (A) (A) (A) (A) (A) (A) (A)
                 (A) (A) (A) (A) (A) (A) (A) (A) (A) (A) (A) (A)
                 (A) (A) (A) (A) (A) (A) (A) (A) (A) (A) (A) (A)
                 (A) (A) (A)
       Virtual   (A) (A) (A) (A) (A) (A) (A) (A) (A) (A) (A) (A)
                 (A) (A) (A) (A) (A) (A) (A) (A) (A) (A) (A) (A)
                 (A) (A) (A) (A) (A) (A) (A) (A) (A) (A) (A) (A)
                 (A) (A) (A) (A) (A) (A) (A) (A) (A) (A) (A) (A)
                 (A) (A) (A) (A) (A) (A) (A) (A) (A) (A) (A) (A)
                 (A) (A) (A) (A) (A) (A) (A) (A) (A) (A) (A) (A)
                 (A) (A) (A) (A) (A) (A) (A) (A) (A) (A) (A) (A)
                 (A) (A) (A) (A) (A) (A) (A) (A) (A) (A) (A) (A)
                 (A) (A) (A) (A) (A) (A) (A) (A) (A) (A) (A) (A)
                 (A) (A) (A) (A) (A) (A) (A) (A) (A) (A) (A) (A)
                 (A) (A) (A) (A) (A) (A) (A) (A) (A) (A) (A) (A)
                 (A) (A) (A) (A) (A) (A) (A) (A) (A) (A) (A) (A)
                 (A) (A) (A) (A) (A) (A) (A) (A) (A) (A) (A) (A)
                 (A) (A) (A) (A) (A) (A) (A) (A) (A) (A) (A) (A)
                 (A) (A) (A) (A) (A) (A) (A) (A) (A) (A) (A) (A)
                 (A) (A) (A) (A) (A) (A) (A) (A) (A) (A) (A) (A)
                 (A) (A) (A) (A) (A) (A) (A) (A) (A) (A) (A) (A)
                 (A) (A) (A) (A) (A) (A) (A) (A) (A) (A) (A) (A)
                 (A) (A) (A) (A) (A) (A) (A) (A) (A) (A) (A) (A)
                 (A) (A) (A) (A) (A) (A) (A) (A) (A) (A) (A) (A)
                 (A) (A) (A) (A) (A) (A) (A) (A) (A) (A) (A) (A)
                 (A) (A) (A) (A) (A) (A) (A) (A) (A) (A) (A) (A)
                 (A) (A) (A) (A) (A) (A) (A) (A) (A) (A) (A) (A)
                 (A) (A) (A) (A) (A) (A) (A) (A) (A) (A) (A) (A)
                 (A) (A) (A) (A) (A) (A) (A) (A) (A) (A) (A) (A)
                 (A) (A) (A) (A) (A) (A) (A) (A) (A) (A) (A) (A)
                 (A) (A) (A) (A) (A) (A) (A) (A) (A) (A) (A) (A)
                 (A) (A) (A) (A) (A) (A) (A) (A) (A) (A) (A) (A)
                 (A) (A) (A) (A) (A) (A) (A) (A) (A) (A) (A) (A)
                 (A) (A) (A) (A) (A) (A) (A) (A) (A) (A) (A) (A)
                 (A) (A) (A) (A) (A) (A) (A) (A) (A) (A) (A) (A)
                 (A) (A) (A) (A) (A) (A) (A) (A) (A) (A) (A) (A)
                 (A) (A) (A) (A) (A) (A) (A) (A) (A) (A) (A) (A)
                 (A) (A) (A) (A) (A) (A) (A) (A) (A) (A) (A) (A)
                 (A) (A) (A) (A) (A) (A) (A) (A) (A) (A) (A) (A)
                 (A) (A) (A) (A) (A) (A) (A) (A) (A) (A) (A) (A)
                 (A) (A) (A) (A) (A) (A) (A) (A) (A) (A) (A) (A)
                 (A) (A) (A) (A) (A) (A) (A) (A) (A) (A) (A) (A)
                 (A) (A) (A) (A) (A) (A) (A) (A) (A) (A) (A) (A)
                 (A) (A) (A) (A) (A) (A) (A) (A) (A) (A) (A) (A)
 The electronic state is 1-A.
 Alpha  occ. eigenvalues --  -19.63384 -19.62745 -19.62286 -10.63784 -10.58694
 Alpha  occ. eigenvalues --  -10.58210 -10.57765 -10.57421 -10.53221 -10.53079
 Alpha  occ. eigenvalues --  -10.53072 -10.53040 -10.52893  -1.19579  -1.16563
 Alpha  occ. eigenvalues --   -1.13407  -0.91043  -0.90299  -0.87656  -0.84609
 Alpha  occ. eigenvalues --   -0.75306  -0.74333  -0.73668  -0.70592  -0.65786
 Alpha  occ. eigenvalues --   -0.64387  -0.59665  -0.58462  -0.57617  -0.55424
 Alpha  occ. eigenvalues --   -0.55137  -0.53153  -0.52700  -0.51368  -0.50478
 Alpha  occ. eigenvalues --   -0.48218  -0.47409  -0.45728  -0.45423  -0.44512
 Alpha  occ. eigenvalues --   -0.43656  -0.43391  -0.40588  -0.40107  -0.39623
 Alpha  occ. eigenvalues --   -0.39245  -0.37446  -0.36899  -0.34186  -0.33694
 Alpha  occ. eigenvalues --   -0.30865
 Alpha virt. eigenvalues --   -0.00204   0.00672   0.00882   0.01117   0.02212
 Alpha virt. eigenvalues --    0.02559   0.02643   0.03211   0.03518   0.04599
 Alpha virt. eigenvalues --    0.04790   0.04999   0.05534   0.05715   0.07115
 Alpha virt. eigenvalues --    0.07534   0.07749   0.08532   0.08727   0.09571
 Alpha virt. eigenvalues --    0.09693   0.10246   0.11263   0.11627   0.11815
 Alpha virt. eigenvalues --    0.12279   0.12605   0.12811   0.13517   0.13539
 Alpha virt. eigenvalues --    0.13650   0.14195   0.14282   0.14671   0.14820
 Alpha virt. eigenvalues --    0.15120   0.15194   0.15710   0.15957   0.16243
 Alpha virt. eigenvalues --    0.16733   0.17053   0.17261   0.17643   0.17949
 Alpha virt. eigenvalues --    0.18152   0.18308   0.18721   0.19132   0.19277
 Alpha virt. eigenvalues --    0.19731   0.20373   0.20538   0.21032   0.21344
 Alpha virt. eigenvalues --    0.21737   0.21969   0.22732   0.23306   0.24868
 Alpha virt. eigenvalues --    0.24979   0.25203   0.25959   0.26728   0.27246
 Alpha virt. eigenvalues --    0.27913   0.28139   0.29089   0.29339   0.29355
 Alpha virt. eigenvalues --    0.29635   0.30333   0.31203   0.31301   0.32329
 Alpha virt. eigenvalues --    0.32490   0.33537   0.33883   0.34052   0.34117
 Alpha virt. eigenvalues --    0.34590   0.35107   0.35627   0.36370   0.36460
 Alpha virt. eigenvalues --    0.36986   0.37266   0.37492   0.37683   0.38617
 Alpha virt. eigenvalues --    0.38921   0.39224   0.39659   0.40406   0.40604
 Alpha virt. eigenvalues --    0.41661   0.41984   0.42313   0.44291   0.46056
 Alpha virt. eigenvalues --    0.46706   0.47594   0.49165   0.49269   0.50902
 Alpha virt. eigenvalues --    0.51621   0.52459   0.53781   0.54284   0.55305
 Alpha virt. eigenvalues --    0.56713   0.57575   0.57732   0.58137   0.59220
 Alpha virt. eigenvalues --    0.60249   0.60710   0.61032   0.61311   0.61714
 Alpha virt. eigenvalues --    0.62120   0.62959   0.63428   0.63660   0.64641
 Alpha virt. eigenvalues --    0.64982   0.65498   0.66143   0.66379   0.67918
 Alpha virt. eigenvalues --    0.68497   0.68979   0.69419   0.69978   0.70181
 Alpha virt. eigenvalues --    0.71259   0.71474   0.71716   0.72643   0.73135
 Alpha virt. eigenvalues --    0.73660   0.74565   0.74808   0.75573   0.75994
 Alpha virt. eigenvalues --    0.76174   0.76860   0.77719   0.78982   0.79434
 Alpha virt. eigenvalues --    0.80574   0.82761   0.83702   0.84637   0.85659
 Alpha virt. eigenvalues --    0.86828   0.87948   0.88264   0.89222   0.90201
 Alpha virt. eigenvalues --    0.90463   0.91586   0.92596   0.93730   0.96083
 Alpha virt. eigenvalues --    0.97651   0.99494   0.99661   1.00699   1.01797
 Alpha virt. eigenvalues --    1.02446   1.04218   1.05474   1.06342   1.07043
 Alpha virt. eigenvalues --    1.07245   1.08243   1.09613   1.11089   1.12562
 Alpha virt. eigenvalues --    1.13015   1.14055   1.14635   1.15737   1.15876
 Alpha virt. eigenvalues --    1.17122   1.17973   1.18393   1.19013   1.19736
 Alpha virt. eigenvalues --    1.20405   1.21375   1.22838   1.23507   1.24124
 Alpha virt. eigenvalues --    1.24718   1.26108   1.26413   1.27298   1.27611
 Alpha virt. eigenvalues --    1.28722   1.29377   1.30255   1.30350   1.31762
 Alpha virt. eigenvalues --    1.32387   1.33293   1.33704   1.34048   1.34188
 Alpha virt. eigenvalues --    1.35339   1.36070   1.37021   1.37766   1.38188
 Alpha virt. eigenvalues --    1.39022   1.39414   1.40480   1.40999   1.41278
 Alpha virt. eigenvalues --    1.41853   1.43015   1.43496   1.44981   1.45777
 Alpha virt. eigenvalues --    1.46113   1.46602   1.47474   1.47754   1.48777
 Alpha virt. eigenvalues --    1.49901   1.50475   1.50786   1.51042   1.51993
 Alpha virt. eigenvalues --    1.52375   1.53760   1.54052   1.55444   1.56035
 Alpha virt. eigenvalues --    1.56428   1.57869   1.58328   1.59086   1.59323
 Alpha virt. eigenvalues --    1.60166   1.61256   1.61497   1.61862   1.63240
 Alpha virt. eigenvalues --    1.63813   1.64603   1.64916   1.65250   1.66207
 Alpha virt. eigenvalues --    1.67691   1.68691   1.69932   1.71022   1.72130
 Alpha virt. eigenvalues --    1.72519   1.73714   1.75780   1.76837   1.77331
 Alpha virt. eigenvalues --    1.77415   1.79955   1.81218   1.82392   1.83705
 Alpha virt. eigenvalues --    1.86333   1.90218   1.90579   1.92081   1.97299
 Alpha virt. eigenvalues --    2.04512   2.06451   2.09623   2.13935   2.20576
 Alpha virt. eigenvalues --    2.25270   2.26234   2.27887   2.32995   2.37154
 Alpha virt. eigenvalues --    2.40492   2.44676   2.47826   2.50393   2.52878
 Alpha virt. eigenvalues --    2.54234   2.76296   2.76928   2.80653   2.82335
 Alpha virt. eigenvalues --    2.85401   2.89087   2.93188   2.93580   2.94509
 Alpha virt. eigenvalues --    2.97836   2.98636   3.01127   3.01952   3.04168
 Alpha virt. eigenvalues --    3.05916   3.07597   3.08621   3.08836   3.12089
 Alpha virt. eigenvalues --    3.14198   3.15410   3.16425   3.18011   3.19643
 Alpha virt. eigenvalues --    3.23451   3.29199   3.30954   3.33825   3.34610
 Alpha virt. eigenvalues --    3.35857   3.36317   3.37715   3.38854   3.40929
 Alpha virt. eigenvalues --    3.41437   3.43348   3.44737   3.46062   3.47141
 Alpha virt. eigenvalues --    3.47410   3.49089   3.50633   3.51076   3.51740
 Alpha virt. eigenvalues --    3.53014   3.53467   3.54446   3.55051   3.55721
 Alpha virt. eigenvalues --    3.56895   3.56957   3.57936   3.58169   3.59865
 Alpha virt. eigenvalues --    3.60393   3.61684   3.62163   3.63872   3.64848
 Alpha virt. eigenvalues --    3.66221   3.67210   3.68038   3.68640   3.69415
 Alpha virt. eigenvalues --    3.70868   3.71879   3.72683   3.73327   3.73920
 Alpha virt. eigenvalues --    3.74715   3.75831   3.76572   3.77191   3.77885
 Alpha virt. eigenvalues --    3.78495   3.79617   3.81207   3.81541   3.83308
 Alpha virt. eigenvalues --    3.85827   3.87150   3.88260   3.89334   3.90850
 Alpha virt. eigenvalues --    3.92558   3.94400   3.96046   3.97301   3.97858
 Alpha virt. eigenvalues --    3.98981   4.01820   4.02642   4.03676   4.03897
 Alpha virt. eigenvalues --    4.05232   4.06028   4.06430   4.07664   4.07684
 Alpha virt. eigenvalues --    4.08302   4.09971   4.10484   4.11017   4.11586
 Alpha virt. eigenvalues --    4.12359   4.13002   4.14415   4.15517   4.16451
 Alpha virt. eigenvalues --    4.17073   4.18156   4.19139   4.19362   4.20483
 Alpha virt. eigenvalues --    4.21042   4.23997   4.24771   4.26869   4.27252
 Alpha virt. eigenvalues --    4.27847   4.29476   4.30206   4.31251   4.32497
 Alpha virt. eigenvalues --    4.33797   4.34093   4.34870   4.37093   4.39425
 Alpha virt. eigenvalues --    4.41740   4.42973   4.44418   4.46726   4.54663
 Alpha virt. eigenvalues --    4.59156   4.63606   4.75075   4.77687   4.82887
 Alpha virt. eigenvalues --    4.86243   4.92870   4.94562   4.98742   5.00338
 Alpha virt. eigenvalues --    5.06922   5.07505   5.08068   5.08878   5.12338
 Alpha virt. eigenvalues --    5.14021   5.14668   5.15978   5.31003   5.38434
 Alpha virt. eigenvalues --    5.43005   5.56254   5.58303   5.59869   5.85812
 Alpha virt. eigenvalues --    5.88175   6.03806   7.00226   7.02693   7.06189
 Alpha virt. eigenvalues --    7.09264   7.10574   7.13030   7.14792   7.19029
 Alpha virt. eigenvalues --    7.26970   7.37740   7.44785   7.48678   7.51792
 Alpha virt. eigenvalues --    7.54999   7.58652  23.95267  23.98542  24.05980
 Alpha virt. eigenvalues --   24.08596  24.08991  24.13262  24.13763  24.15782
 Alpha virt. eigenvalues --   24.16245  24.17170  50.15946  50.17904  50.24508
          Condensed to atoms (all electrons):
               1          2          3          4          5          6
     1  C    5.831759   0.145665   0.098286  -0.001611  -0.476225   0.296918
     2  O    0.145665   8.136537  -0.036868   0.000427   0.263587  -0.017510
     3  C    0.098286  -0.036868   5.850648   0.000855   0.113797  -0.298269
     4  O   -0.001611   0.000427   0.000855   8.294321  -0.005597  -0.000012
     5  C   -0.476225   0.263587   0.113797  -0.005597   7.540630  -1.387018
     6  C    0.296918  -0.017510  -0.298269  -0.000012  -1.387018   6.849531
     7  C    0.007898  -0.003847   0.030892  -0.007346   0.015306  -0.027639
     8  O    0.086120  -0.023955  -0.040958   0.005095   0.241269  -0.058802
     9  C   -0.119550   0.023973   0.027821   0.005636   0.076849  -0.019127
    10  C   -0.006500   0.004151  -0.011170   0.096085  -0.039579   0.004838
    11  C   -0.103668   0.008266  -0.026620   0.032969  -0.553039   0.195318
    12  C    0.173010  -0.022992  -0.049762   0.139572  -0.099053   0.136549
    13  C   -0.475373  -0.059851  -0.205229  -0.000001   0.183141  -0.145180
    14  H    0.554013  -0.052253   0.056637   0.002515   0.008001  -0.000875
    15  H    0.432359  -0.057697   0.011557   0.000630  -0.005284   0.000314
    16  H    0.016028  -0.002431   0.554381   0.001256   0.030664  -0.097702
    17  H    0.015835  -0.002845   0.423163   0.000023   0.006157  -0.044522
    18  H   -0.030742  -0.056449  -0.012586  -0.000118   0.458973  -0.035973
    19  H    0.007157  -0.013217   0.000546   0.000025  -0.086099   0.486794
    20  H    0.019460   0.009951  -0.038265  -0.000174  -0.059810   0.465571
    21  H   -0.000208   0.000287   0.001209   0.008736  -0.001937   0.000468
    22  H    0.004038  -0.000538   0.003208  -0.001721   0.001191  -0.000317
    23  H    0.003843   0.000727   0.002499   0.000748  -0.007502   0.004017
    24  H   -0.005576  -0.001376  -0.005592  -0.002995   0.006124   0.004035
    25  H   -0.000230   0.000127  -0.000099  -0.072339  -0.001065  -0.000108
    26  H   -0.000273  -0.000202   0.000299  -0.049115   0.001789  -0.001131
    27  H   -0.113078   0.025402  -0.091044  -0.041149  -0.091822   0.018434
    28  H   -0.003892   0.010540  -0.004129  -0.060570   0.006010   0.003842
    29  H    0.003945  -0.002688   0.003013  -0.045306   0.020466  -0.012318
    30  H   -0.035454   0.010217  -0.056375  -0.000058  -0.020916   0.023438
    31  H   -0.088218  -0.008361  -0.000893  -0.000013   0.036784  -0.050433
               7          8          9         10         11         12
     1  C    0.007898   0.086120  -0.119550  -0.006500  -0.103668   0.173010
     2  O   -0.003847  -0.023955   0.023973   0.004151   0.008266  -0.022992
     3  C    0.030892  -0.040958   0.027821  -0.011170  -0.026620  -0.049762
     4  O   -0.007346   0.005095   0.005636   0.096085   0.032969   0.139572
     5  C    0.015306   0.241269   0.076849  -0.039579  -0.553039  -0.099053
     6  C   -0.027639  -0.058802  -0.019127   0.004838   0.195318   0.136549
     7  C    5.510564  -0.004884   0.060664   0.051463  -0.036165   0.033512
     8  O   -0.004884   8.286913  -0.283426   0.018612   0.224959  -0.063601
     9  C    0.060664  -0.283426   7.264987  -0.077521  -1.447319  -0.080223
    10  C    0.051463   0.018612  -0.077521   5.443565   0.122890  -0.266129
    11  C   -0.036165   0.224959  -1.447319   0.122890   8.080541  -0.757598
    12  C    0.033512  -0.063601  -0.080223  -0.266129  -0.757598   6.533719
    13  C   -0.018056  -0.062442   0.045537   0.007599   0.150944  -0.092998
    14  H    0.020445   0.006829  -0.018318  -0.011906  -0.014690   0.013272
    15  H   -0.000219   0.000140  -0.000883  -0.000502  -0.002097   0.008745
    16  H    0.005962   0.005539  -0.017896   0.001984   0.029654  -0.007886
    17  H    0.001377  -0.001543  -0.000824  -0.000397   0.002417   0.001255
    18  H    0.000273  -0.066842   0.023258  -0.002447  -0.025933   0.014194
    19  H    0.000124   0.001141   0.004378   0.000409   0.012517  -0.008015
    20  H   -0.002116  -0.002434  -0.013015  -0.000612  -0.009614   0.008018
    21  H    0.439111  -0.002486  -0.059185  -0.030533   0.018295  -0.005732
    22  H    0.529792  -0.000386  -0.066824  -0.100740   0.017383   0.025834
    23  H   -0.043205  -0.002862   0.433612  -0.024281   0.005596  -0.002873
    24  H   -0.012339   0.002270   0.443544  -0.000808  -0.046731   0.009553
    25  H   -0.056574   0.001182   0.018549   0.443164  -0.006193   0.004011
    26  H   -0.017042  -0.000926  -0.060574   0.459813   0.074623  -0.038505
    27  H   -0.116211  -0.020871   0.189574   0.073795   0.240283  -0.124987
    28  H    0.004182  -0.006089   0.039805   0.010643  -0.106711   0.450569
    29  H    0.024115   0.003633  -0.048529  -0.004823   0.025745   0.393548
    30  H   -0.000407   0.000028  -0.002960   0.000430   0.001016  -0.000064
    31  H   -0.000149  -0.000347   0.004116  -0.000207  -0.003958  -0.000337
              13         14         15         16         17         18
     1  C   -0.475373   0.554013   0.432359   0.016028   0.015835  -0.030742
     2  O   -0.059851  -0.052253  -0.057697  -0.002431  -0.002845  -0.056449
     3  C   -0.205229   0.056637   0.011557   0.554381   0.423163  -0.012586
     4  O   -0.000001   0.002515   0.000630   0.001256   0.000023  -0.000118
     5  C    0.183141   0.008001  -0.005284   0.030664   0.006157   0.458973
     6  C   -0.145180  -0.000875   0.000314  -0.097702  -0.044522  -0.035973
     7  C   -0.018056   0.020445  -0.000219   0.005962   0.001377   0.000273
     8  O   -0.062442   0.006829   0.000140   0.005539  -0.001543  -0.066842
     9  C    0.045537  -0.018318  -0.000883  -0.017896  -0.000824   0.023258
    10  C    0.007599  -0.011906  -0.000502   0.001984  -0.000397  -0.002447
    11  C    0.150944  -0.014690  -0.002097   0.029654   0.002417  -0.025933
    12  C   -0.092998   0.013272   0.008745  -0.007886   0.001255   0.014194
    13  C    6.342417  -0.197641  -0.029076  -0.118998  -0.034222   0.004481
    14  H   -0.197641   0.574092  -0.026410   0.010495   0.001870  -0.002648
    15  H   -0.029076  -0.026410   0.473805  -0.001387   0.002178   0.001261
    16  H   -0.118998   0.010495  -0.001387   0.477819  -0.005191   0.000910
    17  H   -0.034222   0.001870   0.002178  -0.005191   0.447849   0.001553
    18  H    0.004481  -0.002648   0.001261   0.000910   0.001553   0.497768
    19  H   -0.030484  -0.000567   0.001018   0.002627  -0.003617  -0.002519
    20  H   -0.008720   0.000500   0.000810  -0.001886  -0.005850  -0.015467
    21  H   -0.000482   0.000571  -0.000038   0.000117   0.000064  -0.000036
    22  H   -0.003735   0.005768   0.000344   0.001352   0.000243   0.000094
    23  H   -0.001491   0.001391   0.000200  -0.001008   0.000151  -0.001371
    24  H    0.004110  -0.000700  -0.000135  -0.003737   0.000307   0.002402
    25  H    0.000302  -0.000910  -0.000034  -0.000122  -0.000010  -0.000186
    26  H    0.000169   0.000979  -0.000016   0.000311   0.000011  -0.000002
    27  H    0.163733  -0.093369   0.002501  -0.043697  -0.005411  -0.005775
    28  H    0.003363   0.000094  -0.003671  -0.000898  -0.000241   0.000308
    29  H   -0.003733   0.003241   0.000797   0.002064   0.000089  -0.000673
    30  H    0.451210  -0.007107  -0.008860  -0.005681  -0.006680   0.000122
    31  H    0.475827   0.002625  -0.004558   0.000575  -0.000965   0.003545
              19         20         21         22         23         24
     1  C    0.007157   0.019460  -0.000208   0.004038   0.003843  -0.005576
     2  O   -0.013217   0.009951   0.000287  -0.000538   0.000727  -0.001376
     3  C    0.000546  -0.038265   0.001209   0.003208   0.002499  -0.005592
     4  O    0.000025  -0.000174   0.008736  -0.001721   0.000748  -0.002995
     5  C   -0.086099  -0.059810  -0.001937   0.001191  -0.007502   0.006124
     6  C    0.486794   0.465571   0.000468  -0.000317   0.004017   0.004035
     7  C    0.000124  -0.002116   0.439111   0.529792  -0.043205  -0.012339
     8  O    0.001141  -0.002434  -0.002486  -0.000386  -0.002862   0.002270
     9  C    0.004378  -0.013015  -0.059185  -0.066824   0.433612   0.443544
    10  C    0.000409  -0.000612  -0.030533  -0.100740  -0.024281  -0.000808
    11  C    0.012517  -0.009614   0.018295   0.017383   0.005596  -0.046731
    12  C   -0.008015   0.008018  -0.005732   0.025834  -0.002873   0.009553
    13  C   -0.030484  -0.008720  -0.000482  -0.003735  -0.001491   0.004110
    14  H   -0.000567   0.000500   0.000571   0.005768   0.001391  -0.000700
    15  H    0.001018   0.000810  -0.000038   0.000344   0.000200  -0.000135
    16  H    0.002627  -0.001886   0.000117   0.001352  -0.001008  -0.003737
    17  H   -0.003617  -0.005850   0.000064   0.000243   0.000151   0.000307
    18  H   -0.002519  -0.015467  -0.000036   0.000094  -0.001371   0.002402
    19  H    0.453522  -0.010003   0.000051   0.000045   0.000141  -0.000740
    20  H   -0.010003   0.478623  -0.000133  -0.000057   0.001267  -0.001924
    21  H    0.000051  -0.000133   0.476658  -0.008499  -0.005268  -0.011739
    22  H    0.000045  -0.000057  -0.008499   0.479568   0.004598  -0.002554
    23  H    0.000141   0.001267  -0.005268   0.004598   0.450982  -0.013581
    24  H   -0.000740  -0.001924  -0.011739  -0.002554  -0.013581   0.487073
    25  H    0.000016  -0.000018  -0.007734  -0.005727  -0.001140   0.000840
    26  H    0.000006  -0.000066   0.003755   0.004800  -0.003309  -0.000985
    27  H   -0.001719   0.003988  -0.001001  -0.048067  -0.005217  -0.005411
    28  H    0.000580  -0.000982   0.001690  -0.003605  -0.004105   0.000561
    29  H    0.000200  -0.000156  -0.001488   0.004370  -0.000073  -0.002921
    30  H   -0.001683   0.001022  -0.000016  -0.000371   0.000057  -0.000066
    31  H   -0.004742  -0.002701  -0.000007   0.000020  -0.000098   0.000239
              25         26         27         28         29         30
     1  C   -0.000230  -0.000273  -0.113078  -0.003892   0.003945  -0.035454
     2  O    0.000127  -0.000202   0.025402   0.010540  -0.002688   0.010217
     3  C   -0.000099   0.000299  -0.091044  -0.004129   0.003013  -0.056375
     4  O   -0.072339  -0.049115  -0.041149  -0.060570  -0.045306  -0.000058
     5  C   -0.001065   0.001789  -0.091822   0.006010   0.020466  -0.020916
     6  C   -0.000108  -0.001131   0.018434   0.003842  -0.012318   0.023438
     7  C   -0.056574  -0.017042  -0.116211   0.004182   0.024115  -0.000407
     8  O    0.001182  -0.000926  -0.020871  -0.006089   0.003633   0.000028
     9  C    0.018549  -0.060574   0.189574   0.039805  -0.048529  -0.002960
    10  C    0.443164   0.459813   0.073795   0.010643  -0.004823   0.000430
    11  C   -0.006193   0.074623   0.240283  -0.106711   0.025745   0.001016
    12  C    0.004011  -0.038505  -0.124987   0.450569   0.393548  -0.000064
    13  C    0.000302   0.000169   0.163733   0.003363  -0.003733   0.451210
    14  H   -0.000910   0.000979  -0.093369   0.000094   0.003241  -0.007107
    15  H   -0.000034  -0.000016   0.002501  -0.003671   0.000797  -0.008860
    16  H   -0.000122   0.000311  -0.043697  -0.000898   0.002064  -0.005681
    17  H   -0.000010   0.000011  -0.005411  -0.000241   0.000089  -0.006680
    18  H   -0.000186  -0.000002  -0.005775   0.000308  -0.000673   0.000122
    19  H    0.000016   0.000006  -0.001719   0.000580   0.000200  -0.001683
    20  H   -0.000018  -0.000066   0.003988  -0.000982  -0.000156   0.001022
    21  H   -0.007734   0.003755  -0.001001   0.001690  -0.001488  -0.000016
    22  H   -0.005727   0.004800  -0.048067  -0.003605   0.004370  -0.000371
    23  H   -0.001140  -0.003309  -0.005217  -0.004105  -0.000073   0.000057
    24  H    0.000840  -0.000985  -0.005411   0.000561  -0.002921  -0.000066
    25  H    0.475218  -0.006737   0.007903   0.002903  -0.002360   0.000050
    26  H   -0.006737   0.494714  -0.015980  -0.004721   0.010288  -0.000028
    27  H    0.007903  -0.015980   0.811583   0.018080  -0.037744   0.009237
    28  H    0.002903  -0.004721   0.018080   0.457795  -0.016844  -0.000111
    29  H   -0.002360   0.010288  -0.037744  -0.016844   0.484131  -0.000154
    30  H    0.000050  -0.000028   0.009237  -0.000111  -0.000154   0.480415
    31  H   -0.000024   0.000020   0.000155   0.000525  -0.000127  -0.009278
              31
     1  C   -0.088218
     2  O   -0.008361
     3  C   -0.000893
     4  O   -0.000013
     5  C    0.036784
     6  C   -0.050433
     7  C   -0.000149
     8  O   -0.000347
     9  C    0.004116
    10  C   -0.000207
    11  C   -0.003958
    12  C   -0.000337
    13  C    0.475827
    14  H    0.002625
    15  H   -0.004558
    16  H    0.000575
    17  H   -0.000965
    18  H    0.003545
    19  H   -0.004742
    20  H   -0.002701
    21  H   -0.000007
    22  H    0.000020
    23  H   -0.000098
    24  H    0.000239
    25  H   -0.000024
    26  H    0.000020
    27  H    0.000155
    28  H    0.000525
    29  H   -0.000127
    30  H   -0.009278
    31  H    0.477677
 Mulliken charges:
               1
     1  C   -0.235736
     2  O   -0.276780
     3  C   -0.300952
     4  O   -0.300771
     5  C   -0.175791
     6  C   -0.293130
     7  C   -0.389483
     8  O   -0.240873
     9  C   -0.346130
    10  C   -0.161286
    11  C   -0.103080
    12  C   -0.324606
    13  C   -0.345119
    14  H    0.164055
    15  H    0.204208
    16  H    0.166781
    17  H    0.207777
    18  H    0.250628
    19  H    0.192110
    20  H    0.184793
    21  H    0.185511
    22  H    0.160492
    23  H    0.207559
    24  H    0.158853
    25  H    0.207345
    26  H    0.148036
    27  H    0.297885
    28  H    0.205078
    29  H    0.200293
    30  H    0.179028
    31  H    0.173306
 Sum of Mulliken charges =  -0.00000
 Mulliken charges with hydrogens summed into heavy atoms:
               1
     1  C    0.132527
     2  O   -0.276780
     3  C    0.073606
     4  O   -0.300771
     5  C    0.074837
     6  C    0.083773
     7  C   -0.043480
     8  O   -0.240873
     9  C    0.020281
    10  C    0.194095
    11  C    0.194805
    12  C    0.080764
    13  C    0.007216
 Electronic spatial extent (au):  <R**2>=           2832.0807
 Charge=             -0.0000 electrons
 Dipole moment (field-independent basis, Debye):
    X=              1.3105    Y=              1.9580    Z=              1.9802  Tot=              3.0777
 Quadrupole moment (field-independent basis, Debye-Ang):
   XX=            -71.3333   YY=            -84.4368   ZZ=            -79.2673
   XY=             -4.7165   XZ=              1.8228   YZ=             -0.0591
 Traceless Quadrupole moment (field-independent basis, Debye-Ang):
   XX=              7.0125   YY=             -6.0911   ZZ=             -0.9215
   XY=             -4.7165   XZ=              1.8228   YZ=             -0.0591
 Octapole moment (field-independent basis, Debye-Ang**2):
  XXX=             -4.3626  YYY=             -0.6525  ZZZ=             -3.8783  XYY=              9.9794
  XXY=             17.7696  XXZ=              4.1517  XZZ=              1.0220  YZZ=             -3.3373
  YYZ=              3.2905  XYZ=             -6.9100
 Hexadecapole moment (field-independent basis, Debye-Ang**3):
 XXXX=          -2572.2767 YYYY=           -603.4461 ZZZZ=           -443.2368 XXXY=            -32.2061
 XXXZ=            -16.6543 YYYX=            -21.2319 YYYZ=             -2.1151 ZZZX=             -6.2989
 ZZZY=             -0.6386 XXYY=           -572.3560 XXZZ=           -511.9023 YYZZ=           -181.5256
 XXYZ=             -8.9592 YYXZ=              7.8800 ZZXY=              4.0299
 N-N= 9.021455262724D+02 E-N=-3.246072053703D+03  KE= 6.153324422275D+02
 D1PCM: PCM CHGder 1st derivatives, ID1Alg=3 FixD1E=F DoIter=F DoCFld=F I1PDM=0.
 Calling FoFJK, ICntrl=      2127 FMM=F ISym2X=0 I1Cent= 0 IOpClX= 0 NMat=1 NMatS=1 NMatT=0.
 ***** Axes restored to original set *****
 -------------------------------------------------------------------
 Center     Atomic                   Forces (Hartrees/Bohr)
 Number     Number              X              Y              Z
 -------------------------------------------------------------------
      1        6          -0.003438424    0.007333448    0.002642200
      2        8           0.002216958   -0.007333550    0.005682889
      3        6          -0.000090026   -0.003266525    0.003190580
      4        8           0.001252280   -0.008245934   -0.004201596
      5        6          -0.002123092   -0.000543868   -0.011254059
      6        6           0.000762179   -0.000738828   -0.002027121
      7        6          -0.000124534    0.000119070    0.002857140
      8        8           0.004491035    0.009823089    0.004839082
      9        6           0.000989387   -0.004211739   -0.002296947
     10        6          -0.006407121    0.002211602   -0.000640765
     11        6          -0.000888006    0.000390542    0.005968396
     12        6           0.002560185    0.003834740   -0.005976457
     13        6           0.002637175    0.000696702   -0.000245789
     14        1           0.005113068    0.000950170   -0.004658411
     15        1          -0.001420503   -0.004399279   -0.000378310
     16        1           0.003948003    0.000729959   -0.001487427
     17        1          -0.001621089    0.001557184   -0.000903344
     18        1          -0.001281550   -0.000902302    0.006941984
     19        1          -0.003293768   -0.001075215    0.001322232
     20        1           0.001474267    0.002638957    0.000824841
     21        1           0.001725702    0.002403809   -0.000388556
     22        1          -0.001166170   -0.001352133   -0.002685735
     23        1           0.000634677    0.000339637    0.003844161
     24        1          -0.002075906    0.002093989   -0.001198236
     25        1           0.003044129   -0.001635052   -0.002684401
     26        1           0.002328491    0.002653731    0.005112295
     27        1          -0.002157208   -0.003094848   -0.007433047
     28        1          -0.004941273   -0.003584912    0.000349414
     29        1           0.000872528    0.003493472    0.005600854
     30        1          -0.000497945   -0.000177233   -0.002757327
     31        1          -0.002523449   -0.000708681    0.002041457
 -------------------------------------------------------------------
 Cartesian Forces:  Max     0.011254059 RMS     0.003545846

 GradGradGradGradGradGradGradGradGradGradGradGradGradGradGradGradGradGrad
 Berny optimization.
 FormGI is forming the generalized inverse of G from B-inverse, IUseBI=4.
 Internal  Forces:  Max     0.019065409 RMS     0.002346175
 Search for a local minimum.
 Step number   1 out of a maximum of  186
 All quantities printed in internal units (Hartrees-Bohrs-Radians)
 Mixed Optimization -- RFO/linear search
 Second derivative matrix not updated -- first step.
 ITU=  0
     Eigenvalues ---    0.00645   0.00660   0.00726   0.00736   0.01249
     Eigenvalues ---    0.01438   0.01507   0.02659   0.02802   0.03020
     Eigenvalues ---    0.03158   0.04110   0.04380   0.04612   0.04713
     Eigenvalues ---    0.04793   0.04987   0.05027   0.05140   0.05170
     Eigenvalues ---    0.05189   0.05723   0.05769   0.06024   0.06154
     Eigenvalues ---    0.06168   0.06374   0.06778   0.07342   0.07656
     Eigenvalues ---    0.07926   0.07959   0.07987   0.08085   0.08401
     Eigenvalues ---    0.08414   0.09151   0.09338   0.10868   0.11618
     Eigenvalues ---    0.11701   0.11717   0.11872   0.12488   0.12632
     Eigenvalues ---    0.14537   0.15411   0.16645   0.16792   0.17425
     Eigenvalues ---    0.19577   0.21761   0.21904   0.25000   0.28469
     Eigenvalues ---    0.28625   0.28742   0.29045   0.29238   0.29273
     Eigenvalues ---    0.30118   0.30311   0.35029   0.35069   0.35082
     Eigenvalues ---    0.35100   0.35131   0.35140   0.35142   0.35275
     Eigenvalues ---    0.35282   0.35341   0.35343   0.35502   0.35748
     Eigenvalues ---    0.35817   0.35870   0.36071   0.36088   0.36090
     Eigenvalues ---    0.40133   0.41545   0.42142   0.42823   0.43381
     Eigenvalues ---    0.447061000.000001000.000001000.000001000.00000
     Eigenvalues --- 1000.000001000.000001000.000001000.000001000.00000
     Eigenvalues --- 1000.000001000.000001000.000001000.000001000.00000
     Eigenvalues --- 1000.000001000.000001000.000001000.000001000.00000
     Eigenvalues --- 1000.000001000.000001000.000001000.000001000.00000
     Eigenvalues --- 1000.000001000.000001000.000001000.000001000.00000
     Eigenvalues --- 1000.000001000.000001000.000001000.000001000.00000
     Eigenvalues --- 1000.000001000.000001000.000001000.000001000.00000
     Eigenvalues --- 1000.000001000.000001000.000001000.000001000.00000
     Eigenvalues --- 1000.000001000.000001000.000001000.000001000.00000
     Eigenvalues --- 1000.000001000.000001000.000001000.000001000.00000
     Eigenvalues --- 1000.000001000.000001000.000001000.000001000.00000
     Eigenvalues --- 1000.000001000.000001000.000001000.000001000.00000
     Eigenvalues --- 1000.000001000.000001000.000001000.000001000.00000
     Eigenvalues --- 1000.000001000.000001000.000001000.000001000.00000
     Eigenvalues --- 1000.000001000.000001000.000001000.000001000.00000
     Eigenvalues --- 1000.000001000.000001000.000001000.000001000.00000
     Eigenvalues --- 1000.000001000.000001000.000001000.000001000.00000
     Eigenvalues --- 1000.000001000.000001000.000001000.000001000.00000
     Eigenvalues --- 1000.000001000.000001000.000001000.000001000.00000
 RFO step:  Lambda=-4.44094978D-03 EMin= 6.45432667D-03
 Linear search not attempted -- first point.
 Iteration  1 RMS(Cart)=  0.10346962 RMS(Int)=  0.00182473
 Iteration  2 RMS(Cart)=  0.00497145 RMS(Int)=  0.00006200
 Iteration  3 RMS(Cart)=  0.00001085 RMS(Int)=  0.00006177
 Iteration  4 RMS(Cart)=  0.00000000 RMS(Int)=  0.00006177
 Iteration  1 RMS(Cart)=  0.00007590 RMS(Int)=  0.00001627
 Iteration  2 RMS(Cart)=  0.00003976 RMS(Int)=  0.00001818
 Iteration  3 RMS(Cart)=  0.00002083 RMS(Int)=  0.00002044
 Iteration  4 RMS(Cart)=  0.00001091 RMS(Int)=  0.00002186
 Iteration  5 RMS(Cart)=  0.00000572 RMS(Int)=  0.00002266
 Iteration  6 RMS(Cart)=  0.00000299 RMS(Int)=  0.00002309
 Iteration  7 RMS(Cart)=  0.00000157 RMS(Int)=  0.00002332
 Iteration  8 RMS(Cart)=  0.00000082 RMS(Int)=  0.00002344
 Variable       Old X    -DE/DX   Delta X   Delta X   Delta X     New X
                                 (Linear)    (Quad)   (Total)
    R1        2.69857   0.00269   0.00000   0.00691   0.00693   2.70550
    R2        2.86823  -0.00001   0.00000  -0.00095  -0.00099   2.86723
    R3        2.04477   0.00693   0.00000   0.01913   0.01913   2.06391
    R4        2.04285   0.00463   0.00000   0.01274   0.01274   2.05559
    R5        2.64034   0.00307   0.00000   0.00714   0.00722   2.64755
    R6        2.88238  -0.00104   0.00000  -0.00421  -0.00422   2.87817
    R7        2.88275  -0.00076   0.00000  -0.00307  -0.00315   2.87960
    R8        2.05513   0.00420   0.00000   0.01181   0.01181   2.06694
    R9        2.05125   0.00241   0.00000   0.00674   0.00674   2.05799
   R10        2.67573   0.00325   0.00000   0.00744   0.00747   2.68319
   R11        2.66866   0.00369   0.00000   0.00839   0.00841   2.67706
   R12        2.88026  -0.00073   0.00000  -0.00151  -0.00147   2.87879
   R13        2.67889   0.00208   0.00000   0.00481   0.00481   2.68369
   R14        2.03942   0.00711   0.00000   0.01946   0.01946   2.05887
   R15        2.05449   0.00368   0.00000   0.01033   0.01033   2.06482
   R16        2.04867   0.00305   0.00000   0.00850   0.00850   2.05717
   R17        2.89161  -0.00058   0.00000  -0.00200  -0.00201   2.88959
   R18        2.87200   0.00069   0.00000   0.00202   0.00202   2.87402
   R19        2.05219   0.00296   0.00000   0.00828   0.00828   2.06047
   R20        2.05445   0.00316   0.00000   0.00887   0.00887   2.06332
   R21        2.67202   0.00088   0.00000   0.00201   0.00201   2.67403
   R22        2.87984  -0.00236   0.00000  -0.00767  -0.00770   2.87215
   R23        2.05542   0.00369   0.00000   0.01040   0.01040   2.06582
   R24        2.05121   0.00312   0.00000   0.00872   0.00872   2.05993
   R25        2.04369   0.00438   0.00000   0.01207   0.01207   2.05576
   R26        2.05562   0.00609   0.00000   0.01714   0.01714   2.07276
   R27        2.88521  -0.00118   0.00000  -0.00367  -0.00366   2.88155
   R28        2.03971   0.00820   0.00000   0.02245   0.02245   2.06216
   R29        2.03945   0.00580   0.00000   0.01587   0.01587   2.05532
   R30        2.05628   0.00623   0.00000   0.01758   0.01758   2.07386
   R31        2.05231   0.00279   0.00000   0.00780   0.00780   2.06012
   R32        2.05462   0.00325   0.00000   0.00915   0.00915   2.06377
    A1        1.97799   0.00236   0.00000   0.00832   0.00829   1.98628
    A2        1.91021   0.00018   0.00000   0.00471   0.00474   1.91495
    A3        1.82674  -0.00097   0.00000  -0.00069  -0.00067   1.82607
    A4        1.92304  -0.00158   0.00000  -0.00731  -0.00733   1.91571
    A5        1.94061  -0.00044   0.00000  -0.00403  -0.00403   1.93658
    A6        1.88082   0.00043   0.00000  -0.00090  -0.00094   1.87989
    A7        2.12720  -0.00533   0.00000  -0.02618  -0.02599   2.10121
    A8        1.88964   0.00182   0.00000  -0.00174  -0.00177   1.88787
    A9        1.93156  -0.00060   0.00000  -0.00375  -0.00375   1.92782
   A10        1.91820  -0.00069   0.00000   0.00162   0.00164   1.91984
   A11        1.92240  -0.00089   0.00000  -0.00034  -0.00037   1.92203
   A12        1.93284  -0.00014   0.00000   0.00147   0.00150   1.93434
   A13        1.86957   0.00045   0.00000   0.00276   0.00276   1.87233
   A14        1.98028  -0.00457   0.00000  -0.02679  -0.02673   1.95355
   A15        1.97656   0.00364   0.00000   0.00925   0.00886   1.98542
   A16        1.99362  -0.00198   0.00000  -0.02182  -0.02184   1.97178
   A17        1.82603  -0.00140   0.00000   0.00529   0.00535   1.83138
   A18        1.93085  -0.00224   0.00000  -0.01739  -0.01756   1.91329
   A19        1.90743  -0.00007   0.00000   0.00740   0.00737   1.91480
   A20        1.81747   0.00205   0.00000   0.02147   0.02165   1.83912
   A21        1.97089  -0.00182   0.00000  -0.01410  -0.01414   1.95675
   A22        1.89886   0.00115   0.00000   0.00951   0.00958   1.90844
   A23        1.95576  -0.00012   0.00000  -0.00359  -0.00381   1.95195
   A24        1.87404   0.00046   0.00000   0.00994   0.00996   1.88400
   A25        1.88820   0.00046   0.00000  -0.00700  -0.00712   1.88108
   A26        1.87185  -0.00002   0.00000   0.00689   0.00692   1.87877
   A27        1.92719  -0.00071   0.00000  -0.00465  -0.00469   1.92250
   A28        1.92754  -0.00051   0.00000  -0.00093  -0.00093   1.92662
   A29        1.92047   0.00079   0.00000   0.00116   0.00117   1.92164
   A30        1.90955   0.00080   0.00000   0.00483   0.00486   1.91441
   A31        1.90372  -0.00036   0.00000  -0.00304  -0.00305   1.90067
   A32        1.87446   0.00002   0.00000   0.00283   0.00283   1.87729
   A33        2.17606  -0.01907   0.00000  -0.07493  -0.07493   2.10113
   A34        1.92389   0.00112   0.00000  -0.00226  -0.00231   1.92159
   A35        1.91487   0.00001   0.00000   0.00394   0.00392   1.91879
   A36        1.93488   0.00016   0.00000   0.00631   0.00631   1.94119
   A37        1.89721  -0.00131   0.00000  -0.00997  -0.00997   1.88725
   A38        1.91547  -0.00042   0.00000  -0.00225  -0.00222   1.91325
   A39        1.87656   0.00039   0.00000   0.00406   0.00401   1.88056
   A40        1.93454   0.00163   0.00000   0.00870   0.00871   1.94325
   A41        1.85618  -0.00113   0.00000  -0.00368  -0.00368   1.85250
   A42        1.90220   0.00083   0.00000   0.00712   0.00716   1.90936
   A43        1.94591  -0.00031   0.00000  -0.00347  -0.00348   1.94243
   A44        1.93088  -0.00154   0.00000  -0.00960  -0.00963   1.92124
   A45        1.89189   0.00056   0.00000   0.00133   0.00129   1.89319
   A46        1.87699  -0.00054   0.00000   0.00175   0.00176   1.87875
   A47        1.92872   0.00012   0.00000  -0.00022  -0.00021   1.92851
   A48        1.93304   0.00058   0.00000   0.00819   0.00817   1.94121
   A49        1.91604   0.00034   0.00000   0.00158   0.00154   1.91758
   A50        1.89922   0.00063   0.00000   0.00177   0.00175   1.90097
   A51        1.90937  -0.00109   0.00000  -0.01273  -0.01272   1.89665
   A52        1.93107   0.00182   0.00000   0.01008   0.01015   1.94122
   A53        1.86152   0.00003   0.00000   0.00796   0.00801   1.86953
   A54        1.91584   0.00141   0.00000   0.01308   0.01314   1.92898
   A55        1.94702  -0.00180   0.00000  -0.01633  -0.01645   1.93057
   A56        1.91073  -0.00261   0.00000  -0.01809  -0.01821   1.89252
   A57        1.89681   0.00127   0.00000   0.00439   0.00407   1.90088
   A58        1.92115  -0.00102   0.00000  -0.00666  -0.00682   1.91433
   A59        1.88974   0.00030   0.00000   0.00337   0.00342   1.89316
   A60        1.91700   0.00037   0.00000  -0.00035  -0.00032   1.91668
   A61        1.94891  -0.00019   0.00000  -0.00014  -0.00010   1.94881
   A62        1.91054   0.00058   0.00000   0.00048   0.00053   1.91107
   A63        1.87582  -0.00001   0.00000   0.00356   0.00353   1.87935
    D1       -0.71893   0.00044   0.00000  -0.01098  -0.01098  -0.72991
    D2        1.43512   0.00019   0.00000  -0.01106  -0.01103   1.42409
    D3       -2.83628   0.00027   0.00000  -0.01030  -0.01029  -2.84657
    D4        0.87708   0.00088   0.00000   0.01073   0.01074   0.88782
    D5        3.01190   0.00021   0.00000   0.00858   0.00857   3.02046
    D6       -1.22774   0.00058   0.00000   0.01459   0.01460  -1.21314
[...]
 00025636,-0.00014897,-0.00050245,0.00132567,0.00139523,-0.00000010,0.0
 0000309,-0.00000044,-0.00000896,-0.00000058,-0.00001177,0.00000375,0.0
 0000342,0.00000083,-0.00000025,0.00000321,-0.00000218,0.00000282,-0.00
 000167,0.00000144,0.00000087,-0.00000199,-0.00000562,0.00000439,-0.000
 00065,0.00000067,0.00000133,-0.00000183,0.00000049,0.00057895,-0.00071
 398,0.00023984,0.00013663,-0.00074744,0.00089484,-0.00012630,0.0001745
 9,0.00029651,-0.00043604,0.00033022,0.00043842,-0.12407059,0.06890393,
 0.15880732,0.00002354,0.00000567,0.00000850,-0.00005144,-0.00002277,-0
 .00000916,-0.00000181,0.00000235,0.00000119,-0.02294439,-0.01738424,-0
 .02020001,0.00012300,0.00005040,-0.00001859,-0.00001267,-0.00000819,0.
 00000198,-0.00341271,0.00026022,-0.01189659,-0.00027972,0.00028744,0.0
 0014937,0.00025174,-0.00101209,-0.00068196,-0.08582642,-0.00635868,-0.
 07948321,-0.00023369,-0.00004474,0.00042518,0.00233510,-0.00121776,-0.
 00525695,-0.00000083,-0.00000261,0.00000202,0.00001849,0.00000303,0.00
 000791,-0.00000391,-0.00000290,-0.00000103,0.00000195,-0.00000285,0.00
 000315,-0.00000297,0.00000102,-0.00000264,-0.00001405,-0.00000316,0.00
 000700,-0.00000827,0.00000084,-0.00000236,0.00000049,-0.00000135,0.000
 00006,0.00040273,0.00018467,0.00011382,0.00019308,0.00175834,-0.000930
 58,-0.00015625,0.00029837,0.00021701,0.00018115,0.00002667,0.00021110,
 0.01057993,0.00281732,0.01915279,0.09822052,0.00004030,0.00001056,0.00
 002460,-0.00010656,-0.00001661,-0.00001575,-0.00000327,0.00000563,0.00
 000044,-0.02407198,-0.01286652,-0.02150733,0.00019234,0.00004824,-0.00
 006031,-0.00001792,-0.00001168,0.00000264,0.01221411,0.00337846,0.0279
 0043,-0.00027302,0.00032108,0.00005922,-0.00092464,0.00151806,0.000710
 09,-0.00787508,-0.05212355,-0.02752992,0.00005550,-0.00044136,0.000438
 00,0.00321509,-0.00021693,-0.00264313,-0.00000018,-0.00000429,0.000002
 14,0.00001550,0.00000082,0.00001823,-0.00000808,-0.00000516,-0.0000011
 3,0.00000088,-0.00000570,0.00000604,-0.00000563,0.00000204,-0.00000343
 ,-0.00001163,-0.00000125,0.00001046,-0.00001298,0.00000206,-0.00000408
 ,0.00000124,-0.00000085,0.00000013,-0.00075417,0.00108127,-0.00071517,
 0.00294668,-0.00473032,0.00209284,-0.00004889,-0.00018830,-0.00063763,
 -0.00037104,-0.00001378,-0.00022983,-0.00443032,-0.00062397,-0.0118281
 8,0.01996569,0.06447696,0.00004293,0.00000591,0.00004080,-0.00011750,-
 0.00004878,-0.00003377,-0.00000083,0.00001166,-0.00000099,-0.00192744,
 -0.00411717,0.00599862,0.00023039,0.00010190,-0.00002541,-0.00002218,-
 0.00002007,0.00000785,-0.00409410,-0.00133648,-0.01288822,-0.00047683,
 0.00001609,0.00015126,0.00056888,-0.00072147,0.00089891,-0.08289882,-0
 .02934996,-0.25866929,0.00030856,-0.00023100,-0.00008662,0.00151555,0.
 00108843,0.00274191,0.00000300,-0.00000175,-0.00000175,-0.00000403,0.0
 0000808,0.00001363,-0.00001221,-0.00000710,-0.00000128,0.00000105,-0.0
 0000851,0.00000943,-0.00000861,0.00000091,-0.00000385,-0.00003480,-0.0
 0001145,0.00001768,-0.00001918,0.00000481,-0.00000650,0.00000218,0.000
 00044,-0.00000110,0.00010237,0.00032831,0.00013800,-0.00095826,0.00256
 461,0.00033457,-0.00055346,0.00013304,0.00051008,0.00011941,0.00018359
 ,0.00020880,-0.00686467,-0.00166433,-0.01624520,0.09666294,0.03274763,
 0.27645989,-0.00186987,-0.00226118,0.00028294,0.00044127,-0.00074955,-
 0.00154975,-0.00036228,0.00028865,-0.00003848,0.00105964,-0.00070860,0
 .00045179,0.00327683,0.00087480,0.00084880,0.00038180,0.00022533,-0.00
 002710,0.00072194,-0.00000810,-0.00095870,0.00487440,0.01014931,0.0315
 0425,-0.01052585,-0.00494149,-0.02002969,-0.00011465,-0.00003522,0.000
 05127,-0.10145316,-0.01953867,-0.10460054,-0.00517794,-0.00219073,-0.0
 1333531,-0.00009714,-0.00010522,-0.00014394,-0.00209130,-0.00271309,0.
 00011489,-0.00032695,-0.00004901,-0.00006646,-0.00116064,0.00083298,-0
 .00009852,0.00002682,-0.00003904,-0.00008626,-0.00048610,-0.00026961,-
 0.00008919,-0.00000293,-0.00003556,-0.00000870,0.00003079,-0.00005364,
 -0.00000702,0.00016719,-0.00003372,0.00024741,-0.00032119,0.00007139,0
 .00052753,-0.00258559,-0.00314674,0.00060421,0.00111442,0.00034562,0.0
 0065960,-0.00004934,0.00004998,-0.00000589,0.00009639,-0.00004798,0.00
 004050,0.11493069,-0.00195624,-0.00105981,0.00031536,0.00100242,0.0004
 0774,-0.00063073,0.00033471,0.00028612,-0.00024051,-0.00207604,0.00136
 508,-0.00119154,-0.00125912,0.00002769,0.00090600,0.00006015,0.0000453
 2,-0.00020384,0.00088195,0.00050426,-0.00035493,-0.00077016,-0.0027618
 9,-0.01503445,-0.01349846,-0.00619241,-0.02134923,-0.00020967,-0.00022
 053,0.00002479,-0.01648027,-0.05629205,-0.03613473,0.01431416,0.003514
 02,0.02690360,0.00006352,0.00012031,-0.00009211,-0.00283904,-0.0025046
 3,-0.00052577,0.00005032,-0.00000209,-0.00000022,0.00059578,-0.0002644
 9,0.00028351,-0.00010366,-0.00007791,0.00008390,0.00017615,0.00009147,
 -0.00006763,0.00007142,-0.00006228,0.00006623,-0.00001076,-0.00002263,
 -0.00000234,0.00026044,-0.00004790,0.00029983,-0.00006194,0.00027075,0
 .00048165,-0.00336918,-0.00262473,0.00015125,0.00085543,0.00092240,-0.
 00029967,0.00002863,0.00007592,-0.00004453,-0.00006945,-0.00006486,0.0
 0005185,0.02173334,0.06774944,0.00018922,-0.00163401,-0.00164494,0.000
 96929,0.00160950,0.00081219,0.00024291,0.00052310,-0.00074632,-0.00073
 031,-0.00004436,0.00227746,-0.00317864,-0.00288456,-0.00012201,0.00071
 571,0.00020898,-0.00016597,-0.00031924,0.00009487,0.00040021,0.0052355
 4,-0.00952049,-0.02696510,0.00087947,0.00042787,0.00406772,0.00024928,
 0.00033838,0.00002824,-0.10054273,-0.03399427,-0.24457144,-0.00673690,
 -0.00180207,-0.01190880,0.00004181,-0.00010759,0.00029864,-0.00186510,
 -0.00091061,0.00157358,-0.00068708,-0.00009037,0.00045648,-0.00067147,
 0.00002470,0.00052982,-0.00031165,-0.00005180,0.00016855,0.00050332,0.
 00039715,0.00001672,0.00012107,-0.00006078,0.00016263,-0.00005352,0.00
 008271,0.00002623,-0.00012330,0.00004926,0.00020948,-0.00023906,0.0001
 8345,0.00010245,0.00127202,0.00090087,0.00074295,-0.00013012,-0.000406
 76,0.00039074,-0.00002324,-0.00002965,0.00002740,0.00005304,-0.0000567
 3,-0.00020618,0.10576284,0.04506800,0.27398207,-0.00109120,-0.00009553
 ,-0.00013468,-0.00512104,0.00028125,-0.00030368,0.00005787,0.00002494,
 -0.00001334,-0.02535593,-0.01852124,0.00653741,-0.00004146,0.00120454,
 0.00072691,-0.00009204,-0.00018326,-0.00003272,-0.00055147,-0.00007469
 ,0.00006619,0.00087994,-0.00236455,0.00022127,-0.00155922,0.00302113,-
 0.00134507,-0.00076865,0.00369076,0.00337161,0.01207069,0.01218133,-0.
 00075262,-0.15735582,-0.13450691,0.00479107,0.00003974,0.00009195,-0.0
 0005947,0.00040383,0.00003612,-0.00015457,0.00002225,-0.00002640,0.000
 00124,-0.00001661,0.00000577,-0.00000407,0.00000498,-0.00003910,0.0000
 1453,0.00000206,-0.00000303,-0.00006897,0.00001140,0.00000804,-0.00000
 416,0.00004205,-0.00005674,0.00001897,0.00012510,-0.00019855,0.0000118
 5,0.00006714,-0.00004229,-0.00001451,-0.00004797,-0.00000481,0.0000452
 8,0.00068320,0.00091301,-0.00022402,-0.00094063,-0.00100770,0.00042997
 ,0.00018324,0.00013900,-0.00009586,0.00038121,-0.00083344,0.00020159,0
 .18390213,0.00061216,0.00056533,0.00119128,-0.00300661,0.00147664,-0.0
 0004092,-0.00004586,-0.00007754,0.00003842,0.01041827,0.01267851,-0.00
 092107,0.00005710,-0.00228748,-0.00088006,0.00016256,0.00022887,0.0000
 3234,0.00060300,0.00022210,-0.00043272,0.00137367,0.00209446,-0.000586
 06,0.00436930,-0.00341508,0.00222854,0.00231024,0.00015596,-0.00151578
 ,-0.01963311,-0.02024904,0.00058391,-0.14009242,-0.21781936,0.00816027
 ,-0.00004156,-0.00008887,-0.00006163,0.00043521,-0.00004506,0.00021514
 ,-0.00001348,-0.00009032,-0.00003311,0.00001295,0.00000518,-0.00001508
 ,-0.00000970,0.00003066,-0.00001588,0.00011948,0.00011048,0.00003573,0
 .00002841,-0.00001784,0.00001596,-0.00005348,0.00008941,-0.00002729,-0
 .00018788,0.00012643,-0.00000241,-0.00006532,0.00004865,0.00007770,0.0
 0015378,0.00025710,-0.00008904,-0.00124234,-0.00133938,0.00037372,0.00
 047534,0.00040716,-0.00015798,0.00006467,-0.00002782,0.00004888,-0.000
 02530,0.00116278,-0.00015797,0.14549556,0.22816345,-0.00080430,0.00006
 361,0.00043779,0.00087611,-0.00033489,-0.00028627,0.00002826,0.0000035
 8,0.00002573,0.02305601,0.01753064,-0.00437583,0.00015619,0.00041348,0
 .00030149,-0.00002322,-0.00001307,0.00000340,0.00027402,0.00010384,0.0
 0001248,-0.00062439,-0.00041852,0.00013422,-0.00133910,0.00089550,-0.0
 0013743,0.00100578,-0.00249862,-0.00224496,0.00767605,0.01089992,-0.00
 047859,-0.00180064,0.00255716,-0.05234544,0.00008860,0.00006547,-0.000
 19359,0.00007502,0.00016459,-0.00048685,0.00004932,-0.00001492,-0.0000
 2550,-0.00000246,0.00000981,-0.00001291,0.00001036,-0.00002555,-0.0000
 0572,-0.00005533,-0.00004507,-0.00001816,-0.00000066,0.00000294,-0.000
 00705,0.00000187,-0.00001447,-0.00000082,-0.00008168,0.00011835,-0.000
 02988,-0.00001081,-0.00003014,-0.00002637,0.00025238,0.00031259,0.0001
 8973,0.00028367,0.00041795,0.00025130,0.00082917,0.00064942,0.00010980
 ,0.00042291,0.00027560,0.00036871,0.00053247,-0.00061850,0.00045257,-0
 .01272471,-0.00840878,0.05532638,0.00042396,0.00006807,0.00006780,-0.0
 0062238,0.00030779,0.00028167,0.00000266,0.00006260,-0.00007801,0.0025
 9650,0.00676720,0.03296859,0.00011042,-0.00034521,-0.00028442,0.000060
 71,0.00003084,-0.00004143,-0.00041031,-0.00032048,-0.00012445,0.000927
 49,-0.00091484,0.00064968,0.00034548,-0.00098678,0.00079407,0.00454614
 ,0.00301171,0.00296197,-0.00582992,-0.00295197,-0.01536098,-0.09300888
 ,-0.02092822,-0.09350764,-0.00000712,-0.00001624,0.00008086,0.00016830
 ,0.00007821,0.00024071,-0.00005651,-0.00002327,0.00002501,-0.00001761,
 -0.00006185,0.00007007,-0.00005884,0.00000216,0.00001019,-0.00006398,0
 .00000918,0.00003293,-0.00001119,0.00000051,0.00000793,-0.00001102,0.0
 0002381,-0.00000619,0.00012873,-0.00020297,-0.00006754,-0.00018178,0.0
 0005514,-0.00010691,0.00054986,0.00018804,0.00027488,-0.00002636,0.000
 06050,0.00025850,0.00011390,0.00011588,-0.00020645,0.00034252,0.000186
 72,-0.00149967,-0.00092853,0.00301865,-0.00064465,-0.00604441,-0.00218
 102,-0.01821489,0.09701837,0.00010745,0.00014118,0.00022399,-0.0006373
 3,0.00025352,0.00011734,-0.00005019,-0.00011759,0.00012238,0.00159071,
 -0.00117023,-0.01563391,0.00000337,-0.00012060,-0.00022441,-0.00008912
 ,0.00003382,0.00008446,0.00019354,-0.00013389,0.00007665,-0.00247045,0
 .00190884,-0.00059982,0.00063234,0.00178801,0.00045260,-0.00116917,-0.
 00047874,0.00209766,0.01335311,0.00193421,0.02692984,-0.02005129,-0.05
 903376,-0.03604345,-0.00003881,-0.00003545,0.00001734,0.00007854,-0.00
 013313,0.00004741,0.00005243,0.00000807,-0.00004477,0.00004357,0.00006
 716,-0.00008764,0.00006189,0.00002498,-0.00002542,0.00003070,0.0000267
 6,0.00004288,-0.00001852,0.00000350,-0.00002324,-0.00000948,0.00000343
 ,-0.00001019,-0.00006096,0.00010957,-0.00002568,-0.00005677,-0.0000282
 1,-0.00013314,-0.00014451,-0.00033463,-0.00035700,-0.00005918,0.000136
 67,-0.00041721,0.00015060,-0.00000093,0.00009571,0.00040196,0.00049453
 ,0.00021991,0.00233381,-0.00419674,0.00175048,-0.00908683,-0.00245881,
 -0.02200493,0.01491646,0.06127727,0.00015950,-0.00004990,0.00003747,-0
 .00045886,0.00003930,-0.00004303,0.00005468,0.00004777,-0.00005654,0.0
 0840336,-0.00877738,-0.02855405,0.00015260,0.00000147,-0.00002528,0.00
 005113,0.00001200,-0.00000891,0.00050936,0.00026198,0.00002790,-0.0000
 6991,0.00004149,0.00251836,-0.00005329,-0.00098368,0.00035215,-0.00346
 822,-0.00222856,0.00081015,-0.00688657,-0.00249964,-0.01404910,-0.0903
 4051,-0.03362775,-0.24221761,0.00002040,-0.00000317,-0.00000437,0.0000
 2126,0.00006382,0.00006121,-0.00005382,-0.00001489,0.00001777,-0.00001
 331,-0.00003877,0.00004180,-0.00003667,-0.00000335,0.00000721,-0.00011
 366,0.00000045,-0.00000953,-0.00001096,-0.00000891,0.00001209,-0.00000
 291,0.00000858,0.00000106,0.00001283,0.00019321,-0.00004625,-0.0001363
 6,-0.00009385,0.00001882,0.00051064,0.00062294,0.00012707,0.00004120,0
 .00007095,0.00035645,0.00035864,0.00013736,0.00045590,0.00104534,0.000
 94902,0.00027420,-0.00057870,0.00211705,-0.00033136,-0.00053881,0.0003
 9932,0.00303877,0.09144325,0.04336007,0.27719512,-0.00111985,-0.006902
 84,-0.02364697,-0.00410395,0.00290587,-0.00464460,-0.00157231,-0.00149
 691,-0.00575456,-0.00008513,-0.00000392,0.00002484,0.00027697,0.001740
 06,0.00074255,0.00056573,-0.00085274,0.00062488,-0.00000717,-0.0000172
 7,-0.00001153,-0.00028254,-0.00032012,0.00004521,-0.00001199,0.0000249
 3,0.00002176,0.00001768,0.00002158,0.00000987,0.00016774,-0.00001124,-
 0.00014069,0.00005180,0.00002776,0.00002246,-0.04944814,-0.00188620,-0
 .01211232,0.00063028,-0.00089571,0.00045988,0.00055945,0.00021905,0.00
 040565,0.00014658,0.00041558,-0.00017655,0.00010385,0.00010448,0.00044
 940,0.00002565,-0.00016988,-0.00002154,0.00020232,0.00002547,-0.000470
 48,0.00036127,0.00007024,-0.00020151,-0.00000868,-0.00000040,0.0000058
 8,0.00000025,0.00000121,0.00000408,-0.00000113,-0.00000041,-0.00000110
 ,-0.00000151,-0.00000502,-0.00000015,-0.00000746,-0.00000180,0.0000021
 6,-0.00000107,-0.00000367,-0.00000308,0.00000282,0.00000904,0.00000643
 ,0.00003106,-0.00004573,-0.00000929,-0.00000631,-0.00000331,-0.0000061
 9,0.05086297,-0.00147352,0.00442317,0.01806261,0.00427258,-0.00100671,
 0.00373780,-0.00148916,-0.00421788,-0.03334971,0.00003191,0.00003680,-
 0.00000702,0.00059410,-0.00207649,-0.00015984,-0.00168497,-0.00717241,
 0.00002578,-0.00000216,-0.00000546,-0.00000074,-0.00015120,0.00037291,
 0.00006596,-0.00000902,0.00001482,0.00000818,-0.00000066,-0.00001228,-
 0.00000511,0.00001786,-0.00005612,-0.00004250,-0.00003319,-0.00005906,
 0.00000865,-0.00203923,-0.05511859,-0.04608977,-0.00021377,0.00088383,
 -0.00040919,-0.00088869,-0.00003329,-0.00063840,-0.00011532,0.00130540
 ,0.00062785,0.00066024,0.00150995,0.00050701,-0.00011796,0.00031727,-0
 .00000261,0.00016741,0.00005560,0.00022802,-0.00038451,-0.00018952,-0.
 00220423,-0.00000254,0.00000170,0.00000095,-0.00000010,0.00000014,0.00
 000035,0.00000189,0.00000115,-0.00000187,0.00000303,0.00000444,-0.0000
 0149,0.00000327,0.00000344,-0.00000139,0.00000055,0.00000024,0.0000004
 3,-0.00001046,-0.00002334,0.00000630,-0.00000385,0.00004823,0.00000323
 ,0.00000367,0.00000501,0.00000352,0.00175896,0.06030130,0.00150234,-0.
 00347671,-0.01254750,-0.00292178,0.00129806,-0.00073680,0.00021905,-0.
 00029749,-0.00266265,-0.00011555,0.00000564,0.00003096,0.00093576,0.00
 099893,0.00085678,-0.00039130,-0.00136749,0.00118639,-0.00000611,-0.00
 002712,-0.00001398,-0.00047979,-0.00019573,0.00003459,-0.00001598,0.00
 003862,0.00001313,0.00003068,0.00002878,0.00001326,0.00021306,-0.00002
 559,-0.00016322,0.00007164,0.00000836,0.00001770,-0.01476918,-0.046626
 72,-0.30692084,-0.00021130,-0.00012419,0.00087903,-0.00001309,0.000320
 39,0.00007129,-0.00025190,-0.00029308,0.00029132,0.00017759,-0.0003228
 3,0.00029455,0.00001244,-0.00000205,-0.00006283,-0.00001182,0.00007707
 ,0.00025522,-0.00021185,0.00015762,-0.00037408,-0.00001434,-0.00000018
 ,0.00000860,-0.00000018,0.00000276,0.00000382,-0.00000684,-0.00000731,
 -0.00000252,0.00000019,-0.00000811,0.00000228,-0.00001133,-0.00000145,
 0.00000271,-0.00000241,-0.00000425,-0.00000494,-0.00000212,0.00001143,
 -0.00002984,0.00003840,-0.00005301,0.00000622,-0.00001915,-0.00000364,
 -0.00000816,0.01681104,0.05167492,0.33161116,-0.02352748,-0.00407796,0
 .01233443,0.00171807,-0.00094829,-0.00067517,-0.00524069,-0.00253340,0
 .00252758,-0.00008963,0.00000431,0.00002136,-0.00016610,0.00041830,-0.
 00009116,0.00016434,0.00049904,0.00035146,0.00000043,-0.00002137,-0.00
 001648,0.00006489,-0.00011779,-0.00004920,-0.00000822,0.00003191,-0.00
 009158,0.00004346,0.00002832,0.00001058,0.00000240,0.00000781,0.000280
 17,0.00015021,-0.00005079,-0.00003331,-0.24650591,-0.05701714,0.093301
 31,-0.00245903,0.00306074,-0.00238764,0.00140603,-0.00010325,-0.000110
 90,0.00112922,-0.00105694,-0.00018590,0.00058891,-0.00026649,-0.000201
 68,-0.00006472,-0.00008885,-0.00008351,0.00004942,-0.00013058,-0.00057
 675,0.00028044,0.00001566,-0.00015883,-0.00001528,-0.00000144,0.000008
 11,0.00000251,0.00000410,0.00000109,-0.00003492,-0.00003194,-0.0000072
 8,0.00000090,-0.00001110,0.00000774,-0.00001080,-0.00000005,0.00000380
 ,-0.00000366,-0.00000602,-0.00000624,0.00004724,0.00008132,-0.00018652
 ,0.00007859,-0.00004791,0.00007331,-0.00004988,-0.00000459,-0.00001545
 ,0.00265079,0.00110484,-0.00055617,0.26979848,0.02016884,0.00308303,-0
 .01065075,-0.00186013,0.00046346,0.00011350,-0.03030613,-0.01147139,0.
 01355591,0.00003272,0.00001185,-0.00000565,-0.00005584,-0.00040308,-0.
 00002848,-0.00023544,0.00149545,0.00170574,-0.00000217,0.00000466,0.00
 000406,-0.00005164,0.00010075,-0.00005427,0.00001640,0.00000378,0.0000
 6843,-0.00001724,-0.00001672,-0.00000217,0.00015301,0.00002800,-0.0001
 5058,-0.00009700,-0.00001303,-0.00000704,-0.05775282,-0.06301110,0.027
 00071,0.00350166,-0.00155920,0.00233984,-0.00044880,0.00103263,-0.0007
 0909,-0.00113350,-0.00604133,-0.00191196,0.00062194,0.00129350,0.00039
 038,-0.00006475,0.00012860,-0.00001762,0.00042544,0.00005366,-0.000732
 20,0.00047729,0.00012914,0.00012244,0.00000309,0.00000150,-0.00000231,
 -0.00000041,-0.00000180,-0.00000110,0.00001804,0.00001594,0.00000006,0
 .00001004,0.00000743,-0.00000102,0.00000442,0.00000222,-0.00000229,0.0
 0000160,0.00000298,0.00000159,0.00005767,-0.00012499,0.00008641,-0.000
 04450,0.00004518,-0.00006021,0.00002570,0.00002619,-0.00000045,0.00529
 294,0.00068573,-0.00178561,0.06125957,0.07402692,-0.01296698,-0.003317
 01,0.00490869,0.00124003,0.00011026,0.00168517,-0.00474668,-0.00121002
 ,0.00117633,0.00002064,-0.00000921,-0.00000420,-0.00030303,-0.00031865
 ,-0.00014185,-0.00116724,-0.00064470,0.00069179,0.00000458,0.00000905,
 -0.00000014,0.00020035,0.00011136,-0.00008721,0.00001401,-0.00001943,-
 0.00003202,-0.00000297,-0.00000024,-0.00000199,-0.00006068,0.00001079,
 0.00008657,0.00001535,-0.00000387,-0.00001738,0.09551486,0.02678876,-0
 .09629195,-0.00214213,0.00129050,0.00016499,0.00064744,-0.00059833,0.0
 0039645,-0.00062883,-0.00104474,0.00064508,0.00018004,0.00036600,0.000
 11006,0.00004616,0.00001820,0.00002668,0.00009530,-0.00030831,0.000064
 76,-0.00002468,0.00007537,0.00013925,0.00000309,-0.00000090,-0.0000020
 2,0.00000074,0.00000021,-0.00000040,-0.00000536,-0.00000779,0.00000246
 ,0.00000055,-0.00000201,0.00000103,0.00000085,-0.00000033,0.00000016,0
 .00000018,-0.00000063,0.00000074,-0.00000213,0.00002627,-0.00003417,-0
 .00000505,-0.00000241,0.00001678,-0.00000574,-0.00000427,0.00000071,0.
 02756447,0.00795234,-0.01205163,-0.10348716,-0.02926627,0.09854727\\0.
 00002047,-0.00000494,-0.00002322,-0.00033652,0.00041557,-0.00103137,0.
 00003354,-0.00001305,-0.00000039,0.00001645,0.00000202,-0.00001070,0.0
 0074525,-0.00097290,0.00194877,-0.00001721,0.00000601,-0.00000508,0.00
 000279,0.00000151,-0.00001458,-0.00085674,0.00124758,-0.00182131,0.000
 00729,-0.00000876,0.00000533,-0.00001638,-0.00002023,0.00000662,0.0004
 6412,-0.00070839,0.00093992,-0.00001043,0.00002651,-0.00001702,-0.0000
 1591,0.00001334,0.00001748,-0.00000051,-0.00000365,0.00000200,-0.00000
 636,0.00000516,0.00001023,-0.00000744,0.00000342,0.00000092,-0.0000180
 6,-0.00000598,0.00000644,0.00000533,-0.00000358,-0.00000034,-0.0000129
 0,-0.00000205,0.00000062,-0.00000380,0.00000255,-0.00000462,-0.0000002
 7,0.00001388,0.00000794,0.00000429,0.00000393,0.00000379,-0.00000074,0
 .00000094,0.00000103,-0.00000067,0.00000493,-0.00000523,0.00000637,0.0
 0000833,-0.00000763,0.00000463,0.00000816,-0.00000165,0.00000642,-0.00
 001063,-0.00000633,-0.00000969,-0.00001067,0.00001303,-0.00000566,-0.0
 0000187,0.00000300,0.00000495,0.00000639,-0.00001119,-0.00000263,-0.00
 000352,-0.00000643\\\@


 THE REASON MAN'S BEST FRIEND IS A DOG IS BECAUSE
 HE WAGS HIS TAIL INSTEAD OF HIS TONGUE.
 Job cpu time:       0 days 13 hours 55 minutes  3.4 seconds.
 Elapsed time:       0 days  0 hours 52 minutes 13.1 seconds.
 File lengths (MBytes):  RWF=    690 Int=      0 D2E=      0 Chk=     33 Scr=      1
 Normal termination of Gaussian 16 at Sun Nov  4 23:06:58 2018.
