 Entering Gaussian System, Link 0=g16
 Initial command:
 /apps/gaussian/g16a03/g16/l1.exe "/jobfs/local/2012044.r-man2/Gau-11594.inp" -scrdir="/jobfs/local/2012044.r-man2/"
 Entering Link 1 = /apps/gaussian/g16a03/g16/l1.exe PID=     11595.
  
 Copyright (c) 1988,1990,1992,1993,1995,1998,2003,2009,2016,
            Gaussian, Inc.  All Rights Reserved.
  
 This is part of the Gaussian(R) 16 program.  It is based on
 the Gaussian(R) 09 system (copyright 2009, Gaussian, Inc.),
 the Gaussian(R) 03 system (copyright 2003, Gaussian, Inc.),
 the Gaussian(R) 98 system (copyright 1998, Gaussian, Inc.),
 the Gaussian(R) 94 system (copyright 1995, Gaussian, Inc.),
 the Gaussian 92(TM) system (copyright 1992, Gaussian, Inc.),
 the Gaussian 90(TM) system (copyright 1990, Gaussian, Inc.),
 the Gaussian 88(TM) system (copyright 1988, Gaussian, Inc.),
 the Gaussian 86(TM) system (copyright 1986, Carnegie Mellon
 University), and the Gaussian 82(TM) system (copyright 1983,
 Carnegie Mellon University). Gaussian is a federally registered
 trademark of Gaussian, Inc.
  
 This software contains proprietary and confidential information,
 including trade secrets, belonging to Gaussian, Inc.
  
 This software is provided under written license and may be
 used, copied, transmitted, or stored only in accord with that
 written license.
  
 The following legend is applicable only to US Government
 contracts under FAR:
  
                    RESTRICTED RIGHTS LEGEND
  
 Use, reproduction and disclosure by the US Government is
 subject to restrictions as set forth in subparagraphs (a)
 and (c) of the Commercial Computer Software - Restricted
 Rights clause in FAR 52.227-19.
  
 Gaussian, Inc.
 340 Quinnipiac St., Bldg. 40, Wallingford CT 06492
  
  
 ---------------------------------------------------------------
 Warning -- This program may not be used in any manner that
 competes with the business of Gaussian, Inc. or will provide
 assistance to any competitor of Gaussian, Inc.  The licensee
 of this program is prohibited from giving any competitor of
 Gaussian, Inc. access to this program.  By using this program,
 the user acknowledges that Gaussian, Inc. is engaged in the
 business of creating and licensing software in the field of
 computational chemistry and represents and warrants to the
 licensee that it is not a competitor of Gaussian, Inc. and that
 it will not use this program in any manner prohibited above.
 ---------------------------------------------------------------
  

 Cite this work as:
 Gaussian 16, Revision A.03,
 M. J. Frisch, G. W. Trucks, H. B. Schlegel, G. E. Scuseria, 
 M. A. Robb, J. R. Cheeseman, G. Scalmani, V. Barone, 
 G. A. Petersson, H. Nakatsuji, X. Li, M. Caricato, A. V. Marenich, 
 J. Bloino, B. G. Janesko, R. Gomperts, B. Mennucci, H. P. Hratchian, 
 J. V. Ortiz, A. F. Izmaylov, J. L. Sonnenberg, D. Williams-Young, 
 F. Ding, F. Lipparini, F. Egidi, J. Goings, B. Peng, A. Petrone, 
 T. Henderson, D. Ranasinghe, V. G. Zakrzewski, J. Gao, N. Rega, 
 G. Zheng, W. Liang, M. Hada, M. Ehara, K. Toyota, R. Fukuda, 
 J. Hasegawa, M. Ishida, T. Nakajima, Y. Honda, O. Kitao, H. Nakai, 
 T. Vreven, K. Throssell, J. A. Montgomery, Jr., J. E. Peralta, 
 F. Ogliaro, M. J. Bearpark, J. J. Heyd, E. N. Brothers, K. N. Kudin, 
 V. N. Staroverov, T. A. Keith, R. Kobayashi, J. Normand, 
 K. Raghavachari, A. P. Rendell, J. C. Burant, S. S. Iyengar, 
 J. Tomasi, M. Cossi, J. M. Millam, M. Klene, C. Adamo, R. Cammi, 
 J. W. Ochterski, R. L. Martin, K. Morokuma, O. Farkas, 
 J. B. Foresman, and D. J. Fox, Gaussian, Inc., Wallingford CT, 2016.
 
 ******************************************
 Gaussian 16:  ES64L-G16RevA.03 25-Dec-2016
                 4-Nov-2018 
 ******************************************
 %mem=6000mb
 %nproc=24
 Will use up to   24 processors via shared memory.
 %chk=L_a1-e4_D_PHI.inp_extract_17.chk
 ----------------------------------------------------------------------
 #M062X/6-311++G(2d,2p) opt=ModRedundant freq=noraman SCRF=(Solvent=Wat
 er)
 ----------------------------------------------------------------------
 1/18=120,19=15,26=3,38=1/1,3;
 2/9=110,12=2,17=6,18=5,40=1/2;
 3/5=4,6=6,7=1212,11=2,25=1,30=1,70=2201,71=1,72=1,74=-55/1,2,3;
 4//1;
 5/5=2,38=5,53=1/2;
 6/7=2,8=2,9=2,10=2,28=1/1;
 7//1,2,3,16;
 1/18=20,19=15,26=3/3(2);
 2/9=110/2;
 99//99;
 2/9=110/2;
 3/5=4,6=6,7=1212,11=2,25=1,30=1,70=2205,71=1,72=1,74=-55/1,2,3;
 4/5=5,16=3,69=1/1;
 5/5=2,38=5,53=1/2;
 7//1,2,3,16;
 1/18=20,19=15,26=3/3(-5);
 2/9=110/2;
 6/7=2,8=2,9=2,10=2,19=2,28=1/1;
 99/9=1/99;
 ----------------------------
 L_a1-e4_D_PHI.inp_extract_17
 ----------------------------
 Symbolic Z-matrix:
 Charge =  0 Multiplicity = 1
 C                    -3.0163   -0.64859   0.97266 
 O                    -2.26707   0.52363   1.27654 
 C                    -2.53102  -0.29018  -1.45414 
 O                     3.01596  -1.31838  -0.39618 
 C                    -1.22992   0.8414    0.39403 
 C                    -1.74758   0.95355  -1.03513 
 C                     3.21743   1.08679  -0.26914 
 O                    -0.24632  -0.15086   0.56791 
 C                     1.80608   1.17943   0.31878 
 C                     3.84585  -0.25975   0.0477 
 C                     0.98821  -0.0357   -0.11202 
 C                     1.74373  -1.319     0.21078 
 C                    -3.619    -0.57983  -0.42021 
 H                    -2.37786  -1.51885   1.0725 
 H                    -3.78241  -0.703     1.73342 
 H                    -1.86256  -1.14367  -1.53377 
 H                    -2.96867  -0.13732  -2.4358 
 H                    -0.84691   1.79153   0.73522 
 H                    -2.40127   1.82144  -1.06052 
 H                    -0.92969   1.15788  -1.71567 
 H                     3.84369   1.87949   0.1288 
 H                     3.17841   1.2149   -1.34798 
 H                     1.85846   1.19678   1.40531 
 H                     1.33122   2.10065  -0.00082 
 H                     4.79343  -0.3835   -0.45836 
 H                     4.01133  -0.36472   1.11759 
 H                     0.81847  -0.0014   -1.18229 
 H                     1.21146  -2.17912  -0.17108 
 H                     1.84946  -1.4239    1.28796 
 H                    -4.12313  -1.51827  -0.63286 
 H                    -4.36891   0.20727  -0.44767 
 
 The following ModRedundant input section has been read:
 D       2       5       8      11 F                                           
 

 GradGradGradGradGradGradGradGradGradGradGradGradGradGradGradGradGradGrad
 Berny optimization.
 Initialization pass.
                           ----------------------------
                           !    Initial Parameters    !
                           ! (Angstroms and Degrees)  !
 --------------------------                            --------------------------
 ! Name  Definition              Value          Derivative Info.                !
 --------------------------------------------------------------------------------
 ! R1    R(1,2)                  1.424          estimate D2E/DX2                !
 ! R2    R(1,13)                 1.5192         estimate D2E/DX2                !
 ! R3    R(1,14)                 1.0839         estimate D2E/DX2                !
 ! R4    R(1,15)                 1.081          estimate D2E/DX2                !
 ! R5    R(2,5)                  1.3984         estimate D2E/DX2                !
 ! R6    R(3,6)                  1.5285         estimate D2E/DX2                !
 ! R7    R(3,13)                 1.5286         estimate D2E/DX2                !
 ! R8    R(3,16)                 1.087          estimate D2E/DX2                !
 ! R9    R(3,17)                 1.0856         estimate D2E/DX2                !
 ! R10   R(4,10)                 1.4165         estimate D2E/DX2                !
 ! R11   R(4,12)                 1.4096         estimate D2E/DX2                !
 ! R12   R(5,6)                  1.5242         estimate D2E/DX2                !
 ! R13   R(5,8)                  1.4079         estimate D2E/DX2                !
 ! R14   R(5,18)                 1.0797         estimate D2E/DX2                !
 ! R15   R(6,19)                 1.0868         estimate D2E/DX2                !
 ! R16   R(6,20)                 1.0834         estimate D2E/DX2                !
 ! R17   R(7,9)                  1.5317         estimate D2E/DX2                !
 ! R18   R(7,10)                 1.5194         estimate D2E/DX2                !
 ! R19   R(7,21)                 1.0858         estimate D2E/DX2                !
 ! R20   R(7,22)                 1.0871         estimate D2E/DX2                !
 ! R21   R(8,11)                 1.4141         estimate D2E/DX2                !
 ! R22   R(9,11)                 1.5268         estimate D2E/DX2                !
 ! R23   R(9,23)                 1.0879         estimate D2E/DX2                !
 ! R24   R(9,24)                 1.0846         estimate D2E/DX2                !
 ! R25   R(10,25)                1.0813         estimate D2E/DX2                !
 ! R26   R(10,26)                1.0877         estimate D2E/DX2                !
 ! R27   R(11,12)                1.5238         estimate D2E/DX2                !
 ! R28   R(11,27)                1.0842         estimate D2E/DX2                !
 ! R29   R(12,28)                1.0812         estimate D2E/DX2                !
 ! R30   R(12,29)                1.0874         estimate D2E/DX2                !
 ! R31   R(13,30)                1.0863         estimate D2E/DX2                !
 ! R32   R(13,31)                1.0875         estimate D2E/DX2                !
 ! A1    A(2,1,13)             111.5385         estimate D2E/DX2                !
 ! A2    A(2,1,14)             109.3507         estimate D2E/DX2                !
 ! A3    A(2,1,15)             105.3146         estimate D2E/DX2                !
 ! A4    A(13,1,14)            110.7595         estimate D2E/DX2                !
 ! A5    A(13,1,15)            111.4903         estimate D2E/DX2                !
 ! A6    A(14,1,15)            108.1907         estimate D2E/DX2                !
 ! A7    A(1,2,5)              116.2709         estimate D2E/DX2                !
 ! A8    A(6,3,13)             109.4866         estimate D2E/DX2                !
 ! A9    A(6,3,16)             110.1072         estimate D2E/DX2                !
 ! A10   A(6,3,17)             109.8739         estimate D2E/DX2                !
 ! A11   A(13,3,16)            109.7826         estimate D2E/DX2                !
 ! A12   A(13,3,17)            110.571          estimate D2E/DX2                !
 ! A13   A(16,3,17)            106.991          estimate D2E/DX2                !
 ! A14   A(10,4,12)            113.2148         estimate D2E/DX2                !
 ! A15   A(2,5,6)              110.8906         estimate D2E/DX2                !
 ! A16   A(2,5,8)              106.2634         estimate D2E/DX2                !
 ! A17   A(2,5,18)             105.286          estimate D2E/DX2                !
 ! A18   A(6,5,8)              113.8865         estimate D2E/DX2                !
 ! A19   A(6,5,18)             110.6113         estimate D2E/DX2                !
 ! A20   A(8,5,18)             109.4702         estimate D2E/DX2                !
 ! A21   A(3,6,5)              111.7937         estimate D2E/DX2                !
 ! A22   A(3,6,19)             109.5782         estimate D2E/DX2                !
 ! A23   A(3,6,20)             111.605          estimate D2E/DX2                !
 ! A24   A(5,6,19)             106.555          estimate D2E/DX2                !
 ! A25   A(5,6,20)             110.2716         estimate D2E/DX2                !
 ! A26   A(19,6,20)            106.7849         estimate D2E/DX2                !
 ! A27   A(9,7,10)             110.773          estimate D2E/DX2                !
 ! A28   A(9,7,21)             110.2811         estimate D2E/DX2                !
 ! A29   A(9,7,22)             109.9199         estimate D2E/DX2                !
 ! A30   A(10,7,21)            109.3926         estimate D2E/DX2                !
 ! A31   A(10,7,22)            109.04           estimate D2E/DX2                !
 ! A32   A(21,7,22)            107.3604         estimate D2E/DX2                !
 ! A33   A(5,8,11)             119.5467         estimate D2E/DX2                !
 ! A34   A(7,9,11)             109.7032         estimate D2E/DX2                !
 ! A35   A(7,9,23)             109.8729         estimate D2E/DX2                !
 ! A36   A(7,9,24)             109.9799         estimate D2E/DX2                !
 ! A37   A(11,9,23)            108.6803         estimate D2E/DX2                !
 ! A38   A(11,9,24)            110.9979         estimate D2E/DX2                !
 ! A39   A(23,9,24)            107.5678         estimate D2E/DX2                !
 ! A40   A(4,10,7)             110.7738         estimate D2E/DX2                !
 ! A41   A(4,10,25)            106.3334         estimate D2E/DX2                !
 ! A42   A(4,10,26)            108.9806         estimate D2E/DX2                !
 ! A43   A(7,10,25)            111.4856         estimate D2E/DX2                !
 ! A44   A(7,10,26)            110.7059         estimate D2E/DX2                !
 ! A45   A(25,10,26)           108.4196         estimate D2E/DX2                !
 ! A46   A(8,11,9)             113.3786         estimate D2E/DX2                !
 ! A47   A(8,11,12)            105.2139         estimate D2E/DX2                !
 ! A48   A(8,11,27)            109.9104         estimate D2E/DX2                !
 ! A49   A(9,11,12)            110.1761         estimate D2E/DX2                !
 ! A50   A(9,11,27)            109.7079         estimate D2E/DX2                !
 ! A51   A(12,11,27)           108.264          estimate D2E/DX2                !
 ! A52   A(4,12,11)            110.8496         estimate D2E/DX2                !
 ! A53   A(4,12,28)            107.0135         estimate D2E/DX2                !
 ! A54   A(4,12,29)            109.8055         estimate D2E/DX2                !
 ! A55   A(11,12,28)           110.5534         estimate D2E/DX2                !
 ! A56   A(11,12,29)           109.8339         estimate D2E/DX2                !
 ! A57   A(28,12,29)           108.7225         estimate D2E/DX2                !
 ! A58   A(1,13,3)             110.2642         estimate D2E/DX2                !
 ! A59   A(1,13,30)            108.9346         estimate D2E/DX2                !
 ! A60   A(1,13,31)            109.2364         estimate D2E/DX2                !
 ! A61   A(3,13,30)            111.1987         estimate D2E/DX2                !
 ! A62   A(3,13,31)            109.6683         estimate D2E/DX2                !
 ! A63   A(30,13,31)           107.4757         estimate D2E/DX2                !
 ! D1    D(13,1,2,5)           -56.7645         estimate D2E/DX2                !
 ! D2    D(14,1,2,5)            66.0882         estimate D2E/DX2                !
 ! D3    D(15,1,2,5)          -177.8574         estimate D2E/DX2                !
 ! D4    D(2,1,13,3)            53.9691         estimate D2E/DX2                !
 ! D5    D(2,1,13,30)          176.2565         estimate D2E/DX2                !
 ! D6    D(2,1,13,31)          -66.6167         estimate D2E/DX2                !
 ! D7    D(14,1,13,3)          -68.0746         estimate D2E/DX2                !
 ! D8    D(14,1,13,30)          54.2127         estimate D2E/DX2                !
 ! D9    D(14,1,13,31)         171.3396         estimate D2E/DX2                !
 ! D10   D(15,1,13,3)          171.392          estimate D2E/DX2                !
 ! D11   D(15,1,13,30)         -66.3206         estimate D2E/DX2                !
 ! D12   D(15,1,13,31)          50.8062         estimate D2E/DX2                !
 ! D13   D(1,2,5,6)             55.3718         estimate D2E/DX2                !
 ! D14   D(1,2,5,8)            -68.8799         estimate D2E/DX2                !
 ! D15   D(1,2,5,18)           175.0368         estimate D2E/DX2                !
 ! D16   D(13,3,6,5)            52.7126         estimate D2E/DX2                !
 ! D17   D(13,3,6,19)          -65.1859         estimate D2E/DX2                !
 ! D18   D(13,3,6,20)          176.7467         estimate D2E/DX2                !
 ! D19   D(16,3,6,5)           -68.0752         estimate D2E/DX2                !
 ! D20   D(16,3,6,19)          174.0263         estimate D2E/DX2                !
 ! D21   D(16,3,6,20)           55.9589         estimate D2E/DX2                !
 ! D22   D(17,3,6,5)           174.3292         estimate D2E/DX2                !
 ! D23   D(17,3,6,19)           56.4307         estimate D2E/DX2                !
 ! D24   D(17,3,6,20)          -61.6367         estimate D2E/DX2                !
 ! D25   D(6,3,13,1)           -52.9056         estimate D2E/DX2                !
 ! D26   D(6,3,13,30)         -173.8493         estimate D2E/DX2                !
 ! D27   D(6,3,13,31)           67.4208         estimate D2E/DX2                !
 ! D28   D(16,3,13,1)           68.0791         estimate D2E/DX2                !
 ! D29   D(16,3,13,30)         -52.8646         estimate D2E/DX2                !
 ! D30   D(16,3,13,31)        -171.5944         estimate D2E/DX2                !
 ! D31   D(17,3,13,1)         -174.1015         estimate D2E/DX2                !
 ! D32   D(17,3,13,30)          64.9548         estimate D2E/DX2                !
 ! D33   D(17,3,13,31)         -53.7751         estimate D2E/DX2                !
 ! D34   D(12,4,10,7)          -60.516          estimate D2E/DX2                !
 ! D35   D(12,4,10,25)         178.1935         estimate D2E/DX2                !
 ! D36   D(12,4,10,26)          61.5147         estimate D2E/DX2                !
 ! D37   D(10,4,12,11)          61.2701         estimate D2E/DX2                !
 ! D38   D(10,4,12,28)        -178.1053         estimate D2E/DX2                !
 ! D39   D(10,4,12,29)         -60.2671         estimate D2E/DX2                !
 ! D40   D(2,5,6,3)            -52.8028         estimate D2E/DX2                !
 ! D41   D(2,5,6,19)            66.8901         estimate D2E/DX2                !
 ! D42   D(2,5,6,20)          -177.5819         estimate D2E/DX2                !
 ! D43   D(8,5,6,3)             66.9901         estimate D2E/DX2                !
 ! D44   D(8,5,6,19)          -173.317          estimate D2E/DX2                !
 ! D45   D(8,5,6,20)           -57.789          estimate D2E/DX2                !
 ! D46   D(18,5,6,3)          -169.2283         estimate D2E/DX2                !
 ! D47   D(18,5,6,19)          -49.5354         estimate D2E/DX2                !
 ! D48   D(18,5,6,20)           65.9926         estimate D2E/DX2                !
 ! D49   D(2,5,8,11)          -174.5379         Frozen                          !
 ! D50   D(6,5,8,11)            63.0886         estimate D2E/DX2                !
 ! D51   D(18,5,8,11)          -61.3081         estimate D2E/DX2                !
 ! D52   D(10,7,9,11)          -51.7857         estimate D2E/DX2                !
 ! D53   D(10,7,9,23)           67.6333         estimate D2E/DX2                !
 ! D54   D(10,7,9,24)         -174.1427         estimate D2E/DX2                !
 ! D55   D(21,7,9,11)         -173.0355         estimate D2E/DX2                !
 ! D56   D(21,7,9,23)          -53.6165         estimate D2E/DX2                !
 ! D57   D(21,7,9,24)           64.6074         estimate D2E/DX2                !
 ! D58   D(22,7,9,11)           68.7834         estimate D2E/DX2                !
 ! D59   D(22,7,9,23)         -171.7976         estimate D2E/DX2                !
 ! D60   D(22,7,9,24)          -53.5737         estimate D2E/DX2                !
 ! D61   D(9,7,10,4)            55.1017         estimate D2E/DX2                !
 ! D62   D(9,7,10,25)          173.3022         estimate D2E/DX2                !
 ! D63   D(9,7,10,26)          -65.9139         estimate D2E/DX2                !
 ! D64   D(21,7,10,4)          176.8743         estimate D2E/DX2                !
 ! D65   D(21,7,10,25)         -64.9251         estimate D2E/DX2                !
 ! D66   D(21,7,10,26)          55.8588         estimate D2E/DX2                !
 ! D67   D(22,7,10,4)          -65.9888         estimate D2E/DX2                !
 ! D68   D(22,7,10,25)          52.2118         estimate D2E/DX2                !
 ! D69   D(22,7,10,26)         172.9956         estimate D2E/DX2                !
 ! D70   D(5,8,11,9)            64.2033         estimate D2E/DX2                !
 ! D71   D(5,8,11,12)         -175.3348         estimate D2E/DX2                !
 ! D72   D(5,8,11,27)          -58.9801         estimate D2E/DX2                !
 ! D73   D(7,9,11,8)           169.7138         estimate D2E/DX2                !
 ! D74   D(7,9,11,12)           52.105          estimate D2E/DX2                !
 ! D75   D(7,9,11,27)          -66.9915         estimate D2E/DX2                !
 ! D76   D(23,9,11,8)           49.566          estimate D2E/DX2                !
 ! D77   D(23,9,11,12)         -68.0428         estimate D2E/DX2                !
 ! D78   D(23,9,11,27)         172.8607         estimate D2E/DX2                !
 ! D79   D(24,9,11,8)          -68.5366         estimate D2E/DX2                !
 ! D80   D(24,9,11,12)         173.8546         estimate D2E/DX2                !
 ! D81   D(24,9,11,27)          54.7581         estimate D2E/DX2                !
 ! D82   D(8,11,12,4)         -178.9759         estimate D2E/DX2                !
 ! D83   D(8,11,12,28)          62.5224         estimate D2E/DX2                !
 ! D84   D(8,11,12,29)         -57.4553         estimate D2E/DX2                !
 ! D85   D(9,11,12,4)          -56.4262         estimate D2E/DX2                !
 ! D86   D(9,11,12,28)        -174.9279         estimate D2E/DX2                !
 ! D87   D(9,11,12,29)          65.0943         estimate D2E/DX2                !
 ! D88   D(27,11,12,4)          63.5472         estimate D2E/DX2                !
 ! D89   D(27,11,12,28)        -54.9545         estimate D2E/DX2                !
 ! D90   D(27,11,12,29)       -174.9323         estimate D2E/DX2                !
 --------------------------------------------------------------------------------
 Trust Radius=3.00D-01 FncErr=1.00D-07 GrdErr=1.00D-06 EigMax=2.50D+02 EigMin=1.00D-04
 Number of steps in this run=    186 maximum allowed number of steps=    186.
 GradGradGradGradGradGradGradGradGradGradGradGradGradGradGradGradGradGrad

                          Input orientation:                          
 ---------------------------------------------------------------------
 Center     Atomic      Atomic             Coordinates (Angstroms)
 Number     Number       Type             X           Y           Z
 ---------------------------------------------------------------------
      1          6           0       -3.016304   -0.648588    0.972658
      2          8           0       -2.267068    0.523632    1.276543
      3          6           0       -2.531018   -0.290179   -1.454140
      4          8           0        3.015956   -1.318381   -0.396184
      5          6           0       -1.229924    0.841404    0.394033
      6          6           0       -1.747577    0.953548   -1.035130
      7          6           0        3.217434    1.086789   -0.269141
      8          8           0       -0.246315   -0.150861    0.567910
      9          6           0        1.806077    1.179431    0.318782
     10          6           0        3.845851   -0.259752    0.047695
     11          6           0        0.988212   -0.035704   -0.112018
     12          6           0        1.743730   -1.319000    0.210780
     13          6           0       -3.618999   -0.579834   -0.420210
     14          1           0       -2.377864   -1.518846    1.072499
     15          1           0       -3.782406   -0.702996    1.733423
     16          1           0       -1.862563   -1.143668   -1.533767
     17          1           0       -2.968672   -0.137322   -2.435801
     18          1           0       -0.846911    1.791526    0.735218
     19          1           0       -2.401271    1.821436   -1.060515
     20          1           0       -0.929692    1.157877   -1.715666
     21          1           0        3.843693    1.879486    0.128799
     22          1           0        3.178410    1.214898   -1.347984
     23          1           0        1.858462    1.196783    1.405311
     24          1           0        1.331222    2.100654   -0.000817
     25          1           0        4.793425   -0.383496   -0.458364
     26          1           0        4.011329   -0.364718    1.117591
     27          1           0        0.818472   -0.001401   -1.182287
     28          1           0        1.211459   -2.179124   -0.171082
     29          1           0        1.849455   -1.423898    1.287959
     30          1           0       -4.123133   -1.518273   -0.632861
     31          1           0       -4.368906    0.207274   -0.447670
 ---------------------------------------------------------------------
                    Distance matrix (angstroms):
                    1          2          3          4          5
     1  C    0.000000
     2  O    1.424009   0.000000
     3  C    2.500662   2.861571   0.000000
     4  O    6.221777   5.839638   5.739808   0.000000
     5  C    2.397089   1.398381   2.527661   4.828728   0.000000
     6  C    2.864912   2.408014   1.528465   5.316123   1.524155
     7  C    6.588861   5.725910   6.028678   2.416935   4.503222
     8  O    2.843307   2.245116   3.054171   3.596525   1.407945
     9  C    5.198516   4.235314   4.910540   2.866016   3.055688
    10  C    6.935122   6.284229   6.551404   1.416492   5.205381
    11  C    4.193840   3.582988   3.775053   2.416145   2.438346
    12  C    4.867015   4.540666   4.701479   1.409597   3.680156
    13  C    1.519227   2.433994   1.528599   6.675976   2.896651
    14  H    1.083939   2.055633   2.813713   5.593792   2.710879
    15  H    1.081035   2.002400   3.449195   7.150640   3.270214
    16  H    2.803282   3.292621   1.087022   5.012441   2.838513
    17  H    3.446920   3.835441   1.085617   6.432007   3.462529
    18  H    3.273652   1.979251   3.458757   5.086584   1.079740
    19  H    3.257772   2.676592   2.151904   6.296518   2.109082
    20  H    3.852837   3.338286   2.174743   4.841593   2.154327
    21  H    7.359539   6.363730   6.917375   3.344714   5.185514
    22  H    6.872586   6.084342   5.905429   2.711055   4.754738
    23  H    5.230289   4.182070   5.445645   3.303215   3.269114
    24  H    5.235166   4.131142   4.769185   3.832029   2.881161
    25  H    7.944178   7.326892   7.392411   2.009296   6.205457
    26  H    7.034857   6.342925   7.030054   2.047378   5.426693
    27  H    4.446138   3.980209   3.372889   2.679800   2.718645
    28  H    4.639468   4.636880   4.384117   2.011904   3.924703
    29  H    4.937219   4.553983   5.290838   2.051389   3.925974
    30  H    2.135208   3.355619   2.171991   7.145807   3.872111
    31  H    2.139945   2.736917   2.153665   7.540985   3.311162
                    6          7          8          9         10
     6  C    0.000000
     7  C    5.025518   0.000000
     8  O    2.458301   3.772266   0.000000
     9  C    3.809535   1.531719   2.458466   0.000000
    10  C    5.825036   1.519364   4.126536   2.511058   0.000000
    11  C    3.052097   2.500822   1.414079   1.526776   2.870855
    12  C    4.348102   2.861809   2.335031   2.501541   2.359558
    13  C    2.496319   7.038272   3.540536   5.750876   7.486346
    14  H    3.309395   6.316383   2.582536   5.035290   6.431965
    15  H    3.814388   7.497423   3.763936   6.064312   7.824861
    16  H    2.158744   5.690394   2.831072   4.720979   5.989017
    17  H    2.154750   6.667891   4.053849   5.667433   7.253996
    18  H    2.155815   4.245503   2.039994   2.754346   5.167441
    19  H    1.086826   5.721523   3.344482   4.473970   6.677275
    20  H    1.083428   4.392737   2.719286   3.409380   5.284404
    21  H    5.785706   1.085783   4.587297   2.162880   2.140776
    22  H    4.942826   1.087123   4.155080   2.159320   2.137286
    23  H    4.361013   2.159327   2.635806   1.087929   2.813242
    24  H    3.444511   2.158174   2.807382   1.084566   3.449236
    25  H    6.701123   2.163629   5.148431   3.459905   1.081344
    26  H    6.287848   2.158742   4.298304   2.808136   1.087694
    27  H    2.741932   2.788012   2.054093   2.150101   3.277899
    28  H    4.395009   3.834024   2.604816   3.445784   3.266783
    29  H    4.897717   3.255684   2.555650   2.778220   2.622801
    30  H    3.451809   7.797600   4.282684   6.583218   8.096403
    31  H    2.788082   7.639239   4.260918   6.297853   8.242920
                   11         12         13         14         15
    11  C    0.000000
    12  C    1.523763   0.000000
    13  C    4.649457   5.450080   0.000000
    14  H    3.864357   4.215452   2.156465   0.000000
    15  H    5.158462   5.765074   2.163332   1.753616   0.000000
    16  H    3.372814   4.009930   2.154759   2.683080   3.815039
    17  H    4.589905   5.532403   2.163643   3.816521   4.285391
    18  H    2.724749   4.081890   3.826596   3.662805   3.979470
    19  H    3.979599   5.353463   2.767481   3.963304   4.010783
    20  H    2.770321   4.122293   3.454015   4.127458   4.847375
    21  H    3.446697   3.827124   7.876639   7.151713   8.209837
    22  H    2.808662   3.302831   7.091304   6.648630   7.850245
    23  H    2.139777   2.787334   6.040817   5.043001   5.961226
    24  H    2.166575   3.450937   5.644962   5.292458   6.084179
    25  H    3.836738   3.259380   8.414801   7.420239   8.857251
    26  H    3.280156   2.622016   7.786720   6.492752   7.825343
    27  H    1.084188   2.129039   4.539438   4.195624   5.491965
    28  H    2.155824   1.081177   5.094420   3.855606   5.544798
    29  H    2.151455   1.087426   5.790879   4.233871   5.695261
    30  H    5.347442   5.930558   1.086296   2.440126   2.525880
    31  H    5.373120   6.334618   1.087499   3.042146   2.435106
                   16         17         18         19         20
    16  H    0.000000
    17  H    1.746389   0.000000
    18  H    3.846454   4.275241   0.000000
    19  H    3.050576   2.459693   2.375202   0.000000
    20  H    2.490069   2.520630   2.532824   1.742148   0.000000
    21  H    6.668204   7.553344   4.730459   6.357469   5.167976
    22  H    5.568551   6.387367   4.568965   5.619908   4.124917
    23  H    5.287903   6.311513   2.849875   4.961433   4.185190
    24  H    4.803730   5.424645   2.319821   3.890042   2.990195
    25  H    6.785022   8.013801   6.161879   7.549037   6.058936
    26  H    6.491461   7.835733   5.328986   7.116520   5.895704
    27  H    2.935347   3.991520   3.108844   3.701933   2.164370
    28  H    3.518336   5.174109   4.563368   5.463276   4.255096
    29  H    4.671161   6.223826   4.232595   5.840907   4.838490
    30  H    2.462141   2.547626   4.853869   3.781713   4.304917
    31  H    3.047361   2.456027   4.039001   2.617763   3.786773
                   21         22         23         24         25
    21  H    0.000000
    22  H    1.750762   0.000000
    23  H    2.456971   3.053396   0.000000
    24  H    2.525515   2.451841   1.752758   0.000000
    25  H    2.523458   2.440197   3.818976   4.285697   0.000000
    26  H    2.458102   3.044339   2.675052   3.809445   1.759449
    27  H    3.795872   2.660103   3.035274   2.465242   4.058363
    28  H    4.846741   4.095532   3.781584   4.284838   4.017125
    29  H    4.029018   3.959490   2.623323   3.788400   3.577575
    30  H    8.694551   7.829058   6.877874   6.576177   8.990171
    31  H    8.400916   7.667324   6.572121   6.022958   9.181363
                   26         27         28         29         30
    26  H    0.000000
    27  H    3.951680   0.000000
    28  H    3.576593   2.432992   0.000000
    29  H    2.413418   3.031260   1.762443   0.000000
    30  H    8.400253   5.198291   5.395168   6.274573   0.000000
    31  H    8.544329   5.243291   6.075514   6.658915   1.752773
                   31
    31  H    0.000000
 Stoichiometry    C10H18O3
 Framework group  C1[X(C10H18O3)]
 Deg. of freedom    87
 Full point group                 C1      NOp   1
 Largest Abelian subgroup         C1      NOp   1
 Largest concise Abelian subgroup C1      NOp   1
                         Standard orientation:                         
 ---------------------------------------------------------------------
 Center     Atomic      Atomic             Coordinates (Angstroms)
 Number     Number       Type             X           Y           Z
 ---------------------------------------------------------------------
      1          6           0        3.016304   -0.648588   -0.972658
      2          8           0        2.267068    0.523632   -1.276543
      3          6           0        2.531018   -0.290179    1.454140
      4          8           0       -3.015956   -1.318381    0.396184
      5          6           0        1.229924    0.841404   -0.394033
      6          6           0        1.747577    0.953548    1.035130
      7          6           0       -3.217434    1.086789    0.269141
      8          8           0        0.246315   -0.150861   -0.567910
      9          6           0       -1.806077    1.179431   -0.318782
     10          6           0       -3.845851   -0.259752   -0.047695
     11          6           0       -0.988212   -0.035704    0.112018
     12          6           0       -1.743730   -1.319000   -0.210780
     13          6           0        3.618999   -0.579834    0.420210
     14          1           0        2.377864   -1.518846   -1.072499
     15          1           0        3.782406   -0.702996   -1.733423
     16          1           0        1.862563   -1.143668    1.533767
     17          1           0        2.968672   -0.137322    2.435801
     18          1           0        0.846911    1.791526   -0.735218
     19          1           0        2.401271    1.821436    1.060515
     20          1           0        0.929692    1.157877    1.715666
     21          1           0       -3.843693    1.879486   -0.128799
     22          1           0       -3.178410    1.214898    1.347984
     23          1           0       -1.858462    1.196783   -1.405311
     24          1           0       -1.331222    2.100654    0.000817
     25          1           0       -4.793425   -0.383496    0.458364
     26          1           0       -4.011329   -0.364718   -1.117591
     27          1           0       -0.818472   -0.001401    1.182287
     28          1           0       -1.211459   -2.179124    0.171082
     29          1           0       -1.849455   -1.423898   -1.287959
     30          1           0        4.123133   -1.518273    0.632861
     31          1           0        4.368906    0.207274    0.447670
 ---------------------------------------------------------------------
 Rotational constants (GHZ):           1.9214741           0.3938040           0.3843200
 Standard basis: 6-311++G(2d,2p) (5D, 7F)
 There are   557 symmetry adapted cartesian basis functions of A   symmetry.
 There are   531 symmetry adapted basis functions of A   symmetry.
   531 basis functions,   762 primitive gaussians,   557 cartesian basis functions
    51 alpha electrons       51 beta electrons
       nuclear repulsion energy       891.4236931164 Hartrees.
 NAtoms=   31 NActive=   31 NUniq=   31 SFac= 1.00D+00 NAtFMM=   60 NAOKFM=F Big=F
 Integral buffers will be    131072 words long.
 Raffenetti 2 integral format.
 Two-electron integral symmetry is turned on.
 ------------------------------------------------------------------------------
 Polarizable Continuum Model (PCM)
 =================================
 Model                : PCM.
 Atomic radii         : UFF (Universal Force Field).
 Polarization charges : Total charges.
 Charge compensation  : None.
 Solution method      : On-the-fly selection.
 Cavity type          : Scaled VdW (van der Waals Surface) (Alpha=1.100).
 Cavity algorithm     : GePol (No added spheres)
                        Default sphere list used, NSphG=   31.
                        Lebedev-Laikov grids with approx.  5.0 points / Ang**2.
                        Smoothing algorithm: York/Karplus (Gamma=1.0000).
                        Polarization charges: spherical gaussians, with
                                              point-specific exponents (IZeta= 3).
                        Self-potential: point-specific (ISelfS= 7).
                        Self-field    : sphere-specific E.n sum rule (ISelfD= 2).
 1st derivatives      : Analytical E(r).r(x)/FMM algorithm (CHGder, D1EAlg=3).
                        Cavity 1st derivative terms included.
 Solvent              : Water, Eps=  78.355300 Eps(inf)=   1.777849
 ------------------------------------------------------------------------------
 One-electron integrals computed using PRISM.
 NBasis=   531 RedAO= T EigKep=  4.61D-06  NBF=   531
 NBsUse=   531 1.00D-06 EigRej= -1.00D+00 NBFU=   531
 ExpMin= 3.60D-02 ExpMax= 8.59D+03 ExpMxC= 1.30D+03 IAcc=3 IRadAn=         5 AccDes= 0.00D+00
 Harris functional with IExCor= 1009 and IRadAn=       5 diagonalized for initial guess.
 HarFok:  IExCor= 1009 AccDes= 0.00D+00 IRadAn=         5 IDoV= 1 UseB2=F ITyADJ=14
 ICtDFT=  3500011 ScaDFX=  1.000000  1.000000  1.000000  1.000000
 FoFCou: FMM=F IPFlag=           0 FMFlag=      100000 FMFlg1=           0
         NFxFlg=           0 DoJE=T BraDBF=F KetDBF=T FulRan=T
         wScrn=  0.000000 ICntrl=       500 IOpCl=  0 I1Cent=   200000004 NGrid=           0
         NMat0=    1 NMatS0=      1 NMatT0=    0 NMatD0=    1 NMtDS0=    0 NMtDT0=    0
 Petite list used in FoFCou.
 Requested convergence on RMS density matrix=1.00D-08 within 128 cycles.
 Requested convergence on MAX density matrix=1.00D-06.
 Requested convergence on             energy=1.00D-06.
 No special actions if energy rises.
 Inv3:  Mode=1 IEnd=    12681408.
 Iteration    1 A*A^-1 deviation from unit magnitude is 4.22D-15 for   2038.
 Iteration    1 A*A^-1 deviation from orthogonality  is 2.18D-15 for   1668    480.
 Iteration    1 A^-1*A deviation from unit magnitude is 4.00D-15 for   2038.
 Iteration    1 A^-1*A deviation from orthogonality  is 1.40D-15 for   1148    362.
 Error on total polarization charges =  0.01495
 SCF Done:  E(RM062X) =  -617.498096927     A.U. after   12 cycles
            NFock= 12  Conv=0.48D-08     -V/T= 2.0035

 **********************************************************************

            Population analysis using the SCF density.

 **********************************************************************

 Orbital symmetries:
       Occupied  (A) (A) (A) (A) (A) (A) (A) (A) (A) (A) (A) (A)
                 (A) (A) (A) (A) (A) (A) (A) (A) (A) (A) (A) (A)
                 (A) (A) (A) (A) (A) (A) (A) (A) (A) (A) (A) (A)
                 (A) (A) (A) (A) (A) (A) (A) (A) (A) (A) (A) (A)
                 (A) (A) (A)
       Virtual   (A) (A) (A) (A) (A) (A) (A) (A) (A) (A) (A) (A)
                 (A) (A) (A) (A) (A) (A) (A) (A) (A) (A) (A) (A)
                 (A) (A) (A) (A) (A) (A) (A) (A) (A) (A) (A) (A)
                 (A) (A) (A) (A) (A) (A) (A) (A) (A) (A) (A) (A)
                 (A) (A) (A) (A) (A) (A) (A) (A) (A) (A) (A) (A)
                 (A) (A) (A) (A) (A) (A) (A) (A) (A) (A) (A) (A)
                 (A) (A) (A) (A) (A) (A) (A) (A) (A) (A) (A) (A)
                 (A) (A) (A) (A) (A) (A) (A) (A) (A) (A) (A) (A)
                 (A) (A) (A) (A) (A) (A) (A) (A) (A) (A) (A) (A)
                 (A) (A) (A) (A) (A) (A) (A) (A) (A) (A) (A) (A)
                 (A) (A) (A) (A) (A) (A) (A) (A) (A) (A) (A) (A)
                 (A) (A) (A) (A) (A) (A) (A) (A) (A) (A) (A) (A)
                 (A) (A) (A) (A) (A) (A) (A) (A) (A) (A) (A) (A)
                 (A) (A) (A) (A) (A) (A) (A) (A) (A) (A) (A) (A)
                 (A) (A) (A) (A) (A) (A) (A) (A) (A) (A) (A) (A)
                 (A) (A) (A) (A) (A) (A) (A) (A) (A) (A) (A) (A)
                 (A) (A) (A) (A) (A) (A) (A) (A) (A) (A) (A) (A)
                 (A) (A) (A) (A) (A) (A) (A) (A) (A) (A) (A) (A)
                 (A) (A) (A) (A) (A) (A) (A) (A) (A) (A) (A) (A)
                 (A) (A) (A) (A) (A) (A) (A) (A) (A) (A) (A) (A)
                 (A) (A) (A) (A) (A) (A) (A) (A) (A) (A) (A) (A)
                 (A) (A) (A) (A) (A) (A) (A) (A) (A) (A) (A) (A)
                 (A) (A) (A) (A) (A) (A) (A) (A) (A) (A) (A) (A)
                 (A) (A) (A) (A) (A) (A) (A) (A) (A) (A) (A) (A)
                 (A) (A) (A) (A) (A) (A) (A) (A) (A) (A) (A) (A)
                 (A) (A) (A) (A) (A) (A) (A) (A) (A) (A) (A) (A)
                 (A) (A) (A) (A) (A) (A) (A) (A) (A) (A) (A) (A)
                 (A) (A) (A) (A) (A) (A) (A) (A) (A) (A) (A) (A)
                 (A) (A) (A) (A) (A) (A) (A) (A) (A) (A) (A) (A)
                 (A) (A) (A) (A) (A) (A) (A) (A) (A) (A) (A) (A)
                 (A) (A) (A) (A) (A) (A) (A) (A) (A) (A) (A) (A)
                 (A) (A) (A) (A) (A) (A) (A) (A) (A) (A) (A) (A)
                 (A) (A) (A) (A) (A) (A) (A) (A) (A) (A) (A) (A)
                 (A) (A) (A) (A) (A) (A) (A) (A) (A) (A) (A) (A)
                 (A) (A) (A) (A) (A) (A) (A) (A) (A) (A) (A) (A)
                 (A) (A) (A) (A) (A) (A) (A) (A) (A) (A) (A) (A)
                 (A) (A) (A) (A) (A) (A) (A) (A) (A) (A) (A) (A)
                 (A) (A) (A) (A) (A) (A) (A) (A) (A) (A) (A) (A)
                 (A) (A) (A) (A) (A) (A) (A) (A) (A) (A) (A) (A)
                 (A) (A) (A) (A) (A) (A) (A) (A) (A) (A) (A) (A)
 The electronic state is 1-A.
 Alpha  occ. eigenvalues --  -19.62977 -19.62973 -19.62963 -10.63590 -10.58904
 Alpha  occ. eigenvalues --  -10.57996 -10.57899 -10.57648 -10.53293 -10.53241
 Alpha  occ. eigenvalues --  -10.53065 -10.52993 -10.52796  -1.20262  -1.16885
 Alpha  occ. eigenvalues --   -1.13655  -0.90463  -0.90058  -0.87786  -0.84912
 Alpha  occ. eigenvalues --   -0.75451  -0.74077  -0.73297  -0.71095  -0.66096
 Alpha  occ. eigenvalues --   -0.63769  -0.60068  -0.58477  -0.58173  -0.55960
 Alpha  occ. eigenvalues --   -0.54719  -0.53597  -0.52116  -0.51422  -0.49858
 Alpha  occ. eigenvalues --   -0.48532  -0.47197  -0.46381  -0.45982  -0.45346
 Alpha  occ. eigenvalues --   -0.43963  -0.42228  -0.41236  -0.40695  -0.39014
 Alpha  occ. eigenvalues --   -0.38418  -0.37673  -0.37411  -0.34715  -0.32723
 Alpha  occ. eigenvalues --   -0.32024
 Alpha virt. eigenvalues --   -0.00103   0.00769   0.00926   0.01010   0.02179
 Alpha virt. eigenvalues --    0.02443   0.02694   0.03528   0.03561   0.04411
 Alpha virt. eigenvalues --    0.04528   0.04709   0.05404   0.06099   0.07098
 Alpha virt. eigenvalues --    0.07582   0.07646   0.07795   0.08875   0.08993
 Alpha virt. eigenvalues --    0.10270   0.10930   0.11264   0.11382   0.11901
 Alpha virt. eigenvalues --    0.12185   0.12693   0.12843   0.12912   0.13680
 Alpha virt. eigenvalues --    0.13796   0.13961   0.14274   0.14465   0.14611
 Alpha virt. eigenvalues --    0.15311   0.15394   0.15515   0.15661   0.16024
 Alpha virt. eigenvalues --    0.16573   0.16867   0.16885   0.17499   0.17879
 Alpha virt. eigenvalues --    0.18186   0.18304   0.18774   0.19515   0.19752
 Alpha virt. eigenvalues --    0.20215   0.20374   0.20534   0.21204   0.21386
 Alpha virt. eigenvalues --    0.21866   0.22138   0.22812   0.23039   0.24437
 Alpha virt. eigenvalues --    0.25074   0.25597   0.25993   0.26874   0.27328
 Alpha virt. eigenvalues --    0.27727   0.28177   0.28848   0.29338   0.29664
 Alpha virt. eigenvalues --    0.30063   0.30579   0.30801   0.31380   0.31770
 Alpha virt. eigenvalues --    0.32304   0.32787   0.33646   0.33792   0.34121
 Alpha virt. eigenvalues --    0.34421   0.34602   0.35115   0.35676   0.36237
 Alpha virt. eigenvalues --    0.36409   0.37301   0.37698   0.38010   0.38227
 Alpha virt. eigenvalues --    0.38701   0.38821   0.39437   0.39997   0.40619
 Alpha virt. eigenvalues --    0.41524   0.42333   0.42930   0.43622   0.44614
 Alpha virt. eigenvalues --    0.46305   0.48541   0.48761   0.50118   0.51044
 Alpha virt. eigenvalues --    0.51456   0.52116   0.52360   0.53656   0.55050
 Alpha virt. eigenvalues --    0.56166   0.56782   0.57149   0.59131   0.59405
 Alpha virt. eigenvalues --    0.60018   0.60459   0.61096   0.61373   0.61850
 Alpha virt. eigenvalues --    0.62111   0.62417   0.62991   0.63648   0.63804
 Alpha virt. eigenvalues --    0.65050   0.65230   0.65730   0.66312   0.66806
 Alpha virt. eigenvalues --    0.67927   0.68100   0.68402   0.68881   0.70021
 Alpha virt. eigenvalues --    0.70561   0.71259   0.71722   0.72016   0.73224
 Alpha virt. eigenvalues --    0.73517   0.74313   0.74600   0.75352   0.75865
 Alpha virt. eigenvalues --    0.76373   0.77172   0.77881   0.79222   0.80461
 Alpha virt. eigenvalues --    0.80519   0.82185   0.83599   0.84639   0.85242
 Alpha virt. eigenvalues --    0.86222   0.86669   0.87860   0.89218   0.89356
 Alpha virt. eigenvalues --    0.90150   0.92083   0.92804   0.94310   0.95588
 Alpha virt. eigenvalues --    0.96860   0.98607   0.99973   1.01829   1.02345
 Alpha virt. eigenvalues --    1.02863   1.03370   1.04874   1.06103   1.07865
 Alpha virt. eigenvalues --    1.08118   1.08882   1.10539   1.11203   1.11546
 Alpha virt. eigenvalues --    1.12327   1.13363   1.14251   1.15331   1.16089
 Alpha virt. eigenvalues --    1.16718   1.17038   1.18356   1.18720   1.20414
 Alpha virt. eigenvalues --    1.21404   1.21812   1.22866   1.23613   1.23979
 Alpha virt. eigenvalues --    1.25554   1.25656   1.25944   1.27215   1.27989
 Alpha virt. eigenvalues --    1.28260   1.29119   1.29725   1.30559   1.30914
 Alpha virt. eigenvalues --    1.31850   1.32867   1.33497   1.33794   1.34716
 Alpha virt. eigenvalues --    1.35003   1.35722   1.36229   1.37977   1.38369
 Alpha virt. eigenvalues --    1.38748   1.39535   1.40134   1.40816   1.41003
 Alpha virt. eigenvalues --    1.42503   1.43085   1.43778   1.44650   1.45020
 Alpha virt. eigenvalues --    1.45125   1.45965   1.46824   1.47720   1.48515
 Alpha virt. eigenvalues --    1.48574   1.50206   1.50597   1.51270   1.51852
 Alpha virt. eigenvalues --    1.52466   1.53625   1.53952   1.54920   1.55509
 Alpha virt. eigenvalues --    1.55709   1.57021   1.57550   1.57805   1.58774
 Alpha virt. eigenvalues --    1.59673   1.59811   1.61048   1.61437   1.62186
 Alpha virt. eigenvalues --    1.63370   1.64907   1.65362   1.66224   1.67114
 Alpha virt. eigenvalues --    1.68383   1.69132   1.70854   1.71435   1.72734
 Alpha virt. eigenvalues --    1.73172   1.74121   1.74981   1.76400   1.76700
 Alpha virt. eigenvalues --    1.78026   1.78987   1.79383   1.82514   1.82597
 Alpha virt. eigenvalues --    1.86145   1.88319   1.91347   1.95244   1.97361
 Alpha virt. eigenvalues --    2.05851   2.08458   2.12504   2.17139   2.21526
 Alpha virt. eigenvalues --    2.23695   2.26560   2.27791   2.33383   2.35734
 Alpha virt. eigenvalues --    2.40921   2.43393   2.44946   2.46685   2.52260
 Alpha virt. eigenvalues --    2.59103   2.75346   2.76185   2.79659   2.80402
 Alpha virt. eigenvalues --    2.86682   2.89989   2.91752   2.93116   2.93960
 Alpha virt. eigenvalues --    2.95310   2.97924   3.00802   3.03026   3.03788
 Alpha virt. eigenvalues --    3.05805   3.07483   3.08350   3.08591   3.11202
 Alpha virt. eigenvalues --    3.14077   3.16069   3.17337   3.19552   3.22918
 Alpha virt. eigenvalues --    3.26518   3.28407   3.31265   3.33498   3.34428
 Alpha virt. eigenvalues --    3.35309   3.36056   3.37370   3.39714   3.41732
 Alpha virt. eigenvalues --    3.41960   3.43113   3.43660   3.45020   3.47113
 Alpha virt. eigenvalues --    3.47941   3.48767   3.49908   3.50933   3.51601
 Alpha virt. eigenvalues --    3.53005   3.53714   3.54696   3.55316   3.55961
 Alpha virt. eigenvalues --    3.56293   3.56973   3.58671   3.58964   3.59928
 Alpha virt. eigenvalues --    3.60645   3.61738   3.62577   3.63873   3.65208
 Alpha virt. eigenvalues --    3.65996   3.67455   3.68289   3.68788   3.69285
 Alpha virt. eigenvalues --    3.70426   3.71075   3.71516   3.73237   3.74752
 Alpha virt. eigenvalues --    3.75075   3.75644   3.76409   3.76769   3.77349
 Alpha virt. eigenvalues --    3.78573   3.80257   3.80765   3.82264   3.84274
 Alpha virt. eigenvalues --    3.85798   3.86755   3.89219   3.89893   3.91252
 Alpha virt. eigenvalues --    3.92270   3.94138   3.94340   3.96506   3.97861
 Alpha virt. eigenvalues --    3.98799   3.99648   4.01709   4.03225   4.04409
 Alpha virt. eigenvalues --    4.04784   4.05324   4.06384   4.07030   4.07911
 Alpha virt. eigenvalues --    4.08100   4.08638   4.09601   4.10361   4.11817
 Alpha virt. eigenvalues --    4.12324   4.13174   4.14312   4.15004   4.15463
 Alpha virt. eigenvalues --    4.16058   4.17398   4.18347   4.19389   4.19588
 Alpha virt. eigenvalues --    4.21801   4.22265   4.23550   4.25128   4.27227
 Alpha virt. eigenvalues --    4.28931   4.29437   4.30953   4.32219   4.32651
 Alpha virt. eigenvalues --    4.34357   4.35670   4.36386   4.38199   4.38912
 Alpha virt. eigenvalues --    4.40528   4.43211   4.45568   4.46596   4.51529
 Alpha virt. eigenvalues --    4.59569   4.60483   4.75011   4.76502   4.82743
 Alpha virt. eigenvalues --    4.85758   4.92263   4.95669   4.99492   5.00162
 Alpha virt. eigenvalues --    5.06321   5.07035   5.08301   5.08560   5.12101
 Alpha virt. eigenvalues --    5.12255   5.14116   5.15524   5.30677   5.34527
 Alpha virt. eigenvalues --    5.40199   5.57856   5.58348   5.63545   5.85607
 Alpha virt. eigenvalues --    5.88882   6.01899   7.02331   7.03759   7.05854
 Alpha virt. eigenvalues --    7.09845   7.11233   7.12393   7.14067   7.16757
 Alpha virt. eigenvalues --    7.21589   7.36589   7.39556   7.49183   7.54830
 Alpha virt. eigenvalues --    7.57699   7.62857  23.94557  23.97586  24.05474
 Alpha virt. eigenvalues --   24.08570  24.10697  24.12816  24.14484  24.15923
 Alpha virt. eigenvalues --   24.16535  24.18766  50.17300  50.17791  50.24488
          Condensed to atoms (all electrons):
               1          2          3          4          5          6
     1  C    5.519928   0.128902   0.003900  -0.000026  -0.453093   0.295676
     2  O    0.128902   8.246439   0.034558   0.000151   0.153955  -0.016665
     3  C    0.003900   0.034558   5.810320   0.000630  -0.064298  -0.304874
     4  O   -0.000026   0.000151   0.000630   8.310164  -0.007002   0.003710
     5  C   -0.453093   0.153955  -0.064298  -0.007002   7.481674  -1.349917
     6  C    0.295676  -0.016665  -0.304874   0.003710  -1.349917   6.906365
     7  C    0.000402   0.001591  -0.002451  -0.033259  -0.107140   0.001542
     8  O    0.004649   0.024621  -0.057152  -0.004360   0.249021   0.012446
     9  C   -0.040873   0.001585  -0.137252  -0.036739   0.341608   0.102500
    10  C   -0.002587   0.001806   0.012889   0.117472  -0.011406  -0.021419
    11  C    0.049676   0.000354   0.191741   0.095636  -0.780519   0.057695
    12  C    0.023969  -0.013961  -0.007623   0.123069   0.040079  -0.004465
    13  C   -0.115437  -0.074012   0.008235   0.000502   0.272872  -0.245090
    14  H    0.501329  -0.039013   0.009047   0.000117  -0.008433   0.013612
    15  H    0.432998  -0.073731  -0.003222  -0.000013   0.005266   0.009948
    16  H    0.011053   0.001271   0.506269   0.001410  -0.040382  -0.000783
    17  H    0.005609  -0.000130   0.426092  -0.000051   0.001789  -0.048970
    18  H   -0.016928  -0.085917  -0.042868  -0.001017   0.538138  -0.072391
    19  H    0.019921  -0.008272  -0.010360   0.000100  -0.127531   0.533488
    20  H    0.010172   0.008075  -0.026286   0.002334  -0.084330   0.451361
    21  H   -0.000132  -0.000050  -0.001792   0.007147   0.000595   0.002759
    22  H    0.000582   0.000134  -0.000546   0.000023  -0.003671   0.005965
    23  H   -0.001763   0.000406  -0.001920   0.001713   0.006667  -0.005093
    24  H    0.003724   0.002609  -0.002611  -0.003333   0.014196   0.009715
    25  H   -0.000026   0.000059   0.000602  -0.069782  -0.002657  -0.001024
    26  H    0.000152  -0.000039   0.000262  -0.044401   0.002524   0.000731
    27  H   -0.018467  -0.002235   0.025355  -0.025426   0.001247  -0.046608
    28  H   -0.006646  -0.000025  -0.007435  -0.072962   0.011220  -0.005755
    29  H    0.003085   0.001672   0.004014  -0.039529  -0.021118   0.011009
    30  H   -0.037941   0.009793  -0.043912  -0.000022   0.017132  -0.008964
    31  H   -0.072545  -0.006488  -0.017824   0.000010   0.006147  -0.019350
               7          8          9         10         11         12
     1  C    0.000402   0.004649  -0.040873  -0.002587   0.049676   0.023969
     2  O    0.001591   0.024621   0.001585   0.001806   0.000354  -0.013961
     3  C   -0.002451  -0.057152  -0.137252   0.012889   0.191741  -0.007623
     4  O   -0.033259  -0.004360  -0.036739   0.117472   0.095636   0.123069
     5  C   -0.107140   0.249021   0.341608  -0.011406  -0.780519   0.040079
     6  C    0.001542   0.012446   0.102500  -0.021419   0.057695  -0.004465
     7  C    5.881460   0.001094  -0.496219   0.086700   0.150549   0.172923
     8  O    0.001094   8.266746  -0.133673   0.011155   0.204008  -0.166582
     9  C   -0.496219  -0.133673   7.499871  -0.180309  -1.556345  -0.067612
    10  C    0.086700   0.011155  -0.180309   5.441161   0.187666  -0.213380
    11  C    0.150549   0.204008  -1.556345   0.187666   7.468371  -0.152852
    12  C    0.172923  -0.166582  -0.067612  -0.213380  -0.152852   5.854989
    13  C   -0.001619  -0.019559   0.021820   0.001449   0.038954  -0.043153
    14  H    0.000587  -0.012777  -0.003222  -0.000428  -0.005326   0.007075
    15  H   -0.000062   0.000566  -0.000820  -0.000091  -0.001717   0.001893
    16  H    0.000171   0.005942  -0.005595  -0.000019  -0.007509   0.001545
    17  H    0.000418   0.000096   0.001057  -0.000142   0.006132  -0.000566
    18  H   -0.005954  -0.048848   0.021298   0.002886  -0.060970   0.012130
    19  H   -0.001608   0.003508  -0.007557  -0.000039  -0.002360   0.001492
    20  H   -0.001340   0.005504  -0.013311   0.001554   0.010285   0.013343
    21  H    0.412094  -0.001328   0.016295  -0.038368  -0.036560  -0.003250
    22  H    0.481642   0.000271  -0.005068  -0.083386  -0.023849   0.004643
    23  H   -0.068509   0.010541   0.550394  -0.012540  -0.095044  -0.022385
    24  H    0.010202  -0.008620   0.391090  -0.004612  -0.013027   0.007405
    25  H   -0.036791   0.001273  -0.005039   0.430989   0.001928   0.016507
    26  H   -0.046125  -0.000919  -0.028095   0.463558   0.049270  -0.038583
    27  H    0.005685  -0.022021  -0.024314   0.008959   0.445874  -0.057298
    28  H   -0.004514  -0.000407   0.075852   0.003727  -0.081893   0.411166
    29  H    0.009545   0.011206  -0.059648   0.006984   0.034929   0.379077
    30  H    0.000006  -0.000899  -0.002225   0.000130   0.002644   0.000243
    31  H   -0.000155  -0.000070   0.001712   0.000008  -0.004850  -0.000793
              13         14         15         16         17         18
     1  C   -0.115437   0.501329   0.432998   0.011053   0.005609  -0.016928
     2  O   -0.074012  -0.039013  -0.073731   0.001271  -0.000130  -0.085917
     3  C    0.008235   0.009047  -0.003222   0.506269   0.426092  -0.042868
     4  O    0.000502   0.000117  -0.000013   0.001410  -0.000051  -0.001017
     5  C    0.272872  -0.008433   0.005266  -0.040382   0.001789   0.538138
     6  C   -0.245090   0.013612   0.009948  -0.000783  -0.048970  -0.072391
     7  C   -0.001619   0.000587  -0.000062   0.000171   0.000418  -0.005954
     8  O   -0.019559  -0.012777   0.000566   0.005942   0.000096  -0.048848
     9  C    0.021820  -0.003222  -0.000820  -0.005595   0.001057   0.021298
    10  C    0.001449  -0.000428  -0.000091  -0.000019  -0.000142   0.002886
    11  C    0.038954  -0.005326  -0.001717  -0.007509   0.006132  -0.060970
    12  C   -0.043153   0.007075   0.001893   0.001545  -0.000566   0.012130
    13  C    5.889179  -0.119546  -0.026709  -0.110643  -0.007016   0.015875
    14  H   -0.119546   0.496011  -0.013561   0.000189  -0.000423  -0.000052
    15  H   -0.026709  -0.013561   0.469769  -0.002085   0.000879   0.002395
    16  H   -0.110643   0.000189  -0.002085   0.488156  -0.009546  -0.000563
    17  H   -0.007016  -0.000423   0.000879  -0.009546   0.469441   0.000005
    18  H    0.015875  -0.000052   0.002395  -0.000563   0.000005   0.474498
    19  H   -0.040742  -0.000750   0.000370   0.007140  -0.005185  -0.007990
    20  H   -0.012891   0.000243   0.000887  -0.001427  -0.007511  -0.004535
    21  H    0.000066  -0.000061   0.000013  -0.000064   0.000015   0.001356
    22  H   -0.000198   0.000063  -0.000005   0.000339   0.000040  -0.001262
    23  H    0.001218  -0.000181   0.000075  -0.000174  -0.000018   0.000706
    24  H   -0.002325   0.000010   0.000103   0.000021   0.000158  -0.018280
    25  H   -0.000043   0.000000   0.000003  -0.000011   0.000004  -0.000271
    26  H   -0.000052   0.000036  -0.000028   0.000170  -0.000010  -0.000551
    27  H    0.010826   0.000214  -0.000262  -0.007128   0.000475   0.001319
    28  H    0.012787  -0.003876  -0.000103  -0.007238   0.000318  -0.000187
    29  H   -0.003212   0.000397   0.000034   0.002275  -0.000015  -0.001404
    30  H    0.437196   0.003117  -0.010838  -0.004915  -0.008895   0.001614
    31  H    0.477418   0.002403  -0.005184   0.001538  -0.002089   0.000636
              19         20         21         22         23         24
     1  C    0.019921   0.010172  -0.000132   0.000582  -0.001763   0.003724
     2  O   -0.008272   0.008075  -0.000050   0.000134   0.000406   0.002609
     3  C   -0.010360  -0.026286  -0.001792  -0.000546  -0.001920  -0.002611
     4  O    0.000100   0.002334   0.007147   0.000023   0.001713  -0.003333
     5  C   -0.127531  -0.084330   0.000595  -0.003671   0.006667   0.014196
     6  C    0.533488   0.451361   0.002759   0.005965  -0.005093   0.009715
     7  C   -0.001608  -0.001340   0.412094   0.481642  -0.068509   0.010202
     8  O    0.003508   0.005504  -0.001328   0.000271   0.010541  -0.008620
     9  C   -0.007557  -0.013311   0.016295  -0.005068   0.550394   0.391090
    10  C   -0.000039   0.001554  -0.038368  -0.083386  -0.012540  -0.004612
    11  C   -0.002360   0.010285  -0.036560  -0.023849  -0.095044  -0.013027
    12  C    0.001492   0.013343  -0.003250   0.004643  -0.022385   0.007405
    13  C   -0.040742  -0.012891   0.000066  -0.000198   0.001218  -0.002325
    14  H   -0.000750   0.000243  -0.000061   0.000063  -0.000181   0.000010
    15  H    0.000370   0.000887   0.000013  -0.000005   0.000075   0.000103
    16  H    0.007140  -0.001427  -0.000064   0.000339  -0.000174   0.000021
    17  H   -0.005185  -0.007511   0.000015   0.000040  -0.000018   0.000158
    18  H   -0.007990  -0.004535   0.001356  -0.001262   0.000706  -0.018280
    19  H    0.447628  -0.007465  -0.000111   0.000161   0.000119   0.001772
    20  H   -0.007465   0.488402   0.000066   0.000734  -0.002475  -0.002135
    21  H   -0.000111   0.000066   0.494752  -0.009079  -0.003455  -0.012289
    22  H    0.000161   0.000734  -0.009079   0.472765   0.000899  -0.001531
    23  H    0.000119  -0.002475  -0.003455   0.000899   0.422352  -0.012332
    24  H    0.001772  -0.002135  -0.012289  -0.001531  -0.012332   0.501299
    25  H    0.000006  -0.000420  -0.009383  -0.004773  -0.000525   0.001065
    26  H    0.000022   0.000475   0.002742   0.003273  -0.005798   0.000206
    27  H   -0.000079  -0.025342  -0.001222  -0.010536   0.007724  -0.006780
    28  H   -0.000854  -0.000881   0.003058  -0.002403  -0.001993   0.000294
    29  H    0.000602   0.001302  -0.002985   0.003007   0.000526  -0.002511
    30  H   -0.002395   0.000355  -0.000017  -0.000015   0.000019  -0.000102
    31  H   -0.000898  -0.000578   0.000007  -0.000002  -0.000053  -0.000123
              25         26         27         28         29         30
     1  C   -0.000026   0.000152  -0.018467  -0.006646   0.003085  -0.037941
     2  O    0.000059  -0.000039  -0.002235  -0.000025   0.001672   0.009793
     3  C    0.000602   0.000262   0.025355  -0.007435   0.004014  -0.043912
     4  O   -0.069782  -0.044401  -0.025426  -0.072962  -0.039529  -0.000022
     5  C   -0.002657   0.002524   0.001247   0.011220  -0.021118   0.017132
     6  C   -0.001024   0.000731  -0.046608  -0.005755   0.011009  -0.008964
     7  C   -0.036791  -0.046125   0.005685  -0.004514   0.009545   0.000006
     8  O    0.001273  -0.000919  -0.022021  -0.000407   0.011206  -0.000899
     9  C   -0.005039  -0.028095  -0.024314   0.075852  -0.059648  -0.002225
    10  C    0.430989   0.463558   0.008959   0.003727   0.006984   0.000130
    11  C    0.001928   0.049270   0.445874  -0.081893   0.034929   0.002644
    12  C    0.016507  -0.038583  -0.057298   0.411166   0.379077   0.000243
    13  C   -0.000043  -0.000052   0.010826   0.012787  -0.003212   0.437196
    14  H    0.000000   0.000036   0.000214  -0.003876   0.000397   0.003117
    15  H    0.000003  -0.000028  -0.000262  -0.000103   0.000034  -0.010838
    16  H   -0.000011   0.000170  -0.007128  -0.007238   0.002275  -0.004915
    17  H    0.000004  -0.000010   0.000475   0.000318  -0.000015  -0.008895
    18  H   -0.000271  -0.000551   0.001319  -0.000187  -0.001404   0.001614
    19  H    0.000006   0.000022  -0.000079  -0.000854   0.000602  -0.002395
    20  H   -0.000420   0.000475  -0.025342  -0.000881   0.001302   0.000355
    21  H   -0.009383   0.002742  -0.001222   0.003058  -0.002985  -0.000017
    22  H   -0.004773   0.003273  -0.010536  -0.002403   0.003007  -0.000015
    23  H   -0.000525  -0.005798   0.007724  -0.001993   0.000526   0.000019
    24  H    0.001065   0.000206  -0.006780   0.000294  -0.002511  -0.000102
    25  H    0.473500  -0.006911   0.001923   0.001649  -0.001189   0.000010
    26  H   -0.006911   0.496206  -0.004509  -0.004230   0.010768  -0.000004
    27  H    0.001923  -0.004509   0.495752  -0.002602  -0.008232   0.001014
    28  H    0.001649  -0.004230  -0.002602   0.506805  -0.029601  -0.000075
    29  H   -0.001189   0.010768  -0.008232  -0.029601   0.494806  -0.000005
    30  H    0.000010  -0.000004   0.001014  -0.000075  -0.000005   0.485415
    31  H   -0.000007   0.000009  -0.000060   0.000272  -0.000084  -0.005773
              31
     1  C   -0.072545
     2  O   -0.006488
     3  C   -0.017824
     4  O    0.000010
     5  C    0.006147
     6  C   -0.019350
     7  C   -0.000155
     8  O   -0.000070
     9  C    0.001712
    10  C    0.000008
    11  C   -0.004850
    12  C   -0.000793
    13  C    0.477418
    14  H    0.002403
    15  H   -0.005184
    16  H    0.001538
    17  H   -0.002089
    18  H    0.000636
    19  H   -0.000898
    20  H   -0.000578
    21  H    0.000007
    22  H   -0.000002
    23  H   -0.000053
    24  H   -0.000123
    25  H   -0.000007
    26  H    0.000009
    27  H   -0.000060
    28  H    0.000272
    29  H   -0.000084
    30  H   -0.005773
    31  H    0.476198
 Mulliken charges:
               1
     1  C   -0.249263
     2  O   -0.297442
     3  C   -0.301488
     4  O   -0.326268
     5  C   -0.082632
     6  C   -0.267156
     7  C   -0.410864
     8  O   -0.335431
     9  C   -0.221165
    10  C   -0.210365
    11  C   -0.172892
    12  C   -0.279044
    13  C   -0.366148
    14  H    0.173201
    15  H    0.213232
    16  H    0.170593
    17  H    0.178039
    18  H    0.297133
    19  H    0.207868
    20  H    0.195836
    21  H    0.179182
    22  H    0.171779
    23  H    0.230901
    24  H    0.146742
    25  H    0.209332
    26  H    0.149854
    27  H    0.256754
    28  H    0.206535
    29  H    0.194297
    30  H    0.168308
    31  H    0.170571
 Sum of Mulliken charges =  -0.00000
 Mulliken charges with hydrogens summed into heavy atoms:
               1
     1  C    0.137170
     2  O   -0.297442
     3  C    0.047144
     4  O   -0.326268
     5  C    0.214501
     6  C    0.136548
     7  C   -0.059903
     8  O   -0.335431
     9  C    0.156477
    10  C    0.148822
    11  C    0.083862
    12  C    0.121788
    13  C   -0.027269
 Electronic spatial extent (au):  <R**2>=           3101.5107
 Charge=             -0.0000 electrons
 Dipole moment (field-independent basis, Debye):
    X=             -0.0839    Y=              1.6520    Z=              1.7144  Tot=              2.3823
 Quadrupole moment (field-independent basis, Debye-Ang):
   XX=            -74.7349   YY=            -80.1355   ZZ=            -83.2257
   XY=             -9.2592   XZ=              6.9778   YZ=              3.2177
 Traceless Quadrupole moment (field-independent basis, Debye-Ang):
   XX=              4.6305   YY=             -0.7701   ZZ=             -3.8603
   XY=             -9.2592   XZ=              6.9778   YZ=              3.2177
 Octapole moment (field-independent basis, Debye-Ang**2):
  XXX=             -1.4704  YYY=              2.4434  ZZZ=              1.5265  XYY=              9.4167
  XXY=             10.3727  XXZ=             -5.0325  XZZ=             -4.0590  YZZ=             -2.1029
  YYZ=             -3.2183  XYZ=              1.0060
 Hexadecapole moment (field-independent basis, Debye-Ang**3):
 XXXX=          -3033.4572 YYYY=           -498.4420 ZZZZ=           -421.0883 XXXY=            -85.5249
 XXXZ=              9.1620 YYYX=             -7.6672 YYYZ=             -2.1182 ZZZX=              1.1941
 ZZZY=              5.6904 XXYY=           -646.9395 XXZZ=           -604.6454 YYZZ=           -156.3871
 XXYZ=             29.6295 YYXZ=              7.7565 ZZXY=             -5.9099
 N-N= 8.914236931164D+02 E-N=-3.224497661842D+03  KE= 6.153361169751D+02
 D1PCM: PCM CHGder 1st derivatives, ID1Alg=3 FixD1E=F DoIter=F DoCFld=F I1PDM=0.
 Calling FoFJK, ICntrl=      2127 FMM=F ISym2X=0 I1Cent= 0 IOpClX= 0 NMat=1 NMatS=1 NMatT=0.
 ***** Axes restored to original set *****
 -------------------------------------------------------------------
 Center     Atomic                   Forces (Hartrees/Bohr)
 Number     Number              X              Y              Z
 -------------------------------------------------------------------
      1        6           0.001691140    0.002767032   -0.006335266
      2        8          -0.000385623    0.007012154    0.006605109
      3        6          -0.000340186    0.001915314    0.003272257
      4        8           0.002261450   -0.005988053   -0.006209688
      5        6          -0.005532185   -0.005601664   -0.004820013
      6        6          -0.000143625   -0.002781056    0.000893060
      7        6          -0.000585905   -0.000712087    0.002424255
      8        8           0.000086109   -0.009743743    0.003593111
      9        6           0.002004610   -0.003498812   -0.002902974
     10        6          -0.006377779    0.002398907   -0.001335101
     11        6          -0.001282949    0.002788021    0.006019077
     12        6           0.003342285    0.005801325   -0.003037022
     13        6           0.002608065   -0.000901914    0.000341274
     14        1           0.003703705   -0.004880920   -0.000572466
     15        1          -0.003306807   -0.000036492    0.003029119
     16        1           0.002803481   -0.002651730    0.000709308
     17        1          -0.000990118    0.000412174   -0.002284739
     18        1           0.002441690    0.007560150    0.002429268
     19        1          -0.002115254    0.002688972    0.000033265
     20        1           0.003554093    0.000712101   -0.002584026
     21        1           0.001501723    0.002459907    0.000903417
     22        1          -0.000305945   -0.000259710   -0.003191903
     23        1          -0.000322257   -0.000931768    0.003812094
     24        1          -0.001951373    0.003111657   -0.001246030
     25        1           0.003767762   -0.000354891   -0.002171974
     26        1           0.000653946    0.000588930    0.006108687
     27        1           0.000313766    0.000056911   -0.007477383
     28        1          -0.003079380   -0.003326746   -0.001678772
     29        1          -0.000920273    0.000921648    0.006505862
     30        1          -0.001303060   -0.002334507   -0.000957415
     31        1          -0.001791106    0.002808891    0.000125610
 -------------------------------------------------------------------
 Cartesian Forces:  Max     0.009743743 RMS     0.003370209

 GradGradGradGradGradGradGradGradGradGradGradGradGradGradGradGradGradGrad
 Berny optimization.
 FormGI is forming the generalized inverse of G from B-inverse, IUseBI=4.
 Internal  Forces:  Max     0.012805217 RMS     0.002115247
 Search for a local minimum.
 Step number   1 out of a maximum of  186
 All quantities printed in internal units (Hartrees-Bohrs-Radians)
 Mixed Optimization -- RFO/linear search
 Second derivative matrix not updated -- first step.
 ITU=  0
     Eigenvalues ---    0.00624   0.00632   0.00717   0.00737   0.01405
     Eigenvalues ---    0.01456   0.01506   0.02691   0.02753   0.03077
     Eigenvalues ---    0.03179   0.04058   0.04332   0.04735   0.04758
     Eigenvalues ---    0.04830   0.04952   0.05033   0.05125   0.05144
     Eigenvalues ---    0.05176   0.05658   0.05728   0.06131   0.06155
     Eigenvalues ---    0.06398   0.06670   0.06854   0.07385   0.07830
     Eigenvalues ---    0.07831   0.07973   0.08041   0.08151   0.08219
     Eigenvalues ---    0.08359   0.09072   0.09354   0.10866   0.11599
     Eigenvalues ---    0.11618   0.11697   0.11768   0.12411   0.12502
     Eigenvalues ---    0.14549   0.14618   0.15983   0.16527   0.17613
     Eigenvalues ---    0.19162   0.21520   0.21791   0.25000   0.28432
     Eigenvalues ---    0.28548   0.28691   0.28852   0.28958   0.29018
     Eigenvalues ---    0.30232   0.30242   0.35053   0.35080   0.35103
     Eigenvalues ---    0.35112   0.35147   0.35159   0.35182   0.35244
     Eigenvalues ---    0.35305   0.35324   0.35448   0.35493   0.35523
     Eigenvalues ---    0.35583   0.35832   0.35852   0.35870   0.36026
     Eigenvalues ---    0.40522   0.41469   0.42513   0.43365   0.44229
     Eigenvalues ---    0.443291000.000001000.000001000.000001000.00000
     Eigenvalues --- 1000.000001000.000001000.000001000.000001000.00000
     Eigenvalues --- 1000.000001000.000001000.000001000.000001000.00000
     Eigenvalues --- 1000.000001000.000001000.000001000.000001000.00000
     Eigenvalues --- 1000.000001000.000001000.000001000.000001000.00000
     Eigenvalues --- 1000.000001000.000001000.000001000.000001000.00000
     Eigenvalues --- 1000.000001000.000001000.000001000.000001000.00000
     Eigenvalues --- 1000.000001000.000001000.000001000.000001000.00000
     Eigenvalues --- 1000.000001000.000001000.000001000.000001000.00000
     Eigenvalues --- 1000.000001000.000001000.000001000.000001000.00000
     Eigenvalues --- 1000.000001000.000001000.000001000.000001000.00000
     Eigenvalues --- 1000.000001000.000001000.000001000.000001000.00000
     Eigenvalues --- 1000.000001000.000001000.000001000.000001000.00000
     Eigenvalues --- 1000.000001000.000001000.000001000.000001000.00000
     Eigenvalues --- 1000.000001000.000001000.000001000.000001000.00000
     Eigenvalues --- 1000.000001000.000001000.000001000.000001000.00000
     Eigenvalues --- 1000.000001000.000001000.000001000.000001000.00000
     Eigenvalues --- 1000.000001000.000001000.000001000.000001000.00000
     Eigenvalues --- 1000.000001000.000001000.000001000.000001000.00000
     Eigenvalues --- 1000.000001000.000001000.000001000.000001000.00000
 RFO step:  Lambda=-3.44642682D-03 EMin= 6.23779707D-03
 Linear search not attempted -- first point.
 Iteration  1 RMS(Cart)=  0.05147572 RMS(Int)=  0.00054141
 Iteration  2 RMS(Cart)=  0.00165614 RMS(Int)=  0.00005634
 Iteration  3 RMS(Cart)=  0.00000115 RMS(Int)=  0.00005634
 Iteration  4 RMS(Cart)=  0.00000000 RMS(Int)=  0.00005634
 Iteration  1 RMS(Cart)=  0.00001891 RMS(Int)=  0.00000408
 Iteration  2 RMS(Cart)=  0.00001011 RMS(Int)=  0.00000456
 Iteration  3 RMS(Cart)=  0.00000541 RMS(Int)=  0.00000514
 Iteration  4 RMS(Cart)=  0.00000289 RMS(Int)=  0.00000552
 Iteration  5 RMS(Cart)=  0.00000155 RMS(Int)=  0.00000573
 Iteration  6 RMS(Cart)=  0.00000083 RMS(Int)=  0.00000585
 Variable       Old X    -DE/DX   Delta X   Delta X   Delta X     New X
                                 (Linear)    (Quad)   (Total)
    R1        2.69099   0.00294   0.00000   0.00706   0.00707   2.69805
    R2        2.87092   0.00012   0.00000   0.00141   0.00145   2.87237
    R3        2.04835   0.00605   0.00000   0.01687   0.01687   2.06522
    R4        2.04286   0.00448   0.00000   0.01236   0.01236   2.05522
    R5        2.64256   0.00055   0.00000   0.00043   0.00047   2.64303
    R6        2.88838  -0.00161   0.00000  -0.00561  -0.00561   2.88277
    R7        2.88863  -0.00104   0.00000  -0.00224  -0.00227   2.88636
    R8        2.05417   0.00375   0.00000   0.01057   0.01057   2.06475
    R9        2.05152   0.00252   0.00000   0.00707   0.00707   2.05859
   R10        2.67678   0.00354   0.00000   0.00811   0.00813   2.68491
   R11        2.66375   0.00294   0.00000   0.00673   0.00674   2.67050
   R12        2.88024  -0.00039   0.00000  -0.00239  -0.00243   2.87781
   R13        2.66063   0.00408   0.00000   0.00913   0.00913   2.66976
   R14        2.04041   0.00829   0.00000   0.02278   0.02278   2.06319
   R15        2.05380   0.00342   0.00000   0.00962   0.00962   2.06343
   R16        2.04738   0.00444   0.00000   0.01235   0.01235   2.05973
   R17        2.89453  -0.00068   0.00000  -0.00244  -0.00246   2.89207
   R18        2.87118   0.00028   0.00000   0.00073   0.00073   2.87191
   R19        2.05183   0.00299   0.00000   0.00840   0.00840   2.06023
   R20        2.05437   0.00315   0.00000   0.00887   0.00887   2.06324
   R21        2.67222   0.00108   0.00000   0.00247   0.00247   2.67469
   R22        2.88519  -0.00160   0.00000  -0.00520  -0.00522   2.87997
   R23        2.05589   0.00378   0.00000   0.01067   0.01067   2.06656
   R24        2.04953   0.00387   0.00000   0.01080   0.01080   2.06033
   R25        2.04344   0.00436   0.00000   0.01205   0.01205   2.05550
   R26        2.05544   0.00605   0.00000   0.01707   0.01707   2.07252
   R27        2.87950  -0.00072   0.00000  -0.00217  -0.00216   2.87733
   R28        2.04882   0.00733   0.00000   0.02047   0.02047   2.06929
   R29        2.04313   0.00475   0.00000   0.01314   0.01314   2.05626
   R30        2.05494   0.00626   0.00000   0.01767   0.01767   2.07260
   R31        2.05280   0.00281   0.00000   0.00790   0.00790   2.06070
   R32        2.05507   0.00326   0.00000   0.00920   0.00920   2.06428
    A1        1.94671   0.00263   0.00000   0.00818   0.00819   1.95491
    A2        1.90853   0.00013   0.00000   0.00181   0.00185   1.91038
    A3        1.83809  -0.00145   0.00000  -0.00279  -0.00281   1.83528
    A4        1.93312  -0.00181   0.00000  -0.00864  -0.00870   1.92441
    A5        1.94587  -0.00030   0.00000  -0.00237  -0.00232   1.94355
    A6        1.88828   0.00081   0.00000   0.00418   0.00416   1.89245
    A7        2.02931  -0.00571   0.00000  -0.03877  -0.03862   1.99069
    A8        1.91090   0.00143   0.00000  -0.00470  -0.00472   1.90618
    A9        1.92173  -0.00075   0.00000  -0.00514  -0.00513   1.91661
   A10        1.91766  -0.00047   0.00000   0.00207   0.00205   1.91971
   A11        1.91607  -0.00078   0.00000  -0.00127  -0.00140   1.91467
   A12        1.92983  -0.00001   0.00000   0.00328   0.00338   1.93321
   A13        1.86734   0.00053   0.00000   0.00595   0.00596   1.87330
   A14        1.97597  -0.00430   0.00000  -0.02514  -0.02508   1.95089
   A15        1.93541   0.00382   0.00000   0.01802   0.01791   1.95332
   A16        1.85465   0.00112   0.00000   0.00497   0.00520   1.85985
   A17        1.83759  -0.00185   0.00000  -0.00470  -0.00474   1.83285
   A18        1.98770  -0.00463   0.00000  -0.02270  -0.02266   1.96503
   A19        1.93053  -0.00054   0.00000  -0.00383  -0.00383   1.92670
   A20        1.91062   0.00237   0.00000   0.01006   0.00992   1.92054
   A21        1.95117  -0.00169   0.00000  -0.01723  -0.01734   1.93383
   A22        1.91250   0.00132   0.00000   0.00949   0.00961   1.92211
   A23        1.94788  -0.00023   0.00000  -0.00065  -0.00081   1.94707
   A24        1.85974   0.00024   0.00000   0.00741   0.00740   1.86714
   A25        1.92460   0.00065   0.00000  -0.00210  -0.00209   1.92252
   A26        1.86375  -0.00017   0.00000   0.00466   0.00464   1.86839
   A27        1.93335  -0.00104   0.00000  -0.00746  -0.00750   1.92585
   A28        1.92477  -0.00030   0.00000   0.00048   0.00050   1.92526
   A29        1.91846   0.00080   0.00000   0.00127   0.00126   1.91973
   A30        1.90926   0.00084   0.00000   0.00560   0.00563   1.91489
   A31        1.90311  -0.00020   0.00000  -0.00246  -0.00248   1.90063
   A32        1.87379  -0.00006   0.00000   0.00290   0.00290   1.87669
   A33        2.08648  -0.01281   0.00000  -0.05052  -0.05052   2.03596
   A34        1.91468   0.00123   0.00000  -0.00146  -0.00149   1.91319
   A35        1.91764   0.00006   0.00000   0.00448   0.00447   1.92211
   A36        1.91951  -0.00022   0.00000   0.00262   0.00262   1.92213
   A37        1.89683  -0.00119   0.00000  -0.00786  -0.00786   1.88897
   A38        1.93728  -0.00031   0.00000  -0.00162  -0.00160   1.93568
   A39        1.87741   0.00041   0.00000   0.00391   0.00388   1.88129
   A40        1.93337   0.00192   0.00000   0.00887   0.00886   1.94223
   A41        1.85587  -0.00114   0.00000  -0.00352  -0.00350   1.85236
   A42        1.90207   0.00067   0.00000   0.00726   0.00730   1.90937
   A43        1.94579  -0.00048   0.00000  -0.00413  -0.00414   1.94165
   A44        1.93218  -0.00155   0.00000  -0.00946  -0.00949   1.92269
   A45        1.89228   0.00061   0.00000   0.00140   0.00136   1.89364
   A46        1.97883  -0.00124   0.00000  -0.00563  -0.00562   1.97321
   A47        1.83633   0.00076   0.00000   0.00453   0.00454   1.84087
   A48        1.91830   0.00066   0.00000   0.01057   0.01056   1.92886
   A49        1.92293   0.00008   0.00000  -0.00179  -0.00183   1.92110
   A50        1.91476   0.00018   0.00000  -0.00450  -0.00449   1.91028
   A51        1.88956  -0.00039   0.00000  -0.00275  -0.00277   1.88679
   A52        1.93469   0.00162   0.00000   0.00784   0.00788   1.94257
   A53        1.86774  -0.00046   0.00000   0.00350   0.00350   1.87124
   A54        1.91647   0.00136   0.00000   0.01225   0.01230   1.92877
   A55        1.92952  -0.00075   0.00000  -0.00735  -0.00741   1.92211
   A56        1.91696  -0.00253   0.00000  -0.01759  -0.01766   1.89931
   A57        1.89757   0.00085   0.00000   0.00202   0.00186   1.89942
   A58        1.92447  -0.00130   0.00000  -0.00490  -0.00515   1.91933
   A59        1.90127   0.00066   0.00000   0.00344   0.00347   1.90474
   A60        1.90653   0.00026   0.00000  -0.00028  -0.00018   1.90636
   A61        1.94078  -0.00045   0.00000  -0.00250  -0.00244   1.93834
   A62        1.91407   0.00092   0.00000   0.00102   0.00111   1.91518
   A63        1.87581  -0.00005   0.00000   0.00347   0.00343   1.87923
    D1       -0.99073   0.00063   0.00000  -0.00912  -0.00900  -0.99972
    D2        1.15346   0.00020   0.00000  -0.01332  -0.01323   1.14023
    D3       -3.10420   0.00044   0.00000  -0.00907  -0.00899  -3.11319
    D4        0.94194   0.00135   0.00000   0.01929   0.01932   0.96126
    D5        3.07626   0.00039   0.00000   0.01530   0.01526   3.09152
    D6       -1.16268   0.00086   0.00000   0.02125   0.02126  -1.14142
    D7       -1.18813   0.00063   0.00000   0.01737   0.01743  -1.17069
[...]
 6,0.00016278,0.11630677,-0.01337845,-0.11464734,0.00009246,-0.00006864
 ,-0.00001971,-0.00115443,-0.00083395,-0.00001753,0.00000063,-0.0000017
 5,0.,0.00000070,-0.00000156,-0.00000028,-0.00000172,-0.00000150,0.0000
 0005,0.00000013,-0.00000037,0.00000038,-0.00000155,-0.00000099,-0.0000
 0120,-0.00002208,-0.00001167,-0.00001447,-0.00000329,0.00000026,-0.000
 00211,-0.00000440,0.00000017,0.00000137,0.00049017,-0.00039754,0.00020
 349,-0.00001897,-0.00079705,0.00077863,-0.00031089,0.00009562,0.000308
 59,-0.00028848,0.00013296,0.00032280,-0.11924577,0.01608607,0.11431953
 ,0.00000230,0.00000089,-0.00000025,-0.00001476,0.00001517,0.00000837,0
 .00000087,-0.00000269,-0.00000046,-0.00858854,-0.01090819,-0.02103537,
 -0.00001189,-0.00003547,0.00003039,0.00000059,-0.00000176,0.00000384,-
 0.00154864,0.00253738,-0.01562244,-0.00016010,0.00013949,0.00005991,0.
 00079437,-0.00086410,-0.00093325,-0.05822967,0.00403316,-0.02532997,-0
 .00035938,-0.00003244,0.00022628,0.00246947,0.00007523,-0.00468742,0.0
 0000071,0.00000094,0.00000061,-0.00000016,-0.00000068,-0.00000038,-0.0
 0000009,-0.00000002,-0.00000033,-0.00000025,0.00000022,-0.00000038,0.0
 0000122,0.00000051,0.00000060,-0.00000654,0.00001199,0.00000195,0.0000
 0244,0.00000064,-0.00000114,0.00000304,0.00000138,-0.00000592,0.000459
 65,-0.00009348,0.00033916,-0.00044199,0.00241905,-0.00102468,-0.000080
 99,0.00014095,0.00023810,0.00019173,-0.00001781,0.00025156,0.00576451,
 -0.00074623,0.02713343,0.05930901,0.00001308,0.00001412,0.00000529,-0.
 00006613,0.00000782,0.00002095,0.00000318,0.00000168,0.00000085,-0.016
 23888,-0.01213913,-0.03390835,0.00005652,-0.00009257,0.00001361,-0.000
 00970,0.00001266,0.00000191,0.00448980,-0.00111519,0.03008003,-0.00023
 328,0.00040387,-0.00001051,-0.00126307,0.00112957,0.00024904,0.0028004
 8,-0.04772491,0.01259086,-0.00014150,-0.00047287,0.00041088,0.00412853
 ,0.00083676,-0.00327032,0.00000091,-0.00000228,-0.00000168,0.00000062,
 -0.00000114,-0.00000236,-0.00000279,-0.00000186,0.00000046,0.00000155,
 0.00000215,0.00000127,-0.00000272,-0.00000106,-0.00000217,-0.00000274,
 0.00001832,0.00000266,-0.00000568,0.00000238,-0.00000578,-0.00000326,-
 0.00000484,0.00000361,-0.00069731,0.00098769,-0.00065744,0.00362904,-0
 .00450344,0.00152433,0.00021063,0.00005633,-0.00063533,-0.00029658,-0.
 00004809,-0.00031488,0.00014489,0.00114403,-0.00379364,0.00320101,0.06
 134805,0.00003232,0.00003266,0.00001773,-0.00014433,-0.00001040,0.0000
 4516,0.00000520,0.00000997,-0.00000037,-0.00832593,-0.01167563,-0.0090
 7000,0.00023451,-0.00019488,-0.00000223,-0.00001705,0.00003246,0.00000
 068,0.00003832,0.00148699,-0.01007593,-0.00056291,0.00020074,0.0000227
 7,0.00022187,-0.00064936,0.00073466,-0.02865652,0.01015691,-0.29163006
 ,0.00020325,-0.00022031,0.00012740,0.00230212,0.00097237,0.00145436,0.
 00000223,-0.00000743,-0.00000333,0.00000092,0.00000073,-0.00000546,-0.
 00000962,-0.00000319,0.00000106,0.00000360,0.00000595,0.00000510,-0.00
 000791,-0.00000270,-0.00000606,-0.00000525,0.00001694,-0.00000981,-0.0
 0002010,0.00000422,-0.00001118,0.00000018,-0.00001178,0.00001638,-0.00
 010277,0.00053910,0.00012712,-0.00080867,0.00168724,0.00078183,-0.0006
 6849,0.00000163,0.00026844,0.00001535,0.00011866,0.00024134,-0.0012885
 9,0.00135001,-0.01310328,0.03913255,-0.00375967,0.31931063,0.00029207,
 0.00025152,0.00015531,-0.00128322,0.00024333,-0.00029415,0.00002295,0.
 00027476,-0.00013204,0.00143312,-0.00051199,0.00043620,0.00391070,-0.0
 0286148,0.00184259,-0.00090491,0.00083033,-0.00027809,0.00086998,0.000
 38099,-0.00065040,-0.00826171,0.00047544,0.04006896,-0.00141942,-0.001
 23953,-0.01547584,-0.00011412,-0.00008894,-0.00000883,-0.05812949,-0.0
 0167701,-0.05100553,-0.00325072,-0.00021362,-0.01848916,0.00003312,-0.
 00014025,0.00010986,0.00003416,0.00000658,-0.00000785,-0.00005517,-0.0
 0002592,-0.00001867,-0.00006079,-0.00035552,0.00000455,0.00003559,-0.0
 0005663,-0.00002407,-0.00025891,0.00044497,-0.00013581,0.00015906,-0.0
 0013334,-0.00000895,-0.00152955,0.00133539,-0.00040833,0.00014164,-0.0
 0002885,0.00011971,-0.00027531,-0.00017874,0.00029135,-0.00122630,-0.0
 0275260,-0.00061341,0.00034245,0.00006352,0.00068178,-0.00005819,0.000
 03780,-0.00001209,0.00008066,-0.00002520,0.00008047,0.07035447,0.00006
 211,0.00009202,-0.00000173,-0.00002741,-0.00005669,0.00019863,-0.00007
 676,0.00021819,0.00015582,-0.00180931,0.00124830,-0.00146076,-0.000075
 32,-0.00014042,-0.00131076,0.00038694,0.00010110,-0.00004486,0.0010913
 6,0.00073308,-0.00035125,-0.00054039,0.00218533,0.00456428,-0.00727899
 ,-0.00326944,-0.02948952,-0.00012346,-0.00034569,-0.00001920,-0.002886
 44,-0.05208476,-0.01417856,0.00696611,-0.00098777,0.02872329,-0.000003
 14,-0.00010485,-0.00003839,0.00000172,-0.00000841,-0.00000636,-0.00000
 989,-0.00000863,0.00000436,-0.00003157,-0.00014340,0.00002459,-0.00000
 747,-0.00003656,-0.00003086,-0.00009484,0.00009518,0.00003157,-0.00025
 678,0.00001915,-0.00006012,0.00148822,-0.00109144,0.00043865,0.0001449
 2,-0.00009656,0.00041333,-0.00028191,0.00007412,0.00058044,-0.00325084
 ,-0.00431316,-0.00150730,0.00100988,0.00113593,0.00043150,-0.00002008,
 0.00011006,-0.00002933,-0.00006036,-0.00008835,0.00003356,0.00345225,0
 .05890721,-0.00034275,-0.00021297,-0.00021567,0.00132293,-0.00025153,0
 .00012331,0.00021992,0.00018974,0.00016007,-0.00058231,-0.00069367,0.0
 0171876,-0.00335266,0.00332947,-0.00075672,0.00018562,0.00052691,-0.00
 040830,-0.00008379,-0.00007270,-0.00001039,0.01458666,0.00065542,-0.01
 959126,-0.00279006,-0.00080769,-0.00790517,0.00002300,0.00007759,0.000
 16312,-0.04875162,-0.01444619,-0.28445460,-0.00225804,0.00028234,-0.01
 021196,-0.00005709,-0.00003370,-0.00001608,-0.00002102,-0.00002768,0.0
 0001702,0.00006942,0.00001514,0.00001662,0.00034149,-0.00004697,0.0000
 4834,-0.00002687,0.00004553,-0.00000216,0.00018285,-0.00039661,0.00006
 197,-0.00017081,-0.00019890,0.00055645,-0.00125529,0.00023021,0.000611
 25,-0.00023065,-0.00003658,0.00029455,-0.00037730,0.00014438,0.0002884
 5,-0.00054643,-0.00102565,0.00063517,0.00015494,-0.00005020,0.00043867
 ,-0.00003450,0.00002950,0.00000330,0.00013012,-0.00000470,-0.00014695,
 0.04378299,0.01139403,0.31763130,-0.00001425,0.00000312,0.00000043,0.0
 0001367,-0.00003055,-0.00002013,-0.00002619,0.00004134,0.00001723,-0.0
 2679437,-0.03102452,-0.00627971,0.00017388,0.00000837,0.00002934,0.000
 04095,-0.00005008,-0.00001059,-0.00073618,-0.00035172,-0.00013018,0.00
 176846,-0.00057939,-0.00059765,-0.00237907,0.00285981,-0.00094513,-0.0
 0316087,0.00311379,0.00440217,0.00865414,0.01533723,0.00562394,-0.0994
 2111,-0.09724945,-0.03359588,0.00000234,-0.00001071,0.00000234,0.00001
 629,-0.00001180,-0.00000229,-0.00000083,-0.00000142,-0.00000137,0.0000
 7997,-0.00007306,0.00001490,0.00000724,-0.00000869,-0.00000157,0.00001
 100,-0.00001547,-0.00002740,0.00000182,-0.00000174,0.00001232,0.000022
 63,-0.00000283,0.00002027,0.00020011,-0.00023174,0.00003889,0.00009367
 ,-0.00002448,0.00000242,-0.00006145,-0.00006217,0.00001096,0.00053303,
 0.00111191,0.00014290,-0.00100373,-0.00155332,-0.00014346,0.00009569,0
 .00011065,-0.00016314,0.00078603,-0.00082920,0.00013195,0.12149298,-0.
 00001988,-0.00005456,-0.00002034,0.00018446,-0.00000955,-0.00003526,0.
 00000601,-0.00002556,-0.00001477,-0.00191913,0.00362942,0.00212907,0.0
 0009795,0.00037478,0.00013731,-0.00001842,-0.00001454,0.00003029,0.000
 45581,0.00037394,-0.00030486,-0.00050911,0.00170640,0.00011710,0.00434
 532,-0.00278940,0.00246143,0.00151236,0.00189466,0.00060720,-0.0125078
 0,-0.02363927,-0.00849811,-0.10431504,-0.24466568,-0.06524342,0.000006
 64,0.00001537,0.00000383,0.00001862,-0.00001077,-0.00000400,0.00000725
 ,0.00000915,0.00000065,0.00002904,-0.00002752,0.00000658,0.00000464,0.
 00000728,0.00000607,-0.00015331,0.00015775,0.00004348,0.00002469,0.000
 00122,-0.00000072,-0.00002470,0.00001634,-0.00005950,-0.00013883,-0.00
 000354,-0.00001107,-0.00007194,0.00001773,0.00007825,0.00007964,0.0002
 0203,-0.00006489,-0.00093966,-0.00143824,-0.00031568,0.00004466,0.0000
 3319,-0.00006754,0.00001885,-0.00007029,-0.00009751,-0.00030238,0.0013
 1478,0.00020510,0.11318998,0.26157029,-0.00000965,-0.00002357,0.000000
 48,0.00004299,-0.00000335,-0.00002725,-0.00001608,0.00002387,0.0000021
 9,0.01284040,0.01634257,0.00478696,-0.00002448,0.00003415,-0.00007766,
 -0.00000188,-0.00000936,0.00000084,0.00019449,0.00009917,-0.00001009,0
 .00070791,-0.00086012,-0.00007449,-0.00117520,0.00080273,0.00013128,0.
 00177009,-0.00052392,-0.00128342,0.00363011,0.01155471,0.00282286,-0.0
 3983115,-0.07106786,-0.07615127,0.00000149,-0.00000230,0.00000396,-0.0
 0000036,0.00001132,-0.00000169,-0.00000213,0.00000266,-0.00000200,0.00
 004063,-0.00004146,0.00000472,0.00000447,-0.00000296,0.00000008,0.0000
 2724,-0.00003431,-0.00000527,0.00000049,-0.00000437,-0.00000174,0.0000
 1334,0.00000802,0.00000212,-0.00009090,0.00005116,-0.00002428,0.000016
 96,-0.00003118,-0.00002748,0.00014169,0.00039848,0.00028897,0.00010343
 ,0.00035872,0.00036385,0.00041662,0.00042189,0.00042155,0.00028870,0.0
 0026136,0.00049346,0.00082551,-0.00034287,0.00064722,0.03379512,0.0688
 2806,0.07465569,0.00002234,0.00003636,0.00000237,-0.00013967,0.0000043
 6,0.00006861,0.00001691,0.00002785,0.00002433,-0.01098496,-0.00179502,
 0.04088593,0.00026744,-0.00020448,-0.00006185,-0.00003442,0.00016110,-
 0.00008312,-0.00043294,-0.00036018,-0.00034989,0.00139178,-0.00017426,
 -0.00031203,0.00025907,-0.00114485,0.00035483,0.00361690,0.00371512,0.
 00421346,-0.00250833,0.00034485,-0.01878143,-0.05480697,-0.00343022,-0
 .04245926,-0.00000777,-0.00001409,-0.00001725,0.00000189,-0.00000231,-
 0.00000637,-0.00000868,-0.00000321,0.00000454,0.00003373,0.00002078,0.
 00001344,-0.00001820,0.00000056,-0.00000898,0.00000583,0.00000374,0.00
 000596,-0.00010755,-0.00001817,0.00003947,-0.00005646,-0.00008452,0.00
 014590,0.00020120,-0.00022267,-0.00006128,-0.00012548,0.00007649,-0.00
 008710,0.00027891,0.00023367,0.00043393,-0.00010493,-0.00003501,0.0002
 1614,0.00004211,0.00014564,-0.00028064,0.00026645,0.00020051,-0.001483
 99,-0.00173075,0.00308533,-0.00025825,-0.00039883,0.00088841,-0.013712
 84,0.06507764,-0.00001069,-0.00001839,0.00000352,0.00006517,-0.0000067
 4,-0.00005919,-0.00000656,-0.00003757,-0.00003626,-0.00015298,0.002717
 48,-0.00232621,-0.00011502,-0.00004843,-0.00007119,-0.00003983,-0.0001
 0132,0.00012233,0.00003736,-0.00026921,-0.00004494,-0.00219410,0.00096
 485,-0.00040054,-0.00010029,0.00184650,0.00097449,-0.00017154,0.000130
 22,0.00244846,0.00690224,-0.00168838,0.02872790,-0.00239547,-0.0546972
 2,-0.00475435,0.00001176,0.00001379,0.00001728,0.00000109,-0.00000385,
 -0.00000054,0.00000371,0.00000108,-0.00000356,-0.00001879,-0.00002799,
 -0.00000576,0.00001315,-0.00000224,0.00000786,0.00000162,-0.00000233,-
 0.00000027,0.00008909,0.00002943,-0.00006825,0.00010312,0.00009250,-0.
 00014895,-0.00005267,0.00002708,-0.00001742,-0.00001020,0.00003392,-0.
 00014640,0.00006238,-0.00033482,-0.00040549,0.00004120,0.00019571,-0.0
 0041400,0.00007498,-0.00000027,-0.00003240,0.00016608,0.00030067,-0.00
 001627,0.00279394,-0.00345254,0.00123027,-0.00366577,0.00142056,-0.026
 25325,-0.00144742,0.05290673,0.00003090,0.00005066,0.00001475,-0.00020
 557,0.00002147,0.00007917,0.00001056,0.00000354,0.00001681,0.01477008,
 0.00007222,-0.01919781,0.00007588,-0.00007163,0.00035325,0.00019275,-0
 .00005602,-0.00005153,0.00038163,0.00018953,0.00009737,-0.00017667,-0.
 00046643,0.00148124,0.00022782,-0.00081162,0.00055572,-0.00225752,-0.0
 0208728,0.00102283,-0.00239479,-0.00033900,-0.01295929,-0.04030423,-0.
 00215998,-0.28810253,-0.00000091,-0.00001362,-0.00001219,0.00000318,-0
 .00000541,-0.00000782,-0.00000857,-0.00000576,0.00000305,0.00001884,0.
 00001961,0.00000860,-0.00001230,0.00000141,-0.00000692,-0.00002560,0.0
 0003253,-0.00001599,0.00000082,-0.00001077,0.00005307,-0.00001153,-0.0
 0005351,0.00004578,0.00000478,0.00015534,-0.00002434,-0.00014055,-0.00
 009785,-0.00009799,0.00040765,0.00065189,0.00034357,-0.00010403,0.0000
 2986,0.00029359,0.00024017,0.00011640,0.00051698,0.00079673,0.00120038
 ,0.00041770,-0.00072793,0.00187068,0.00023435,-0.00232360,0.00008237,-
 0.00693536,0.03154576,0.00168416,0.32186964,-0.00677245,-0.01023973,-0
 .00138511,-0.00063421,-0.00038851,-0.00307393,-0.01229251,-0.01997130,
 -0.00709772,-0.00007168,0.00002472,0.00000557,0.00119194,0.00015858,0.
 00034351,-0.00287980,0.00024924,0.00436397,0.00000782,-0.00000574,-0.0
 0003257,-0.00041796,0.00020092,-0.00003989,-0.00003075,-0.00000093,0.0
 0003219,0.00001077,0.00000417,0.00002272,0.00023072,0.00003949,-0.0000
 8445,0.00003077,-0.00007050,0.00000311,-0.10804884,-0.10501843,-0.0343
 9738,0.00017690,0.00029436,0.00049256,0.00022523,0.00009636,-0.0001661
 6,0.00068928,0.00039547,-0.00070643,0.00096350,0.00040963,-0.00007973,
 -0.00003390,0.00002064,-0.00006491,0.00009753,-0.00022241,-0.00002849,
 -0.00066302,-0.00121550,-0.00060006,-0.00001729,-0.00000356,0.00000365
 ,-0.00000150,0.00000139,0.00000525,-0.00001068,0.00000211,-0.00000727,
 0.00003435,0.00003400,0.00000439,-0.00000873,0.00000522,-0.00000072,0.
 00000039,-0.00000180,-0.00000522,0.00001231,-0.00003106,0.00000206,-0.
 00000005,0.00000696,0.00000145,-0.00001134,0.00001083,-0.00000871,0.11
 707497,0.00295414,0.00261727,0.00111435,0.00026597,0.00172156,0.001004
 64,-0.00117848,-0.00420615,-0.00130784,-0.00004355,0.00001293,0.000003
 68,0.00054824,-0.00017142,0.00053179,-0.00117890,0.00112739,0.00139113
 ,0.00000423,-0.00000581,-0.00001985,-0.00028315,0.00007895,-0.00005760
 ,-0.00001457,0.00000099,0.00002104,0.00000814,0.00000406,0.00001459,0.
 00013296,0.00003197,-0.00002076,0.00002556,-0.00004377,-0.00000684,-0.
 10713476,-0.23617643,-0.05905408,-0.00013329,0.00038948,-0.00060937,-0
 .00024882,0.00010639,-0.00045623,-0.00018742,0.00062928,0.00025802,0.0
 0011568,-0.00008015,0.00020906,0.00004006,-0.00002819,-0.00012521,0.00
 021399,0.00037423,0.00008497,-0.00043728,-0.00022614,-0.00044479,-0.00
 001059,-0.00000248,0.00000194,-0.00000081,0.00000128,0.00000249,-0.000
 00653,-0.00000046,-0.00000554,0.00001467,0.00001980,0.00000055,-0.0000
 0540,0.00000272,-0.00000054,0.00000042,-0.00000103,-0.00000349,0.00000
 057,-0.00001558,-0.00001617,0.00000063,0.00000452,0.00000122,-0.000008
 93,0.00000917,-0.00000535,0.11792715,0.25310181,-0.01236763,-0.0270566
 2,-0.00363022,-0.00584510,-0.00155176,-0.00734012,0.01059024,0.0200194
 6,0.00720508,-0.00003446,0.00001745,-0.00000125,0.00197150,0.00060897,
 -0.00213299,0.00390615,0.00051442,-0.00300974,-0.00000171,-0.00000955,
 -0.00000219,-0.00046815,0.00006547,0.00037347,-0.00002842,-0.00000125,
 0.00003653,0.00000687,0.00000566,0.00000425,0.00008055,0.00006609,-0.0
 0013736,-0.00000956,-0.00002663,0.00005295,-0.03489463,-0.05802224,-0.
 06649816,0.00002796,0.00060059,0.00127325,0.00113764,0.00008870,0.0006
 9699,-0.00072520,-0.00051569,0.00075182,-0.00106783,-0.00006038,0.0007
 4097,-0.00016692,-0.00011255,0.00034650,-0.00016681,-0.00017968,-0.000
 13897,0.00104606,0.00106121,0.00059241,-0.00000464,-0.00000078,0.00000
 118,-0.00000232,0.00000053,0.00000094,0.00001537,-0.00000388,0.0000046
 9,-0.00002369,-0.00001142,-0.00001989,-0.00000184,-0.00000048,-0.00000
 045,-0.00000033,-0.00000066,-0.00000121,-0.00004134,0.00001953,0.00005
 479,0.00000021,0.00000025,-0.00000027,0.00000488,-0.00000772,0.0000018
 6,0.03631220,0.06380785,0.07143563,-0.00853034,0.00969410,-0.00102452,
 0.00063820,-0.00032490,0.00097607,-0.01746828,0.01855601,0.00117108,-0
 .00003262,0.00000526,0.00000090,-0.00030368,0.00005989,0.00005356,0.00
 078966,0.00123829,-0.00043748,0.00000269,-0.00000993,-0.00000943,-0.00
 004903,-0.00015188,-0.00001045,-0.00002180,0.00000174,0.00000210,0.000
 00871,0.00000543,0.00000864,0.00014439,-0.00000537,-0.00002986,0.00002
 466,-0.00002617,0.00000346,-0.16024797,0.12662749,-0.00111090,0.000334
 69,0.00028398,-0.00219067,0.00072227,-0.00066408,-0.00004020,-0.002909
 57,-0.00143577,0.00326308,0.00112782,-0.00026390,-0.00016896,-0.000065
 92,-0.00000129,-0.00008134,-0.00024004,-0.00070321,-0.00015578,0.00032
 207,-0.00024776,0.00010680,-0.00000796,-0.00000163,0.00000180,-0.00000
 061,0.00000117,0.00000163,-0.00000619,-0.00000393,-0.00000347,-0.00000
 035,0.00000220,-0.00000179,-0.00000350,0.00000078,-0.00000013,-0.00000
 009,-0.00000077,-0.00000240,0.00005025,0.00000640,0.00000550,0.0000030
 3,-0.00000110,0.00000155,-0.00000490,0.00000362,-0.00000503,0.01114825
 ,-0.01137992,0.00075095,0.17457613,0.00176776,-0.00531552,0.00004653,0
 .00034418,0.00205466,-0.00002431,-0.00480444,0.00459218,-0.00063208,0.
 00003874,-0.00001291,-0.00000250,-0.00038915,-0.00003016,0.00025575,-0
 .00044550,0.00107618,0.00007530,-0.00000047,0.00000592,0.00001318,0.00
 037122,-0.00007223,-0.00005729,0.00002561,0.00000624,-0.00003278,-0.00
 000654,-0.00000419,-0.00001004,-0.00016689,-0.00001046,0.00011786,-0.0
 0001284,0.00002887,-0.00001819,0.12805856,-0.19736345,0.00026593,-0.00
 009172,0.00129318,0.00111310,-0.00017652,0.00019482,0.00028130,-0.0014
 8175,0.00087784,0.00066238,0.00040562,0.00038174,-0.00047990,0.0000941
 7,-0.00000449,-0.00000908,0.00030589,0.00009829,0.00018162,0.00013110,
 0.00016192,0.00001032,0.00000775,0.00000193,-0.00000190,0.00000147,-0.
 00000081,-0.00000227,-0.00000206,-0.00000351,0.00000126,-0.00000371,-0
 .00000864,0.00000370,0.00000375,-0.00000152,0.00000026,-0.00000013,0.0
 0000095,0.00000247,0.00000058,0.00000979,-0.00003371,0.00000126,-0.000
 00049,0.00000078,0.00000059,0.00000161,0.00000219,0.01728823,-0.019276
 20,0.00068508,-0.14126477,0.21131846,-0.02238318,0.02774205,-0.0025536
 9,0.00225762,-0.00077243,0.00236367,0.01636342,-0.01762147,-0.00159741
 ,-0.00000189,0.00000087,0.00000289,0.00007872,0.00015403,-0.00035237,-
 0.00112560,-0.00069205,0.00043605,-0.00000636,-0.00000775,-0.00000388,
 -0.00011545,-0.00003871,0.00022388,-0.00002551,0.00000321,0.00003585,0
 .00000013,0.00000023,0.00000072,0.00000268,-0.00007866,-0.00006624,0.0
 0000292,0.00000549,0.00000308,-0.00061368,-0.00153416,-0.04687019,-0.0
 0265428,0.00013817,-0.00564425,0.00070136,-0.00023657,0.00156240,0.003
 83542,0.00151632,-0.00226992,-0.00086081,-0.00034908,0.00069442,-0.000
 03340,-0.00003151,0.00010801,-0.00020402,0.00045074,0.00021902,-0.0002
 6838,0.00009043,-0.00011814,-0.00000222,0.00000015,0.00000087,0.000000
 05,-0.00000057,0.00000033,0.00000615,0.00000546,0.00000151,0.00000037,
 -0.00000047,0.00000011,-0.00000015,-0.00000001,-0.00000021,0.,0.,0.000
 00004,-0.00006681,-0.00001240,0.00001451,-0.00000328,0.00000063,-0.000
 00396,0.00000473,-0.00000328,0.00000245,0.00618614,-0.00631367,-0.0006
 6052,-0.00107470,-0.00241497,0.05447098\\-0.00001539,-0.00003997,-0.00
 001639,0.00058634,0.00055030,0.00087965,0.00000382,0.00000473,-0.00001
 463,-0.00002689,0.00000594,0.00000248,-0.00045471,-0.00038042,-0.00066
 317,0.00000876,-0.00003135,-0.00000331,-0.00000278,-0.00000276,0.00000
 587,-0.00063332,-0.00064999,-0.00121666,0.00001225,0.00001188,0.000009
 95,0.00002877,0.00001871,0.00001103,0.00053122,0.00055464,0.00097199,-
 0.00000513,-0.00001471,0.00003967,-0.00000547,-0.00000631,0.00000705,-
 0.00000088,0.00001747,0.00000903,0.00000996,0.00001072,-0.00000915,-0.
 00000608,0.00000426,0.00000221,-0.00000210,-0.00001162,0.00000994,0.00
 000062,-0.00002280,-0.00001117,0.00000168,-0.00000691,0.00000308,-0.00
 000831,-0.00000752,0.00000217,-0.00000772,0.00000221,-0.00000945,0.000
 00169,-0.00000241,0.00000331,0.00000022,0.00000352,-0.00001303,0.00000
 138,-0.00000602,-0.00000080,-0.00001013,-0.00000435,0.00000763,-0.0000
 0404,-0.00000685,-0.00001709,-0.00001623,0.00000237,0.00002396,0.00000
 881,0.00000727,0.00000369,-0.00000018,-0.00000110,-0.00001827,0.000000
 31,0.00000687,-0.00000326,0.00000353,-0.00000578,0.00000365\\\@


 A FOOL CAN ASK MORE QUESTIONS THAN
 A WISE MAN CAN ANSWER.
 Job cpu time:       0 days 15 hours 21 minutes 30.5 seconds.
 Elapsed time:       0 days  0 hours 57 minutes 36.9 seconds.
 File lengths (MBytes):  RWF=    685 Int=      0 D2E=      0 Chk=     33 Scr=      1
 Normal termination of Gaussian 16 at Sun Nov  4 22:57:11 2018.
