 Entering Gaussian System, Link 0=g16
 Initial command:
 /apps/gaussian/g16a03/g16/l1.exe "/jobfs/local/2012047.r-man2/Gau-26976.inp" -scrdir="/jobfs/local/2012047.r-man2/"
 Entering Link 1 = /apps/gaussian/g16a03/g16/l1.exe PID=     26977.
  
 Copyright (c) 1988,1990,1992,1993,1995,1998,2003,2009,2016,
            Gaussian, Inc.  All Rights Reserved.
  
 This is part of the Gaussian(R) 16 program.  It is based on
 the Gaussian(R) 09 system (copyright 2009, Gaussian, Inc.),
 the Gaussian(R) 03 system (copyright 2003, Gaussian, Inc.),
 the Gaussian(R) 98 system (copyright 1998, Gaussian, Inc.),
 the Gaussian(R) 94 system (copyright 1995, Gaussian, Inc.),
 the Gaussian 92(TM) system (copyright 1992, Gaussian, Inc.),
 the Gaussian 90(TM) system (copyright 1990, Gaussian, Inc.),
 the Gaussian 88(TM) system (copyright 1988, Gaussian, Inc.),
 the Gaussian 86(TM) system (copyright 1986, Carnegie Mellon
 University), and the Gaussian 82(TM) system (copyright 1983,
 Carnegie Mellon University). Gaussian is a federally registered
 trademark of Gaussian, Inc.
  
 This software contains proprietary and confidential information,
 including trade secrets, belonging to Gaussian, Inc.
  
 This software is provided under written license and may be
 used, copied, transmitted, or stored only in accord with that
 written license.
  
 The following legend is applicable only to US Government
 contracts under FAR:
  
                    RESTRICTED RIGHTS LEGEND
  
 Use, reproduction and disclosure by the US Government is
 subject to restrictions as set forth in subparagraphs (a)
 and (c) of the Commercial Computer Software - Restricted
 Rights clause in FAR 52.227-19.
  
 Gaussian, Inc.
 340 Quinnipiac St., Bldg. 40, Wallingford CT 06492
  
  
 ---------------------------------------------------------------
 Warning -- This program may not be used in any manner that
 competes with the business of Gaussian, Inc. or will provide
 assistance to any competitor of Gaussian, Inc.  The licensee
 of this program is prohibited from giving any competitor of
 Gaussian, Inc. access to this program.  By using this program,
 the user acknowledges that Gaussian, Inc. is engaged in the
 business of creating and licensing software in the field of
 computational chemistry and represents and warrants to the
 licensee that it is not a competitor of Gaussian, Inc. and that
 it will not use this program in any manner prohibited above.
 ---------------------------------------------------------------
  

 Cite this work as:
 Gaussian 16, Revision A.03,
 M. J. Frisch, G. W. Trucks, H. B. Schlegel, G. E. Scuseria, 
 M. A. Robb, J. R. Cheeseman, G. Scalmani, V. Barone, 
 G. A. Petersson, H. Nakatsuji, X. Li, M. Caricato, A. V. Marenich, 
 J. Bloino, B. G. Janesko, R. Gomperts, B. Mennucci, H. P. Hratchian, 
 J. V. Ortiz, A. F. Izmaylov, J. L. Sonnenberg, D. Williams-Young, 
 F. Ding, F. Lipparini, F. Egidi, J. Goings, B. Peng, A. Petrone, 
 T. Henderson, D. Ranasinghe, V. G. Zakrzewski, J. Gao, N. Rega, 
 G. Zheng, W. Liang, M. Hada, M. Ehara, K. Toyota, R. Fukuda, 
 J. Hasegawa, M. Ishida, T. Nakajima, Y. Honda, O. Kitao, H. Nakai, 
 T. Vreven, K. Throssell, J. A. Montgomery, Jr., J. E. Peralta, 
 F. Ogliaro, M. J. Bearpark, J. J. Heyd, E. N. Brothers, K. N. Kudin, 
 V. N. Staroverov, T. A. Keith, R. Kobayashi, J. Normand, 
 K. Raghavachari, A. P. Rendell, J. C. Burant, S. S. Iyengar, 
 J. Tomasi, M. Cossi, J. M. Millam, M. Klene, C. Adamo, R. Cammi, 
 J. W. Ochterski, R. L. Martin, K. Morokuma, O. Farkas, 
 J. B. Foresman, and D. J. Fox, Gaussian, Inc., Wallingford CT, 2016.
 
 ******************************************
 Gaussian 16:  ES64L-G16RevA.03 25-Dec-2016
                 4-Nov-2018 
 ******************************************
 %mem=6000mb
 %nproc=24
 Will use up to   24 processors via shared memory.
 %chk=L_a1-e4_D_PHI.inp_extract_1.chk
 ----------------------------------------------------------------------
 #M062X/6-311++G(2d,2p) opt=ModRedundant freq=noraman SCRF=(Solvent=Wat
 er)
 ----------------------------------------------------------------------
 1/18=120,19=15,26=3,38=1/1,3;
 2/9=110,12=2,17=6,18=5,40=1/2;
 3/5=4,6=6,7=1212,11=2,25=1,30=1,70=2201,71=1,72=1,74=-55/1,2,3;
 4//1;
 5/5=2,38=5,53=1/2;
 6/7=2,8=2,9=2,10=2,28=1/1;
 7//1,2,3,16;
 1/18=20,19=15,26=3/3(2);
 2/9=110/2;
 99//99;
 2/9=110/2;
 3/5=4,6=6,7=1212,11=2,25=1,30=1,70=2205,71=1,72=1,74=-55/1,2,3;
 4/5=5,16=3,69=1/1;
 5/5=2,38=5,53=1/2;
 7//1,2,3,16;
 1/18=20,19=15,26=3/3(-5);
 2/9=110/2;
 6/7=2,8=2,9=2,10=2,19=2,28=1/1;
 99/9=1/99;
 ---------------------------
 L_a1-e4_D_PHI.inp_extract_1
 ---------------------------
 Symbolic Z-matrix:
 Charge =  0 Multiplicity = 1
 C                    -2.2066    1.09222  -1.00623 
 O                    -1.58637  -0.15313  -1.30233 
 C                    -3.18535   0.0878    1.06355 
 O                     3.12589  -0.84714  -0.70877 
 C                    -1.26131  -0.95461  -0.20018 
 C                    -2.46809  -1.20988   0.68836 
 C                     3.0238    1.37125   0.25239 
 O                    -0.25358  -0.37695   0.58698 
 C                     1.62974   1.06366   0.80419 
 C                     3.82645   0.09063   0.08845 
 C                     0.96153  -0.01113  -0.04105 
 C                     1.88013  -1.22467  -0.16265 
 C                    -3.47899   0.89867  -0.19876 
 H                    -1.5062    1.72542  -0.47218 
 H                    -2.41025   1.54873  -1.96489 
 H                    -2.56872   0.67415   1.73928 
 H                    -4.10531  -0.14144   1.59248 
 H                    -0.9008   -1.87769  -0.63139 
 H                    -3.1466   -1.8526    0.13428 
 H                    -2.14789  -1.75708   1.56843 
 H                     3.5548    2.04596   0.91717 
 H                     2.94035   1.86442  -0.71282 
 H                     1.71047   0.70329   1.82734 
 H                     1.01486   1.95785   0.81978 
 H                     4.76632   0.27475  -0.41378 
 H                     4.03675  -0.35662   1.0574 
 H                     0.75898   0.37929  -1.02996 
 H                     1.46587  -1.97171  -0.82483 
 H                     2.02786  -1.67282   0.81752 
 H                    -3.89231   1.87205   0.04961 
 H                    -4.21352   0.37813  -0.80893 
 
 The following ModRedundant input section has been read:
 D       2       5       8      11 F                                           
 

 GradGradGradGradGradGradGradGradGradGradGradGradGradGradGradGradGradGrad
 Berny optimization.
 Initialization pass.
                           ----------------------------
                           !    Initial Parameters    !
                           ! (Angstroms and Degrees)  !
 --------------------------                            --------------------------
 ! Name  Definition              Value          Derivative Info.                !
 --------------------------------------------------------------------------------
 ! R1    R(1,2)                  1.4224         estimate D2E/DX2                !
 ! R2    R(1,13)                 1.5194         estimate D2E/DX2                !
 ! R3    R(1,14)                 1.0848         estimate D2E/DX2                !
 ! R4    R(1,15)                 1.0812         estimate D2E/DX2                !
 ! R5    R(2,5)                  1.401          estimate D2E/DX2                !
 ! R6    R(3,6)                  1.5294         estimate D2E/DX2                !
 ! R7    R(3,13)                 1.5288         estimate D2E/DX2                !
 ! R8    R(3,16)                 1.0866         estimate D2E/DX2                !
 ! R9    R(3,17)                 1.0857         estimate D2E/DX2                !
 ! R10   R(4,10)                 1.4162         estimate D2E/DX2                !
 ! R11   R(4,12)                 1.4116         estimate D2E/DX2                !
 ! R12   R(5,6)                  1.5202         estimate D2E/DX2                !
 ! R13   R(5,8)                  1.4031         estimate D2E/DX2                !
 ! R14   R(5,18)                 1.0807         estimate D2E/DX2                !
 ! R15   R(6,19)                 1.0865         estimate D2E/DX2                !
 ! R16   R(6,20)                 1.0847         estimate D2E/DX2                !
 ! R17   R(7,9)                  1.5305         estimate D2E/DX2                !
 ! R18   R(7,10)                 1.5202         estimate D2E/DX2                !
 ! R19   R(7,21)                 1.0859         estimate D2E/DX2                !
 ! R20   R(7,22)                 1.0871         estimate D2E/DX2                !
 ! R21   R(8,11)                 1.4159         estimate D2E/DX2                !
 ! R22   R(9,11)                 1.5219         estimate D2E/DX2                !
 ! R23   R(9,23)                 1.0878         estimate D2E/DX2                !
 ! R24   R(9,24)                 1.0853         estimate D2E/DX2                !
 ! R25   R(10,25)                1.0814         estimate D2E/DX2                !
 ! R26   R(10,26)                1.0877         estimate D2E/DX2                !
 ! R27   R(11,12)                1.5269         estimate D2E/DX2                !
 ! R28   R(11,27)                1.0823         estimate D2E/DX2                !
 ! R29   R(12,28)                1.0808         estimate D2E/DX2                !
 ! R30   R(12,29)                1.0878         estimate D2E/DX2                !
 ! R31   R(13,30)                1.0863         estimate D2E/DX2                !
 ! R32   R(13,31)                1.0876         estimate D2E/DX2                !
 ! A1    A(2,1,13)             111.3623         estimate D2E/DX2                !
 ! A2    A(2,1,14)             109.3908         estimate D2E/DX2                !
 ! A3    A(2,1,15)             105.4993         estimate D2E/DX2                !
 ! A4    A(13,1,14)            110.6976         estimate D2E/DX2                !
 ! A5    A(13,1,15)            111.5478         estimate D2E/DX2                !
 ! A6    A(14,1,15)            108.1614         estimate D2E/DX2                !
 ! A7    A(1,2,5)              115.9934         estimate D2E/DX2                !
 ! A8    A(6,3,13)             109.7278         estimate D2E/DX2                !
 ! A9    A(6,3,16)             110.1372         estimate D2E/DX2                !
 ! A10   A(6,3,17)             109.7397         estimate D2E/DX2                !
 ! A11   A(13,3,16)            109.6497         estimate D2E/DX2                !
 ! A12   A(13,3,17)            110.5807         estimate D2E/DX2                !
 ! A13   A(16,3,17)            106.9689         estimate D2E/DX2                !
 ! A14   A(10,4,12)            113.3192         estimate D2E/DX2                !
 ! A15   A(2,5,6)              111.8201         estimate D2E/DX2                !
 ! A16   A(2,5,8)              111.8669         estimate D2E/DX2                !
 ! A17   A(2,5,18)             104.6034         estimate D2E/DX2                !
 ! A18   A(6,5,8)              108.1415         estimate D2E/DX2                !
 ! A19   A(6,5,18)             110.7681         estimate D2E/DX2                !
 ! A20   A(8,5,18)             109.6272         estimate D2E/DX2                !
 ! A21   A(3,6,5)              111.9121         estimate D2E/DX2                !
 ! A22   A(3,6,19)             109.5205         estimate D2E/DX2                !
 ! A23   A(3,6,20)             111.5584         estimate D2E/DX2                !
 ! A24   A(5,6,19)             107.2778         estimate D2E/DX2                !
 ! A25   A(5,6,20)             108.9419         estimate D2E/DX2                !
 ! A26   A(19,6,20)            107.4405         estimate D2E/DX2                !
 ! A27   A(9,7,10)             110.5175         estimate D2E/DX2                !
 ! A28   A(9,7,21)             110.4603         estimate D2E/DX2                !
 ! A29   A(9,7,22)             109.9594         estimate D2E/DX2                !
 ! A30   A(10,7,21)            109.3452         estimate D2E/DX2                !
 ! A31   A(10,7,22)            109.0824         estimate D2E/DX2                !
 ! A32   A(21,7,22)            107.4101         estimate D2E/DX2                !
 ! A33   A(5,8,11)             118.2865         estimate D2E/DX2                !
 ! A34   A(7,9,11)             109.9751         estimate D2E/DX2                !
 ! A35   A(7,9,23)             109.7609         estimate D2E/DX2                !
 ! A36   A(7,9,24)             110.8326         estimate D2E/DX2                !
 ! A37   A(11,9,23)            108.7245         estimate D2E/DX2                !
 ! A38   A(11,9,24)            109.9429         estimate D2E/DX2                !
 ! A39   A(23,9,24)            107.5476         estimate D2E/DX2                !
 ! A40   A(4,10,7)             110.9361         estimate D2E/DX2                !
 ! A41   A(4,10,25)            106.3334         estimate D2E/DX2                !
 ! A42   A(4,10,26)            108.9543         estimate D2E/DX2                !
 ! A43   A(7,10,25)            111.4403         estimate D2E/DX2                !
 ! A44   A(7,10,26)            110.6333         estimate D2E/DX2                !
 ! A45   A(25,10,26)           108.4013         estimate D2E/DX2                !
 ! A46   A(8,11,9)             108.2352         estimate D2E/DX2                !
 ! A47   A(8,11,12)            110.2609         estimate D2E/DX2                !
 ! A48   A(8,11,27)            109.7475         estimate D2E/DX2                !
 ! A49   A(9,11,12)            109.961          estimate D2E/DX2                !
 ! A50   A(9,11,27)            109.5649         estimate D2E/DX2                !
 ! A51   A(12,11,27)           109.0585         estimate D2E/DX2                !
 ! A52   A(4,12,11)            110.4376         estimate D2E/DX2                !
 ! A53   A(4,12,28)            106.6233         estimate D2E/DX2                !
 ! A54   A(4,12,29)            109.8107         estimate D2E/DX2                !
 ! A55   A(11,12,28)           111.564          estimate D2E/DX2                !
 ! A56   A(11,12,29)           109.7166         estimate D2E/DX2                !
 ! A57   A(28,12,29)           108.6231         estimate D2E/DX2                !
 ! A58   A(1,13,3)             110.2148         estimate D2E/DX2                !
 ! A59   A(1,13,30)            109.0273         estimate D2E/DX2                !
 ! A60   A(1,13,31)            109.1727         estimate D2E/DX2                !
 ! A61   A(3,13,30)            111.0736         estimate D2E/DX2                !
 ! A62   A(3,13,31)            109.8222         estimate D2E/DX2                !
 ! A63   A(30,13,31)           107.4682         estimate D2E/DX2                !
 ! D1    D(13,1,2,5)           -56.9679         estimate D2E/DX2                !
 ! D2    D(14,1,2,5)            65.7158         estimate D2E/DX2                !
 ! D3    D(15,1,2,5)          -178.1474         estimate D2E/DX2                !
 ! D4    D(2,1,13,3)            54.9325         estimate D2E/DX2                !
 ! D5    D(2,1,13,30)          177.0934         estimate D2E/DX2                !
 ! D6    D(2,1,13,31)          -65.7722         estimate D2E/DX2                !
 ! D7    D(14,1,13,3)          -66.9971         estimate D2E/DX2                !
 ! D8    D(14,1,13,30)          55.1637         estimate D2E/DX2                !
 ! D9    D(14,1,13,31)         172.2982         estimate D2E/DX2                !
 ! D10   D(15,1,13,3)          172.5102         estimate D2E/DX2                !
 ! D11   D(15,1,13,30)         -65.3289         estimate D2E/DX2                !
 ! D12   D(15,1,13,31)          51.8055         estimate D2E/DX2                !
 ! D13   D(1,2,5,6)             54.5733         estimate D2E/DX2                !
 ! D14   D(1,2,5,8)            -66.8984         estimate D2E/DX2                !
 ! D15   D(1,2,5,18)           174.5084         estimate D2E/DX2                !
 ! D16   D(13,3,6,5)            51.3713         estimate D2E/DX2                !
 ! D17   D(13,3,6,19)          -67.4617         estimate D2E/DX2                !
 ! D18   D(13,3,6,20)          173.7236         estimate D2E/DX2                !
 ! D19   D(16,3,6,5)           -69.425          estimate D2E/DX2                !
 ! D20   D(16,3,6,19)          171.742          estimate D2E/DX2                !
 ! D21   D(16,3,6,20)           52.9273         estimate D2E/DX2                !
 ! D22   D(17,3,6,5)           173.069          estimate D2E/DX2                !
 ! D23   D(17,3,6,19)           54.236          estimate D2E/DX2                !
 ! D24   D(17,3,6,20)          -64.5787         estimate D2E/DX2                !
 ! D25   D(6,3,13,1)           -52.995          estimate D2E/DX2                !
 ! D26   D(6,3,13,30)         -173.9396         estimate D2E/DX2                !
 ! D27   D(6,3,13,31)           67.3194         estimate D2E/DX2                !
 ! D28   D(16,3,13,1)           68.0955         estimate D2E/DX2                !
 ! D29   D(16,3,13,30)         -52.8491         estimate D2E/DX2                !
 ! D30   D(16,3,13,31)        -171.5901         estimate D2E/DX2                !
 ! D31   D(17,3,13,1)         -174.1878         estimate D2E/DX2                !
 ! D32   D(17,3,13,30)          64.8677         estimate D2E/DX2                !
 ! D33   D(17,3,13,31)         -53.8733         estimate D2E/DX2                !
 ! D34   D(12,4,10,7)          -60.3866         estimate D2E/DX2                !
 ! D35   D(12,4,10,25)         178.2848         estimate D2E/DX2                !
 ! D36   D(12,4,10,26)          61.6404         estimate D2E/DX2                !
 ! D37   D(10,4,12,11)          61.414          estimate D2E/DX2                !
 ! D38   D(10,4,12,28)        -177.214          estimate D2E/DX2                !
 ! D39   D(10,4,12,29)         -59.7116         estimate D2E/DX2                !
 ! D40   D(2,5,6,3)            -51.1797         estimate D2E/DX2                !
 ! D41   D(2,5,6,19)            68.9724         estimate D2E/DX2                !
 ! D42   D(2,5,6,20)          -175.0133         estimate D2E/DX2                !
 ! D43   D(8,5,6,3)             72.4186         estimate D2E/DX2                !
 ! D44   D(8,5,6,19)          -167.4293         estimate D2E/DX2                !
 ! D45   D(8,5,6,20)           -51.415          estimate D2E/DX2                !
 ! D46   D(18,5,6,3)          -167.4299         estimate D2E/DX2                !
 ! D47   D(18,5,6,19)          -47.2778         estimate D2E/DX2                !
 ! D48   D(18,5,6,20)           68.7365         estimate D2E/DX2                !
 ! D49   D(2,5,8,11)           -54.5379         Frozen                          !
 ! D50   D(6,5,8,11)          -178.1079         estimate D2E/DX2                !
 ! D51   D(18,5,8,11)           61.0282         estimate D2E/DX2                !
 ! D52   D(10,7,9,11)          -51.9335         estimate D2E/DX2                !
 ! D53   D(10,7,9,23)           67.6387         estimate D2E/DX2                !
 ! D54   D(10,7,9,24)         -173.7102         estimate D2E/DX2                !
 ! D55   D(21,7,9,11)         -173.0739         estimate D2E/DX2                !
 ! D56   D(21,7,9,23)          -53.5017         estimate D2E/DX2                !
 ! D57   D(21,7,9,24)           65.1494         estimate D2E/DX2                !
 ! D58   D(22,7,9,11)           68.5498         estimate D2E/DX2                !
 ! D59   D(22,7,9,23)         -171.878          estimate D2E/DX2                !
 ! D60   D(22,7,9,24)          -53.2269         estimate D2E/DX2                !
 ! D61   D(9,7,10,4)            54.6638         estimate D2E/DX2                !
 ! D62   D(9,7,10,25)          172.9408         estimate D2E/DX2                !
 ! D63   D(9,7,10,26)          -66.3784         estimate D2E/DX2                !
 ! D64   D(21,7,10,4)          176.4638         estimate D2E/DX2                !
 ! D65   D(21,7,10,25)         -65.2593         estimate D2E/DX2                !
 ! D66   D(21,7,10,26)          55.4215         estimate D2E/DX2                !
 ! D67   D(22,7,10,4)          -66.3422         estimate D2E/DX2                !
 ! D68   D(22,7,10,25)          51.9348         estimate D2E/DX2                !
 ! D69   D(22,7,10,26)         172.6156         estimate D2E/DX2                !
 ! D70   D(5,8,11,9)           156.9103         estimate D2E/DX2                !
 ! D71   D(5,8,11,12)          -82.7746         estimate D2E/DX2                !
 ! D72   D(5,8,11,27)           37.3799         estimate D2E/DX2                !
 ! D73   D(7,9,11,8)           173.3426         estimate D2E/DX2                !
 ! D74   D(7,9,11,12)           52.8405         estimate D2E/DX2                !
 ! D75   D(7,9,11,27)          -67.0121         estimate D2E/DX2                !
 ! D76   D(23,9,11,8)           53.141          estimate D2E/DX2                !
 ! D77   D(23,9,11,12)         -67.3612         estimate D2E/DX2                !
 ! D78   D(23,9,11,27)         172.7862         estimate D2E/DX2                !
 ! D79   D(24,9,11,8)          -64.3522         estimate D2E/DX2                !
 ! D80   D(24,9,11,12)         175.1456         estimate D2E/DX2                !
 ! D81   D(24,9,11,27)          55.293          estimate D2E/DX2                !
 ! D82   D(8,11,12,4)         -176.1941         estimate D2E/DX2                !
 ! D83   D(8,11,12,28)          65.4114         estimate D2E/DX2                !
 ! D84   D(8,11,12,29)         -55.0125         estimate D2E/DX2                !
 ! D85   D(9,11,12,4)          -56.9227         estimate D2E/DX2                !
 ! D86   D(9,11,12,28)        -175.3173         estimate D2E/DX2                !
 ! D87   D(9,11,12,29)          64.2589         estimate D2E/DX2                !
 ! D88   D(27,11,12,4)          63.2372         estimate D2E/DX2                !
 ! D89   D(27,11,12,28)        -55.1574         estimate D2E/DX2                !
 ! D90   D(27,11,12,29)       -175.5812         estimate D2E/DX2                !
 --------------------------------------------------------------------------------
 Trust Radius=3.00D-01 FncErr=1.00D-07 GrdErr=1.00D-06 EigMax=2.50D+02 EigMin=1.00D-04
 Number of steps in this run=    186 maximum allowed number of steps=    186.
 GradGradGradGradGradGradGradGradGradGradGradGradGradGradGradGradGradGrad

                          Input orientation:                          
 ---------------------------------------------------------------------
 Center     Atomic      Atomic             Coordinates (Angstroms)
 Number     Number       Type             X           Y           Z
 ---------------------------------------------------------------------
      1          6           0       -2.206597    1.092222   -1.006227
      2          8           0       -1.586370   -0.153130   -1.302333
      3          6           0       -3.185355    0.087803    1.063549
      4          8           0        3.125889   -0.847144   -0.708765
      5          6           0       -1.261308   -0.954605   -0.200176
      6          6           0       -2.468095   -1.209883    0.688362
      7          6           0        3.023802    1.371246    0.252392
      8          8           0       -0.253581   -0.376947    0.586979
      9          6           0        1.629739    1.063663    0.804193
     10          6           0        3.826447    0.090634    0.088447
     11          6           0        0.961528   -0.011134   -0.041053
     12          6           0        1.880131   -1.224672   -0.162650
     13          6           0       -3.478985    0.898673   -0.198763
     14          1           0       -1.506197    1.725421   -0.472177
     15          1           0       -2.410253    1.548725   -1.964887
     16          1           0       -2.568716    0.674151    1.739275
     17          1           0       -4.105312   -0.141439    1.592481
     18          1           0       -0.900803   -1.877686   -0.631391
     19          1           0       -3.146604   -1.852596    0.134275
     20          1           0       -2.147890   -1.757082    1.568433
     21          1           0        3.554800    2.045964    0.917167
     22          1           0        2.940353    1.864415   -0.712815
     23          1           0        1.710470    0.703289    1.827341
     24          1           0        1.014859    1.957846    0.819779
     25          1           0        4.766319    0.274751   -0.413777
     26          1           0        4.036749   -0.356615    1.057398
     27          1           0        0.758979    0.379290   -1.029962
     28          1           0        1.465870   -1.971706   -0.824830
     29          1           0        2.027857   -1.672817    0.817518
     30          1           0       -3.892314    1.872049    0.049611
     31          1           0       -4.213516    0.378134   -0.808926
 ---------------------------------------------------------------------
                    Distance matrix (angstroms):
                    1          2          3          4          5
     1  C    0.000000
     2  O    1.422414   0.000000
     3  C    2.500159   2.865694   0.000000
     4  O    5.681992   4.799934   6.621709   0.000000
     5  C    2.394325   1.400992   2.526969   4.417885   0.000000
     6  C    2.870488   2.420131   1.529450   5.777214   1.520198
     7  C    5.386933   5.098488   6.392091   2.419814   4.896587
     8  O    2.917368   2.322912   3.006395   3.649775   1.403145
     9  C    4.242159   4.032542   4.919827   2.859841   3.666104
    10  C    6.212818   5.593950   7.079280   1.416247   5.202026
    11  C    3.490841   2.846537   4.292618   2.414376   2.420012
    12  C    4.772941   3.803118   5.374505   1.411624   3.153250
    13  C    1.519352   2.430257   1.528777   6.850718   2.890109
    14  H    1.084763   2.055369   2.803537   5.303799   2.704902
    15  H    1.081157   2.003515   3.450580   6.161729   3.271229
    16  H    2.800660   3.301632   1.086579   6.382458   2.850199
    17  H    3.446784   3.837337   1.085653   7.621287   3.458788
    18  H    3.265877   1.973388   3.457622   4.157193   1.080735
    19  H    3.294892   2.717785   2.151790   6.408262   2.114849
    20  H    3.840684   3.336055   2.175969   5.816044   2.134941
    21  H    6.148395   6.016130   7.020364   3.346295   5.783318
    22  H    5.212818   4.990916   6.620885   2.717902   5.085630
    23  H    4.850133   4.625740   4.993126   3.292277   3.961174
    24  H    3.802812   3.965598   4.604159   3.828951   3.834529
    25  H    7.045624   6.428785   8.089905   2.009148   6.155423
    26  H    6.733279   6.101574   7.235768   2.046855   5.478001
    27  H    3.050160   2.420396   4.474989   2.685064   2.559176
    28  H    4.786186   3.584884   5.425997   2.008426   2.976943
    29  H    5.376066   4.457113   5.507985   2.053521   3.517120
    30  H    2.136484   3.353577   2.170575   7.564676   3.869698
    31  H    2.139293   2.725360   2.155822   7.441653   3.295801
                    6          7          8          9         10
     6  C    0.000000
     7  C    6.083850   0.000000
     8  O    2.368150   3.729526   0.000000
     9  C    4.687715   1.530524   2.381057   0.000000
    10  C    6.455424   1.520225   4.136882   2.506911   0.000000
    11  C    3.705585   2.500012   1.415886   1.521885   2.869649
    12  C    4.430746   2.866886   2.415224   2.496790   2.362462
    13  C    2.500979   6.535526   3.556378   5.208858   7.355593
    14  H    3.299713   4.601231   2.666610   3.449803   5.605704
    15  H    3.827923   5.871693   3.856354   4.921852   6.725967
    16  H    2.159659   5.828638   2.791495   4.318926   6.630523
    17  H    2.153946   7.410015   3.987773   5.913077   8.076433
    18  H    2.155020   5.170992   2.038514   4.137158   5.171010
    19  H    1.086493   6.962831   3.279034   5.636205   7.238901
    20  H    1.084658   6.185855   2.540951   4.776102   6.426283
    21  H    6.850413   1.085877   4.525847   2.164148   2.141001
    22  H    6.376983   1.087108   4.112710   2.158756   2.138570
    23  H    4.734755   2.156727   2.561817   1.087759   2.806503
    24  H    4.709856   2.168382   2.667282   1.085303   3.453455
    25  H    7.466967   2.163896   5.160002   3.456005   1.081428
    26  H    6.570940   2.158611   4.316091   2.806243   1.087715
    27  H    3.986492   2.785288   2.052235   2.142595   3.277731
    28  H    4.283247   3.842250   2.737329   3.448773   3.264911
    29  H    4.521568   3.252321   2.633892   2.765321   2.622257
    30  H    3.454665   6.937189   4.311279   5.631692   7.921756
    31  H    2.794667   7.381832   4.266120   6.100470   8.094995
                   11         12         13         14         15
    11  C    0.000000
    12  C    1.526857   0.000000
    13  C    4.535502   5.764549   0.000000
    14  H    3.048140   4.501786   2.156423   0.000000
    15  H    4.183683   5.417304   2.164243   1.754059   0.000000
    16  H    4.012706   5.197604   2.152903   2.669201   3.809305
    17  H    5.325249   6.330830   2.163949   3.808330   4.287744
    18  H    2.701998   2.894778   3.813444   3.657080   3.974537
    19  H    4.505382   5.074497   2.791213   3.982578   4.064195
    20  H    3.912449   4.416454   3.456563   4.087014   4.845776
    21  H    3.445997   3.829828   7.213578   5.258014   6.643443
    22  H    2.807970   3.311980   6.511897   4.455225   5.504210
    23  H    2.135933   2.775947   5.574380   4.084052   5.663578
    24  H    2.149595   3.441262   4.727992   2.842340   4.433186
    25  H    3.833678   3.262118   8.271671   6.438347   7.451989
    26  H    3.283738   2.625460   7.722690   6.115450   7.370778
    27  H    1.082311   2.140539   4.349826   2.693365   3.505095
    28  H    2.170832   1.080812   5.751750   4.756710   5.358871
    29  H    2.152996   1.087836   6.162037   5.069603   6.149547
    30  H    5.207147   6.554072   1.086274   2.446899   2.521754
    31  H    5.246164   6.333971   1.087564   3.042722   2.440960
                   16         17         18         19         20
    16  H    0.000000
    17  H    1.745813   0.000000
    18  H    3.861847   4.269548   0.000000
    19  H    3.048677   2.444083   2.372867   0.000000
    20  H    2.473292   2.538185   2.531600   1.750246   0.000000
    21  H    6.328916   7.994879   6.135590   7.792336   6.885345
    22  H    6.146488   7.679794   5.363248   7.182254   6.649026
    23  H    4.280191   5.881500   4.418772   5.743709   4.583383
    24  H    3.916038   5.587505   4.526252   5.683939   4.936006
    25  H    7.654926   9.105170   6.066021   8.212205   7.474208
    26  H    6.720089   8.162461   5.435539   7.395314   6.361778
    27  H    4.339259   5.550648   2.829784   4.646541   4.445855
    28  H    5.463797   6.342818   2.376426   4.712641   4.339704
    29  H    5.242745   6.368787   3.273890   5.222470   4.243564
    30  H    2.458015   2.545575   4.844937   3.799504   4.303537
    31  H    3.047347   2.459354   4.011771   2.646523   3.804970
                   21         22         23         24         25
    21  H    0.000000
    22  H    1.751384   0.000000
    23  H    2.456165   3.051757   0.000000
    24  H    2.543334   2.462743   1.752989   0.000000
    25  H    2.525151   2.439387   3.813721   4.292775   0.000000
    26  H    2.454450   3.044456   2.669791   3.813792   1.759333
    27  H    3.792852   2.657926   3.028942   2.445170   4.055784
    28  H    4.851789   4.111262   3.774843   4.283635   4.013539
    29  H    4.021295   3.960629   2.601222   3.769335   3.578866
    30  H    7.499494   6.875077   5.993122   4.967984   8.816916
    31  H    8.130670   7.307264   6.492245   5.699480   8.989119
                   26         27         28         29         30
    26  H    0.000000
    27  H    3.955048   0.000000
    28  H    3.572215   2.463525   0.000000
    29  H    2.413623   3.038812   1.761383   0.000000
    30  H    8.297748   5.002833   6.652010   6.942923   0.000000
    31  H    8.490577   4.977405   6.146334   6.768047   1.752723
                   31
    31  H    0.000000
 Stoichiometry    C10H18O3
 Framework group  C1[X(C10H18O3)]
 Deg. of freedom    87
 Full point group                 C1      NOp   1
 Largest Abelian subgroup         C1      NOp   1
 Largest concise Abelian subgroup C1      NOp   1
                         Standard orientation:                         
 ---------------------------------------------------------------------
 Center     Atomic      Atomic             Coordinates (Angstroms)
 Number     Number       Type             X           Y           Z
 ---------------------------------------------------------------------
      1          6           0        2.206597    1.092222    1.006227
      2          8           0        1.586370   -0.153130    1.302333
      3          6           0        3.185355    0.087803   -1.063549
      4          8           0       -3.125889   -0.847144    0.708765
      5          6           0        1.261308   -0.954605    0.200176
      6          6           0        2.468095   -1.209883   -0.688362
      7          6           0       -3.023802    1.371246   -0.252392
      8          8           0        0.253581   -0.376947   -0.586979
      9          6           0       -1.629739    1.063663   -0.804193
     10          6           0       -3.826447    0.090634   -0.088447
     11          6           0       -0.961528   -0.011134    0.041053
     12          6           0       -1.880131   -1.224672    0.162650
     13          6           0        3.478985    0.898673    0.198763
     14          1           0        1.506197    1.725421    0.472177
     15          1           0        2.410253    1.548725    1.964887
     16          1           0        2.568716    0.674151   -1.739275
     17          1           0        4.105312   -0.141439   -1.592481
     18          1           0        0.900803   -1.877686    0.631391
     19          1           0        3.146604   -1.852596   -0.134275
     20          1           0        2.147890   -1.757082   -1.568433
     21          1           0       -3.554800    2.045964   -0.917167
     22          1           0       -2.940353    1.864415    0.712815
     23          1           0       -1.710470    0.703289   -1.827341
     24          1           0       -1.014859    1.957846   -0.819779
     25          1           0       -4.766319    0.274751    0.413777
     26          1           0       -4.036749   -0.356615   -1.057398
     27          1           0       -0.758979    0.379290    1.029962
     28          1           0       -1.465870   -1.971706    0.824830
     29          1           0       -2.027857   -1.672817   -0.817518
     30          1           0        3.892314    1.872049   -0.049611
     31          1           0        4.213516    0.378134    0.808926
 ---------------------------------------------------------------------
 Rotational constants (GHZ):           1.9138174           0.4068193           0.3894071
 Standard basis: 6-311++G(2d,2p) (5D, 7F)
 There are   557 symmetry adapted cartesian basis functions of A   symmetry.
 There are   531 symmetry adapted basis functions of A   symmetry.
   531 basis functions,   762 primitive gaussians,   557 cartesian basis functions
    51 alpha electrons       51 beta electrons
       nuclear repulsion energy       894.3921338500 Hartrees.
 NAtoms=   31 NActive=   31 NUniq=   31 SFac= 1.00D+00 NAtFMM=   60 NAOKFM=F Big=F
 Integral buffers will be    131072 words long.
 Raffenetti 2 integral format.
 Two-electron integral symmetry is turned on.
 ------------------------------------------------------------------------------
 Polarizable Continuum Model (PCM)
 =================================
 Model                : PCM.
 Atomic radii         : UFF (Universal Force Field).
 Polarization charges : Total charges.
 Charge compensation  : None.
 Solution method      : On-the-fly selection.
 Cavity type          : Scaled VdW (van der Waals Surface) (Alpha=1.100).
 Cavity algorithm     : GePol (No added spheres)
                        Default sphere list used, NSphG=   31.
                        Lebedev-Laikov grids with approx.  5.0 points / Ang**2.
                        Smoothing algorithm: York/Karplus (Gamma=1.0000).
                        Polarization charges: spherical gaussians, with
                                              point-specific exponents (IZeta= 3).
                        Self-potential: point-specific (ISelfS= 7).
                        Self-field    : sphere-specific E.n sum rule (ISelfD= 2).
 1st derivatives      : Analytical E(r).r(x)/FMM algorithm (CHGder, D1EAlg=3).
                        Cavity 1st derivative terms included.
 Solvent              : Water, Eps=  78.355300 Eps(inf)=   1.777849
 ------------------------------------------------------------------------------
 One-electron integrals computed using PRISM.
 NBasis=   531 RedAO= T EigKep=  4.95D-06  NBF=   531
 NBsUse=   531 1.00D-06 EigRej= -1.00D+00 NBFU=   531
 ExpMin= 3.60D-02 ExpMax= 8.59D+03 ExpMxC= 1.30D+03 IAcc=3 IRadAn=         5 AccDes= 0.00D+00
 Harris functional with IExCor= 1009 and IRadAn=       5 diagonalized for initial guess.
 HarFok:  IExCor= 1009 AccDes= 0.00D+00 IRadAn=         5 IDoV= 1 UseB2=F ITyADJ=14
 ICtDFT=  3500011 ScaDFX=  1.000000  1.000000  1.000000  1.000000
 FoFCou: FMM=F IPFlag=           0 FMFlag=      100000 FMFlg1=           0
         NFxFlg=           0 DoJE=T BraDBF=F KetDBF=T FulRan=T
         wScrn=  0.000000 ICntrl=       500 IOpCl=  0 I1Cent=   200000004 NGrid=           0
         NMat0=    1 NMatS0=      1 NMatT0=    0 NMatD0=    1 NMtDS0=    0 NMtDT0=    0
 Petite list used in FoFCou.
 Requested convergence on RMS density matrix=1.00D-08 within 128 cycles.
 Requested convergence on MAX density matrix=1.00D-06.
 Requested convergence on             energy=1.00D-06.
 No special actions if energy rises.
 Inv3:  Mode=1 IEnd=    12693747.
 Iteration    1 A*A^-1 deviation from unit magnitude is 6.22D-15 for   2054.
 Iteration    1 A*A^-1 deviation from orthogonality  is 3.30D-15 for   2034    865.
 Iteration    1 A^-1*A deviation from unit magnitude is 6.22D-15 for   2054.
 Iteration    1 A^-1*A deviation from orthogonality  is 1.73D-15 for   2035    937.
 Error on total polarization charges =  0.01492
 SCF Done:  E(RM062X) =  -617.502450992     A.U. after   12 cycles
            NFock= 12  Conv=0.44D-08     -V/T= 2.0035

 **********************************************************************

            Population analysis using the SCF density.

 **********************************************************************

 Orbital symmetries:
       Occupied  (A) (A) (A) (A) (A) (A) (A) (A) (A) (A) (A) (A)
                 (A) (A) (A) (A) (A) (A) (A) (A) (A) (A) (A) (A)
                 (A) (A) (A) (A) (A) (A) (A) (A) (A) (A) (A) (A)
                 (A) (A) (A) (A) (A) (A) (A) (A) (A) (A) (A) (A)
                 (A) (A) (A)
       Virtual   (A) (A) (A) (A) (A) (A) (A) (A) (A) (A) (A) (A)
                 (A) (A) (A) (A) (A) (A) (A) (A) (A) (A) (A) (A)
                 (A) (A) (A) (A) (A) (A) (A) (A) (A) (A) (A) (A)
                 (A) (A) (A) (A) (A) (A) (A) (A) (A) (A) (A) (A)
                 (A) (A) (A) (A) (A) (A) (A) (A) (A) (A) (A) (A)
                 (A) (A) (A) (A) (A) (A) (A) (A) (A) (A) (A) (A)
                 (A) (A) (A) (A) (A) (A) (A) (A) (A) (A) (A) (A)
                 (A) (A) (A) (A) (A) (A) (A) (A) (A) (A) (A) (A)
                 (A) (A) (A) (A) (A) (A) (A) (A) (A) (A) (A) (A)
                 (A) (A) (A) (A) (A) (A) (A) (A) (A) (A) (A) (A)
                 (A) (A) (A) (A) (A) (A) (A) (A) (A) (A) (A) (A)
                 (A) (A) (A) (A) (A) (A) (A) (A) (A) (A) (A) (A)
                 (A) (A) (A) (A) (A) (A) (A) (A) (A) (A) (A) (A)
                 (A) (A) (A) (A) (A) (A) (A) (A) (A) (A) (A) (A)
                 (A) (A) (A) (A) (A) (A) (A) (A) (A) (A) (A) (A)
                 (A) (A) (A) (A) (A) (A) (A) (A) (A) (A) (A) (A)
                 (A) (A) (A) (A) (A) (A) (A) (A) (A) (A) (A) (A)
                 (A) (A) (A) (A) (A) (A) (A) (A) (A) (A) (A) (A)
                 (A) (A) (A) (A) (A) (A) (A) (A) (A) (A) (A) (A)
                 (A) (A) (A) (A) (A) (A) (A) (A) (A) (A) (A) (A)
                 (A) (A) (A) (A) (A) (A) (A) (A) (A) (A) (A) (A)
                 (A) (A) (A) (A) (A) (A) (A) (A) (A) (A) (A) (A)
                 (A) (A) (A) (A) (A) (A) (A) (A) (A) (A) (A) (A)
                 (A) (A) (A) (A) (A) (A) (A) (A) (A) (A) (A) (A)
                 (A) (A) (A) (A) (A) (A) (A) (A) (A) (A) (A) (A)
                 (A) (A) (A) (A) (A) (A) (A) (A) (A) (A) (A) (A)
                 (A) (A) (A) (A) (A) (A) (A) (A) (A) (A) (A) (A)
                 (A) (A) (A) (A) (A) (A) (A) (A) (A) (A) (A) (A)
                 (A) (A) (A) (A) (A) (A) (A) (A) (A) (A) (A) (A)
                 (A) (A) (A) (A) (A) (A) (A) (A) (A) (A) (A) (A)
                 (A) (A) (A) (A) (A) (A) (A) (A) (A) (A) (A) (A)
                 (A) (A) (A) (A) (A) (A) (A) (A) (A) (A) (A) (A)
                 (A) (A) (A) (A) (A) (A) (A) (A) (A) (A) (A) (A)
                 (A) (A) (A) (A) (A) (A) (A) (A) (A) (A) (A) (A)
                 (A) (A) (A) (A) (A) (A) (A) (A) (A) (A) (A) (A)
                 (A) (A) (A) (A) (A) (A) (A) (A) (A) (A) (A) (A)
                 (A) (A) (A) (A) (A) (A) (A) (A) (A) (A) (A) (A)
                 (A) (A) (A) (A) (A) (A) (A) (A) (A) (A) (A) (A)
                 (A) (A) (A) (A) (A) (A) (A) (A) (A) (A) (A) (A)
                 (A) (A) (A) (A) (A) (A) (A) (A) (A) (A) (A) (A)
 The electronic state is 1-A.
 Alpha  occ. eigenvalues --  -19.63084 -19.62947 -19.62909 -10.63462 -10.58449
 Alpha  occ. eigenvalues --  -10.57849 -10.57791 -10.57751 -10.53157 -10.53116
 Alpha  occ. eigenvalues --  -10.53020 -10.52971 -10.52810  -1.20339  -1.16735
 Alpha  occ. eigenvalues --   -1.13637  -0.91102  -0.89807  -0.87434  -0.84731
 Alpha  occ. eigenvalues --   -0.75068  -0.74231  -0.73272  -0.70836  -0.65723
 Alpha  occ. eigenvalues --   -0.64231  -0.60038  -0.59081  -0.57674  -0.56243
 Alpha  occ. eigenvalues --   -0.54087  -0.53306  -0.52360  -0.51289  -0.50025
 Alpha  occ. eigenvalues --   -0.48000  -0.46821  -0.46133  -0.45551  -0.45473
 Alpha  occ. eigenvalues --   -0.44184  -0.42876  -0.40641  -0.40073  -0.39189
 Alpha  occ. eigenvalues --   -0.38563  -0.38037  -0.36094  -0.35639  -0.33481
 Alpha  occ. eigenvalues --   -0.31625
 Alpha virt. eigenvalues --   -0.00080   0.00760   0.00943   0.01028   0.02178
 Alpha virt. eigenvalues --    0.02483   0.02616   0.03342   0.03656   0.04356
 Alpha virt. eigenvalues --    0.04639   0.04764   0.05454   0.05934   0.06995
 Alpha virt. eigenvalues --    0.07335   0.07732   0.07996   0.08968   0.09753
 Alpha virt. eigenvalues --    0.10166   0.10697   0.11274   0.11406   0.11797
 Alpha virt. eigenvalues --    0.12186   0.12651   0.12892   0.13103   0.13345
 Alpha virt. eigenvalues --    0.13700   0.14054   0.14444   0.14628   0.15079
 Alpha virt. eigenvalues --    0.15261   0.15533   0.15590   0.16015   0.16355
 Alpha virt. eigenvalues --    0.16743   0.16962   0.17173   0.17684   0.17847
 Alpha virt. eigenvalues --    0.18219   0.18354   0.18576   0.19016   0.19173
 Alpha virt. eigenvalues --    0.19989   0.20315   0.20774   0.20988   0.21631
 Alpha virt. eigenvalues --    0.22334   0.22666   0.22772   0.23208   0.23886
 Alpha virt. eigenvalues --    0.24617   0.25663   0.25882   0.26533   0.26603
 Alpha virt. eigenvalues --    0.27313   0.28152   0.28636   0.28916   0.29310
 Alpha virt. eigenvalues --    0.29760   0.29990   0.30662   0.31505   0.31891
 Alpha virt. eigenvalues --    0.32308   0.33100   0.33539   0.34134   0.34357
 Alpha virt. eigenvalues --    0.34740   0.35348   0.35490   0.35940   0.36609
 Alpha virt. eigenvalues --    0.36863   0.37263   0.37386   0.37821   0.37974
 Alpha virt. eigenvalues --    0.38257   0.39006   0.39449   0.40165   0.40685
 Alpha virt. eigenvalues --    0.41428   0.42126   0.43048   0.44098   0.45340
 Alpha virt. eigenvalues --    0.46420   0.47283   0.48838   0.50363   0.50716
 Alpha virt. eigenvalues --    0.51872   0.52813   0.53502   0.53915   0.54233
 Alpha virt. eigenvalues --    0.55281   0.57079   0.57315   0.58271   0.59249
 Alpha virt. eigenvalues --    0.59647   0.60392   0.60564   0.61151   0.61609
 Alpha virt. eigenvalues --    0.62560   0.63154   0.63421   0.63574   0.64273
 Alpha virt. eigenvalues --    0.64626   0.64998   0.66258   0.66944   0.67655
 Alpha virt. eigenvalues --    0.67912   0.68525   0.69022   0.69770   0.70183
 Alpha virt. eigenvalues --    0.70790   0.71277   0.72317   0.72467   0.72947
 Alpha virt. eigenvalues --    0.73565   0.73967   0.74900   0.75191   0.75564
 Alpha virt. eigenvalues --    0.76254   0.77167   0.77314   0.77518   0.78743
 Alpha virt. eigenvalues --    0.79697   0.82579   0.83651   0.84756   0.85335
 Alpha virt. eigenvalues --    0.86588   0.87560   0.87874   0.88768   0.89329
 Alpha virt. eigenvalues --    0.90432   0.90946   0.91869   0.94126   0.95193
 Alpha virt. eigenvalues --    0.96974   0.98070   0.99458   1.00920   1.01625
 Alpha virt. eigenvalues --    1.02925   1.03851   1.05097   1.06100   1.06641
 Alpha virt. eigenvalues --    1.07832   1.08161   1.10930   1.11050   1.12294
 Alpha virt. eigenvalues --    1.12706   1.13167   1.14605   1.15647   1.16588
 Alpha virt. eigenvalues --    1.16870   1.17915   1.18547   1.19187   1.20694
 Alpha virt. eigenvalues --    1.21168   1.21312   1.21959   1.23588   1.24357
 Alpha virt. eigenvalues --    1.25294   1.26232   1.26642   1.26702   1.27861
 Alpha virt. eigenvalues --    1.28401   1.29408   1.30214   1.30270   1.30603
 Alpha virt. eigenvalues --    1.31719   1.32948   1.33127   1.34080   1.34628
 Alpha virt. eigenvalues --    1.34811   1.35702   1.36241   1.36804   1.37850
 Alpha virt. eigenvalues --    1.38545   1.38722   1.39580   1.40280   1.40782
 Alpha virt. eigenvalues --    1.41875   1.42748   1.43735   1.44250   1.45584
 Alpha virt. eigenvalues --    1.46314   1.46565   1.46715   1.47831   1.48273
 Alpha virt. eigenvalues --    1.49220   1.49737   1.51034   1.51315   1.52172
 Alpha virt. eigenvalues --    1.52736   1.53525   1.53935   1.54482   1.55555
 Alpha virt. eigenvalues --    1.56503   1.57062   1.57784   1.58106   1.58270
 Alpha virt. eigenvalues --    1.59217   1.59822   1.60741   1.62003   1.62411
 Alpha virt. eigenvalues --    1.63578   1.63784   1.64265   1.65673   1.67224
 Alpha virt. eigenvalues --    1.68358   1.68559   1.69588   1.70608   1.72915
 Alpha virt. eigenvalues --    1.74431   1.74541   1.74647   1.76418   1.77195
 Alpha virt. eigenvalues --    1.78603   1.80152   1.80887   1.81570   1.84095
 Alpha virt. eigenvalues --    1.85319   1.88479   1.91584   1.94159   1.99128
 Alpha virt. eigenvalues --    2.05196   2.07726   2.12420   2.14708   2.21407
 Alpha virt. eigenvalues --    2.24384   2.25277   2.30078   2.33688   2.38032
 Alpha virt. eigenvalues --    2.41593   2.42955   2.46209   2.47433   2.53417
 Alpha virt. eigenvalues --    2.58466   2.75240   2.76868   2.79234   2.82142
 Alpha virt. eigenvalues --    2.83130   2.90190   2.92780   2.92953   2.93781
 Alpha virt. eigenvalues --    2.96196   2.97922   3.00952   3.01858   3.03063
 Alpha virt. eigenvalues --    3.06443   3.07286   3.07988   3.09498   3.11566
 Alpha virt. eigenvalues --    3.14016   3.15076   3.17582   3.17944   3.21280
 Alpha virt. eigenvalues --    3.23826   3.29097   3.31562   3.33329   3.34342
 Alpha virt. eigenvalues --    3.35218   3.36134   3.37703   3.38777   3.41602
 Alpha virt. eigenvalues --    3.43503   3.43966   3.44104   3.45061   3.46139
 Alpha virt. eigenvalues --    3.47596   3.48167   3.49642   3.51083   3.51426
 Alpha virt. eigenvalues --    3.53344   3.53505   3.54526   3.55834   3.56182
 Alpha virt. eigenvalues --    3.56815   3.57814   3.58141   3.58977   3.59601
 Alpha virt. eigenvalues --    3.60619   3.61773   3.62613   3.63443   3.65323
 Alpha virt. eigenvalues --    3.66289   3.67614   3.68232   3.68378   3.69966
 Alpha virt. eigenvalues --    3.70200   3.71208   3.72213   3.73265   3.73997
 Alpha virt. eigenvalues --    3.74544   3.75151   3.76017   3.76761   3.77635
 Alpha virt. eigenvalues --    3.77886   3.79366   3.80020   3.81821   3.85091
 Alpha virt. eigenvalues --    3.86942   3.88330   3.89428   3.90252   3.91905
 Alpha virt. eigenvalues --    3.93211   3.93388   3.94724   3.96800   3.97263
 Alpha virt. eigenvalues --    4.00189   4.00779   4.01791   4.02819   4.03646
 Alpha virt. eigenvalues --    4.04601   4.05411   4.06271   4.07182   4.07876
 Alpha virt. eigenvalues --    4.08321   4.08586   4.09537   4.09923   4.11632
 Alpha virt. eigenvalues --    4.11937   4.13079   4.14520   4.14995   4.15212
 Alpha virt. eigenvalues --    4.16312   4.17635   4.17947   4.19578   4.19919
 Alpha virt. eigenvalues --    4.21255   4.22345   4.24672   4.25596   4.26552
 Alpha virt. eigenvalues --    4.27049   4.29954   4.30632   4.31836   4.32283
 Alpha virt. eigenvalues --    4.33007   4.33465   4.35942   4.37472   4.38960
 Alpha virt. eigenvalues --    4.41621   4.42901   4.44710   4.47118   4.48570
 Alpha virt. eigenvalues --    4.58359   4.62025   4.75045   4.77313   4.83055
 Alpha virt. eigenvalues --    4.85136   4.92820   4.95119   4.99412   5.00995
 Alpha virt. eigenvalues --    5.06595   5.06982   5.07917   5.08889   5.11989
 Alpha virt. eigenvalues --    5.12543   5.13881   5.14935   5.30534   5.38759
 Alpha virt. eigenvalues --    5.40994   5.57788   5.59132   5.63002   5.85237
 Alpha virt. eigenvalues --    5.88210   6.05764   7.03532   7.05668   7.06309
 Alpha virt. eigenvalues --    7.07180   7.10891   7.12114   7.13802   7.20583
 Alpha virt. eigenvalues --    7.24903   7.36624   7.37998   7.47596   7.53138
 Alpha virt. eigenvalues --    7.55301   7.65791  23.95677  23.96937  24.06634
 Alpha virt. eigenvalues --   24.07591  24.11165  24.11447  24.14357  24.15551
 Alpha virt. eigenvalues --   24.15806  24.21120  50.16891  50.18127  50.24915
          Condensed to atoms (all electrons):
               1          2          3          4          5          6
     1  C    5.491909   0.124824  -0.005662   0.001149  -0.482605   0.241771
     2  O    0.124824   8.174261  -0.001174   0.000255   0.277402  -0.061092
     3  C   -0.005662  -0.001174   5.835886   0.000206  -0.144226  -0.129563
     4  O    0.001149   0.000255   0.000206   8.302761  -0.002312   0.000210
     5  C   -0.482605   0.277402  -0.144226  -0.002312   7.353370  -0.927170
     6  C    0.241771  -0.061092  -0.129563   0.000210  -0.927170   6.455542
     7  C    0.005375   0.003099  -0.009747  -0.019080  -0.099262   0.011652
     8  O   -0.009459  -0.050422  -0.020813   0.005457   0.283939  -0.057453
     9  C    0.014717  -0.017664   0.000364  -0.022671   0.222642  -0.104990
    10  C   -0.001001   0.000345   0.002917   0.088862  -0.030283   0.010193
    11  C    0.108591   0.072250   0.059711   0.041863  -1.093395   0.324516
    12  C   -0.039032  -0.021817  -0.040934   0.155032   0.219773  -0.061568
    13  C   -0.079696  -0.067667  -0.105279   0.000368   0.200436  -0.111487
    14  H    0.484893  -0.034659   0.022745  -0.000428   0.017762   0.003828
    15  H    0.434456  -0.069622   0.005106   0.000032  -0.019362   0.007043
    16  H    0.001534   0.002113   0.525882  -0.000036   0.003719  -0.062724
    17  H    0.007107  -0.004159   0.423239   0.000015   0.016143  -0.051653
    18  H   -0.033362  -0.057190  -0.022312   0.002471   0.519072  -0.082414
    19  H    0.016244  -0.007976   0.006042   0.000033  -0.157696   0.532057
    20  H    0.005783   0.007046  -0.043461  -0.000009  -0.025482   0.443357
    21  H    0.000515   0.000238  -0.000078   0.007420  -0.003914   0.000440
    22  H    0.001465  -0.000658   0.001239  -0.001513   0.005945  -0.000876
    23  H    0.003928  -0.000892   0.004811   0.000648   0.007449  -0.004619
    24  H   -0.010477   0.001595  -0.005755  -0.001846   0.003662   0.000073
    25  H   -0.000023   0.000044  -0.000077  -0.071651  -0.002701   0.000324
    26  H    0.000049  -0.000054   0.000058  -0.043377   0.000323   0.001051
    27  H    0.015023  -0.000502  -0.007109  -0.018036  -0.072535   0.010618
    28  H    0.005119   0.000075   0.005252  -0.082293  -0.007065   0.001870
    29  H   -0.002092   0.000044  -0.000286  -0.030529  -0.003200   0.004592
    30  H   -0.034376   0.010380  -0.044734   0.000010   0.000393   0.004027
    31  H   -0.097742  -0.003167  -0.015658  -0.000013   0.014551  -0.025395
               7          8          9         10         11         12
     1  C    0.005375  -0.009459   0.014717  -0.001001   0.108591  -0.039032
     2  O    0.003099  -0.050422  -0.017664   0.000345   0.072250  -0.021817
     3  C   -0.009747  -0.020813   0.000364   0.002917   0.059711  -0.040934
     4  O   -0.019080   0.005457  -0.022671   0.088862   0.041863   0.155032
     5  C   -0.099262   0.283939   0.222642  -0.030283  -1.093395   0.219773
     6  C    0.011652  -0.057453  -0.104990   0.010193   0.324516  -0.061568
     7  C    5.575056  -0.002707   0.035102   0.114985  -0.108883   0.087415
     8  O   -0.002707   8.295624  -0.209760   0.017974   0.164969  -0.132625
     9  C    0.035102  -0.209760   6.803759  -0.242876  -1.374486   0.180443
    10  C    0.114985   0.017974  -0.242876   5.434291   0.269212  -0.250898
    11  C   -0.108883   0.164969  -1.374486   0.269212   8.122023  -0.559668
    12  C    0.087415  -0.132625   0.180443  -0.250898  -0.559668   6.003287
    13  C    0.005207  -0.011972  -0.020381  -0.001050   0.041136   0.019171
    14  H   -0.007147   0.020293  -0.018093   0.004831  -0.019030   0.003982
    15  H    0.000518   0.001535  -0.001802  -0.000113   0.012981   0.000343
    16  H   -0.001743  -0.008148   0.001943  -0.000763  -0.013366   0.002339
    17  H   -0.000161   0.001609  -0.000794   0.000173   0.006656  -0.001360
    18  H   -0.007187  -0.024624   0.003398  -0.001939  -0.020304   0.023915
    19  H    0.000643   0.008763  -0.002997   0.000229   0.013531  -0.003189
    20  H   -0.000977  -0.004361   0.002873  -0.000469  -0.015956   0.006914
    21  H    0.437858  -0.002956  -0.044969  -0.031439   0.003692  -0.006235
    22  H    0.481562   0.000203   0.026206  -0.094255  -0.053838   0.006840
    23  H   -0.080279  -0.006114   0.521831  -0.015744  -0.025842  -0.038456
    24  H    0.009764   0.006135   0.412042  -0.010947  -0.042542   0.014030
    25  H   -0.041672   0.001051   0.001633   0.438602  -0.001277   0.015732
    26  H   -0.042712  -0.000263  -0.022133   0.457882   0.044986  -0.039598
    27  H   -0.007589  -0.029629  -0.026191   0.015299   0.514665  -0.087319
    28  H    0.018128  -0.006233   0.028706   0.010160  -0.075899   0.432387
    29  H    0.003398   0.014440  -0.013624  -0.000813  -0.025624   0.399882
    30  H   -0.000001   0.000925   0.001618  -0.000033  -0.000860  -0.000118
    31  H   -0.000193  -0.001431  -0.000324  -0.000078  -0.002322   0.000214
              13         14         15         16         17         18
     1  C   -0.079696   0.484893   0.434456   0.001534   0.007107  -0.033362
     2  O   -0.067667  -0.034659  -0.069622   0.002113  -0.004159  -0.057190
     3  C   -0.105279   0.022745   0.005106   0.525882   0.423239  -0.022312
     4  O    0.000368  -0.000428   0.000032  -0.000036   0.000015   0.002471
     5  C    0.200436   0.017762  -0.019362   0.003719   0.016143   0.519072
     6  C   -0.111487   0.003828   0.007043  -0.062724  -0.051653  -0.082414
     7  C    0.005207  -0.007147   0.000518  -0.001743  -0.000161  -0.007187
     8  O   -0.011972   0.020293   0.001535  -0.008148   0.001609  -0.024624
     9  C   -0.020381  -0.018093  -0.001802   0.001943  -0.000794   0.003398
    10  C   -0.001050   0.004831  -0.000113  -0.000763   0.000173  -0.001939
    11  C    0.041136  -0.019030   0.012981  -0.013366   0.006656  -0.020304
    12  C    0.019171   0.003982   0.000343   0.002339  -0.001360   0.023915
    13  C    5.790743  -0.123844  -0.013844  -0.067897  -0.024264   0.022440
    14  H   -0.123844   0.559683  -0.022847  -0.000883  -0.001253  -0.001753
    15  H   -0.013844  -0.022847   0.475983  -0.002239   0.001824  -0.000490
    16  H   -0.067897  -0.000883  -0.002239   0.457459  -0.006586  -0.002575
    17  H   -0.024264  -0.001253   0.001824  -0.006586   0.471906   0.003084
    18  H    0.022440  -0.001753  -0.000490  -0.002575   0.003084   0.465370
    19  H   -0.020594  -0.001885   0.000490   0.001693  -0.002797  -0.014236
    20  H   -0.004449   0.001347   0.000821  -0.002832  -0.009055  -0.010224
    21  H   -0.000123  -0.000045  -0.000042  -0.000047   0.000003  -0.000334
    22  H   -0.000379  -0.000923   0.000068   0.000191   0.000015   0.000172
    23  H   -0.004135   0.000236  -0.000120   0.000752  -0.000061  -0.000578
    24  H    0.012908  -0.011709   0.001637  -0.001029  -0.000140   0.001784
    25  H   -0.000054  -0.000041  -0.000003  -0.000047   0.000002  -0.000165
    26  H    0.000199  -0.000220   0.000029   0.000106   0.000006   0.000044
    27  H   -0.007730  -0.007676  -0.000420  -0.001201   0.000156  -0.001382
    28  H   -0.003614   0.000546   0.000221  -0.000249  -0.000074  -0.016430
    29  H    0.001993  -0.000571   0.000008   0.000173   0.000205   0.003001
    30  H    0.433443   0.000793  -0.009609  -0.004910  -0.005874   0.001074
    31  H    0.498416   0.003076  -0.006439   0.001933  -0.003515   0.000879
              19         20         21         22         23         24
     1  C    0.016244   0.005783   0.000515   0.001465   0.003928  -0.010477
     2  O   -0.007976   0.007046   0.000238  -0.000658  -0.000892   0.001595
     3  C    0.006042  -0.043461  -0.000078   0.001239   0.004811  -0.005755
     4  O    0.000033  -0.000009   0.007420  -0.001513   0.000648  -0.001846
     5  C   -0.157696  -0.025482  -0.003914   0.005945   0.007449   0.003662
     6  C    0.532057   0.443357   0.000440  -0.000876  -0.004619   0.000073
     7  C    0.000643  -0.000977   0.437858   0.481562  -0.080279   0.009764
     8  O    0.008763  -0.004361  -0.002956   0.000203  -0.006114   0.006135
     9  C   -0.002997   0.002873  -0.044969   0.026206   0.521831   0.412042
    10  C    0.000229  -0.000469  -0.031439  -0.094255  -0.015744  -0.010947
    11  C    0.013531  -0.015956   0.003692  -0.053838  -0.025842  -0.042542
    12  C   -0.003189   0.006914  -0.006235   0.006840  -0.038456   0.014030
    13  C   -0.020594  -0.004449  -0.000123  -0.000379  -0.004135   0.012908
    14  H   -0.001885   0.001347  -0.000045  -0.000923   0.000236  -0.011709
    15  H    0.000490   0.000821  -0.000042   0.000068  -0.000120   0.001637
    16  H    0.001693  -0.002832  -0.000047   0.000191   0.000752  -0.001029
    17  H   -0.002797  -0.009055   0.000003   0.000015  -0.000061  -0.000140
    18  H   -0.014236  -0.010224  -0.000334   0.000172  -0.000578   0.001784
    19  H    0.445702  -0.003664  -0.000003  -0.000054  -0.000203   0.000166
    20  H   -0.003664   0.472240  -0.000018   0.000061   0.000471  -0.000408
    21  H   -0.000003  -0.000018   0.483098  -0.007540  -0.004863  -0.013968
    22  H   -0.000054   0.000061  -0.007540   0.478905   0.003509  -0.000391
    23  H   -0.000203   0.000471  -0.004863   0.003509   0.450040  -0.016640
    24  H    0.000166  -0.000408  -0.013968  -0.000391  -0.016640   0.508204
    25  H    0.000013  -0.000016  -0.008115  -0.005842  -0.001595   0.000753
    26  H    0.000030  -0.000140   0.002749   0.003831  -0.003808   0.000774
    27  H    0.000140  -0.000387   0.000303  -0.009333   0.006255  -0.008735
    28  H    0.000522   0.001608   0.003071  -0.002587  -0.001505  -0.001835
    29  H    0.000269  -0.002311  -0.002578   0.002640  -0.004153  -0.000042
    30  H   -0.002216   0.001064  -0.000021   0.000051   0.000150  -0.000311
    31  H   -0.002390  -0.001795   0.000004  -0.000018   0.000047   0.000325
              25         26         27         28         29         30
     1  C   -0.000023   0.000049   0.015023   0.005119  -0.002092  -0.034376
     2  O    0.000044  -0.000054  -0.000502   0.000075   0.000044   0.010380
     3  C   -0.000077   0.000058  -0.007109   0.005252  -0.000286  -0.044734
     4  O   -0.071651  -0.043377  -0.018036  -0.082293  -0.030529   0.000010
     5  C   -0.002701   0.000323  -0.072535  -0.007065  -0.003200   0.000393
     6  C    0.000324   0.001051   0.010618   0.001870   0.004592   0.004027
     7  C   -0.041672  -0.042712  -0.007589   0.018128   0.003398  -0.000001
     8  O    0.001051  -0.000263  -0.029629  -0.006233   0.014440   0.000925
     9  C    0.001633  -0.022133  -0.026191   0.028706  -0.013624   0.001618
    10  C    0.438602   0.457882   0.015299   0.010160  -0.000813  -0.000033
    11  C   -0.001277   0.044986   0.514665  -0.075899  -0.025624  -0.000860
    12  C    0.015732  -0.039598  -0.087319   0.432387   0.399882  -0.000118
    13  C   -0.000054   0.000199  -0.007730  -0.003614   0.001993   0.433443
    14  H   -0.000041  -0.000220  -0.007676   0.000546  -0.000571   0.000793
    15  H   -0.000003   0.000029  -0.000420   0.000221   0.000008  -0.009609
    16  H   -0.000047   0.000106  -0.001201  -0.000249   0.000173  -0.004910
    17  H    0.000002   0.000006   0.000156  -0.000074   0.000205  -0.005874
    18  H   -0.000165   0.000044  -0.001382  -0.016430   0.003001   0.001074
    19  H    0.000013   0.000030   0.000140   0.000522   0.000269  -0.002216
    20  H   -0.000016  -0.000140  -0.000387   0.001608  -0.002311   0.001064
    21  H   -0.008115   0.002749   0.000303   0.003071  -0.002578  -0.000021
    22  H   -0.005842   0.003831  -0.009333  -0.002587   0.002640   0.000051
    23  H   -0.001595  -0.003808   0.006255  -0.001505  -0.004153   0.000150
    24  H    0.000753   0.000774  -0.008735  -0.001835  -0.000042  -0.000311
    25  H    0.472978  -0.006987   0.001078   0.003478  -0.002442   0.000001
    26  H   -0.006987   0.499994  -0.002467  -0.005330   0.010071  -0.000002
    27  H    0.001078  -0.002467   0.427130   0.000304  -0.008091   0.000144
    28  H    0.003478  -0.005330   0.000304   0.503205  -0.024561   0.000099
    29  H   -0.002442   0.010071  -0.008091  -0.024561   0.488145  -0.000030
    30  H    0.000001  -0.000002   0.000144   0.000099  -0.000030   0.488980
    31  H   -0.000003  -0.000000   0.000002  -0.000229  -0.000037  -0.012630
              31
     1  C   -0.097742
     2  O   -0.003167
     3  C   -0.015658
     4  O   -0.000013
     5  C    0.014551
     6  C   -0.025395
     7  C   -0.000193
     8  O   -0.001431
     9  C   -0.000324
    10  C   -0.000078
    11  C   -0.002322
    12  C    0.000214
    13  C    0.498416
    14  H    0.003076
    15  H   -0.006439
    16  H    0.001933
    17  H   -0.003515
    18  H    0.000879
    19  H   -0.002390
    20  H   -0.001795
    21  H    0.000004
    22  H   -0.000018
    23  H    0.000047
    24  H    0.000325
    25  H   -0.000003
    26  H   -0.000000
    27  H    0.000002
    28  H   -0.000229
    29  H   -0.000037
    30  H   -0.012630
    31  H    0.484159
 Mulliken charges:
               1
     1  C   -0.168928
     2  O   -0.275258
     3  C   -0.296589
     4  O   -0.313000
     5  C   -0.075375
     6  C   -0.372159
     7  C   -0.360420
     8  O   -0.243947
     9  C   -0.133522
    10  C   -0.183254
    11  C   -0.367489
    12  C   -0.288881
    13  C   -0.358000
    14  H    0.128991
    15  H    0.203858
    16  H    0.177437
    17  H    0.179601
    18  H    0.250799
    19  H    0.193335
    20  H    0.182433
    21  H    0.187898
    22  H    0.165301
    23  H    0.209478
    24  H    0.152926
    25  H    0.207020
    26  H    0.144908
    27  H    0.305215
    28  H    0.213154
    29  H    0.192123
    30  H    0.172573
    31  H    0.169774
 Sum of Mulliken charges =  -0.00000
 Mulliken charges with hydrogens summed into heavy atoms:
               1
     1  C    0.163921
     2  O   -0.275258
     3  C    0.060449
     4  O   -0.313000
     5  C    0.175424
     6  C    0.003608
     7  C   -0.007221
     8  O   -0.243947
     9  C    0.228882
    10  C    0.168673
    11  C   -0.062274
    12  C    0.116396
    13  C   -0.015653
 Electronic spatial extent (au):  <R**2>=           3054.0096
 Charge=             -0.0000 electrons
 Dipole moment (field-independent basis, Debye):
    X=              1.0806    Y=              1.5338    Z=             -1.7599  Tot=              2.5725
 Quadrupole moment (field-independent basis, Debye-Ang):
   XX=            -74.5424   YY=            -76.1769   ZZ=            -84.8429
   XY=             -3.8723   XZ=              3.7901   YZ=              2.1947
 Traceless Quadrupole moment (field-independent basis, Debye-Ang):
   XX=              3.9783   YY=              2.3438   ZZ=             -6.3222
   XY=             -3.8723   XZ=              3.7901   YZ=              2.1947
 Octapole moment (field-independent basis, Debye-Ang**2):
  XXX=              7.9358  YYY=             -4.7511  ZZZ=             -0.9833  XYY=              6.0904
  XXY=             20.9682  XXZ=            -19.0884  XZZ=             -0.9464  YZZ=              2.8115
  YYZ=              2.6134  XYZ=             -0.5089
 Hexadecapole moment (field-independent basis, Debye-Ang**3):
 XXXX=          -3029.6438 YYYY=           -544.1687 ZZZZ=           -383.7161 XXXY=            -61.9575
 XXXZ=             45.5700 YYYX=              4.3973 YYYZ=             -4.2679 ZZZX=              4.9578
 ZZZY=              8.9682 XXYY=           -616.1630 XXZZ=           -599.4595 YYZZ=           -149.8447
 XXYZ=             24.8641 YYXZ=              9.5049 ZZXY=              2.5224
 N-N= 8.943921338500D+02 E-N=-3.230592256330D+03  KE= 6.153479834510D+02
 D1PCM: PCM CHGder 1st derivatives, ID1Alg=3 FixD1E=F DoIter=F DoCFld=F I1PDM=0.
 Calling FoFJK, ICntrl=      2127 FMM=F ISym2X=0 I1Cent= 0 IOpClX= 0 NMat=1 NMatS=1 NMatT=0.
 ***** Axes restored to original set *****
 -------------------------------------------------------------------
 Center     Atomic                   Forces (Hartrees/Bohr)
 Number     Number              X              Y              Z
 -------------------------------------------------------------------
      1        6          -0.002960433   -0.004380026    0.004371654
      2        8           0.000757479   -0.002681990   -0.009277389
      3        6           0.001434590   -0.000965315   -0.003559703
      4        8           0.003227438   -0.003558102   -0.008332670
      5        6          -0.001091003    0.004176074    0.000539561
      6        6           0.000922550    0.002534542    0.000805425
      7        6          -0.000623495   -0.001934588    0.001987216
      8        8          -0.003388010    0.006295664    0.012585523
      9        6           0.002239055   -0.001850427   -0.003858566
     10        6          -0.006704605    0.001960432   -0.000526734
     11        6           0.000695606   -0.004176173    0.003900899
     12        6           0.002375743    0.007302874   -0.000195687
     13        6           0.002346326    0.000252910    0.001624504
     14        1           0.003876851    0.003608017    0.004251037
     15        1          -0.000896816    0.001800123   -0.003903932
     16        1           0.002904021    0.001621672    0.001453854
     17        1          -0.002208446   -0.000619933    0.001135283
     18        1           0.001875209   -0.006630054   -0.004198334
     19        1          -0.001988273   -0.001637882   -0.002185177
     20        1           0.001242309   -0.001316080    0.002639453
     21        1           0.001154728    0.002088313    0.001805388
     22        1          -0.000338831    0.000814680   -0.003086283
     23        1           0.000033102   -0.002206556    0.003228556
     24        1          -0.002368000    0.002273820   -0.000086020
     25        1           0.003692050    0.000787906   -0.002128682
     26        1           0.000745880   -0.001499601    0.005959238
     27        1          -0.000748173    0.002552895   -0.006875164
     28        1          -0.002473744   -0.003435735   -0.003193913
     29        1          -0.000782210   -0.001550029    0.006290692
     30        1          -0.001291011    0.002388665    0.000858663
     31        1          -0.001659887   -0.002016096   -0.002028695
 -------------------------------------------------------------------
 Cartesian Forces:  Max     0.012585523 RMS     0.003415161

 GradGradGradGradGradGradGradGradGradGradGradGradGradGradGradGradGradGrad
 Berny optimization.
 FormGI is forming the generalized inverse of G from B-inverse, IUseBI=4.
 Internal  Forces:  Max     0.013054875 RMS     0.002098259
 Search for a local minimum.
 Step number   1 out of a maximum of  186
 All quantities printed in internal units (Hartrees-Bohrs-Radians)
 Mixed Optimization -- RFO/linear search
 Second derivative matrix not updated -- first step.
 ITU=  0
     Eigenvalues ---    0.00624   0.00651   0.00730   0.00732   0.01416
     Eigenvalues ---    0.01440   0.01482   0.02700   0.02794   0.03076
     Eigenvalues ---    0.03170   0.04089   0.04367   0.04749   0.04798
     Eigenvalues ---    0.04861   0.04974   0.05113   0.05140   0.05174
     Eigenvalues ---    0.05233   0.05680   0.05729   0.06146   0.06169
     Eigenvalues ---    0.06381   0.06787   0.06806   0.07367   0.07864
     Eigenvalues ---    0.07894   0.07964   0.07999   0.08088   0.08102
     Eigenvalues ---    0.08238   0.08868   0.09356   0.10852   0.11585
     Eigenvalues ---    0.11611   0.11708   0.11757   0.12404   0.12493
     Eigenvalues ---    0.14516   0.14571   0.16105   0.16631   0.17466
     Eigenvalues ---    0.19039   0.21642   0.21769   0.25000   0.28450
     Eigenvalues ---    0.28550   0.28716   0.28855   0.28953   0.29406
     Eigenvalues ---    0.30091   0.30387   0.35064   0.35073   0.35078
     Eigenvalues ---    0.35096   0.35149   0.35211   0.35221   0.35247
     Eigenvalues ---    0.35293   0.35320   0.35361   0.35425   0.35437
     Eigenvalues ---    0.35716   0.35822   0.35855   0.35896   0.35906
     Eigenvalues ---    0.40741   0.41506   0.42217   0.43086   0.43842
     Eigenvalues ---    0.451031000.000001000.000001000.000001000.00000
     Eigenvalues --- 1000.000001000.000001000.000001000.000001000.00000
     Eigenvalues --- 1000.000001000.000001000.000001000.000001000.00000
     Eigenvalues --- 1000.000001000.000001000.000001000.000001000.00000
     Eigenvalues --- 1000.000001000.000001000.000001000.000001000.00000
     Eigenvalues --- 1000.000001000.000001000.000001000.000001000.00000
     Eigenvalues --- 1000.000001000.000001000.000001000.000001000.00000
     Eigenvalues --- 1000.000001000.000001000.000001000.000001000.00000
     Eigenvalues --- 1000.000001000.000001000.000001000.000001000.00000
     Eigenvalues --- 1000.000001000.000001000.000001000.000001000.00000
     Eigenvalues --- 1000.000001000.000001000.000001000.000001000.00000
     Eigenvalues --- 1000.000001000.000001000.000001000.000001000.00000
     Eigenvalues --- 1000.000001000.000001000.000001000.000001000.00000
     Eigenvalues --- 1000.000001000.000001000.000001000.000001000.00000
     Eigenvalues --- 1000.000001000.000001000.000001000.000001000.00000
     Eigenvalues --- 1000.000001000.000001000.000001000.000001000.00000
     Eigenvalues --- 1000.000001000.000001000.000001000.000001000.00000
     Eigenvalues --- 1000.000001000.000001000.000001000.000001000.00000
     Eigenvalues --- 1000.000001000.000001000.000001000.000001000.00000
     Eigenvalues --- 1000.000001000.000001000.000001000.000001000.00000
 RFO step:  Lambda=-3.33626096D-03 EMin= 6.23809708D-03
 Linear search not attempted -- first point.
 Iteration  1 RMS(Cart)=  0.04410610 RMS(Int)=  0.00045660
 Iteration  2 RMS(Cart)=  0.00093461 RMS(Int)=  0.00004623
 Iteration  3 RMS(Cart)=  0.00000047 RMS(Int)=  0.00004623
 Iteration  1 RMS(Cart)=  0.00000802 RMS(Int)=  0.00000169
 Iteration  2 RMS(Cart)=  0.00000419 RMS(Int)=  0.00000189
 Iteration  3 RMS(Cart)=  0.00000219 RMS(Int)=  0.00000212
 Iteration  4 RMS(Cart)=  0.00000115 RMS(Int)=  0.00000227
 Iteration  5 RMS(Cart)=  0.00000060 RMS(Int)=  0.00000235
 Variable       Old X    -DE/DX   Delta X   Delta X   Delta X     New X
                                 (Linear)    (Quad)   (Total)
    R1        2.68797   0.00314   0.00000   0.00728   0.00728   2.69525
    R2        2.87116  -0.00003   0.00000   0.00030   0.00031   2.87147
    R3        2.04990   0.00670   0.00000   0.01874   0.01874   2.06865
    R4        2.04309   0.00439   0.00000   0.01214   0.01214   2.05523
    R5        2.64749   0.00358   0.00000   0.00730   0.00732   2.65481
    R6        2.89024  -0.00150   0.00000  -0.00491  -0.00491   2.88533
    R7        2.88897  -0.00097   0.00000  -0.00247  -0.00248   2.88649
    R8        2.05334   0.00343   0.00000   0.00965   0.00965   2.06298
    R9        2.05159   0.00255   0.00000   0.00716   0.00716   2.05875
   R10        2.67632   0.00335   0.00000   0.00781   0.00783   2.68415
   R11        2.66758   0.00301   0.00000   0.00690   0.00692   2.67450
   R12        2.87276  -0.00084   0.00000  -0.00320  -0.00321   2.86955
   R13        2.65156   0.00344   0.00000   0.00756   0.00756   2.65912
   R14        2.04229   0.00796   0.00000   0.02197   0.02197   2.06427
   R15        2.05317   0.00332   0.00000   0.00935   0.00935   2.06252
   R16        2.04971   0.00317   0.00000   0.00887   0.00887   2.05857
   R17        2.89227  -0.00071   0.00000  -0.00249  -0.00252   2.88975
   R18        2.87281   0.00041   0.00000   0.00131   0.00131   2.87412
   R19        2.05201   0.00297   0.00000   0.00833   0.00833   2.06034
   R20        2.05434   0.00314   0.00000   0.00884   0.00884   2.06317
   R21        2.67564   0.00174   0.00000   0.00400   0.00400   2.67964
   R22        2.87595  -0.00231   0.00000  -0.00768  -0.00770   2.86824
   R23        2.05557   0.00377   0.00000   0.01065   0.01065   2.06621
   R24        2.05093   0.00321   0.00000   0.00900   0.00900   2.05993
   R25        2.04360   0.00433   0.00000   0.01198   0.01198   2.05558
   R26        2.05548   0.00607   0.00000   0.01715   0.01715   2.07263
   R27        2.88534  -0.00004   0.00000  -0.00007  -0.00007   2.88527
   R28        2.04527   0.00734   0.00000   0.02037   0.02037   2.06564
   R29        2.04244   0.00528   0.00000   0.01457   0.01457   2.05701
   R30        2.05571   0.00620   0.00000   0.01752   0.01752   2.07324
   R31        2.05276   0.00283   0.00000   0.00795   0.00795   2.06071
   R32        2.05520   0.00322   0.00000   0.00910   0.00910   2.06430
    A1        1.94364   0.00225   0.00000   0.00580   0.00573   1.94937
    A2        1.90923   0.00016   0.00000   0.00168   0.00175   1.91098
    A3        1.84131  -0.00129   0.00000  -0.00205  -0.00205   1.83926
    A4        1.93204  -0.00155   0.00000  -0.00730  -0.00734   1.92470
    A5        1.94688  -0.00026   0.00000  -0.00155  -0.00148   1.94539
    A6        1.88777   0.00069   0.00000   0.00376   0.00374   1.89151
    A7        2.02447  -0.00538   0.00000  -0.03594  -0.03585   1.98862
    A8        1.91511   0.00199   0.00000  -0.00106  -0.00106   1.91405
    A9        1.92226  -0.00099   0.00000  -0.00657  -0.00659   1.91567
   A10        1.91532  -0.00057   0.00000   0.00169   0.00169   1.91701
   A11        1.91375  -0.00088   0.00000  -0.00210  -0.00218   1.91157
   A12        1.93000  -0.00028   0.00000   0.00199   0.00204   1.93204
   A13        1.86696   0.00067   0.00000   0.00614   0.00615   1.87311
   A14        1.97779  -0.00477   0.00000  -0.02815  -0.02806   1.94974
   A15        1.95163   0.00303   0.00000   0.01045   0.01019   1.96182
   A16        1.95245   0.00013   0.00000  -0.00724  -0.00713   1.94532
   A17        1.82567  -0.00157   0.00000  -0.00606  -0.00605   1.81963
   A18        1.88742  -0.00382   0.00000  -0.01970  -0.01964   1.86779
   A19        1.93327  -0.00022   0.00000   0.00333   0.00342   1.93668
   A20        1.91336   0.00266   0.00000   0.02067   0.02069   1.93404
   A21        1.95323  -0.00140   0.00000  -0.01424  -0.01438   1.93886
   A22        1.91149   0.00125   0.00000   0.00883   0.00892   1.92042
   A23        1.94706  -0.00043   0.00000  -0.00257  -0.00268   1.94438
   A24        1.87235  -0.00003   0.00000   0.00398   0.00400   1.87635
   A25        1.90139   0.00063   0.00000  -0.00183  -0.00183   1.89957
   A26        1.87519   0.00004   0.00000   0.00692   0.00689   1.88209
   A27        1.92889  -0.00080   0.00000  -0.00581  -0.00586   1.92303
   A28        1.92790  -0.00047   0.00000  -0.00064  -0.00063   1.92727
   A29        1.91915   0.00080   0.00000   0.00141   0.00142   1.92057
   A30        1.90843   0.00075   0.00000   0.00484   0.00486   1.91329
   A31        1.90385  -0.00026   0.00000  -0.00272  -0.00272   1.90112
   A32        1.87466   0.00001   0.00000   0.00318   0.00317   1.87783
   A33        2.06449  -0.01305   0.00000  -0.05153  -0.05153   2.01296
   A34        1.91943   0.00119   0.00000  -0.00307  -0.00311   1.91632
   A35        1.91569  -0.00015   0.00000   0.00350   0.00348   1.91916
   A36        1.93439   0.00017   0.00000   0.00603   0.00604   1.94043
   A37        1.89760  -0.00104   0.00000  -0.00709  -0.00708   1.89052
   A38        1.91887  -0.00060   0.00000  -0.00340  -0.00337   1.91549
   A39        1.87706   0.00038   0.00000   0.00394   0.00390   1.88096
   A40        1.93620   0.00198   0.00000   0.00923   0.00924   1.94544
   A41        1.85587  -0.00129   0.00000  -0.00431  -0.00431   1.85156
   A42        1.90161   0.00070   0.00000   0.00691   0.00694   1.90855
   A43        1.94500  -0.00029   0.00000  -0.00296  -0.00297   1.94203
   A44        1.93092  -0.00166   0.00000  -0.00986  -0.00988   1.92103
   A45        1.89196   0.00059   0.00000   0.00136   0.00132   1.89328
   A46        1.88906  -0.00083   0.00000  -0.00256  -0.00255   1.88651
   A47        1.92442   0.00058   0.00000   0.00227   0.00228   1.92670
   A48        1.91545   0.00019   0.00000   0.00413   0.00412   1.91958
   A49        1.91918  -0.00015   0.00000  -0.00289  -0.00293   1.91625
   A50        1.91227   0.00064   0.00000   0.00155   0.00156   1.91383
   A51        1.90343  -0.00041   0.00000  -0.00245  -0.00245   1.90098
   A52        1.92750   0.00197   0.00000   0.00973   0.00977   1.93727
   A53        1.86093  -0.00096   0.00000   0.00024   0.00025   1.86118
   A54        1.91656   0.00128   0.00000   0.01166   0.01172   1.92828
   A55        1.94716  -0.00053   0.00000  -0.00552  -0.00558   1.94158
   A56        1.91492  -0.00247   0.00000  -0.01659  -0.01666   1.89826
   A57        1.89583   0.00079   0.00000   0.00125   0.00113   1.89696
   A58        1.92361  -0.00114   0.00000  -0.00580  -0.00600   1.91761
   A59        1.90289   0.00063   0.00000   0.00385   0.00390   1.90679
   A60        1.90542   0.00005   0.00000  -0.00199  -0.00194   1.90348
   A61        1.93860  -0.00042   0.00000  -0.00109  -0.00106   1.93754
   A62        1.91676   0.00093   0.00000   0.00159   0.00166   1.91842
   A63        1.87567  -0.00002   0.00000   0.00368   0.00365   1.87932
    D1       -0.99428   0.00034   0.00000  -0.01802  -0.01790  -1.01218
    D2        1.14696  -0.00001   0.00000  -0.02222  -0.02215   1.12481
    D3       -3.10926   0.00019   0.00000  -0.01812  -0.01803  -3.12729
    D4        0.95875   0.00128   0.00000   0.01837   0.01843   0.97718
    D5        3.09086   0.00044   0.00000   0.01582   0.01581   3.10667
    D6       -1.14794   0.00080   0.00000   0.02129   0.02131  -1.12663
    D7       -1.16932   0.00061   0.00000   0.01732   0.01738  -1.15194
    D8        0.96279  -0.00024   0.00000   0.01476   0.01477   0.97756
    D9        3.00717   0.00013   0.00000   0.02024   0.02027   3.02744
[...]
 0202825,0.00000146,0.00000229,0.00000406,-0.00000705,0.00000402,-0.000
 00010,0.00000095,0.00000234,0.00000052,-0.00000054,-0.00000095,-0.0000
 0029,-0.00000207,0.00000187,-0.00000028,0.00002103,0.00002219,0.000014
 51,0.00000049,-0.00000059,-0.00000088,-0.00000071,-0.00000063,0.000000
 29,0.00005644,-0.00008488,0.00002827,-0.00029255,-0.00056720,0.0006563
 4,-0.00042182,-0.00008882,0.00030538,0.00053325,0.00014316,0.00014318,
 -0.11770075,-0.01860436,0.11873119,0.00000007,-0.00000381,-0.00000189,
 0.00000126,0.00000678,-0.00000126,0.00000068,-0.00000005,0.00000030,-0
 .00770109,-0.00239285,-0.02154110,0.00002201,0.00001357,0.00003038,-0.
 00000413,-0.00000339,-0.00000385,-0.00273505,0.00972987,-0.01531572,-0
 .00018348,0.00006431,0.00013224,0.00090206,-0.00032936,-0.00132143,-0.
 06126046,0.01760219,-0.03029519,-0.00033192,-0.00011441,0.00020630,0.0
 0204073,0.00203340,-0.00395842,0.00000001,0.00000017,0.00000095,-0.000
 00034,0.00000116,0.00000118,0.00000073,0.00000023,0.00000018,-0.000000
 67,-0.00000024,-0.00000064,-0.00000135,-0.00000023,-0.00000078,0.00000
 481,-0.00000440,-0.00000437,-0.00000205,-0.00000064,0.00000101,-0.0000
 0005,-0.00000057,-0.00000047,0.00056672,-0.00028242,0.00028971,-0.0009
 9084,0.00294021,0.00017462,-0.00004278,-0.00000486,0.00032273,0.000205
 19,-0.00010792,0.00025218,0.00670913,-0.01131235,0.02405526,0.06242575
 ,-0.00000459,0.00000009,-0.00000048,0.00000396,0.00000014,0.00000139,0
 .00000019,-0.00000059,0.00000141,-0.01255977,0.00441712,-0.02903003,0.
 00002702,0.00001986,-0.00000834,0.00000420,0.00000578,0.00000655,0.005
 21613,-0.01349976,0.02678050,-0.00006171,0.00024414,0.00015073,-0.0013
 1934,0.00103755,0.00044704,0.01787808,-0.09563832,0.09849493,-0.000215
 88,-0.00047598,0.00016259,0.00276052,0.00216761,-0.00340831,-0.0000001
 1,0.00000061,0.00000118,-0.00000296,0.00000039,0.00000030,0.00000071,0
 .00000017,-0.00000047,-0.00000090,-0.00000042,-0.00000061,-0.00000066,
 0.00000020,-0.00000092,0.00001027,0.00000397,0.00000141,0.00000276,-0.
 00000031,-0.00000175,-0.00000002,0.00000017,-0.00000047,-0.00065311,0.
 00084932,-0.00027761,0.00396771,-0.00430008,-0.00101673,0.00045792,0.0
 0034716,-0.00059552,-0.00022478,0.00003997,-0.00038941,0.00125231,-0.0
 0126887,0.00394494,-0.01748444,0.10628509,0.00004188,-0.00004345,-0.00
 000604,-0.00011106,0.00005273,-0.00007484,-0.00000528,-0.00001356,0.00
 000500,-0.01397474,-0.00623021,-0.02653829,0.00024586,0.00009487,0.000
 23520,-0.00001965,-0.00000101,-0.00003575,0.00198375,-0.00047523,0.003
 33740,-0.00066354,0.00002676,0.00005921,-0.00019629,-0.00051225,0.0006
 2613,-0.03371290,0.09593082,-0.24058459,0.00021939,-0.00051766,0.00003
 915,0.00355534,0.00144963,0.00045676,0.00000254,0.00000348,0.00000324,
 0.00000630,-0.00000695,0.00000224,-0.00000812,0.00000513,-0.00000565,0
 .00000199,-0.00000292,-0.00000580,-0.00001014,0.00000481,0.00000275,0.
 00001283,-0.00000372,-0.00001655,-0.00002255,-0.00000379,0.00000647,0.
 00000133,0.00000098,0.00000192,-0.00043847,0.00084260,0.00026233,0.000
 83754,-0.00077514,0.00108272,-0.00055661,-0.00003141,-0.00000783,-0.00
 011633,0.00003403,0.00013592,-0.00176745,0.00710907,-0.01172994,0.0459
 5468,-0.09627910,0.27156980,-0.00083675,0.00025921,-0.00010765,-0.0025
 4649,0.00014363,-0.00146536,0.00008585,-0.00003911,0.00005302,0.001946
 79,-0.00087402,0.00030898,0.00295009,-0.00039818,0.00347379,-0.0000808
 6,0.00011464,-0.00032796,0.00062910,0.00053392,-0.00053528,-0.00599344
 ,-0.01590316,0.03538274,-0.00255675,0.00495679,-0.01256704,-0.00017249
 ,-0.00007991,-0.00009231,-0.06275498,0.02311022,-0.05831314,-0.0038937
 4,0.00813604,-0.01768829,0.00002094,-0.00002662,0.00013278,0.00002781,
 0.00013475,0.00026451,0.00003195,-0.00001414,-0.00003615,0.00001813,-0
 .00005747,-0.00004768,-0.00003328,0.00001655,-0.00003746,-0.00028018,-
 0.00016449,-0.00035353,-0.00014519,0.00003364,-0.00004978,0.00011129,0
 .00009501,-0.00017492,0.00010955,-0.00005831,0.00010905,-0.00022828,-0
 .00029574,0.00017193,-0.00070723,-0.00211054,-0.00135558,0.00060240,-0
 .00016008,0.00075169,-0.00003510,0.00002119,-0.00000112,0.00008659,-0.
 00003847,0.00007976,0.07478275,0.00009693,0.00070301,0.00009527,0.0007
 1235,0.00038596,-0.00090329,0.00004679,-0.00000512,0.00000846,-0.00113
 087,0.00217152,-0.00145128,0.00089676,0.00029939,0.00303365,-0.0000569
 5,-0.00013788,-0.00011938,0.00104593,0.00086228,0.00002172,-0.00631934
 ,-0.00369063,0.00929163,-0.00592153,0.00819923,-0.02371345,-0.00017294
 ,-0.00034160,-0.00029547,0.02185263,-0.08370936,0.07976359,0.00824325,
 -0.01233199,0.02699979,0.00001761,-0.00015885,-0.00006013,-0.00001765,
 -0.00020277,-0.00025546,-0.00002794,-0.00004777,0.00003332,0.00000689,
 -0.00002404,-0.00001972,-0.00000920,-0.00000922,-0.00000311,-0.0000982
 1,-0.00020838,-0.00016678,-0.00008031,0.00000991,-0.00000245,-0.000011
 51,0.00002788,-0.00007942,0.00027126,-0.00010621,0.00015754,-0.0000659
 8,-0.00017246,0.00038965,-0.00268232,-0.00281692,-0.00308923,0.0006786
 6,0.00107987,0.00060499,0.00000661,0.00010418,0.00001628,-0.00009568,-
 0.00013226,0.00008662,-0.01966205,0.09298312,0.00038800,-0.00036379,0.
 00014015,-0.00364276,-0.00166527,0.00159687,-0.00002407,0.00007671,-0.
 00004594,-0.00137948,-0.00052370,0.00075719,-0.00308709,-0.00090593,-0
 .00348986,0.00013192,0.00016462,0.00005824,0.00036420,0.00046814,0.000
 31110,0.00993112,0.00963166,-0.01606940,-0.00525139,0.00487500,-0.0169
 5901,-0.00010533,-0.00001188,0.00002670,-0.05041700,0.08261646,-0.2598
 6968,0.00102342,-0.00142998,0.00323298,-0.00007676,-0.00003262,-0.0000
 8485,0.00049550,-0.00020578,-0.00014801,-0.00000275,-0.00002948,-0.000
 08996,-0.00001295,0.00003200,0.00003593,0.00003908,-0.00002668,0.00001
 353,0.00021283,0.00021392,0.00029366,0.00015787,0.00000406,-0.00000172
 ,0.00005439,-0.00004841,0.00010560,0.00006865,-0.00023042,0.00035011,-
 0.00048939,-0.00012656,0.00049987,-0.00123790,-0.00218889,-0.00080794,
 0.00050534,0.00015442,0.00067064,-0.00000289,0.00004007,0.00000922,0.0
 0007227,0.00000932,-0.00011564,0.05140249,-0.09004105,0.28818053,-0.00
 001622,0.00015799,0.00002152,0.00017638,-0.00019666,-0.00000441,0.0000
 5821,0.00004596,-0.00001813,-0.02417960,-0.02827298,-0.01878098,-0.001
 14682,0.00010461,-0.00015455,-0.00002147,-0.00019307,0.00002619,-0.000
 73535,-0.00035847,-0.00024985,0.00171221,-0.00208712,-0.00109606,-0.00
 311264,0.00340535,0.00007956,-0.00340053,0.00055571,0.00520046,0.01099
 211,0.01410784,0.01290745,-0.08421376,-0.06474931,-0.05839739,-0.00000
 497,-0.00003248,-0.00001716,0.00000956,-0.00001456,-0.00000823,0.00001
 090,-0.00001612,0.00000730,-0.00000109,0.00000501,0.00000554,0.0000218
 1,-0.00002308,-0.00000933,-0.00209577,0.00030246,0.00019455,0.00000814
 ,0.00001512,0.00000107,-0.00000182,0.00000848,0.00000122,0.00024103,-0
 .00020276,-0.00007006,0.00010583,-0.00001496,-0.00001571,-0.00007261,-
 0.00009608,-0.00003378,0.00057599,0.00116470,0.00070675,-0.00090751,-0
 .00145198,-0.00075803,0.00009841,0.00018636,-0.00007492,0.00075259,-0.
 00092109,-0.00032869,0.10586398,-0.00001299,-0.00008547,-0.00006338,0.
 00010552,0.00018563,0.00010317,-0.00010511,-0.00007821,0.00005818,-0.0
 0921239,-0.00644062,-0.00329450,-0.00010160,-0.00082257,-0.00052257,0.
 00005157,0.00040892,0.00012564,0.00023923,0.00033873,-0.00016897,0.000
 52712,0.00142418,0.00064001,0.00439335,-0.00275073,0.00093555,0.000193
 55,0.00147636,0.00232884,-0.01168712,-0.01880094,-0.01710484,-0.070097
 03,-0.17991915,-0.11205463,0.00001255,0.00001372,0.00002437,-0.0000286
 0,0.00004137,0.00000721,-0.00000130,0.00003269,0.00000661,0.00000351,0
 .00000909,0.00000814,-0.00002639,0.00004334,0.00001248,0.00005401,0.00
 068232,0.00027094,0.00003913,-0.00000150,-0.00002238,-0.00000875,-0.00
 001294,0.00001639,-0.00007597,-0.00005025,-0.00001502,-0.00005818,-0.0
 0001370,0.00008420,-0.00000861,0.00009587,-0.00014763,-0.00069867,-0.0
 0113882,-0.00094073,-0.00022903,-0.00019520,-0.00034324,-0.00008119,-0
 .00002027,-0.00034293,-0.00048028,0.00109025,0.00037480,0.08181020,0.1
 9445057,0.00001330,0.00001152,-0.00006824,0.00013975,0.00019007,0.0000
 1583,-0.00005622,-0.00004793,0.00004997,0.00985434,0.01350976,0.011224
 86,-0.00022404,-0.00117989,-0.00041489,0.00002741,0.00025665,0.0000528
 2,0.00032311,0.00031186,0.00001124,0.00056938,0.00022319,0.00002973,0.
 00079187,-0.00073392,0.00080941,0.00204450,0.00082841,-0.00074517,-0.0
 0124462,0.00090478,-0.00022914,-0.06779176,-0.11781359,-0.15561225,0.0
 0001099,-0.00000645,0.00001076,-0.00001806,0.00001921,0.00000597,-0.00
 000592,0.00002234,0.00000543,0.00000118,0.00001107,0.00000610,-0.00001
 360,0.00002936,0.00001029,-0.00012504,0.00037798,0.00045065,0.00001700
 ,0.00000264,-0.00001282,-0.00000480,-0.00000738,0.00000485,-0.00013698
 ,0.00005148,-0.00000753,-0.00001393,-0.00002446,0.00000121,0.00012638,
 0.00029273,0.00040587,-0.00028142,-0.00036815,0.00009945,0.00037570,0.
 00023324,0.00047945,0.00025548,0.00003144,0.00046261,0.00056473,-0.000
 14837,0.00053418,0.06524904,0.12287120,0.15783602,0.00013736,-0.000109
 16,0.00002410,-0.00033265,-0.00009617,0.00007362,-0.00001789,-0.000017
 93,-0.00000071,-0.00887410,-0.01911424,0.03576008,0.00003903,-0.000074
 94,-0.00014794,-0.00002167,0.00005134,-0.00004503,-0.00039844,-0.00021
 413,-0.00044823,0.00197256,-0.00071124,-0.00021560,0.00038261,-0.00132
 573,-0.00027766,0.00351917,0.00197417,0.00513088,-0.00386568,0.0094403
 2,-0.01932721,-0.05754596,0.01695426,-0.04718853,-0.00001441,0.0000030
 6,-0.00001867,0.00004108,-0.00004715,-0.00002503,-0.00001799,0.0000075
 5,-0.00001397,0.00000453,0.00000308,-0.00000199,-0.00001227,0.00000914
 ,0.00001100,0.00007038,0.00002811,0.00001426,-0.00002083,-0.00000160,0
 .00000521,0.00000421,-0.00000734,0.00001236,0.00021213,-0.00015902,-0.
 00014178,-0.00014149,0.00008521,-0.00003972,0.00031961,0.00002561,0.00
 054652,-0.00007413,-0.00019631,0.00022976,0.00001749,0.00024721,-0.000
 17828,0.00018947,0.00079814,-0.00125595,-0.00198675,0.00339153,0.00125
 041,-0.00073164,0.00549112,-0.01044605,0.06717315,-0.00013447,0.000114
 32,-0.00003663,0.00035804,0.00011881,-0.00013164,0.00000141,-0.0000021
 6,0.00002011,-0.00696143,-0.00248493,0.00932443,-0.00009874,-0.0003025
 8,0.00010638,0.00001886,0.00006111,0.00003229,-0.00013200,-0.00026932,
 -0.00022188,-0.00163920,0.00189058,-0.00123981,-0.00005735,0.00137544,
 0.00146037,0.00105847,0.00040825,0.00251320,0.00755084,-0.01310613,0.0
 2697666,0.01721619,-0.08824150,0.08005508,0.00001349,-0.00000021,0.000
 01888,-0.00007206,0.00005132,0.00001516,0.00001152,-0.00000222,0.00001
 323,-0.00000592,0.00000192,0.00000077,0.00000395,0.00000366,-0.0000046
 7,0.00003939,-0.00000287,0.00005912,0.00001681,-0.00000048,-0.00000600
 ,0.00000594,-0.00000060,-0.00000437,-0.00002153,-0.00005451,-0.0000475
 4,0.00003511,0.00011845,-0.00006574,-0.00011403,-0.00026688,-0.0007682
 6,0.00001026,0.00036633,-0.00038269,-0.00003163,0.00007426,-0.00025814
 ,-0.00017334,-0.00008243,-0.00040393,0.00275538,-0.00381623,-0.0008232
 9,-0.00323597,0.01003313,-0.01985190,-0.01643708,0.09401581,0.00006051
 ,-0.00006038,0.00000112,-0.00002426,0.00004150,-0.00004702,-0.00003226
 ,-0.00003450,0.00002127,0.01245517,0.00975671,-0.01622010,0.00011216,-
 0.00000599,0.00013896,-0.00001361,0.00009639,-0.00002784,0.00034265,0.
 00004993,0.00010929,-0.00156385,-0.00068823,0.00116662,0.00027985,-0.0
 0042891,0.00085865,-0.00191904,-0.00266596,0.00097860,0.00081683,-0.00
 106276,-0.00043801,-0.04438531,0.08270144,-0.25050725,0.00000816,0.000
 00691,0.00001210,0.00000656,0.00000824,0.00001454,-0.00000559,0.000012
 24,-0.00000291,0.00000282,-0.00000214,-0.00000623,-0.00001820,0.000015
 38,0.00000539,0.00001481,0.00013124,-0.00003014,-0.00002144,-0.0000087
 1,0.00000621,-0.00001301,0.00000043,0.00000785,-0.00002317,0.00015351,
 0.00003399,-0.00013982,-0.00001614,-0.00017537,0.00034263,0.00035545,0
 .00023378,-0.00007778,0.00004418,0.00013895,0.00026100,-0.00006857,0.0
 0044769,0.00069599,0.00097660,0.00083076,0.00053393,-0.00013593,0.0007
 7740,-0.00438265,0.00715779,-0.01540818,0.03669685,-0.09633245,0.27708
 190,-0.00713462,0.02635588,0.00390328,-0.00683667,0.00187549,0.0040451
 5,-0.00274449,0.00422518,0.00040346,-0.00008363,0.00000106,0.00000555,
 0.00091254,-0.00129851,0.00174154,0.00094725,-0.00008395,-0.00111733,0
 .00000452,-0.00001472,-0.00002766,-0.00051943,-0.00008306,-0.00036133,
 -0.00003700,0.00003600,0.00001379,0.00002015,0.00001057,0.00002534,0.0
 0023940,0.00003097,-0.00009355,0.00004918,-0.00004400,0.00000776,-0.08
 382516,0.08439695,0.02327495,0.00076130,-0.00035841,-0.00106570,0.0008
 8364,-0.00035448,0.00011744,0.00006532,0.00002463,0.00026808,0.0002245
 6,-0.00027655,-0.00028454,0.00001404,0.00013932,-0.00019940,-0.0000750
 4,0.00035085,0.00015341,0.00017046,0.00022687,0.00018995,-0.00001592,-
 0.00000565,0.00000190,-0.00000074,0.00000099,0.00000357,-0.00000976,-0
 .00000766,-0.00001374,0.00000289,-0.00000395,-0.00000001,-0.00000753,-
 0.00000116,-0.00000074,0.00000041,-0.00000023,-0.00000545,0.00004025,0
 .00003080,-0.00000461,0.00001451,-0.00000908,-0.00000174,-0.00001114,0
 .00000761,-0.00000772,0.08802540,-0.00182963,0.00343127,0.00077406,-0.
 00084480,0.00169085,0.00089650,0.00549691,-0.01464451,-0.00477318,0.00
 006423,-0.00000292,-0.00000605,-0.00101469,-0.00002235,0.00031068,0.00
 039409,-0.00031150,0.00434473,-0.00000159,0.00001103,0.00002386,0.0003
 7246,0.00009776,-0.00007271,0.00003111,-0.00001141,-0.00003397,-0.0000
 1428,-0.00000644,-0.00001864,-0.00016067,-0.00004039,0.00007899,-0.000
 02654,0.00003190,-0.00000109,0.08651114,-0.26442341,-0.05883591,0.0005
 0503,0.00035678,-0.00032643,0.00061577,0.00010739,-0.00027949,0.000080
 08,0.00087061,0.00003813,-0.00049117,0.00027374,-0.00024112,0.00006377
 ,0.00004745,-0.00016379,-0.00020954,0.00031269,0.00002488,0.00083220,-
 0.00091887,-0.00043521,0.00001267,0.00000463,-0.00000151,0.00000053,-0
 .00000031,-0.00000279,0.00000246,-0.00000022,0.00000580,-0.00000527,-0
 .00000113,-0.00000131,0.00000574,0.00000029,0.00000043,0.00000012,-0.0
 0000022,0.00000399,-0.00000007,0.00000352,-0.00000549,-0.00000548,0.00
 000598,0.00000386,0.00000728,-0.00000359,0.00000488,-0.09543499,0.2859
 1844,0.00220148,-0.01623064,-0.00371669,0.00582303,-0.00151026,-0.0012
 5601,-0.01151533,0.02660346,0.00790340,0.00001770,-0.00000083,-0.00000
 155,0.00002264,0.00097315,-0.00193055,-0.00074649,0.00261872,-0.005335
 45,-0.00000469,-0.00000237,0.00000446,0.00017192,-0.00008512,0.0004073
 5,-0.00000558,-0.00002062,0.00002506,-0.00000577,-0.00000043,-0.000006
 93,-0.00005719,0.00002657,-0.00003453,-0.00002672,0.00001086,0.0000112
 1,0.02433967,-0.05916961,-0.06257586,-0.00014809,0.00028891,0.00063087
 ,-0.00084038,0.00021922,0.00006527,0.00009373,-0.00088473,0.00125838,0
 .00058777,-0.00083092,0.00114641,-0.00009070,-0.00021361,0.00024118,0.
 00013210,0.00006832,0.00003952,-0.00088514,0.00153268,0.00041778,0.000
 00344,0.00000164,0.00000026,0.00000020,-0.00000061,-0.00000142,0.00000
 923,0.00000908,0.00000923,-0.00000091,-0.00000172,-0.00000249,0.000002
 42,-0.00000065,-0.00000026,-0.00000016,-0.00000019,0.00000177,-0.00004
 033,-0.00003009,0.00003701,-0.00000449,0.00000057,-0.00000477,0.000007
 88,-0.00000813,0.00000215,-0.02629481,0.06201958,0.06746133,-0.0226141
 1,-0.01604398,-0.01608137,0.00307522,0.00052822,-0.00050514,-0.0033486
 7,-0.00208204,-0.00294715,-0.00004687,0.00000292,0.00000849,-0.0002736
 4,-0.00012653,-0.00000797,-0.00012503,-0.00031788,-0.00000485,0.000002
 45,0.00001257,-0.00002260,-0.00005318,0.00022470,-0.00002921,0.0000158
 6,-0.00001994,0.00001844,0.00000689,-0.00000469,0.00001712,0.00021180,
 -0.00002017,0.00002805,0.00003233,-0.00001525,-0.00003590,-0.16525063,
 -0.07971070,-0.09949405,-0.00414745,-0.00037463,0.00348617,0.00140750,
 0.00039130,0.00007754,0.00092698,0.00050354,-0.00067285,0.00056032,0.0
 0039938,0.00002789,-0.00007452,0.00004489,-0.00002680,-0.00019983,0.00
 035645,-0.00003476,0.00009720,0.00014007,0.00007650,-0.00001123,-0.000
 00448,0.00000037,0.00000033,-0.00000016,0.00000305,-0.00001409,0.00001
 138,-0.00000954,0.00002004,0.00003964,0.00002901,-0.00000696,0.0000033
 4,0.00000129,0.00000019,0.00000068,-0.00000372,0.00005542,-0.00002446,
 -0.00003443,0.00000013,0.00000142,0.00000003,-0.00001572,0.00001147,-0
 .00000221,0.00892533,0.00504313,0.00725356,0.18084396,-0.00291415,-0.0
 0456898,-0.00297294,0.00037184,0.00187235,0.00051461,0.01300970,0.0081
 3337,0.01087324,-0.00002740,-0.00000105,0.00000349,0.00016920,-0.00026
 567,0.00046757,0.00028901,0.00139668,0.00013677,0.00000189,-0.00000382
 ,-0.00001334,-0.00025203,0.00005438,-0.00015795,-0.00000534,-0.0000017
 7,0.00001239,0.00000604,0.00000007,0.00000937,0.00013807,-0.00002578,-
 0.00007612,0.00001825,-0.00000678,-0.00000910,-0.08159026,-0.10697259,
 -0.07026873,-0.00076974,0.00110960,0.00105787,0.00002101,-0.00002029,0
 .00000369,0.00112531,-0.00126329,0.00325577,-0.00030303,0.00070221,-0.
 00086774,-0.00002573,0.00003762,-0.00007124,-0.00033243,-0.00015966,-0
 .00010756,-0.00026134,0.00011196,-0.00006950,-0.00000675,-0.00000258,0
 .00000090,-0.00000066,-0.00000007,0.00000155,-0.00000795,0.00000578,-0
 .00000311,0.00000782,0.00001100,0.00001144,-0.00000344,0.00000072,0.00
 000055,0.00000014,0.00000015,-0.00000226,0.00005165,-0.00000843,-0.000
 00198,0.00000236,-0.00000182,-0.00000077,-0.00000509,0.00000326,-0.000
 00213,-0.01973676,-0.01277704,-0.01538225,0.09102979,0.11264048,0.0145
 7477,0.00995986,0.01031757,-0.00204971,0.00066162,0.00049000,-0.019237
 56,-0.01316997,-0.01883174,-0.00002337,0.00000550,0.00000115,0.0000987
 5,0.00019490,-0.00016044,0.00059637,-0.00121838,0.00100514,-0.00000140
 ,-0.00001238,-0.00000021,-0.00017316,-0.00012021,0.00010276,-0.0000171
 1,0.00001005,0.00000659,0.00000545,0.00000630,0.00000148,0.00005136,0.
 00010420,-0.00006404,-0.00000881,-0.00002278,0.00004324,-0.10083880,-0
 .07095051,-0.13196806,0.00376533,-0.00003017,-0.00115685,-0.00090936,0
 .00003261,0.00107232,-0.00084282,0.00399292,-0.00396312,0.00060881,-0.
 00049311,0.00099347,-0.00010975,-0.00002787,0.00007331,-0.00006508,0.0
 0063547,0.00042426,0.00039751,0.00014553,0.00011289,-0.00000044,-0.000
 00042,0.00000076,-0.00000132,0.00000015,0.00000044,0.00000876,-0.00000
 489,0.00000474,-0.00001403,-0.00001996,-0.00002175,0.00000020,-0.00000
 216,-0.00000075,-0.00000019,-0.00000040,-0.00000046,-0.00003581,0.0000
 1211,0.00005111,0.00000378,-0.00000528,-0.00000373,0.00000941,-0.00000
 862,-0.00000417,-0.00467684,-0.00333167,-0.00479613,0.10888507,0.07365
 754,0.14627019\\-0.00000022,-0.00000260,0.00000322,0.00090227,-0.00057
 169,-0.00065407,0.00000009,0.00000044,-0.00000113,0.00000059,-0.000001
 25,-0.00000112,-0.00144684,0.00128720,0.00078242,-0.00000500,-0.000000
 85,-0.00000056,-0.00000046,-0.00000086,-0.00000357,0.00103302,-0.00186
 200,0.00014418,-0.00000130,0.00000004,-0.00000222,-0.00000141,0.000000
 73,0.00000118,-0.00048656,0.00114911,-0.00027109,0.00000149,0.00000168
 ,0.00000182,-0.00000075,-0.00000160,-0.00000100,0.00000105,0.00000093,
 -0.00000089,0.00000060,-0.00000324,-0.00000088,0.00000044,0.00000183,-
 0.00000026,-0.00000022,0.00000274,0.00000056,0.00000013,-0.00000075,0.
 00000013,0.00000075,0.00000050,0.00000342,0.00000149,0.00000164,0.0000
 0229,0.00000025,-0.00000046,-0.00000197,-0.00000048,-0.00000071,-0.000
 00144,0.00000017,0.00000133,-0.00000055,0.,0.00000086,-0.00000163,-0.0
 0000064,-0.00000161,-0.00000104,0.00000018,0.00000041,0.00000047,-0.00
 000097,-0.00000085,-0.00000011,0.00000185,-0.00000009,0.00000233,0.000
 00029,0.00000008,0.00000251,0.00000074,-0.00000003,-0.00000134,-0.0000
 0056,-0.00000094,0.00000032\\\@


 UNDER MOST GREENE GRASSE LY MOST GREATE SNAKES.
 -- PROVERBS AND REASONS OF THE YEAR 1585
           AS REPRINTED IN PAISLEY MAGAZINE 1828.
 Job cpu time:       0 days 16 hours 27 minutes 16.1 seconds.
 Elapsed time:       0 days  1 hours  1 minutes 44.0 seconds.
 File lengths (MBytes):  RWF=    685 Int=      0 D2E=      0 Chk=     33 Scr=      1
 Normal termination of Gaussian 16 at Sun Nov  4 23:24:06 2018.
