 Entering Gaussian System, Link 0=g16
 Initial command:
 /apps/gaussian/g16a03/g16/l1.exe "/jobfs/local/2012055.r-man2/Gau-17940.inp" -scrdir="/jobfs/local/2012055.r-man2/"
 Entering Link 1 = /apps/gaussian/g16a03/g16/l1.exe PID=     17941.
  
 Copyright (c) 1988,1990,1992,1993,1995,1998,2003,2009,2016,
            Gaussian, Inc.  All Rights Reserved.
  
 This is part of the Gaussian(R) 16 program.  It is based on
 the Gaussian(R) 09 system (copyright 2009, Gaussian, Inc.),
 the Gaussian(R) 03 system (copyright 2003, Gaussian, Inc.),
 the Gaussian(R) 98 system (copyright 1998, Gaussian, Inc.),
 the Gaussian(R) 94 system (copyright 1995, Gaussian, Inc.),
 the Gaussian 92(TM) system (copyright 1992, Gaussian, Inc.),
 the Gaussian 90(TM) system (copyright 1990, Gaussian, Inc.),
 the Gaussian 88(TM) system (copyright 1988, Gaussian, Inc.),
 the Gaussian 86(TM) system (copyright 1986, Carnegie Mellon
 University), and the Gaussian 82(TM) system (copyright 1983,
 Carnegie Mellon University). Gaussian is a federally registered
 trademark of Gaussian, Inc.
  
 This software contains proprietary and confidential information,
 including trade secrets, belonging to Gaussian, Inc.
  
 This software is provided under written license and may be
 used, copied, transmitted, or stored only in accord with that
 written license.
  
 The following legend is applicable only to US Government
 contracts under FAR:
  
                    RESTRICTED RIGHTS LEGEND
  
 Use, reproduction and disclosure by the US Government is
 subject to restrictions as set forth in subparagraphs (a)
 and (c) of the Commercial Computer Software - Restricted
 Rights clause in FAR 52.227-19.
  
 Gaussian, Inc.
 340 Quinnipiac St., Bldg. 40, Wallingford CT 06492
  
  
 ---------------------------------------------------------------
 Warning -- This program may not be used in any manner that
 competes with the business of Gaussian, Inc. or will provide
 assistance to any competitor of Gaussian, Inc.  The licensee
 of this program is prohibited from giving any competitor of
 Gaussian, Inc. access to this program.  By using this program,
 the user acknowledges that Gaussian, Inc. is engaged in the
 business of creating and licensing software in the field of
 computational chemistry and represents and warrants to the
 licensee that it is not a competitor of Gaussian, Inc. and that
 it will not use this program in any manner prohibited above.
 ---------------------------------------------------------------
  

 Cite this work as:
 Gaussian 16, Revision A.03,
 M. J. Frisch, G. W. Trucks, H. B. Schlegel, G. E. Scuseria, 
 M. A. Robb, J. R. Cheeseman, G. Scalmani, V. Barone, 
 G. A. Petersson, H. Nakatsuji, X. Li, M. Caricato, A. V. Marenich, 
 J. Bloino, B. G. Janesko, R. Gomperts, B. Mennucci, H. P. Hratchian, 
 J. V. Ortiz, A. F. Izmaylov, J. L. Sonnenberg, D. Williams-Young, 
 F. Ding, F. Lipparini, F. Egidi, J. Goings, B. Peng, A. Petrone, 
 T. Henderson, D. Ranasinghe, V. G. Zakrzewski, J. Gao, N. Rega, 
 G. Zheng, W. Liang, M. Hada, M. Ehara, K. Toyota, R. Fukuda, 
 J. Hasegawa, M. Ishida, T. Nakajima, Y. Honda, O. Kitao, H. Nakai, 
 T. Vreven, K. Throssell, J. A. Montgomery, Jr., J. E. Peralta, 
 F. Ogliaro, M. J. Bearpark, J. J. Heyd, E. N. Brothers, K. N. Kudin, 
 V. N. Staroverov, T. A. Keith, R. Kobayashi, J. Normand, 
 K. Raghavachari, A. P. Rendell, J. C. Burant, S. S. Iyengar, 
 J. Tomasi, M. Cossi, J. M. Millam, M. Klene, C. Adamo, R. Cammi, 
 J. W. Ochterski, R. L. Martin, K. Morokuma, O. Farkas, 
 J. B. Foresman, and D. J. Fox, Gaussian, Inc., Wallingford CT, 2016.
 
 ******************************************
 Gaussian 16:  ES64L-G16RevA.03 25-Dec-2016
                 4-Nov-2018 
 ******************************************
 %mem=6000mb
 %nproc=24
 Will use up to   24 processors via shared memory.
 %chk=L_a1-e4_D_PHI.inp_extract_3.chk
 ----------------------------------------------------------------------
 #M062X/6-311++G(2d,2p) opt=ModRedundant freq=noraman SCRF=(Solvent=Wat
 er)
 ----------------------------------------------------------------------
 1/18=120,19=15,26=3,38=1/1,3;
 2/9=110,12=2,17=6,18=5,40=1/2;
 3/5=4,6=6,7=1212,11=2,25=1,30=1,70=2201,71=1,72=1,74=-55/1,2,3;
 4//1;
 5/5=2,38=5,53=1/2;
 6/7=2,8=2,9=2,10=2,28=1/1;
 7//1,2,3,16;
 1/18=20,19=15,26=3/3(2);
 2/9=110/2;
 99//99;
 2/9=110/2;
 3/5=4,6=6,7=1212,11=2,25=1,30=1,70=2205,71=1,72=1,74=-55/1,2,3;
 4/5=5,16=3,69=1/1;
 5/5=2,38=5,53=1/2;
 7//1,2,3,16;
 1/18=20,19=15,26=3/3(-5);
 2/9=110/2;
 6/7=2,8=2,9=2,10=2,19=2,28=1/1;
 99/9=1/99;
 ---------------------------
 L_a1-e4_D_PHI.inp_extract_3
 ---------------------------
 Symbolic Z-matrix:
 Charge =  0 Multiplicity = 1
 C                    -2.01554  -0.12101  -1.51621 
 O                    -1.4718   -1.11325  -0.64763 
 C                    -3.13555   0.97113   0.41969 
 O                     2.94799  -1.09086  -0.4528 
 C                    -1.3321   -0.78727   0.70337 
 C                    -2.5743   -0.14387   1.29897 
 C                     2.9992    1.32848  -0.39625 
 O                    -0.21889   0.04245   0.96578 
 C                     1.68824   1.33614   0.39372 
 C                     3.75791   0.03278  -0.15724 
 C                     0.90084   0.0671    0.10118 
 C                     1.77929  -1.15922   0.33649 
 C                    -3.32812   0.43737  -0.99787 
 H                    -1.29909   0.68257  -1.64397 
 H                    -2.13971  -0.61677  -2.46867 
 H                    -2.45507   1.81884   0.40259 
 H                    -4.07589   1.32507   0.83045 
 H                    -1.14745  -1.73878   1.18343 
 H                    -3.32157  -0.92568   1.40501 
 H                    -2.33417   0.21039   2.29541 
 H                     3.62238   2.16888  -0.10542 
 H                     2.79329   1.42877  -1.45897 
 H                     1.90145   1.38006   1.45926 
 H                     1.09109   2.20729   0.14291 
 H                     4.62581  -0.04094  -0.79819 
 H                     4.08843  -0.03202   0.87702 
 H                     0.58427   0.07185  -0.93043 
 H                     1.26772  -2.06947   0.0556 
 H                     2.04863  -1.22309   1.38863 
 H                    -3.66291   1.2201   -1.67237 
 H                    -4.08485  -0.34355  -1.00032 
 
 The following ModRedundant input section has been read:
 D       2       5       8      11 F                                           
 

 GradGradGradGradGradGradGradGradGradGradGradGradGradGradGradGradGradGrad
 Berny optimization.
 Initialization pass.
                           ----------------------------
                           !    Initial Parameters    !
                           ! (Angstroms and Degrees)  !
 --------------------------                            --------------------------
 ! Name  Definition              Value          Derivative Info.                !
 --------------------------------------------------------------------------------
 ! R1    R(1,2)                  1.4264         estimate D2E/DX2                !
 ! R2    R(1,13)                 1.5177         estimate D2E/DX2                !
 ! R3    R(1,14)                 1.0841         estimate D2E/DX2                !
 ! R4    R(1,15)                 1.0809         estimate D2E/DX2                !
 ! R5    R(2,5)                  1.3968         estimate D2E/DX2                !
 ! R6    R(3,6)                  1.5269         estimate D2E/DX2                !
 ! R7    R(3,13)                 1.5269         estimate D2E/DX2                !
 ! R8    R(3,16)                 1.0872         estimate D2E/DX2                !
 ! R9    R(3,17)                 1.0855         estimate D2E/DX2                !
 ! R10   R(4,10)                 1.4163         estimate D2E/DX2                !
 ! R11   R(4,12)                 1.4119         estimate D2E/DX2                !
 ! R12   R(5,6)                  1.5204         estimate D2E/DX2                !
 ! R13   R(5,8)                  1.413          estimate D2E/DX2                !
 ! R14   R(5,18)                 1.0816         estimate D2E/DX2                !
 ! R15   R(6,19)                 1.0867         estimate D2E/DX2                !
 ! R16   R(6,20)                 1.0845         estimate D2E/DX2                !
 ! R17   R(7,9)                  1.5306         estimate D2E/DX2                !
 ! R18   R(7,10)                 1.5204         estimate D2E/DX2                !
 ! R19   R(7,21)                 1.0859         estimate D2E/DX2                !
 ! R20   R(7,22)                 1.0871         estimate D2E/DX2                !
 ! R21   R(8,11)                 1.4149         estimate D2E/DX2                !
 ! R22   R(9,11)                 1.5218         estimate D2E/DX2                !
 ! R23   R(9,23)                 1.0875         estimate D2E/DX2                !
 ! R24   R(9,24)                 1.0855         estimate D2E/DX2                !
 ! R25   R(10,25)                1.0814         estimate D2E/DX2                !
 ! R26   R(10,26)                1.0877         estimate D2E/DX2                !
 ! R27   R(11,12)                1.5267         estimate D2E/DX2                !
 ! R28   R(11,27)                1.0791         estimate D2E/DX2                !
 ! R29   R(12,28)                1.0813         estimate D2E/DX2                !
 ! R30   R(12,29)                1.0879         estimate D2E/DX2                !
 ! R31   R(13,30)                1.0861         estimate D2E/DX2                !
 ! R32   R(13,31)                1.0874         estimate D2E/DX2                !
 ! A1    A(2,1,13)             112.1879         estimate D2E/DX2                !
 ! A2    A(2,1,14)             109.5997         estimate D2E/DX2                !
 ! A3    A(2,1,15)             105.1472         estimate D2E/DX2                !
 ! A4    A(13,1,14)            109.8215         estimate D2E/DX2                !
 ! A5    A(13,1,15)            111.7373         estimate D2E/DX2                !
 ! A6    A(14,1,15)            108.1813         estimate D2E/DX2                !
 ! A7    A(1,2,5)              117.694          estimate D2E/DX2                !
 ! A8    A(6,3,13)             109.0087         estimate D2E/DX2                !
 ! A9    A(6,3,16)             110.3887         estimate D2E/DX2                !
 ! A10   A(6,3,17)             109.7935         estimate D2E/DX2                !
 ! A11   A(13,3,16)            109.6884         estimate D2E/DX2                !
 ! A12   A(13,3,17)            110.8573         estimate D2E/DX2                !
 ! A13   A(16,3,17)            107.0935         estimate D2E/DX2                !
 ! A14   A(10,4,12)            113.2722         estimate D2E/DX2                !
 ! A15   A(2,5,6)              113.3242         estimate D2E/DX2                !
 ! A16   A(2,5,8)              113.2951         estimate D2E/DX2                !
 ! A17   A(2,5,18)             103.9485         estimate D2E/DX2                !
 ! A18   A(6,5,8)              108.8102         estimate D2E/DX2                !
 ! A19   A(6,5,18)             109.7472         estimate D2E/DX2                !
 ! A20   A(8,5,18)             107.4365         estimate D2E/DX2                !
 ! A21   A(3,6,5)              112.5658         estimate D2E/DX2                !
 ! A22   A(3,6,19)             109.196          estimate D2E/DX2                !
 ! A23   A(3,6,20)             111.8374         estimate D2E/DX2                !
 ! A24   A(5,6,19)             107.1931         estimate D2E/DX2                !
 ! A25   A(5,6,20)             108.4968         estimate D2E/DX2                !
 ! A26   A(19,6,20)            107.3153         estimate D2E/DX2                !
 ! A27   A(9,7,10)             110.5203         estimate D2E/DX2                !
 ! A28   A(9,7,21)             110.4523         estimate D2E/DX2                !
 ! A29   A(9,7,22)             109.9898         estimate D2E/DX2                !
 ! A30   A(10,7,21)            109.3326         estimate D2E/DX2                !
 ! A31   A(10,7,22)            109.0752         estimate D2E/DX2                !
 ! A32   A(21,7,22)            107.4044         estimate D2E/DX2                !
 ! A33   A(5,8,11)             121.3481         estimate D2E/DX2                !
 ! A34   A(7,9,11)             109.8626         estimate D2E/DX2                !
 ! A35   A(7,9,23)             109.7526         estimate D2E/DX2                !
 ! A36   A(7,9,24)             110.8498         estimate D2E/DX2                !
 ! A37   A(11,9,23)            108.8717         estimate D2E/DX2                !
 ! A38   A(11,9,24)            109.8869         estimate D2E/DX2                !
 ! A39   A(23,9,24)            107.5661         estimate D2E/DX2                !
 ! A40   A(4,10,7)             110.9738         estimate D2E/DX2                !
 ! A41   A(4,10,25)            106.33           estimate D2E/DX2                !
 ! A42   A(4,10,26)            108.9614         estimate D2E/DX2                !
 ! A43   A(7,10,25)            111.4331         estimate D2E/DX2                !
 ! A44   A(7,10,26)            110.6028         estimate D2E/DX2                !
 ! A45   A(25,10,26)           108.3983         estimate D2E/DX2                !
 ! A46   A(8,11,9)             107.8497         estimate D2E/DX2                !
 ! A47   A(8,11,12)            110.3144         estimate D2E/DX2                !
 ! A48   A(8,11,27)            110.6152         estimate D2E/DX2                !
 ! A49   A(9,11,12)            110.0277         estimate D2E/DX2                !
 ! A50   A(9,11,27)            109.3829         estimate D2E/DX2                !
 ! A51   A(12,11,27)           108.6433         estimate D2E/DX2                !
 ! A52   A(4,12,11)            110.5614         estimate D2E/DX2                !
 ! A53   A(4,12,28)            106.6875         estimate D2E/DX2                !
 ! A54   A(4,12,29)            109.7881         estimate D2E/DX2                !
 ! A55   A(11,12,28)           111.3417         estimate D2E/DX2                !
 ! A56   A(11,12,29)           109.7947         estimate D2E/DX2                !
 ! A57   A(28,12,29)           108.5989         estimate D2E/DX2                !
 ! A58   A(1,13,3)             109.6707         estimate D2E/DX2                !
 ! A59   A(1,13,30)            108.6401         estimate D2E/DX2                !
 ! A60   A(1,13,31)            109.6864         estimate D2E/DX2                !
 ! A61   A(3,13,30)            111.3149         estimate D2E/DX2                !
 ! A62   A(3,13,31)            109.9319         estimate D2E/DX2                !
 ! A63   A(30,13,31)           107.5549         estimate D2E/DX2                !
 ! D1    D(13,1,2,5)           -51.9595         estimate D2E/DX2                !
 ! D2    D(14,1,2,5)            70.3137         estimate D2E/DX2                !
 ! D3    D(15,1,2,5)          -173.6124         estimate D2E/DX2                !
 ! D4    D(2,1,13,3)            55.2213         estimate D2E/DX2                !
 ! D5    D(2,1,13,30)          177.0899         estimate D2E/DX2                !
 ! D6    D(2,1,13,31)          -65.6027         estimate D2E/DX2                !
 ! D7    D(14,1,13,3)          -66.9258         estimate D2E/DX2                !
 ! D8    D(14,1,13,30)          54.9428         estimate D2E/DX2                !
 ! D9    D(14,1,13,31)         172.2502         estimate D2E/DX2                !
 ! D10   D(15,1,13,3)          173.0227         estimate D2E/DX2                !
 ! D11   D(15,1,13,30)         -65.1086         estimate D2E/DX2                !
 ! D12   D(15,1,13,31)          52.1987         estimate D2E/DX2                !
 ! D13   D(1,2,5,6)             47.3114         estimate D2E/DX2                !
 ! D14   D(1,2,5,8)            -77.2952         estimate D2E/DX2                !
 ! D15   D(1,2,5,18)           166.4032         estimate D2E/DX2                !
 ! D16   D(13,3,6,5)            52.3306         estimate D2E/DX2                !
 ! D17   D(13,3,6,19)          -66.5919         estimate D2E/DX2                !
 ! D18   D(13,3,6,20)          174.7858         estimate D2E/DX2                !
 ! D19   D(16,3,6,5)           -68.2129         estimate D2E/DX2                !
 ! D20   D(16,3,6,19)          172.8646         estimate D2E/DX2                !
 ! D21   D(16,3,6,20)           54.2423         estimate D2E/DX2                !
 ! D22   D(17,3,6,5)           173.9454         estimate D2E/DX2                !
 ! D23   D(17,3,6,19)           55.0229         estimate D2E/DX2                !
 ! D24   D(17,3,6,20)          -63.5994         estimate D2E/DX2                !
 ! D25   D(6,3,13,1)           -55.8689         estimate D2E/DX2                !
 ! D26   D(6,3,13,30)         -176.1229         estimate D2E/DX2                !
 ! D27   D(6,3,13,31)           64.8065         estimate D2E/DX2                !
 ! D28   D(16,3,13,1)           65.1038         estimate D2E/DX2                !
 ! D29   D(16,3,13,30)         -55.1503         estimate D2E/DX2                !
 ! D30   D(16,3,13,31)        -174.2208         estimate D2E/DX2                !
 ! D31   D(17,3,13,1)         -176.8353         estimate D2E/DX2                !
 ! D32   D(17,3,13,30)          62.9106         estimate D2E/DX2                !
 ! D33   D(17,3,13,31)         -56.16           estimate D2E/DX2                !
 ! D34   D(12,4,10,7)          -60.2731         estimate D2E/DX2                !
 ! D35   D(12,4,10,25)         178.3873         estimate D2E/DX2                !
 ! D36   D(12,4,10,26)          61.7448         estimate D2E/DX2                !
 ! D37   D(10,4,12,11)          61.1649         estimate D2E/DX2                !
 ! D38   D(10,4,12,28)        -177.6216         estimate D2E/DX2                !
 ! D39   D(10,4,12,29)         -60.1237         estimate D2E/DX2                !
 ! D40   D(2,5,6,3)            -47.2812         estimate D2E/DX2                !
 ! D41   D(2,5,6,19)            72.8048         estimate D2E/DX2                !
 ! D42   D(2,5,6,20)          -171.5985         estimate D2E/DX2                !
 ! D43   D(8,5,6,3)             79.7195         estimate D2E/DX2                !
 ! D44   D(8,5,6,19)          -160.1945         estimate D2E/DX2                !
 ! D45   D(8,5,6,20)           -44.5977         estimate D2E/DX2                !
 ! D46   D(18,5,6,3)          -162.9829         estimate D2E/DX2                !
 ! D47   D(18,5,6,19)          -42.8969         estimate D2E/DX2                !
 ! D48   D(18,5,6,20)           72.6999         estimate D2E/DX2                !
 ! D49   D(2,5,8,11)           -24.5379         Frozen                          !
 ! D50   D(6,5,8,11)          -151.5553         estimate D2E/DX2                !
 ! D51   D(18,5,8,11)           89.6868         estimate D2E/DX2                !
 ! D52   D(10,7,9,11)          -52.0795         estimate D2E/DX2                !
 ! D53   D(10,7,9,23)           67.599          estimate D2E/DX2                !
 ! D54   D(10,7,9,24)         -173.7217         estimate D2E/DX2                !
 ! D55   D(21,7,9,11)         -173.2005         estimate D2E/DX2                !
 ! D56   D(21,7,9,23)          -53.522          estimate D2E/DX2                !
 ! D57   D(21,7,9,24)           65.1573         estimate D2E/DX2                !
 ! D58   D(22,7,9,11)           68.4164         estimate D2E/DX2                !
 ! D59   D(22,7,9,23)         -171.9051         estimate D2E/DX2                !
 ! D60   D(22,7,9,24)          -53.2258         estimate D2E/DX2                !
 ! D61   D(9,7,10,4)            54.8397         estimate D2E/DX2                !
 ! D62   D(9,7,10,25)          173.1324         estimate D2E/DX2                !
 ! D63   D(9,7,10,26)          -66.2161         estimate D2E/DX2                !
 ! D64   D(21,7,10,4)          176.6231         estimate D2E/DX2                !
 ! D65   D(21,7,10,25)         -65.0842         estimate D2E/DX2                !
 ! D66   D(21,7,10,26)          55.5673         estimate D2E/DX2                !
 ! D67   D(22,7,10,4)          -66.2011         estimate D2E/DX2                !
 ! D68   D(22,7,10,25)          52.0915         estimate D2E/DX2                !
 ! D69   D(22,7,10,26)         172.743          estimate D2E/DX2                !
 ! D70   D(5,8,11,9)           162.0903         estimate D2E/DX2                !
 ! D71   D(5,8,11,12)          -77.7197         estimate D2E/DX2                !
 ! D72   D(5,8,11,27)           42.5093         estimate D2E/DX2                !
 ! D73   D(7,9,11,8)           173.2194         estimate D2E/DX2                !
 ! D74   D(7,9,11,12)           52.849          estimate D2E/DX2                !
 ! D75   D(7,9,11,27)          -66.4218         estimate D2E/DX2                !
 ! D76   D(23,9,11,8)           53.005          estimate D2E/DX2                !
 ! D77   D(23,9,11,12)         -67.3654         estimate D2E/DX2                !
 ! D78   D(23,9,11,27)         173.3638         estimate D2E/DX2                !
 ! D79   D(24,9,11,8)          -64.5648         estimate D2E/DX2                !
 ! D80   D(24,9,11,12)         175.0649         estimate D2E/DX2                !
 ! D81   D(24,9,11,27)          55.7941         estimate D2E/DX2                !
 ! D82   D(8,11,12,4)         -175.6873         estimate D2E/DX2                !
 ! D83   D(8,11,12,28)          65.8993         estimate D2E/DX2                !
 ! D84   D(8,11,12,29)         -54.4025         estimate D2E/DX2                !
 ! D85   D(9,11,12,4)          -56.8167         estimate D2E/DX2                !
 ! D86   D(9,11,12,28)        -175.2302         estimate D2E/DX2                !
 ! D87   D(9,11,12,29)          64.468          estimate D2E/DX2                !
 ! D88   D(27,11,12,4)          62.9047         estimate D2E/DX2                !
 ! D89   D(27,11,12,28)        -55.5088         estimate D2E/DX2                !
 ! D90   D(27,11,12,29)       -175.8106         estimate D2E/DX2                !
 --------------------------------------------------------------------------------
 Trust Radius=3.00D-01 FncErr=1.00D-07 GrdErr=1.00D-06 EigMax=2.50D+02 EigMin=1.00D-04
 Number of steps in this run=    186 maximum allowed number of steps=    186.
 GradGradGradGradGradGradGradGradGradGradGradGradGradGradGradGradGradGrad

                          Input orientation:                          
 ---------------------------------------------------------------------
 Center     Atomic      Atomic             Coordinates (Angstroms)
 Number     Number       Type             X           Y           Z
 ---------------------------------------------------------------------
      1          6           0       -2.015545   -0.121008   -1.516207
      2          8           0       -1.471797   -1.113252   -0.647628
      3          6           0       -3.135547    0.971128    0.419694
      4          8           0        2.947989   -1.090860   -0.452803
      5          6           0       -1.332097   -0.787266    0.703374
      6          6           0       -2.574301   -0.143868    1.298970
      7          6           0        2.999196    1.328481   -0.396251
      8          8           0       -0.218886    0.042452    0.965780
      9          6           0        1.688238    1.336136    0.393723
     10          6           0        3.757907    0.032784   -0.157241
     11          6           0        0.900841    0.067100    0.101183
     12          6           0        1.779288   -1.159222    0.336492
     13          6           0       -3.328121    0.437366   -0.997865
     14          1           0       -1.299093    0.682565   -1.643969
     15          1           0       -2.139706   -0.616774   -2.468668
     16          1           0       -2.455066    1.818839    0.402589
     17          1           0       -4.075889    1.325071    0.830452
     18          1           0       -1.147447   -1.738778    1.183434
     19          1           0       -3.321567   -0.925684    1.405007
     20          1           0       -2.334167    0.210386    2.295405
     21          1           0        3.622379    2.168877   -0.105416
     22          1           0        2.793294    1.428770   -1.458966
     23          1           0        1.901453    1.380058    1.459261
     24          1           0        1.091093    2.207288    0.142913
     25          1           0        4.625812   -0.040941   -0.798193
     26          1           0        4.088434   -0.032022    0.877021
     27          1           0        0.584273    0.071852   -0.930429
     28          1           0        1.267723   -2.069470    0.055601
     29          1           0        2.048630   -1.223085    1.388628
     30          1           0       -3.662912    1.220096   -1.672374
     31          1           0       -4.084853   -0.343549   -1.000322
 ---------------------------------------------------------------------
                    Distance matrix (angstroms):
                    1          2          3          4          5
     1  C    0.000000
     2  O    1.426408   0.000000
     3  C    2.488951   2.872609   0.000000
     4  O    5.167989   4.424135   6.482473   0.000000
     5  C    2.416100   1.396778   2.534730   4.443878   0.000000
     6  C    2.870183   2.438127   1.526872   5.870365   1.520449
     7  C    5.338815   5.100493   6.199076   2.420544   4.944255
     8  O    3.068381   2.347024   3.109270   3.650462   1.412985
     9  C    4.414647   4.131554   4.837645   2.862497   3.705016
    10  C    5.933227   5.376214   6.980906   1.416298   5.226976
    11  C    3.340156   2.753790   4.148632   2.416317   2.465479
    12  C    4.348694   3.397081   5.357324   1.411921   3.154944
    13  C    1.517668   2.443976   1.526912   6.482447   2.894486
    14  H    1.084138   2.060942   2.777506   4.754116   2.769749
    15  H    1.080917   2.002194   3.443220   5.493006   3.277675
    16  H    2.763687   3.266027   1.087180   6.196051   2.853649
    17  H    3.441362   3.861533   1.085468   7.537793   3.465041
    18  H    3.264787   1.961957   3.446655   4.457540   1.081632
    19  H    3.299498   2.769502   2.145540   6.541106   2.114105
    20  H    3.839235   3.340231   2.176977   6.094839   2.129323
    21  H    6.246606   6.084159   6.883306   3.346844   5.825784
    22  H    5.052724   5.031018   6.236181   2.717504   5.158040
    23  H    5.142906   4.694080   5.159389   3.294945   3.965413
    24  H    4.221948   4.268413   4.412390   3.831543   3.892727
    25  H    6.680537   6.193009   7.921252   2.009158   6.189377
    26  H    6.556982   5.865985   7.307623   2.046994   5.475646
    27  H    2.671963   2.389952   4.058151   2.677159   2.660803
    28  H    4.128793   2.985608   5.363449   2.009837   2.970307
    29  H    5.115678   4.068391   5.712188   2.053582   3.476899
    30  H    2.129969   3.360893   2.171830   7.108578   3.886693
    31  H    2.144224   2.746798   2.155459   7.093597   3.267588
                    6          7          8          9         10
     6  C    0.000000
     7  C    6.008781   0.000000
     8  O    2.386150   3.723580   0.000000
     9  C    4.602078   1.530597   2.374445   0.000000
    10  C    6.499893   1.520394   4.132330   2.507153   0.000000
    11  C    3.681822   2.498323   1.414894   1.521850   2.868935
    12  C    4.572860   2.865965   2.415103   2.497674   2.362114
    13  C    2.486268   6.418019   3.698540   5.282818   7.147176
    14  H    3.312105   4.522090   2.896098   3.674710   5.310916
    15  H    3.821990   5.872584   3.989933   5.163361   6.367610
    16  H    2.161003   5.534218   2.910882   4.171337   6.488793
    17  H    2.152222   7.180643   4.066927   5.780659   8.000869
    18  H    2.143128   5.394268   2.020490   4.256742   5.385011
    19  H    1.086686   6.948225   3.279762   5.588978   7.312881
    20  H    1.084455   6.077821   2.504100   4.589493   6.569656
    21  H    6.761652   1.085913   4.519343   2.164139   2.141015
    22  H    6.236223   1.087114   4.107858   2.159210   2.138631
    23  H    4.730795   2.156531   2.555103   1.087548   2.806180
    24  H    4.505498   2.168838   2.660765   1.085538   3.454049
    25  H    7.500021   2.163967   5.156516   3.456349   1.081441
    26  H    6.677019   2.158386   4.308878   2.804706   1.087725
    27  H    3.872124   2.774223   2.059499   2.137880   3.266695
    28  H    4.473819   3.840344   2.738366   3.448088   3.265852
    29  H    4.748077   3.255742   2.630972   2.769356   2.624604
    30  H    3.445919   6.784093   4.495333   5.737336   7.666413
    31  H    2.758330   7.303721   4.354337   6.171976   7.896917
                   11         12         13         14         15
    11  C    0.000000
    12  C    1.526730   0.000000
    13  C    4.385102   5.515000   0.000000
    14  H    2.874728   4.097662   2.143485   0.000000
    15  H    4.039399   4.849916   2.164902   1.753579   0.000000
    16  H    3.797571   5.177158   2.152200   2.610707   3.778330
    17  H    5.184801   6.379562   2.165622   3.774410   4.289960
    18  H    2.937337   3.101447   3.774786   3.725601   3.947318
    19  H    4.529272   5.216798   2.762561   3.996639   4.061721
    20  H    3.911575   4.757487   3.447476   4.100366   4.839256
    21  H    3.444839   3.829949   7.218313   5.366298   6.822495
    22  H    2.805279   3.309015   6.218297   4.163974   5.434909
    23  H    2.137629   2.779115   5.854450   4.512209   5.978874
    24  H    2.149033   3.441580   4.895248   3.351226   5.023320
    25  H    3.833531   3.262018   7.970803   6.028540   6.992446
    26  H    3.282149   2.625815   7.664255   5.990949   7.094033
    27  H    1.079102   2.132766   3.930010   2.104561   3.203193
    28  H    2.168320   1.081272   5.340019   4.129259   4.482503
    29  H    2.153953   1.087940   6.112438   4.902591   5.726125
    30  H    5.030183   6.270107   1.086146   2.424332   2.515618
    31  H    5.122411   6.069641   1.087418   3.037705   2.452405
                   16         17         18         19         20
    16  H    0.000000
    17  H    1.747553   0.000000
    18  H    3.869913   4.252945   0.000000
    19  H    3.047634   2.442338   2.331741   0.000000
    20  H    2.486863   2.534207   2.538508   1.748835   0.000000
    21  H    6.108677   7.800717   6.299376   7.750876   6.714169
    22  H    5.582367   7.241399   5.704829   7.151036   6.470751
    23  H    4.504258   6.010577   4.370241   5.709582   4.473002
    24  H    3.576810   5.286655   4.654587   5.556974   4.511457
    25  H    7.418861   8.957571   6.335615   8.294437   7.620684
    26  H    6.816756   8.276475   5.515556   7.482347   6.581822
    27  H    3.750531   5.136961   3.278056   4.658855   4.352297
    28  H    5.394303   6.377891   2.685965   4.918407   4.815400
    29  H    5.523482   6.656906   3.243910   5.378451   4.699574
    30  H    2.474441   2.538840   4.820595   3.767116   4.304457
    31  H    3.049637   2.477117   3.917117   2.589806   3.772739
                   21         22         23         24         25
    21  H    0.000000
    22  H    1.751353   0.000000
    23  H    2.456020   3.051852   0.000000
    24  H    2.543728   2.463655   1.753216   0.000000
    25  H    2.523908   2.440245   3.812803   4.293536   0.000000
    26  H    2.454862   3.044361   2.667557   3.812804   1.759317
    27  H    3.782625   2.645818   3.026051   2.443157   4.045275
    28  H    4.851177   4.105967   3.777713   4.281294   4.015054
    29  H    4.026693   3.961774   2.608257   3.773081   3.580715
    30  H    7.512057   6.463102   6.387087   5.183665   8.429552
    31  H    8.155646   7.117610   6.697479   5.882531   8.718263
                   26         27         28         29         30
    26  H    0.000000
    27  H    3.944212   0.000000
    28  H    3.575239   2.454510   0.000000
    29  H    2.416852   3.033023   1.761574   0.000000
    30  H    8.255336   4.461785   6.174002   6.925358   0.000000
    31  H    8.391906   4.688089   5.722224   6.640804   1.753475
                   31
    31  H    0.000000
 Stoichiometry    C10H18O3
 Framework group  C1[X(C10H18O3)]
 Deg. of freedom    87
 Full point group                 C1      NOp   1
 Largest Abelian subgroup         C1      NOp   1
 Largest concise Abelian subgroup C1      NOp   1
                         Standard orientation:                         
 ---------------------------------------------------------------------
 Center     Atomic      Atomic             Coordinates (Angstroms)
 Number     Number       Type             X           Y           Z
 ---------------------------------------------------------------------
      1          6           0        2.015545   -0.121008    1.516207
      2          8           0        1.471797   -1.113252    0.647628
      3          6           0        3.135547    0.971128   -0.419694
      4          8           0       -2.947989   -1.090860    0.452803
      5          6           0        1.332097   -0.787266   -0.703374
      6          6           0        2.574301   -0.143868   -1.298970
      7          6           0       -2.999196    1.328481    0.396251
      8          8           0        0.218886    0.042452   -0.965780
      9          6           0       -1.688238    1.336136   -0.393723
     10          6           0       -3.757907    0.032784    0.157241
     11          6           0       -0.900841    0.067100   -0.101183
     12          6           0       -1.779288   -1.159222   -0.336492
     13          6           0        3.328121    0.437366    0.997865
     14          1           0        1.299093    0.682565    1.643969
     15          1           0        2.139706   -0.616774    2.468668
     16          1           0        2.455066    1.818839   -0.402589
     17          1           0        4.075889    1.325071   -0.830452
     18          1           0        1.147447   -1.738778   -1.183434
     19          1           0        3.321567   -0.925684   -1.405007
     20          1           0        2.334167    0.210386   -2.295405
     21          1           0       -3.622379    2.168877    0.105416
     22          1           0       -2.793294    1.428770    1.458966
     23          1           0       -1.901453    1.380058   -1.459261
     24          1           0       -1.091093    2.207288   -0.142913
     25          1           0       -4.625812   -0.040941    0.798193
     26          1           0       -4.088434   -0.032022   -0.877021
     27          1           0       -0.584273    0.071852    0.930429
     28          1           0       -1.267723   -2.069470   -0.055601
     29          1           0       -2.048630   -1.223085   -1.388628
     30          1           0        3.662912    1.220096    1.672374
     31          1           0        4.084853   -0.343549    1.000322
 ---------------------------------------------------------------------
 Rotational constants (GHZ):           1.8110773           0.4175188           0.4099056
 Standard basis: 6-311++G(2d,2p) (5D, 7F)
 There are   557 symmetry adapted cartesian basis functions of A   symmetry.
 There are   531 symmetry adapted basis functions of A   symmetry.
   531 basis functions,   762 primitive gaussians,   557 cartesian basis functions
    51 alpha electrons       51 beta electrons
       nuclear repulsion energy       897.3344503251 Hartrees.
 NAtoms=   31 NActive=   31 NUniq=   31 SFac= 1.00D+00 NAtFMM=   60 NAOKFM=F Big=F
 Integral buffers will be    131072 words long.
 Raffenetti 2 integral format.
 Two-electron integral symmetry is turned on.
 ------------------------------------------------------------------------------
 Polarizable Continuum Model (PCM)
 =================================
 Model                : PCM.
 Atomic radii         : UFF (Universal Force Field).
 Polarization charges : Total charges.
 Charge compensation  : None.
 Solution method      : On-the-fly selection.
 Cavity type          : Scaled VdW (van der Waals Surface) (Alpha=1.100).
 Cavity algorithm     : GePol (No added spheres)
                        Default sphere list used, NSphG=   31.
                        Lebedev-Laikov grids with approx.  5.0 points / Ang**2.
                        Smoothing algorithm: York/Karplus (Gamma=1.0000).
                        Polarization charges: spherical gaussians, with
                                              point-specific exponents (IZeta= 3).
                        Self-potential: point-specific (ISelfS= 7).
                        Self-field    : sphere-specific E.n sum rule (ISelfD= 2).
 1st derivatives      : Analytical E(r).r(x)/FMM algorithm (CHGder, D1EAlg=3).
                        Cavity 1st derivative terms included.
 Solvent              : Water, Eps=  78.355300 Eps(inf)=   1.777849
 ------------------------------------------------------------------------------
 One-electron integrals computed using PRISM.
 NBasis=   531 RedAO= T EigKep=  5.02D-06  NBF=   531
 NBsUse=   531 1.00D-06 EigRej= -1.00D+00 NBFU=   531
 ExpMin= 3.60D-02 ExpMax= 8.59D+03 ExpMxC= 1.30D+03 IAcc=3 IRadAn=         5 AccDes= 0.00D+00
 Harris functional with IExCor= 1009 and IRadAn=       5 diagonalized for initial guess.
 HarFok:  IExCor= 1009 AccDes= 0.00D+00 IRadAn=         5 IDoV= 1 UseB2=F ITyADJ=14
 ICtDFT=  3500011 ScaDFX=  1.000000  1.000000  1.000000  1.000000
 FoFCou: FMM=F IPFlag=           0 FMFlag=      100000 FMFlg1=           0
         NFxFlg=           0 DoJE=T BraDBF=F KetDBF=T FulRan=T
         wScrn=  0.000000 ICntrl=       500 IOpCl=  0 I1Cent=   200000004 NGrid=           0
         NMat0=    1 NMatS0=      1 NMatT0=    0 NMatD0=    1 NMtDS0=    0 NMtDT0=    0
 Petite list used in FoFCou.
 Requested convergence on RMS density matrix=1.00D-08 within 128 cycles.
 Requested convergence on MAX density matrix=1.00D-06.
 Requested convergence on             energy=1.00D-06.
 No special actions if energy rises.
 Inv3:  Mode=1 IEnd=    12595203.
 Iteration    1 A*A^-1 deviation from unit magnitude is 5.77D-15 for   2044.
 Iteration    1 A*A^-1 deviation from orthogonality  is 1.96D-15 for   1515    211.
 Iteration    1 A^-1*A deviation from unit magnitude is 5.55D-15 for   2040.
 Iteration    1 A^-1*A deviation from orthogonality  is 2.95D-15 for   2032    856.
 Error on total polarization charges =  0.01484
 SCF Done:  E(RM062X) =  -617.497065691     A.U. after   12 cycles
            NFock= 12  Conv=0.47D-08     -V/T= 2.0035

 **********************************************************************

            Population analysis using the SCF density.

 **********************************************************************

 Orbital symmetries:
       Occupied  (A) (A) (A) (A) (A) (A) (A) (A) (A) (A) (A) (A)
                 (A) (A) (A) (A) (A) (A) (A) (A) (A) (A) (A) (A)
                 (A) (A) (A) (A) (A) (A) (A) (A) (A) (A) (A) (A)
                 (A) (A) (A) (A) (A) (A) (A) (A) (A) (A) (A) (A)
                 (A) (A) (A)
       Virtual   (A) (A) (A) (A) (A) (A) (A) (A) (A) (A) (A) (A)
                 (A) (A) (A) (A) (A) (A) (A) (A) (A) (A) (A) (A)
                 (A) (A) (A) (A) (A) (A) (A) (A) (A) (A) (A) (A)
                 (A) (A) (A) (A) (A) (A) (A) (A) (A) (A) (A) (A)
                 (A) (A) (A) (A) (A) (A) (A) (A) (A) (A) (A) (A)
                 (A) (A) (A) (A) (A) (A) (A) (A) (A) (A) (A) (A)
                 (A) (A) (A) (A) (A) (A) (A) (A) (A) (A) (A) (A)
                 (A) (A) (A) (A) (A) (A) (A) (A) (A) (A) (A) (A)
                 (A) (A) (A) (A) (A) (A) (A) (A) (A) (A) (A) (A)
                 (A) (A) (A) (A) (A) (A) (A) (A) (A) (A) (A) (A)
                 (A) (A) (A) (A) (A) (A) (A) (A) (A) (A) (A) (A)
                 (A) (A) (A) (A) (A) (A) (A) (A) (A) (A) (A) (A)
                 (A) (A) (A) (A) (A) (A) (A) (A) (A) (A) (A) (A)
                 (A) (A) (A) (A) (A) (A) (A) (A) (A) (A) (A) (A)
                 (A) (A) (A) (A) (A) (A) (A) (A) (A) (A) (A) (A)
                 (A) (A) (A) (A) (A) (A) (A) (A) (A) (A) (A) (A)
                 (A) (A) (A) (A) (A) (A) (A) (A) (A) (A) (A) (A)
                 (A) (A) (A) (A) (A) (A) (A) (A) (A) (A) (A) (A)
                 (A) (A) (A) (A) (A) (A) (A) (A) (A) (A) (A) (A)
                 (A) (A) (A) (A) (A) (A) (A) (A) (A) (A) (A) (A)
                 (A) (A) (A) (A) (A) (A) (A) (A) (A) (A) (A) (A)
                 (A) (A) (A) (A) (A) (A) (A) (A) (A) (A) (A) (A)
                 (A) (A) (A) (A) (A) (A) (A) (A) (A) (A) (A) (A)
                 (A) (A) (A) (A) (A) (A) (A) (A) (A) (A) (A) (A)
                 (A) (A) (A) (A) (A) (A) (A) (A) (A) (A) (A) (A)
                 (A) (A) (A) (A) (A) (A) (A) (A) (A) (A) (A) (A)
                 (A) (A) (A) (A) (A) (A) (A) (A) (A) (A) (A) (A)
                 (A) (A) (A) (A) (A) (A) (A) (A) (A) (A) (A) (A)
                 (A) (A) (A) (A) (A) (A) (A) (A) (A) (A) (A) (A)
                 (A) (A) (A) (A) (A) (A) (A) (A) (A) (A) (A) (A)
                 (A) (A) (A) (A) (A) (A) (A) (A) (A) (A) (A) (A)
                 (A) (A) (A) (A) (A) (A) (A) (A) (A) (A) (A) (A)
                 (A) (A) (A) (A) (A) (A) (A) (A) (A) (A) (A) (A)
                 (A) (A) (A) (A) (A) (A) (A) (A) (A) (A) (A) (A)
                 (A) (A) (A) (A) (A) (A) (A) (A) (A) (A) (A) (A)
                 (A) (A) (A) (A) (A) (A) (A) (A) (A) (A) (A) (A)
                 (A) (A) (A) (A) (A) (A) (A) (A) (A) (A) (A) (A)
                 (A) (A) (A) (A) (A) (A) (A) (A) (A) (A) (A) (A)
                 (A) (A) (A) (A) (A) (A) (A) (A) (A) (A) (A) (A)
                 (A) (A) (A) (A) (A) (A) (A) (A) (A) (A) (A) (A)
 The electronic state is 1-A.
 Alpha  occ. eigenvalues --  -19.63441 -19.62834 -19.62717 -10.63603 -10.58473
 Alpha  occ. eigenvalues --  -10.58063 -10.57814 -10.57620 -10.53116 -10.53093
 Alpha  occ. eigenvalues --  -10.53076 -10.53042 -10.52958  -1.20101  -1.16651
 Alpha  occ. eigenvalues --   -1.13572  -0.91171  -0.90071  -0.87538  -0.84680
 Alpha  occ. eigenvalues --   -0.75188  -0.74366  -0.73444  -0.70656  -0.65718
 Alpha  occ. eigenvalues --   -0.64353  -0.59762  -0.59189  -0.57721  -0.55925
 Alpha  occ. eigenvalues --   -0.54374  -0.53171  -0.52651  -0.50977  -0.50458
 Alpha  occ. eigenvalues --   -0.48018  -0.47168  -0.45787  -0.45680  -0.45251
 Alpha  occ. eigenvalues --   -0.44019  -0.43302  -0.40613  -0.39913  -0.39397
 Alpha  occ. eigenvalues --   -0.38888  -0.37622  -0.36444  -0.35055  -0.34029
 Alpha  occ. eigenvalues --   -0.31146
 Alpha virt. eigenvalues --   -0.00141   0.00739   0.00906   0.01078   0.02181
 Alpha virt. eigenvalues --    0.02509   0.02637   0.03415   0.03464   0.04454
 Alpha virt. eigenvalues --    0.04629   0.04833   0.05605   0.05706   0.07058
 Alpha virt. eigenvalues --    0.07495   0.07764   0.07939   0.08820   0.09355
 Alpha virt. eigenvalues --    0.10021   0.10398   0.11367   0.11567   0.11815
 Alpha virt. eigenvalues --    0.12454   0.12586   0.12923   0.13117   0.13392
 Alpha virt. eigenvalues --    0.13665   0.14023   0.14348   0.14600   0.15088
 Alpha virt. eigenvalues --    0.15220   0.15305   0.15524   0.15887   0.16249
 Alpha virt. eigenvalues --    0.16533   0.16844   0.17275   0.17780   0.18002
 Alpha virt. eigenvalues --    0.18303   0.18670   0.18794   0.19105   0.19643
 Alpha virt. eigenvalues --    0.19865   0.20155   0.20709   0.21037   0.21414
 Alpha virt. eigenvalues --    0.21839   0.21933   0.22444   0.23506   0.24096
 Alpha virt. eigenvalues --    0.24847   0.25620   0.25826   0.26220   0.26958
 Alpha virt. eigenvalues --    0.27691   0.27773   0.28579   0.29135   0.29565
 Alpha virt. eigenvalues --    0.29802   0.30280   0.31053   0.31815   0.32067
 Alpha virt. eigenvalues --    0.32501   0.32991   0.33333   0.33913   0.34277
 Alpha virt. eigenvalues --    0.34938   0.35174   0.35369   0.35697   0.36306
 Alpha virt. eigenvalues --    0.36544   0.37049   0.37425   0.37866   0.38401
 Alpha virt. eigenvalues --    0.38744   0.38864   0.39753   0.40489   0.40904
 Alpha virt. eigenvalues --    0.41164   0.41898   0.42910   0.44628   0.45688
 Alpha virt. eigenvalues --    0.46226   0.47656   0.49166   0.49769   0.51035
 Alpha virt. eigenvalues --    0.51905   0.52387   0.53085   0.53931   0.55431
 Alpha virt. eigenvalues --    0.56152   0.56305   0.57592   0.58479   0.59192
 Alpha virt. eigenvalues --    0.60071   0.60085   0.60412   0.61490   0.61635
 Alpha virt. eigenvalues --    0.62496   0.62920   0.62961   0.63632   0.64366
 Alpha virt. eigenvalues --    0.64918   0.65127   0.66443   0.66901   0.67437
 Alpha virt. eigenvalues --    0.67886   0.69099   0.69260   0.70211   0.70391
 Alpha virt. eigenvalues --    0.70695   0.71615   0.72026   0.72565   0.72856
 Alpha virt. eigenvalues --    0.73549   0.74158   0.74969   0.75310   0.75423
 Alpha virt. eigenvalues --    0.75912   0.76539   0.77713   0.78492   0.79655
 Alpha virt. eigenvalues --    0.81474   0.81773   0.83286   0.84814   0.85539
 Alpha virt. eigenvalues --    0.85957   0.86614   0.87054   0.88458   0.89188
 Alpha virt. eigenvalues --    0.90025   0.90506   0.91395   0.94726   0.95966
 Alpha virt. eigenvalues --    0.97538   0.99089   1.00698   1.01193   1.01675
 Alpha virt. eigenvalues --    1.02755   1.03371   1.05040   1.05979   1.06684
 Alpha virt. eigenvalues --    1.08340   1.08373   1.09284   1.10298   1.11341
 Alpha virt. eigenvalues --    1.13017   1.13738   1.14362   1.15943   1.16530
 Alpha virt. eigenvalues --    1.16880   1.17806   1.18304   1.19398   1.20143
 Alpha virt. eigenvalues --    1.20562   1.21624   1.22303   1.23175   1.23898
 Alpha virt. eigenvalues --    1.25097   1.25516   1.26560   1.26798   1.27638
 Alpha virt. eigenvalues --    1.28885   1.29688   1.29908   1.30683   1.31722
 Alpha virt. eigenvalues --    1.32048   1.32763   1.33916   1.34473   1.35234
 Alpha virt. eigenvalues --    1.35452   1.36260   1.36844   1.37443   1.38341
 Alpha virt. eigenvalues --    1.39030   1.39159   1.39731   1.40269   1.41076
 Alpha virt. eigenvalues --    1.42351   1.43115   1.43973   1.44733   1.45108
 Alpha virt. eigenvalues --    1.45510   1.45804   1.47502   1.47860   1.48479
 Alpha virt. eigenvalues --    1.49246   1.49355   1.49914   1.51566   1.52138
 Alpha virt. eigenvalues --    1.52739   1.53877   1.54385   1.54861   1.56206
 Alpha virt. eigenvalues --    1.56447   1.57479   1.57948   1.58657   1.58999
 Alpha virt. eigenvalues --    1.60051   1.60274   1.60789   1.62414   1.62878
 Alpha virt. eigenvalues --    1.63257   1.63722   1.64841   1.66455   1.66474
 Alpha virt. eigenvalues --    1.67938   1.69020   1.69650   1.70859   1.72234
 Alpha virt. eigenvalues --    1.72429   1.73578   1.75834   1.76247   1.77219
 Alpha virt. eigenvalues --    1.77591   1.79684   1.80234   1.81611   1.82989
 Alpha virt. eigenvalues --    1.86589   1.90194   1.92804   1.94735   1.97140
 Alpha virt. eigenvalues --    1.99144   2.05953   2.12947   2.15254   2.21775
 Alpha virt. eigenvalues --    2.25297   2.27022   2.28200   2.31971   2.38243
 Alpha virt. eigenvalues --    2.42025   2.44437   2.45561   2.48080   2.53518
 Alpha virt. eigenvalues --    2.56685   2.76251   2.76835   2.79303   2.82921
 Alpha virt. eigenvalues --    2.84040   2.90038   2.92681   2.92913   2.93771
 Alpha virt. eigenvalues --    2.97174   2.97634   3.01144   3.02170   3.03644
 Alpha virt. eigenvalues --    3.06250   3.06781   3.07831   3.09043   3.11965
 Alpha virt. eigenvalues --    3.13246   3.15005   3.17391   3.18176   3.20864
 Alpha virt. eigenvalues --    3.23315   3.28848   3.32065   3.33458   3.34548
 Alpha virt. eigenvalues --    3.35073   3.37305   3.38388   3.39899   3.41850
 Alpha virt. eigenvalues --    3.42591   3.43092   3.44224   3.45672   3.46534
 Alpha virt. eigenvalues --    3.47675   3.48768   3.49591   3.50223   3.51430
 Alpha virt. eigenvalues --    3.52399   3.53952   3.54689   3.55299   3.56215
 Alpha virt. eigenvalues --    3.56499   3.57373   3.58398   3.58656   3.59712
 Alpha virt. eigenvalues --    3.60384   3.61344   3.62881   3.63673   3.64343
 Alpha virt. eigenvalues --    3.66572   3.67302   3.67978   3.69453   3.70093
 Alpha virt. eigenvalues --    3.70453   3.71187   3.72432   3.73119   3.73994
 Alpha virt. eigenvalues --    3.75221   3.75864   3.76382   3.77244   3.78122
 Alpha virt. eigenvalues --    3.78605   3.79084   3.79819   3.81004   3.84113
 Alpha virt. eigenvalues --    3.86924   3.87429   3.88587   3.89674   3.91154
 Alpha virt. eigenvalues --    3.93143   3.93759   3.95270   3.96806   3.97174
 Alpha virt. eigenvalues --    3.99469   4.00917   4.02565   4.03105   4.04242
 Alpha virt. eigenvalues --    4.04589   4.05890   4.06409   4.06636   4.07820
 Alpha virt. eigenvalues --    4.08563   4.08873   4.09853   4.10473   4.11377
 Alpha virt. eigenvalues --    4.11704   4.13193   4.14086   4.15172   4.15845
 Alpha virt. eigenvalues --    4.16804   4.17287   4.17845   4.19265   4.19514
 Alpha virt. eigenvalues --    4.20746   4.23716   4.25068   4.26648   4.26709
 Alpha virt. eigenvalues --    4.27777   4.28401   4.30024   4.30360   4.32083
 Alpha virt. eigenvalues --    4.32991   4.34152   4.35740   4.38215   4.40859
 Alpha virt. eigenvalues --    4.42096   4.42735   4.44998   4.47617   4.51891
 Alpha virt. eigenvalues --    4.59274   4.62359   4.75076   4.77661   4.83121
 Alpha virt. eigenvalues --    4.85765   4.92580   4.94900   4.99739   5.00501
 Alpha virt. eigenvalues --    5.07034   5.07361   5.07767   5.08916   5.11996
 Alpha virt. eigenvalues --    5.12477   5.14289   5.15079   5.30916   5.40273
 Alpha virt. eigenvalues --    5.41210   5.56499   5.59548   5.62961   5.84875
 Alpha virt. eigenvalues --    5.88117   6.05690   7.01718   7.04797   7.06028
 Alpha virt. eigenvalues --    7.08437   7.11009   7.12395   7.14851   7.21132
 Alpha virt. eigenvalues --    7.23983   7.37268   7.39293   7.47465   7.53253
 Alpha virt. eigenvalues --    7.55264   7.63174  23.95414  23.97187  24.06115
 Alpha virt. eigenvalues --   24.07657  24.10487  24.12403  24.13946  24.15897
 Alpha virt. eigenvalues --   24.16284  24.20755  50.15802  50.17893  50.23570
          Condensed to atoms (all electrons):
               1          2          3          4          5          6
     1  C    5.447379   0.123872   0.023525   0.000209  -0.343393   0.149691
     2  O    0.123872   8.130180  -0.014948  -0.000489   0.258362  -0.034458
     3  C    0.023525  -0.014948   5.754989   0.000247  -0.062639  -0.148195
     4  O    0.000209  -0.000489   0.000247   8.278914  -0.012138   0.000468
     5  C   -0.343393   0.258362  -0.062639  -0.012138   7.337229  -1.033699
     6  C    0.149691  -0.034458  -0.148195   0.000468  -1.033699   6.585811
     7  C    0.000279   0.006305  -0.005728  -0.001210  -0.078314   0.008156
     8  O    0.021999  -0.042228  -0.039955   0.005640   0.308378  -0.084104
     9  C    0.014976   0.037315   0.035441  -0.019414   0.021947  -0.000939
    10  C   -0.004844  -0.003233   0.003963   0.086171  -0.019977  -0.002276
    11  C    0.061017   0.038338   0.030362   0.035281  -0.972704   0.324570
    12  C   -0.037369  -0.051136  -0.071500   0.190116   0.273389  -0.076921
    13  C   -0.086413  -0.074473  -0.108669   0.000130   0.136521  -0.084481
    14  H    0.470939  -0.039189   0.004750   0.002076   0.020499   0.004699
    15  H    0.419493  -0.056708   0.015974   0.000496  -0.014932  -0.001583
    16  H    0.003641   0.001260   0.534293  -0.000063   0.004831  -0.067970
    17  H    0.010020  -0.003998   0.420917   0.000019   0.012414  -0.043063
    18  H   -0.018213  -0.055604  -0.007258   0.001302   0.526721  -0.082780
    19  H    0.015403  -0.010368  -0.005211  -0.000002  -0.138122   0.524853
    20  H    0.004300   0.008388  -0.034543   0.000005  -0.021536   0.432170
    21  H    0.000178   0.000430   0.000405   0.008525  -0.004294   0.001405
    22  H    0.003056  -0.000258   0.000217  -0.001296   0.000192  -0.000026
    23  H    0.002583  -0.000418   0.002560   0.000992  -0.001066  -0.001319
    24  H   -0.004619   0.001018  -0.007721  -0.002308   0.002972  -0.001192
    25  H   -0.000085  -0.000083   0.000107  -0.072191  -0.001537  -0.000034
    26  H    0.000142  -0.000250  -0.000224  -0.046649  -0.000683   0.000247
    27  H   -0.004852   0.014943   0.002575  -0.040506  -0.076515   0.019461
    28  H   -0.001229   0.004838  -0.001524  -0.067533  -0.011102   0.002757
    29  H    0.000819  -0.000247   0.002038  -0.043531  -0.003382   0.005081
    30  H   -0.035863   0.009034  -0.050316  -0.000004  -0.000953   0.002406
    31  H   -0.081145  -0.002967  -0.007658  -0.000023   0.018797  -0.025407
               7          8          9         10         11         12
     1  C    0.000279   0.021999   0.014976  -0.004844   0.061017  -0.037369
     2  O    0.006305  -0.042228   0.037315  -0.003233   0.038338  -0.051136
     3  C   -0.005728  -0.039955   0.035441   0.003963   0.030362  -0.071500
     4  O   -0.001210   0.005640  -0.019414   0.086171   0.035281   0.190116
     5  C   -0.078314   0.308378   0.021947  -0.019977  -0.972704   0.273389
     6  C    0.008156  -0.084104  -0.000939  -0.002276   0.324570  -0.076921
     7  C    5.498708  -0.010739   0.078240   0.058342  -0.049558   0.065011
     8  O   -0.010739   8.290095  -0.269698   0.015626   0.239266  -0.107576
     9  C    0.078240  -0.269698   6.666117  -0.047949  -0.800276  -0.281379
    10  C    0.058342   0.015626  -0.047949   5.469522   0.121058  -0.306844
    11  C   -0.049558   0.239266  -0.800276   0.121058   7.437566  -0.553209
    12  C    0.065011  -0.107576  -0.281379  -0.306844  -0.553209   6.511628
    13  C    0.009658  -0.017922  -0.035722  -0.003431   0.059232   0.058331
    14  H   -0.001715   0.003374  -0.011630   0.002283  -0.003616  -0.006266
    15  H    0.000915   0.001909   0.000795  -0.000028   0.007601  -0.000719
    16  H   -0.002976   0.001346  -0.006190   0.000356  -0.000928  -0.001728
    17  H    0.000147  -0.002151   0.001092   0.000069   0.004441  -0.001348
    18  H   -0.003201  -0.048778  -0.001112  -0.001493  -0.031241   0.017675
    19  H    0.000762   0.008659   0.001087   0.000061   0.012099  -0.004156
    20  H   -0.001798  -0.005787  -0.006030  -0.000123  -0.012706   0.007459
    21  H    0.420635  -0.003439  -0.022508  -0.024578   0.007234  -0.023835
    22  H    0.527797   0.000308  -0.054580  -0.108824  -0.011288   0.036764
    23  H   -0.057022  -0.002929   0.482189  -0.024682  -0.019123  -0.021312
    24  H    0.005780   0.007196   0.407412  -0.001624  -0.041231   0.029430
    25  H   -0.051704   0.001024   0.020787   0.440936  -0.010155   0.006604
    26  H   -0.020357  -0.000387  -0.045164   0.449684   0.054588  -0.026565
    27  H   -0.053880  -0.018856   0.078462   0.047697   0.409102  -0.162946
    28  H    0.004366  -0.004862   0.035122   0.015224  -0.083769   0.427201
    29  H    0.016264   0.009762  -0.021489  -0.005910  -0.012544   0.408909
    30  H    0.000133   0.001061  -0.002063  -0.000035   0.000016   0.001555
    31  H   -0.000314  -0.000765   0.000654  -0.000030  -0.004456  -0.000770
              13         14         15         16         17         18
     1  C   -0.086413   0.470939   0.419493   0.003641   0.010020  -0.018213
     2  O   -0.074473  -0.039189  -0.056708   0.001260  -0.003998  -0.055604
     3  C   -0.108669   0.004750   0.015974   0.534293   0.420917  -0.007258
     4  O    0.000130   0.002076   0.000496  -0.000063   0.000019   0.001302
     5  C    0.136521   0.020499  -0.014932   0.004831   0.012414   0.526721
     6  C   -0.084481   0.004699  -0.001583  -0.067970  -0.043063  -0.082780
     7  C    0.009658  -0.001715   0.000915  -0.002976   0.000147  -0.003201
     8  O   -0.017922   0.003374   0.001909   0.001346  -0.002151  -0.048778
     9  C   -0.035722  -0.011630   0.000795  -0.006190   0.001092  -0.001112
    10  C   -0.003431   0.002283  -0.000028   0.000356   0.000069  -0.001493
    11  C    0.059232  -0.003616   0.007601  -0.000928   0.004441  -0.031241
    12  C    0.058331  -0.006266  -0.000719  -0.001728  -0.001348   0.017675
    13  C    5.884115  -0.079036  -0.012872  -0.081868  -0.026294   0.007627
    14  H   -0.079036   0.528809  -0.017314   0.001258  -0.001472  -0.000089
    15  H   -0.012872  -0.017314   0.473296  -0.002401   0.001576  -0.000469
    16  H   -0.081868   0.001258  -0.002401   0.463167  -0.003055  -0.000821
    17  H   -0.026294  -0.001472   0.001576  -0.003055   0.463685   0.001474
    18  H    0.007627  -0.000089  -0.000469  -0.000821   0.001474   0.479182
    19  H   -0.026702  -0.000376   0.001308   0.000856  -0.001217  -0.003975
    20  H    0.001934  -0.000754   0.000498  -0.002022  -0.010050  -0.013512
    21  H   -0.000304  -0.000088   0.000023  -0.000033   0.000025  -0.000398
    22  H    0.001101   0.000390   0.000206   0.000021   0.000048   0.000129
    23  H   -0.001355  -0.000826  -0.000088   0.000797   0.000030  -0.001063
    24  H    0.008589  -0.005166   0.000543  -0.004517  -0.000289   0.002016
    25  H   -0.000189  -0.000139  -0.000027  -0.000012   0.000001  -0.000143
    26  H    0.000314   0.000253   0.000084  -0.000003   0.000004   0.000203
    27  H   -0.036925  -0.014730  -0.004839   0.001325  -0.000333  -0.002234
    28  H    0.002173  -0.002927  -0.000261  -0.000188  -0.000020  -0.010742
    29  H   -0.001155   0.002855   0.000264   0.000101   0.000124  -0.000432
    30  H    0.446998  -0.001322  -0.010776  -0.002920  -0.007368   0.000717
    31  H    0.464495   0.003549  -0.004084   0.000346  -0.001431   0.001700
              19         20         21         22         23         24
     1  C    0.015403   0.004300   0.000178   0.003056   0.002583  -0.004619
     2  O   -0.010368   0.008388   0.000430  -0.000258  -0.000418   0.001018
     3  C   -0.005211  -0.034543   0.000405   0.000217   0.002560  -0.007721
     4  O   -0.000002   0.000005   0.008525  -0.001296   0.000992  -0.002308
     5  C   -0.138122  -0.021536  -0.004294   0.000192  -0.001066   0.002972
     6  C    0.524853   0.432170   0.001405  -0.000026  -0.001319  -0.001192
     7  C    0.000762  -0.001798   0.420635   0.527797  -0.057022   0.005780
     8  O    0.008659  -0.005787  -0.003439   0.000308  -0.002929   0.007196
     9  C    0.001087  -0.006030  -0.022508  -0.054580   0.482189   0.407412
    10  C    0.000061  -0.000123  -0.024578  -0.108824  -0.024682  -0.001624
    11  C    0.012099  -0.012706   0.007234  -0.011288  -0.019123  -0.041231
    12  C   -0.004156   0.007459  -0.023835   0.036764  -0.021312   0.029430
    13  C   -0.026702   0.001934  -0.000304   0.001101  -0.001355   0.008589
    14  H   -0.000376  -0.000754  -0.000088   0.000390  -0.000826  -0.005166
    15  H    0.001308   0.000498   0.000023   0.000206  -0.000088   0.000543
    16  H    0.000856  -0.002022  -0.000033   0.000021   0.000797  -0.004517
    17  H   -0.001217  -0.010050   0.000025   0.000048   0.000030  -0.000289
    18  H   -0.003975  -0.013512  -0.000398   0.000129  -0.001063   0.002016
    19  H    0.445562  -0.008056   0.000016   0.000062   0.000013   0.000103
    20  H   -0.008056   0.478208  -0.000081  -0.000092   0.000031  -0.000160
    21  H    0.000016  -0.000081   0.484357  -0.009872  -0.005499  -0.012165
    22  H    0.000062  -0.000092  -0.009872   0.483351   0.004768  -0.003282
    23  H    0.000013   0.000031  -0.005499   0.004768   0.454606  -0.017966
    24  H    0.000103  -0.000160  -0.012165  -0.003282  -0.017966   0.495819
    25  H    0.000004   0.000007  -0.007707  -0.005853  -0.001564   0.001008
    26  H    0.000036  -0.000113   0.003675   0.004928  -0.002357  -0.000628
    27  H   -0.002183   0.002171   0.003247  -0.032303   0.004759  -0.009495
    28  H    0.000031  -0.000123   0.002566  -0.003199  -0.002852   0.000182
    29  H    0.000452  -0.000533  -0.001272   0.003867  -0.000151  -0.002688
    30  H   -0.001889   0.001162  -0.000044   0.000083   0.000061   0.000186
    31  H   -0.005089  -0.001321   0.000003  -0.000112  -0.000022   0.000091
              25         26         27         28         29         30
     1  C   -0.000085   0.000142  -0.004852  -0.001229   0.000819  -0.035863
     2  O   -0.000083  -0.000250   0.014943   0.004838  -0.000247   0.009034
     3  C    0.000107  -0.000224   0.002575  -0.001524   0.002038  -0.050316
     4  O   -0.072191  -0.046649  -0.040506  -0.067533  -0.043531  -0.000004
     5  C   -0.001537  -0.000683  -0.076515  -0.011102  -0.003382  -0.000953
     6  C   -0.000034   0.000247   0.019461   0.002757   0.005081   0.002406
     7  C   -0.051704  -0.020357  -0.053880   0.004366   0.016264   0.000133
     8  O    0.001024  -0.000387  -0.018856  -0.004862   0.009762   0.001061
     9  C    0.020787  -0.045164   0.078462   0.035122  -0.021489  -0.002063
    10  C    0.440936   0.449684   0.047697   0.015224  -0.005910  -0.000035
    11  C   -0.010155   0.054588   0.409102  -0.083769  -0.012544   0.000016
    12  C    0.006604  -0.026565  -0.162946   0.427201   0.408909   0.001555
    13  C   -0.000189   0.000314  -0.036925   0.002173  -0.001155   0.446998
    14  H   -0.000139   0.000253  -0.014730  -0.002927   0.002855  -0.001322
    15  H   -0.000027   0.000084  -0.004839  -0.000261   0.000264  -0.010776
    16  H   -0.000012  -0.000003   0.001325  -0.000188   0.000101  -0.002920
    17  H    0.000001   0.000004  -0.000333  -0.000020   0.000124  -0.007368
    18  H   -0.000143   0.000203  -0.002234  -0.010742  -0.000432   0.000717
    19  H    0.000004   0.000036  -0.002183   0.000031   0.000452  -0.001889
    20  H    0.000007  -0.000113   0.002171  -0.000123  -0.000533   0.001162
    21  H   -0.007707   0.003675   0.003247   0.002566  -0.001272  -0.000044
    22  H   -0.005853   0.004928  -0.032303  -0.003199   0.003867   0.000083
    23  H   -0.001564  -0.002357   0.004759  -0.002852  -0.000151   0.000061
    24  H    0.001008  -0.000628  -0.009495   0.000182  -0.002688   0.000186
    25  H    0.472852  -0.006638   0.004615   0.003663  -0.002510   0.000006
    26  H   -0.006638   0.498426  -0.010882  -0.004287   0.008987  -0.000006
    27  H    0.004615  -0.010882   0.600691   0.013806  -0.026042  -0.000488
    28  H    0.003663  -0.004287   0.013806   0.485218  -0.018800   0.000009
    29  H   -0.002510   0.008987  -0.026042  -0.018800   0.484744  -0.000095
    30  H    0.000006  -0.000006  -0.000488   0.000009  -0.000095   0.481755
    31  H   -0.000004  -0.000003   0.003514   0.000109  -0.000105  -0.009904
              31
     1  C   -0.081145
     2  O   -0.002967
     3  C   -0.007658
     4  O   -0.000023
     5  C    0.018797
     6  C   -0.025407
     7  C   -0.000314
     8  O   -0.000765
     9  C    0.000654
    10  C   -0.000030
    11  C   -0.004456
    12  C   -0.000770
    13  C    0.464495
    14  H    0.003549
    15  H   -0.004084
    16  H    0.000346
    17  H   -0.001431
    18  H    0.001700
    19  H   -0.005089
    20  H   -0.001321
    21  H    0.000003
    22  H   -0.000112
    23  H   -0.000022
    24  H    0.000091
    25  H   -0.000004
    26  H   -0.000003
    27  H    0.003514
    28  H    0.000109
    29  H   -0.000105
    30  H   -0.009904
    31  H    0.480421
 Mulliken charges:
               1
     1  C   -0.155496
     2  O   -0.243230
     3  C   -0.266275
     4  O   -0.303235
     5  C   -0.125265
     6  C   -0.373328
     7  C   -0.362981
     8  O   -0.255467
     9  C   -0.255495
    10  C   -0.155111
    11  C   -0.234967
    12  C   -0.298492
    13  C   -0.403408
    14  H    0.140920
    15  H    0.202120
    16  H    0.164096
    17  H    0.186005
    18  H    0.244813
    19  H    0.195977
    20  H    0.183008
    21  H    0.183390
    22  H    0.163698
    23  H    0.208224
    24  H    0.152707
    25  H    0.208961
    26  H    0.143625
    27  H    0.291639
    28  H    0.216153
    29  H    0.196621
    30  H    0.178862
    31  H    0.171931
 Sum of Mulliken charges =  -0.00000
 Mulliken charges with hydrogens summed into heavy atoms:
               1
     1  C    0.187544
     2  O   -0.243230
     3  C    0.083825
     4  O   -0.303235
     5  C    0.119548
     6  C    0.005657
     7  C   -0.015893
     8  O   -0.255467
     9  C    0.105436
    10  C    0.197475
    11  C    0.056673
    12  C    0.114281
    13  C   -0.052615
 Electronic spatial extent (au):  <R**2>=           2973.9481
 Charge=             -0.0000 electrons
 Dipole moment (field-independent basis, Debye):
    X=              1.4083    Y=              2.4839    Z=             -0.1414  Tot=              2.8588
 Quadrupole moment (field-independent basis, Debye-Ang):
   XX=            -72.4438   YY=            -82.4848   ZZ=            -79.4971
   XY=             -4.6382   XZ=              3.0141   YZ=              4.6398
 Traceless Quadrupole moment (field-independent basis, Debye-Ang):
   XX=              5.6981   YY=             -4.3429   ZZ=             -1.3552
   XY=             -4.6382   XZ=              3.0141   YZ=              4.6398
 Octapole moment (field-independent basis, Debye-Ang**2):
  XXX=              3.7596  YYY=             -1.2036  ZZZ=              6.4278  XYY=              2.1465
  XXY=             22.8829  XXZ=             -6.7157  XZZ=              5.9023  YZZ=             -2.0587
  YYZ=             -4.6680  XYZ=             -1.5365
 Hexadecapole moment (field-independent basis, Debye-Ang**3):
 XXXX=          -2864.4832 YYYY=           -508.0349 ZZZZ=           -445.5865 XXXY=            -60.3206
 XXXZ=              7.4068 YYYX=             -5.7528 YYYZ=              6.7605 ZZZX=             11.3800
 ZZZY=             -3.1561 XXYY=           -610.0563 XXZZ=           -560.6253 YYZZ=           -161.5701
 XXYZ=             16.2957 YYXZ=              4.2836 ZZXY=             -2.1432
 N-N= 8.973344503251D+02 E-N=-3.236491457796D+03  KE= 6.153397710190D+02
 D1PCM: PCM CHGder 1st derivatives, ID1Alg=3 FixD1E=F DoIter=F DoCFld=F I1PDM=0.
 Calling FoFJK, ICntrl=      2127 FMM=F ISym2X=0 I1Cent= 0 IOpClX= 0 NMat=1 NMatS=1 NMatT=0.
 ***** Axes restored to original set *****
 -------------------------------------------------------------------
 Center     Atomic                   Forces (Hartrees/Bohr)
 Number     Number              X              Y              Z
 -------------------------------------------------------------------
      1        6          -0.003574419    0.000475614    0.006600699
      2        8          -0.000481956   -0.004686365   -0.003715722
      3        6           0.001287635   -0.003700676   -0.001216547
      4        8           0.002367630   -0.006296302   -0.006675112
      5        6           0.002688139   -0.003866796   -0.003010478
      6        6           0.001092395    0.001990551   -0.001616589
      7        6          -0.000335174   -0.001056728    0.002640511
      8        8          -0.004513912    0.019123514    0.003132838
      9        6           0.001593945   -0.003088567   -0.003013320
     10        6          -0.006741716    0.001844034   -0.000498184
     11        6           0.002186856   -0.006128953    0.008624871
     12        6           0.002348935    0.006306742   -0.003654192
     13        6           0.002412542    0.001426724    0.000872064
     14        1           0.004183134    0.005865185   -0.000289670
     15        1          -0.000534668   -0.001982364   -0.003995992
     16        1           0.002992703    0.002098450   -0.000177127
     17        1          -0.002218900    0.000770680    0.000934216
     18        1           0.000445887   -0.007342787    0.002580018
     19        1          -0.002304296   -0.002626763   -0.000108844
     20        1           0.001207408    0.001218016    0.002798323
     21        1           0.001397710    0.002530600    0.000717651
     22        1          -0.000743662   -0.000374617   -0.003118999
     23        1           0.000445307   -0.000854627    0.003770363
     24        1          -0.002252642    0.002168756   -0.000658870
     25        1           0.003415753   -0.000238300   -0.002681518
     26        1           0.001511685    0.000788474    0.005972853
     27        1          -0.001559049   -0.000840735   -0.007937888
     28        1          -0.003556540   -0.003889191   -0.001533397
     29        1           0.000083503    0.001056827    0.006552159
     30        1          -0.001086315    0.002107020   -0.001541529
     31        1          -0.001757916   -0.002797416    0.000247411
 -------------------------------------------------------------------
 Cartesian Forces:  Max     0.019123514 RMS     0.003786989

 GradGradGradGradGradGradGradGradGradGradGradGradGradGradGradGradGradGrad
 Berny optimization.
 FormGI is forming the generalized inverse of G from B-inverse, IUseBI=4.
 Internal  Forces:  Max     0.016419695 RMS     0.002297316
 Search for a local minimum.
 Step number   1 out of a maximum of  186
 All quantities printed in internal units (Hartrees-Bohrs-Radians)
 Mixed Optimization -- RFO/linear search
 Second derivative matrix not updated -- first step.
 ITU=  0
     Eigenvalues ---    0.00651   0.00657   0.00730   0.00745   0.01352
     Eigenvalues ---    0.01436   0.01495   0.02681   0.02794   0.03082
     Eigenvalues ---    0.03176   0.04115   0.04376   0.04734   0.04805
     Eigenvalues ---    0.04824   0.04983   0.05082   0.05150   0.05184
     Eigenvalues ---    0.05233   0.05736   0.05741   0.06148   0.06187
     Eigenvalues ---    0.06351   0.06379   0.06778   0.07363   0.07762
     Eigenvalues ---    0.07877   0.07889   0.07998   0.08073   0.08213
     Eigenvalues ---    0.08353   0.08958   0.09353   0.10858   0.11616
     Eigenvalues ---    0.11664   0.11710   0.11778   0.12471   0.12488
     Eigenvalues ---    0.14564   0.14902   0.16353   0.16629   0.17458
     Eigenvalues ---    0.19325   0.21742   0.21768   0.25000   0.28452
     Eigenvalues ---    0.28679   0.28710   0.29019   0.29127   0.29411
     Eigenvalues ---    0.30083   0.30457   0.35052   0.35077   0.35098
     Eigenvalues ---    0.35113   0.35141   0.35148   0.35198   0.35262
     Eigenvalues ---    0.35289   0.35333   0.35342   0.35461   0.35499
     Eigenvalues ---    0.35798   0.35821   0.35841   0.35884   0.36103
     Eigenvalues ---    0.40264   0.41500   0.42180   0.43239   0.43535
     Eigenvalues ---    0.446281000.000001000.000001000.000001000.00000
     Eigenvalues --- 1000.000001000.000001000.000001000.000001000.00000
     Eigenvalues --- 1000.000001000.000001000.000001000.000001000.00000
     Eigenvalues --- 1000.000001000.000001000.000001000.000001000.00000
     Eigenvalues --- 1000.000001000.000001000.000001000.000001000.00000
     Eigenvalues --- 1000.000001000.000001000.000001000.000001000.00000
     Eigenvalues --- 1000.000001000.000001000.000001000.000001000.00000
     Eigenvalues --- 1000.000001000.000001000.000001000.000001000.00000
     Eigenvalues --- 1000.000001000.000001000.000001000.000001000.00000
     Eigenvalues --- 1000.000001000.000001000.000001000.000001000.00000
     Eigenvalues --- 1000.000001000.000001000.000001000.000001000.00000
     Eigenvalues --- 1000.000001000.000001000.000001000.000001000.00000
     Eigenvalues --- 1000.000001000.000001000.000001000.000001000.00000
     Eigenvalues --- 1000.000001000.000001000.000001000.000001000.00000
     Eigenvalues --- 1000.000001000.000001000.000001000.000001000.00000
     Eigenvalues --- 1000.000001000.000001000.000001000.000001000.00000
     Eigenvalues --- 1000.000001000.000001000.000001000.000001000.00000
     Eigenvalues --- 1000.000001000.000001000.000001000.000001000.00000
     Eigenvalues --- 1000.000001000.000001000.000001000.000001000.00000
     Eigenvalues --- 1000.000001000.000001000.000001000.000001000.00000
 RFO step:  Lambda=-3.98100830D-03 EMin= 6.51442408D-03
 Linear search not attempted -- first point.
 Iteration  1 RMS(Cart)=  0.07074713 RMS(Int)=  0.00100787
 Iteration  2 RMS(Cart)=  0.00238252 RMS(Int)=  0.00005702
 Iteration  3 RMS(Cart)=  0.00000308 RMS(Int)=  0.00005699
 Iteration  4 RMS(Cart)=  0.00000000 RMS(Int)=  0.00005699
 Iteration  1 RMS(Cart)=  0.00005747 RMS(Int)=  0.00001198
 Iteration  2 RMS(Cart)=  0.00003003 RMS(Int)=  0.00001340
 Iteration  3 RMS(Cart)=  0.00001569 RMS(Int)=  0.00001506
 Iteration  4 RMS(Cart)=  0.00000820 RMS(Int)=  0.00001610
 Iteration  5 RMS(Cart)=  0.00000428 RMS(Int)=  0.00001668
 Iteration  6 RMS(Cart)=  0.00000224 RMS(Int)=  0.00001699
 Iteration  7 RMS(Cart)=  0.00000117 RMS(Int)=  0.00001716
 Iteration  8 RMS(Cart)=  0.00000061 RMS(Int)=  0.00001725
 Variable       Old X    -DE/DX   Delta X   Delta X   Delta X     New X
                                 (Linear)    (Quad)   (Total)
    R1        2.69552   0.00284   0.00000   0.00655   0.00654   2.70206
    R2        2.86798  -0.00034   0.00000  -0.00039  -0.00042   2.86755
    R3        2.04872   0.00715   0.00000   0.01991   0.01991   2.06863
    R4        2.04264   0.00449   0.00000   0.01238   0.01238   2.05501
    R5        2.63953   0.00306   0.00000   0.00553   0.00556   2.64509
    R6        2.88537  -0.00135   0.00000  -0.00426  -0.00425   2.88112
    R7        2.88545  -0.00132   0.00000  -0.00273  -0.00276   2.88268
    R8        2.05447   0.00351   0.00000   0.00989   0.00989   2.06436
    R9        2.05124   0.00253   0.00000   0.00707   0.00707   2.05831
   R10        2.67642   0.00326   0.00000   0.00747   0.00750   2.68391
   R11        2.66814   0.00324   0.00000   0.00742   0.00744   2.67558
   R12        2.87323  -0.00062   0.00000  -0.00285  -0.00281   2.87042
   R13        2.67016   0.00335   0.00000   0.00763   0.00763   2.67779
   R14        2.04399   0.00768   0.00000   0.02122   0.02122   2.06521
   R15        2.05354   0.00346   0.00000   0.00973   0.00973   2.06327
   R16        2.04932   0.00324   0.00000   0.00903   0.00903   2.05835
   R17        2.89241  -0.00063   0.00000  -0.00224  -0.00225   2.89016
   R18        2.87313   0.00047   0.00000   0.00144   0.00144   2.87457
   R19        2.05208   0.00295   0.00000   0.00827   0.00827   2.06035
   R20        2.05435   0.00316   0.00000   0.00888   0.00888   2.06323
   R21        2.67376   0.00091   0.00000   0.00209   0.00209   2.67585
   R22        2.87588  -0.00225   0.00000  -0.00731  -0.00733   2.86855
   R23        2.05517   0.00375   0.00000   0.01055   0.01055   2.06572
   R24        2.05137   0.00313   0.00000   0.00876   0.00876   2.06013
   R25        2.04363   0.00435   0.00000   0.01200   0.01200   2.05563
   R26        2.05550   0.00609   0.00000   0.01717   0.01717   2.07267
   R27        2.88510  -0.00068   0.00000  -0.00218  -0.00217   2.88293
   R28        2.03921   0.00804   0.00000   0.02203   0.02203   2.06124
   R29        2.04331   0.00536   0.00000   0.01478   0.01478   2.05809
   R30        2.05591   0.00629   0.00000   0.01775   0.01775   2.07366
   R31        2.05252   0.00281   0.00000   0.00788   0.00788   2.06040
   R32        2.05492   0.00323   0.00000   0.00910   0.00910   2.06402
    A1        1.95805   0.00225   0.00000   0.00572   0.00559   1.96364
    A2        1.91288   0.00015   0.00000   0.00315   0.00324   1.91612
    A3        1.83516  -0.00117   0.00000  -0.00201  -0.00199   1.83317
    A4        1.91675  -0.00135   0.00000  -0.00623  -0.00624   1.91051
    A5        1.95018  -0.00045   0.00000  -0.00250  -0.00244   1.94775
    A6        1.88812   0.00057   0.00000   0.00214   0.00212   1.89024
    A7        2.05415  -0.00452   0.00000  -0.03402  -0.03389   2.02026
    A8        1.90256   0.00196   0.00000   0.00032   0.00038   1.90294
    A9        1.92665  -0.00088   0.00000  -0.00618  -0.00622   1.92042
   A10        1.91626  -0.00058   0.00000   0.00180   0.00180   1.91806
   A11        1.91442  -0.00092   0.00000  -0.00273  -0.00280   1.91162
   A12        1.93483  -0.00024   0.00000   0.00202   0.00204   1.93687
   A13        1.86913   0.00060   0.00000   0.00472   0.00474   1.87387
   A14        1.97697  -0.00474   0.00000  -0.02787  -0.02779   1.94918
   A15        1.97788   0.00229   0.00000   0.01075   0.01034   1.98822
   A16        1.97737  -0.00066   0.00000  -0.01788  -0.01780   1.95957
   A17        1.81424   0.00008   0.00000  -0.00187  -0.00180   1.81244
   A18        1.89910  -0.00416   0.00000  -0.02006  -0.02013   1.87897
   A19        1.91545  -0.00079   0.00000   0.00543   0.00548   1.92093
   A20        1.87512   0.00361   0.00000   0.02687   0.02699   1.90211
   A21        1.96464  -0.00087   0.00000  -0.01291  -0.01298   1.95167
   A22        1.90583   0.00117   0.00000   0.00979   0.00988   1.91571
   A23        1.95193  -0.00060   0.00000  -0.00351  -0.00367   1.94826
   A24        1.87087  -0.00010   0.00000   0.00522   0.00523   1.87611
   A25        1.89363   0.00035   0.00000  -0.00385  -0.00390   1.88973
   A26        1.87301   0.00011   0.00000   0.00651   0.00651   1.87952
   A27        1.92894  -0.00071   0.00000  -0.00519  -0.00524   1.92371
   A28        1.92776  -0.00053   0.00000  -0.00088  -0.00087   1.92689
   A29        1.91968   0.00081   0.00000   0.00136   0.00137   1.92105
   A30        1.90821   0.00079   0.00000   0.00486   0.00489   1.91310
   A31        1.90372  -0.00035   0.00000  -0.00291  -0.00291   1.90081
   A32        1.87456   0.00002   0.00000   0.00299   0.00298   1.87754
   A33        2.11792  -0.01642   0.00000  -0.06465  -0.06465   2.05327
   A34        1.91746   0.00108   0.00000  -0.00309  -0.00313   1.91434
   A35        1.91554  -0.00009   0.00000   0.00328   0.00326   1.91880
   A36        1.93469   0.00015   0.00000   0.00586   0.00586   1.94055
   A37        1.90017  -0.00108   0.00000  -0.00735  -0.00735   1.89282
   A38        1.91789  -0.00047   0.00000  -0.00282  -0.00279   1.91510
   A39        1.87738   0.00037   0.00000   0.00404   0.00400   1.88138
   A40        1.93686   0.00181   0.00000   0.00891   0.00891   1.94577
   A41        1.85581  -0.00123   0.00000  -0.00407  -0.00407   1.85174
   A42        1.90173   0.00078   0.00000   0.00710   0.00714   1.90887
   A43        1.94487  -0.00032   0.00000  -0.00339  -0.00340   1.94148
   A44        1.93038  -0.00159   0.00000  -0.00953  -0.00956   1.92082
   A45        1.89191   0.00058   0.00000   0.00135   0.00132   1.89323
   A46        1.88233  -0.00078   0.00000  -0.00056  -0.00056   1.88178
   A47        1.92535   0.00052   0.00000   0.00195   0.00196   1.92731
   A48        1.93060   0.00026   0.00000   0.00426   0.00424   1.93484
   A49        1.92035   0.00005   0.00000  -0.00048  -0.00052   1.91983
   A50        1.90909   0.00093   0.00000   0.00504   0.00504   1.91413
   A51        1.89618  -0.00096   0.00000  -0.01001  -0.01000   1.88619
   A52        1.92966   0.00198   0.00000   0.00987   0.00991   1.93958
   A53        1.86205  -0.00051   0.00000   0.00333   0.00336   1.86541
   A54        1.91616   0.00124   0.00000   0.01190   0.01195   1.92812
   A55        1.94328  -0.00121   0.00000  -0.01114  -0.01121   1.93207
   A56        1.91628  -0.00246   0.00000  -0.01650  -0.01658   1.89970
   A57        1.89541   0.00106   0.00000   0.00339   0.00320   1.89861
   A58        1.91412  -0.00136   0.00000  -0.00584  -0.00605   1.90807
   A59        1.89613   0.00065   0.00000   0.00379   0.00387   1.89999
   A60        1.91439   0.00013   0.00000  -0.00224  -0.00220   1.91219
   A61        1.94281  -0.00028   0.00000  -0.00105  -0.00102   1.94179
   A62        1.91867   0.00094   0.00000   0.00196   0.00204   1.92071
   A63        1.87719  -0.00006   0.00000   0.00355   0.00352   1.88070
    D1       -0.90686  -0.00008   0.00000  -0.02352  -0.02343  -0.93030
    D2        1.22721  -0.00017   0.00000  -0.02535  -0.02529   1.20191
    D3       -3.03011  -0.00005   0.00000  -0.02242  -0.02234  -3.05245
    D4        0.96379   0.00119   0.00000   0.01816   0.01822   0.98201
    D5        3.09080   0.00041   0.00000   0.01564   0.01565   3.10645
    D6       -1.14498   0.00079   0.00000   0.02083   0.02087  -1.12412
[...]
 0.15525096,-0.00011904,-0.00015320,-0.00003141,-0.00149384,-0.00072526
 ,0.00044924,-0.00000030,0.00000087,0.00000110,-0.00000074,0.00000282,-
 0.00000126,0.00000080,0.00000007,0.00000159,-0.00000004,0.00000023,0.0
 0000037,0.00000065,-0.00000105,-0.00000012,0.00000401,0.00000787,-0.00
 000305,0.00000301,-0.00000047,-0.00000093,-0.00000086,-0.00000010,0.00
 000007,0.00039001,-0.00042901,0.00007426,-0.00003010,-0.00066104,0.000
 77781,-0.00029727,0.00006588,0.00035656,0.00002890,0.00013036,0.000237
 75,-0.13972325,0.01735343,0.15772071,0.00000900,-0.00000416,0.00000740
 ,-0.00001182,-0.00000799,-0.00001636,-0.00000039,-0.00000114,0.0000016
 8,-0.01445576,-0.01068917,-0.02273537,0.00006138,0.00005305,0.00002363
 ,-0.00000738,-0.00000875,-0.00000343,-0.00356148,0.00411382,-0.0150236
 8,-0.00024218,0.00015443,0.00015926,0.00057133,-0.00082914,-0.00106666
 ,-0.07128947,0.01144821,-0.05797315,-0.00027711,-0.00010866,0.00032241
 ,0.00222544,0.00059389,-0.00483067,0.00000043,0.00000089,-0.00000019,0
 .00000190,0.00000018,0.00000055,-0.00000046,-0.00000027,-0.00000095,0.
 00000077,-0.00000075,-0.00000066,-0.00000175,0.00000097,-0.00000039,-0
 .00000134,-0.00000910,-0.00000232,-0.00000573,0.00000055,0.00000024,0.
 00000002,-0.00000079,-0.00000079,0.00048676,-0.00003051,0.00026858,-0.
 00043793,0.00253861,-0.00053003,-0.00014838,0.00011928,0.00030919,0.00
 020701,-0.00002673,0.00024109,0.00913180,-0.00284346,0.02331132,0.0773
 3543,0.00000856,-0.00001277,0.00001767,-0.00004071,-0.00000050,-0.0000
 2494,-0.00000316,-0.00000334,0.00000344,-0.02039200,-0.00738157,-0.030
 40781,0.00011574,0.00006896,0.00000010,-0.00000468,-0.00000381,-0.0000
 0562,0.00922953,-0.00437782,0.02989893,-0.00021018,0.00030250,0.000099
 84,-0.00124176,0.00120924,0.00059856,0.01086320,-0.05194927,0.03372210
 ,-0.00009441,-0.00050428,0.00036861,0.00322511,0.00092427,-0.00366063,
 -0.00000007,0.00000379,-0.00000162,-0.00000117,-0.00000106,0.00000155,
 -0.00000149,-0.00000046,-0.00000274,0.00000035,-0.00000131,-0.00000025
 ,-0.00000282,0.00000190,-0.00000061,0.00000657,-0.00000551,-0.00000468
 ,-0.00000604,-0.00000063,0.00000005,0.00000081,-0.00000049,-0.00000156
 ,-0.00077841,0.00104674,-0.00046686,0.00368514,-0.00491729,0.00048090,
 0.00018708,0.00009471,-0.00071169,-0.00032557,-0.00002838,-0.00030846,
 -0.00037236,0.00131267,-0.00324633,-0.00448378,0.06422256,0.00003324,-
 0.00002265,0.00004497,-0.00010423,-0.00001326,-0.00008367,-0.00000713,
 -0.00000610,0.00000950,-0.00992574,-0.00984018,-0.00793152,0.00023695,
 0.00017323,0.00008102,-0.00001935,-0.00002945,-0.00001825,-0.00011501,
 0.00142470,-0.00496946,-0.00057095,-0.00000052,0.00012049,0.00021267,-
 0.00058145,0.00081701,-0.06143279,0.03140569,-0.27345428,0.00030178,-0
 .00034219,0.00002509,0.00240959,0.00077621,0.00159013,-0.00000125,0.00
 000159,-0.00000466,0.00000153,-0.00000986,0.00000470,-0.00000643,-0.00
 000131,-0.00000836,0.00000222,-0.00000316,-0.00000123,-0.00000754,0.00
 000587,-0.00000183,-0.00001011,-0.00002463,-0.00000859,-0.00002321,0.0
 0000385,0.00000331,0.00000260,0.00000160,-0.00000081,-0.00019025,0.000
 63234,0.00011991,-0.00021352,0.00084209,0.00117530,-0.00064131,-0.0000
 3418,0.00032438,-0.00001481,0.00011507,0.00021039,-0.00471371,0.003190
 08,-0.01678657,0.07620917,-0.02762507,0.29787466,-0.00333243,-0.001565
 32,0.00003375,-0.00266173,-0.00066282,-0.00165839,0.00000601,-0.000053
 93,0.00008818,0.00159206,-0.00081236,0.00028820,0.00351518,0.00171525,
 0.00241596,0.00003035,0.00001483,-0.00023373,0.00064603,0.00028972,-0.
 00078103,-0.00111246,-0.00227482,0.03596941,-0.00575224,0.00058423,-0.
 01675713,-0.00017998,-0.00009316,-0.00003002,-0.07790959,0.00546045,-0
 .08807128,-0.00544701,0.00249688,-0.01722134,-0.00006424,0.00035105,-0
 .00003689,-0.00298360,0.00097949,-0.00106742,0.00007627,0.00003989,-0.
 00013658,0.00000294,0.00000992,0.00000148,-0.00001062,0.00000194,-0.00
 005956,-0.00026754,-0.00036262,-0.00023231,-0.00004997,-0.00000263,-0.
 00004976,0.00009304,-0.00005435,-0.00012164,0.00013975,-0.00004765,0.0
 0016121,-0.00022641,-0.00015750,0.00034417,-0.00144141,-0.00284271,-0.
 00057464,0.00078855,0.00009413,0.00075939,-0.00004299,0.00003403,-0.00
 000170,0.00009937,-0.00002876,0.00006288,0.09527263,-0.00035795,0.0007
 1919,-0.00056458,-0.00126658,-0.00100349,0.00048002,0.00001868,0.00007
 153,0.00000467,-0.00172565,0.00154074,-0.00143637,-0.00017208,0.000041
 62,0.00091492,-0.00004513,-0.00001425,-0.00020949,0.00100257,0.0007815
 1,-0.00031051,-0.00125214,0.00118379,-0.00140143,-0.01070939,-0.000090
 37,-0.02658349,-0.00026119,-0.00033809,-0.00010301,0.00638083,-0.05008
 861,0.01175879,0.01224622,-0.00422405,0.02956149,0.00000208,-0.0001059
 7,0.00006811,0.00133215,0.00027472,0.00049590,-0.00000709,-0.00011076,
 0.00004597,-0.00002622,-0.00003645,0.00000652,-0.00000621,-0.00002444,
 -0.00000810,0.00007294,0.00000040,-0.00005340,0.00000866,0.00000551,0.
 00000814,0.00006761,-0.00003011,-0.00002275,0.00029704,-0.00010488,0.0
 0026942,-0.00011893,0.00001956,0.00054296,-0.00333471,-0.00350642,-0.0
 0139886,0.00087920,0.00123084,0.00020530,0.00001597,0.00010273,-0.0000
 1635,-0.00006579,-0.00009331,0.00008143,-0.00540799,0.05695648,-0.0014
 5316,0.00033906,0.00034343,-0.00172560,0.00021780,0.00190200,0.0000364
 9,0.00003212,-0.00013385,-0.00110579,-0.00056232,0.00173000,-0.0037030
 7,-0.00368620,-0.00282640,0.00019353,0.00026085,0.00000546,-0.00003734
 ,0.00019992,0.00025797,0.00987446,0.00257791,-0.02585342,-0.00346982,-
 0.00073232,-0.00581680,0.00002860,0.00017679,0.00011182,-0.08093573,0.
 01408222,-0.28011149,-0.00243050,0.00066015,-0.00510320,-0.00027671,-0
 .00038585,-0.00006850,-0.00179048,-0.00044683,0.00027948,-0.00003768,-
 0.00032505,-0.00012187,0.00001902,0.00001798,-0.00000117,0.00003303,-0
 .00002234,0.00005270,0.00025465,0.00041696,0.00024078,0.00017209,-0.00
 002914,-0.00000861,-0.00001694,0.00004664,0.00012416,-0.00002505,-0.00
 007202,0.00032518,-0.00033775,0.00014257,0.00037172,-0.00013677,-0.000
 56522,0.00072135,0.00021796,-0.00009729,0.00035622,-0.00000599,-0.0000
 0064,0.00000584,0.00007363,-0.00000672,-0.00017211,0.08648876,-0.01300
 254,0.31229466,-0.00010173,0.00015556,-0.00026378,-0.00050325,0.000118
 20,-0.00029864,0.00002340,0.00003314,-0.00003086,-0.02617421,-0.026999
 68,-0.00414778,-0.00080141,-0.00001194,0.00067750,-0.00005183,-0.00009
 099,-0.00002533,-0.00067042,-0.00024877,-0.00004610,0.00156059,-0.0019
 5976,-0.00075103,-0.00231446,0.00329917,-0.00061575,-0.00215938,0.0026
 3002,0.00476884,0.01183553,0.01483770,0.00539635,-0.11716898,-0.106848
 01,-0.03902117,-0.00001542,-0.00005416,0.00005056,0.00000199,-0.000045
 78,0.00003560,0.00001334,-0.00000115,0.00002122,-0.00000428,0.00000584
 ,-0.00000194,0.00001374,-0.00001295,0.00000602,-0.00071473,0.00021615,
 0.00021855,0.00000541,0.00000936,-0.00000081,0.00002048,-0.00001659,-0
 .00001894,0.00018463,-0.00021643,-0.00002362,0.00009341,-0.00002883,-0
 .00001887,-0.00007368,-0.00005145,0.00002166,0.00064956,0.00112578,0.0
 0017268,-0.00098982,-0.00142026,-0.00005890,0.00012602,0.00015481,-0.0
 0009865,0.00056702,-0.00100902,0.00000109,0.13975230,-0.00004733,-0.00
 037232,0.00050000,-0.00087960,0.00074819,0.00004323,-0.00007955,-0.000
 02216,0.00002206,-0.00193337,0.00263155,0.00230577,0.00043316,-0.00091
 704,-0.00097178,0.00012962,0.00022947,-0.00007985,0.00040255,0.0003548
 3,-0.00030989,0.00081275,0.00182935,0.00016111,0.00468041,-0.00308393,
 0.00149907,0.00150310,0.00173076,0.00054060,-0.01626502,-0.02296981,-0
 .00839769,-0.11322171,-0.22635273,-0.06190944,-0.00002902,0.00014090,-
 0.00011336,0.00000811,0.00007963,-0.00004021,-0.00000844,0.00002650,-0
 .00004547,0.00000653,0.00001106,-0.00000252,-0.00001997,0.00002944,-0.
 00000893,0.00029172,0.00031584,-0.00011061,0.00003327,-0.00001805,-0.0
 0000894,-0.00003900,0.00002224,0.00003894,-0.00013706,0.00000572,0.000
 00997,-0.00005902,0.00001386,0.00009104,0.00004959,0.00018069,-0.00007
 774,-0.00100390,-0.00146420,-0.00030327,0.00001204,0.00004003,-0.00009
 766,-0.00002823,-0.00007986,-0.00013476,-0.00036594,0.00114144,0.00014
 938,0.12329307,0.24183592,-0.00004411,-0.00005354,0.00001355,-0.000278
 46,0.00023912,-0.00043080,-0.00004757,0.00000920,0.00003967,0.01858056
 ,0.02040342,0.00499899,0.00017971,-0.00065625,0.00044095,0.00000104,0.
 00009180,-0.00017642,0.00033411,0.00020185,-0.00000816,0.00015097,-0.0
 0020987,-0.00006788,-0.00025327,0.00005763,0.00044844,0.00200986,-0.00
 085598,-0.00236613,0.00187811,0.00600028,0.00165202,-0.04722155,-0.068
 86501,-0.07643450,0.00000066,0.00001701,-0.00000122,0.00000161,0.00001
 740,-0.00000650,-0.00000372,0.00001093,-0.00001583,0.00000144,0.000004
 94,-0.00000435,-0.00001022,0.00001807,-0.00001502,0.00036021,0.0001473
 6,-0.00022570,-0.00000086,-0.00000409,0.00000169,0.00000854,-0.0000040
 7,0.00000362,-0.00012460,0.00010756,-0.00000551,-0.00001430,-0.0000202
 1,-0.00001835,0.00020112,0.00034718,0.00029476,-0.00005016,0.00002434,
 0.00032742,0.00069468,0.00063944,0.00038574,0.00033907,0.00018426,0.00
 048097,0.00061637,-0.00029831,0.00046023,0.03769518,0.06645095,0.07663
 265,0.00001061,0.00008500,0.00010746,-0.00043776,0.00023119,0.00002231
 ,0.00000306,-0.00001428,-0.00001233,-0.00297961,-0.00489953,0.03786254
 ,0.00021034,-0.00005584,-0.00050243,-0.00001082,-0.00002369,0.00002019
 ,-0.00041577,-0.00031634,-0.00029969,0.00151980,-0.00098180,0.00033285
 ,0.00031953,-0.00126156,0.00032510,0.00404987,0.00289139,0.00402062,-0
 .00497284,0.00207918,-0.01879987,-0.07278462,0.00380331,-0.07525352,-0
 .00003701,-0.00005309,-0.00005804,-0.00003096,-0.00015578,0.00004239,-
 0.00004202,-0.00003092,-0.00002437,0.00000589,-0.00000218,-0.00000139,
 -0.00000961,0.00000941,0.00001102,-0.00004628,-0.00008860,0.00001101,-
 0.00001861,0.00000592,0.00000142,-0.00000884,0.00000886,0.00001133,0.0
 0017456,-0.00019052,-0.00010522,-0.00015666,0.00006988,-0.00007554,0.0
 0040086,0.00022757,0.00043211,-0.00005250,-0.00005789,0.00027703,0.000
 05328,0.00017736,-0.00019263,0.00018630,0.00051411,-0.00136607,-0.0014
 7219,0.00340897,0.00026590,-0.00313301,0.00251957,-0.01500012,0.079738
 08,-0.00006977,-0.00025999,0.00016814,-0.00021987,0.00019218,-0.000118
 21,0.00000345,-0.00000350,0.00000238,-0.00125147,0.00275748,-0.0010872
 2,0.00015686,0.00012442,-0.00012492,0.00000134,-0.00001142,0.00002717,
 0.00001005,-0.00026224,-0.00004710,-0.00228904,0.00158876,-0.00124063,
 0.00024583,0.00181550,0.00106327,0.00024059,0.00002490,0.00220750,0.01
 070302,-0.00470879,0.02910176,0.00440950,-0.05595297,0.01797450,0.0000
 1990,0.00012685,-0.00002422,0.00001702,0.00019167,-0.00007029,0.000037
 05,0.00004497,0.00000292,-0.00000838,0.00000083,0.00000144,0.00000270,
 -0.00000513,-0.00000570,0.00015530,-0.00010156,0.00006407,0.00000333,-
 0.00000199,0.00000478,-0.00000375,0.00000387,-0.00000095,-0.00005130,0
 .00001536,-0.00001342,-0.00001549,0.00004904,-0.00013784,-0.00013336,-
 0.00035377,-0.00056637,-0.00003798,0.00024278,-0.00044128,0.00004753,-
 0.00000654,-0.00007797,0.00011435,0.00017341,0.00001198,0.00266249,-0.
 00428972,0.00050807,-0.00685282,0.00389124,-0.02400626,-0.00792491,0.0
 5472865,0.00005489,0.00005575,0.00011713,-0.00018258,0.00008798,-0.000
 00531,-0.00001499,-0.00001760,-0.00000433,0.01221407,0.00263150,-0.027
 41536,0.00013704,0.00016070,-0.00013505,-0.00000502,-0.00002781,-0.000
 00392,0.00044553,0.00020086,0.00013195,-0.00100750,-0.00036635,0.00207
 082,0.00025137,-0.00055939,0.00047969,-0.00282686,-0.00265544,0.000718
 11,-0.00202299,-0.00024093,-0.00721037,-0.07243416,0.02037706,-0.26662
 216,-0.00001535,-0.00001410,-0.00002360,-0.00001446,-0.00004330,0.0000
 1703,-0.00001181,-0.00000414,-0.00001397,0.00000612,-0.00000178,-0.000
 00202,-0.00000818,0.00000871,0.00000249,-0.00015591,-0.00002453,-0.000
 07307,-0.00002780,-0.00000052,-0.00000107,-0.00000360,0.00000392,0.000
 00144,-0.00001667,0.00019874,0.00000262,-0.00014370,-0.00009013,-0.000
 08870,0.00041026,0.00051676,0.00020612,-0.00003250,0.00004708,0.000237
 57,0.00033321,0.00004487,0.00049631,0.00091756,0.00109997,0.00055901,-
 0.00010687,0.00097428,0.00052022,-0.00363423,0.00078694,-0.00639802,0.
 06792643,-0.02315982,0.30242737,-0.00688522,0.01939134,-0.02094382,-0.
 00717143,0.00400263,0.00017459,-0.00158042,0.00057974,-0.00168598,-0.0
 0010051,-0.00001272,0.00001215,0.00050424,0.00056381,0.00236967,0.0009
 9526,-0.00064365,0.00014276,-0.00000133,-0.00002031,-0.00002018,-0.000
 42870,-0.00030245,-0.00028142,-0.00002267,0.00003003,0.00001363,0.0000
 2259,0.00002559,0.00002144,0.00026400,0.00003978,-0.00011176,0.0000614
 1,0.00000937,0.00001158,-0.07733993,0.05947523,-0.05394468,0.00081390,
 -0.00099358,-0.00029474,0.00100650,-0.00009524,0.00038702,0.00004226,0
 .00022481,0.00000658,0.00020609,-0.00044540,0.00001290,0.00005538,-0.0
 0005308,-0.00021609,-0.00003119,0.00036321,-0.00021763,0.00029232,0.00
 016492,0.00006911,-0.00001347,-0.00000417,0.00000535,-0.00000071,0.000
 00192,0.00000403,-0.00000823,-0.00000817,-0.00000403,-0.00000045,-0.00
 000976,-0.00000084,-0.00000957,-0.00000362,0.00000108,-0.00000097,-0.0
 0000283,-0.00000527,0.00001625,0.00003476,0.00001316,0.00002984,-0.000
 05882,-0.00000637,-0.00002253,-0.00001262,-0.00001331,0.08145661,0.000
 51399,-0.00844112,0.00743974,0.00381764,-0.00020985,0.00024329,-0.0058
 2395,0.01096101,-0.00964472,0.00006592,0.00000618,-0.00000622,-0.00039
 666,-0.00046554,-0.00149053,-0.00016861,-0.00060761,-0.00264767,-0.000
 00192,0.00001126,0.00001405,0.00028363,0.00017355,0.00022508,0.0000089
 1,-0.00002298,0.00000762,-0.00001580,-0.00001493,-0.00001576,-0.000132
 65,-0.00002602,0.00002009,-0.00004405,0.00000398,0.00000211,0.06164640
 ,-0.17904526,0.12000529,0.00015780,0.00054326,-0.00018132,-0.00032026,
 0.00004425,-0.00025404,0.00005782,0.00062546,0.00082741,0.00011670,0.0
 0040769,0.00091216,-0.00005129,-0.00001079,0.00013507,0.00002675,0.000
 20279,-0.00017724,-0.00015507,0.00054406,-0.00056919,0.00000899,0.0000
 0295,-0.00000308,-0.00000027,-0.00000122,-0.00000241,0.00000923,0.0000
 1116,0.00000488,-0.00000190,0.00000665,-0.00000054,0.00000665,0.000001
 64,-0.00000045,0.00000052,0.00000133,0.00000400,-0.00002197,-0.0000220
 5,0.00001781,-0.00001406,0.00003451,0.00000303,0.00001793,0.00000164,0
 .00000990,-0.06784205,0.19142970,0.00195262,-0.00763538,0.00678515,0.0
 0341689,-0.00201494,0.00130569,-0.01002450,0.02233470,-0.01850435,-0.0
 0003755,0.00001689,0.00001290,0.00107222,-0.00068681,-0.00107010,-0.00
 045323,-0.00447597,-0.00540380,-0.00000345,-0.00001649,-0.00001251,-0.
 00027376,0.00007529,0.00027615,-0.00002538,0.00002406,0.00003577,0.000
 01290,0.00000547,0.00000597,0.00008241,0.00000900,-0.00010666,0.000009
 68,-0.00003063,0.00001052,-0.05505400,0.11941107,-0.15460096,-0.000441
 97,0.00029995,0.00040597,-0.00090463,0.00016759,0.00012482,-0.00011352
 ,-0.00014626,0.00126839,0.00065607,0.00029269,0.00118715,-0.00013351,0
 .00012581,0.00023850,0.00022040,-0.00012439,0.00020088,-0.00103330,0.0
 0149347,-0.00109236,-0.00000900,-0.00000121,0.00000391,-0.00000077,0.0
 0000057,0.00000179,0.00000231,0.00000223,-0.00000330,0.00000283,-0.000
 00180,-0.00000085,-0.00000286,0.00000073,0.00000035,-0.00000043,-0.000
 00101,-0.00000206,-0.00001490,-0.00000393,0.00001936,-0.00000625,0.000
 00970,-0.00000376,0.00000053,0.00000490,-0.00000049,0.06040531,-0.1289
 7834,0.16923974,-0.02239975,-0.02434311,0.00226002,0.00298639,0.000053
 14,-0.00056125,-0.00141358,-0.00140942,-0.00021946,-0.00005318,0.00000
 565,0.00001384,-0.00034201,0.00001666,0.00003665,-0.00008448,-0.000215
 59,0.00016527,0.00000836,-0.00001111,-0.00001730,0.00007711,0.00006637
 ,-0.00009445,0.00000708,0.00006937,-0.00005018,0.00002824,0.00000943,0
 .00001546,-0.00003259,0.00005700,0.00032117,0.00003140,-0.00005604,-0.
 00012523,-0.15990426,-0.12694624,0.00039206,-0.00469439,0.00242415,0.0
 0189894,0.00141111,0.00030521,-0.00018248,0.00098164,-0.00013816,-0.00
 018001,0.00041573,0.00015174,-0.00041574,-0.00005246,-0.00000307,-0.00
 010068,-0.00013584,0.00015664,-0.00034391,0.00009418,0.00014994,-0.000
 05463,-0.00001363,-0.00000334,0.00000371,0.00000180,0.00000308,0.00000
 046,-0.00002354,-0.00002697,-0.00002076,0.00000865,-0.00000793,0.00000
 921,-0.00000705,0.00000113,0.00000141,-0.00000079,-0.00000080,-0.00000
 533,0.00010895,-0.00000161,-0.00018398,-0.00000067,0.00000049,0.000002
 09,-0.00004055,0.00004048,-0.00001799,0.00785067,0.00825163,0.00069884
 ,0.17518747,0.00926378,0.00872524,0.00016821,-0.00144087,0.00132428,-0
 .00095367,-0.00847559,-0.01139947,-0.00068480,-0.00002857,0.00000403,0
 .00000490,0.00012155,0.00012883,0.00012157,0.00069848,0.00064302,0.001
 03468,-0.00000670,-0.00000868,-0.00000501,-0.00023189,-0.00005156,-0.0
 0005220,-0.00001596,-0.00000704,0.00003733,0.00000298,0.00000445,0.000
 00409,0.00020544,0.00000484,-0.00016964,0.00000730,0.00000837,0.000044
 71,-0.12936161,-0.19700261,0.00358666,0.00254755,0.00028141,-0.0004551
 8,-0.00079400,0.00064075,0.00040222,0.00020911,0.00020833,-0.00282435,
 0.00031202,0.00021033,0.00017499,-0.00011234,0.00002688,-0.00000598,-0
 .00017318,0.00056998,-0.00022637,0.00023862,0.00016411,-0.00009526,-0.
 00000293,-0.00000078,0.00000214,-0.00000069,-0.00000046,0.00000110,0.0
 0000708,0.00001222,0.00000368,-0.00000154,0.00000302,-0.00000317,-0.00
 000172,-0.00000079,0.00000034,-0.00000032,-0.00000041,-0.00000098,0.00
 002025,0.00001290,0.00008823,0.00000385,-0.00001309,-0.00000217,0.0000
 0729,-0.00001592,0.00000082,-0.01439865,-0.01614568,-0.00015696,0.1414
 0127,0.21167347,0.00818840,0.01076696,-0.00196219,-0.00111950,-0.00088
 324,0.00072470,-0.02129332,-0.02439247,-0.00110390,0.00002299,0.000004
 05,-0.00000453,-0.00008415,-0.00018710,-0.00050212,-0.00017383,-0.0008
 7882,0.00186525,-0.00000388,0.00000888,0.00000835,-0.00002244,0.000162
 71,0.00001488,0.00000629,-0.00003971,0.00002450,-0.00001355,-0.0000062
 4,-0.00000742,0.00007882,-0.00000792,-0.00017543,-0.00001895,0.0000244
 9,0.00007523,0.00133369,0.00336350,-0.04851379,0.00246974,-0.00144336,
 0.00033061,-0.00048033,0.00048747,0.00022058,-0.00086938,-0.00219961,-
 0.00556764,0.00057034,0.00052653,0.00129686,-0.00005058,0.00005960,0.0
 0010602,0.00023034,0.00051338,-0.00027576,0.00041520,0.00006402,0.0001
 5758,0.00000681,0.00000155,-0.00000210,-0.00000088,-0.00000112,0.,0.00
 001335,0.00001294,0.00001039,-0.00000261,0.00000489,-0.00000727,0.0000
 0325,0.00000004,-0.00000085,0.00000030,0.00000063,0.00000256,-0.000074
 55,-0.00000478,0.00009485,-0.00000261,0.00000337,-0.00000255,0.0000209
 9,-0.00002067,0.00000956,0.01409576,0.01409995,-0.00032180,-0.00324571
 ,-0.00003993,0.05350545\\0.00000404,-0.00000096,0.00000710,0.00444477,
 -0.00565180,0.00127555,0.00001251,-0.00000396,0.00000100,0.00000429,0.
 00001331,-0.00000057,-0.00776128,0.01030215,-0.00375705,-0.00000163,-0
 .00000294,0.00000087,0.00000162,0.00000256,-0.00000532,0.00670380,-0.0
 0986393,0.00670936,-0.00000956,-0.00000564,-0.00000283,-0.00001540,-0.
 00001120,-0.00000084,-0.00339137,0.00524200,-0.00423252,0.00001863,-0.
 00000939,-0.00000477,-0.00001272,-0.00000707,0.00000563,-0.00000424,0.
 00000557,-0.00000009,0.00000144,-0.00000023,0.00000084,0.,0.00000080,0
 .00000273,-0.00000125,-0.00000290,0.00000533,-0.00000134,-0.00000260,0
 .00000121,0.00000147,-0.00000118,0.00000259,-0.00000034,-0.00000003,-0
 .00000025,-0.00000058,0.00000271,-0.00000161,-0.00000230,0.00000167,-0
 .00000230,0.00000195,-0.00000239,0.00000156,0.00000287,-0.00000286,-0.
 00000223,0.00000171,0.00000267,-0.00000621,0.00000139,-0.00000083,-0.0
 0000284,0.00000081,-0.00000642,0.00000104,-0.00000261,0.00000107,-0.00
 000402,0.00000247,-0.00000268,0.00000178,-0.00000045,0.00000370,0.0000
 0498,0.00000133,0.00000081,0.00000191\\\@


 ROSE IS A RED
 TY COBB IS BLUE
 'CAUSE PETE JUST HIT
 NO. 4592.
 Job cpu time:       0 days 14 hours 34 minutes 12.8 seconds.
 Elapsed time:       0 days  0 hours 54 minutes 41.0 seconds.
 File lengths (MBytes):  RWF=    685 Int=      0 D2E=      0 Chk=     33 Scr=      1
 Normal termination of Gaussian 16 at Sun Nov  4 23:44:40 2018.
