 Entering Gaussian System, Link 0=g16
 Initial command:
 /apps/gaussian/g16a03/g16/l1.exe "/jobfs/local/2012056.r-man2/Gau-27985.inp" -scrdir="/jobfs/local/2012056.r-man2/"
 Entering Link 1 = /apps/gaussian/g16a03/g16/l1.exe PID=     27986.
  
 Copyright (c) 1988,1990,1992,1993,1995,1998,2003,2009,2016,
            Gaussian, Inc.  All Rights Reserved.
  
 This is part of the Gaussian(R) 16 program.  It is based on
 the Gaussian(R) 09 system (copyright 2009, Gaussian, Inc.),
 the Gaussian(R) 03 system (copyright 2003, Gaussian, Inc.),
 the Gaussian(R) 98 system (copyright 1998, Gaussian, Inc.),
 the Gaussian(R) 94 system (copyright 1995, Gaussian, Inc.),
 the Gaussian 92(TM) system (copyright 1992, Gaussian, Inc.),
 the Gaussian 90(TM) system (copyright 1990, Gaussian, Inc.),
 the Gaussian 88(TM) system (copyright 1988, Gaussian, Inc.),
 the Gaussian 86(TM) system (copyright 1986, Carnegie Mellon
 University), and the Gaussian 82(TM) system (copyright 1983,
 Carnegie Mellon University). Gaussian is a federally registered
 trademark of Gaussian, Inc.
  
 This software contains proprietary and confidential information,
 including trade secrets, belonging to Gaussian, Inc.
  
 This software is provided under written license and may be
 used, copied, transmitted, or stored only in accord with that
 written license.
  
 The following legend is applicable only to US Government
 contracts under FAR:
  
                    RESTRICTED RIGHTS LEGEND
  
 Use, reproduction and disclosure by the US Government is
 subject to restrictions as set forth in subparagraphs (a)
 and (c) of the Commercial Computer Software - Restricted
 Rights clause in FAR 52.227-19.
  
 Gaussian, Inc.
 340 Quinnipiac St., Bldg. 40, Wallingford CT 06492
  
  
 ---------------------------------------------------------------
 Warning -- This program may not be used in any manner that
 competes with the business of Gaussian, Inc. or will provide
 assistance to any competitor of Gaussian, Inc.  The licensee
 of this program is prohibited from giving any competitor of
 Gaussian, Inc. access to this program.  By using this program,
 the user acknowledges that Gaussian, Inc. is engaged in the
 business of creating and licensing software in the field of
 computational chemistry and represents and warrants to the
 licensee that it is not a competitor of Gaussian, Inc. and that
 it will not use this program in any manner prohibited above.
 ---------------------------------------------------------------
  

 Cite this work as:
 Gaussian 16, Revision A.03,
 M. J. Frisch, G. W. Trucks, H. B. Schlegel, G. E. Scuseria, 
 M. A. Robb, J. R. Cheeseman, G. Scalmani, V. Barone, 
 G. A. Petersson, H. Nakatsuji, X. Li, M. Caricato, A. V. Marenich, 
 J. Bloino, B. G. Janesko, R. Gomperts, B. Mennucci, H. P. Hratchian, 
 J. V. Ortiz, A. F. Izmaylov, J. L. Sonnenberg, D. Williams-Young, 
 F. Ding, F. Lipparini, F. Egidi, J. Goings, B. Peng, A. Petrone, 
 T. Henderson, D. Ranasinghe, V. G. Zakrzewski, J. Gao, N. Rega, 
 G. Zheng, W. Liang, M. Hada, M. Ehara, K. Toyota, R. Fukuda, 
 J. Hasegawa, M. Ishida, T. Nakajima, Y. Honda, O. Kitao, H. Nakai, 
 T. Vreven, K. Throssell, J. A. Montgomery, Jr., J. E. Peralta, 
 F. Ogliaro, M. J. Bearpark, J. J. Heyd, E. N. Brothers, K. N. Kudin, 
 V. N. Staroverov, T. A. Keith, R. Kobayashi, J. Normand, 
 K. Raghavachari, A. P. Rendell, J. C. Burant, S. S. Iyengar, 
 J. Tomasi, M. Cossi, J. M. Millam, M. Klene, C. Adamo, R. Cammi, 
 J. W. Ochterski, R. L. Martin, K. Morokuma, O. Farkas, 
 J. B. Foresman, and D. J. Fox, Gaussian, Inc., Wallingford CT, 2016.
 
 ******************************************
 Gaussian 16:  ES64L-G16RevA.03 25-Dec-2016
                 4-Nov-2018 
 ******************************************
 %mem=6000mb
 %nproc=24
 Will use up to   24 processors via shared memory.
 %chk=L_a1-e4_D_PHI.inp_extract_4.chk
 ----------------------------------------------------------------------
 #M062X/6-311++G(2d,2p) opt=ModRedundant freq=noraman SCRF=(Solvent=Wat
 er)
 ----------------------------------------------------------------------
 1/18=120,19=15,26=3,38=1/1,3;
 2/9=110,12=2,17=6,18=5,40=1/2;
 3/5=4,6=6,7=1212,11=2,25=1,30=1,70=2201,71=1,72=1,74=-55/1,2,3;
 4//1;
 5/5=2,38=5,53=1/2;
 6/7=2,8=2,9=2,10=2,28=1/1;
 7//1,2,3,16;
 1/18=20,19=15,26=3/3(2);
 2/9=110/2;
 99//99;
 2/9=110/2;
 3/5=4,6=6,7=1212,11=2,25=1,30=1,70=2205,71=1,72=1,74=-55/1,2,3;
 4/5=5,16=3,69=1/1;
 5/5=2,38=5,53=1/2;
 7//1,2,3,16;
 1/18=20,19=15,26=3/3(-5);
 2/9=110/2;
 6/7=2,8=2,9=2,10=2,19=2,28=1/1;
 99/9=1/99;
 ---------------------------
 L_a1-e4_D_PHI.inp_extract_4
 ---------------------------
 Symbolic Z-matrix:
 Charge =  0 Multiplicity = 1
 C                    -1.99184  -0.67236  -1.38619 
 O                    -1.4928   -1.29203  -0.20038 
 C                    -3.02433   1.12883  -0.01743 
 O                     2.92043  -1.15952  -0.25175 
 C                    -1.38266  -0.53619   0.96853 
 C                    -2.57772   0.36885   1.22771 
 C                     2.93694   1.21655  -0.71585 
 O                    -0.19139   0.22687   1.04734 
 C                     1.66262   1.38701   0.11494 
 C                     3.72531   0.00596  -0.24184 
 C                     0.88226   0.08038   0.13907 
 C                     1.78956  -1.0618    0.58814 
 C                    -3.25961   0.12458  -1.1422 
 H                    -1.23118  -0.02556  -1.80647 
 H                    -2.15899  -1.48694  -2.0767 
 H                    -2.26552   1.84758  -0.318 
 H                    -3.92868   1.68922   0.19754 
 H                    -1.31815  -1.27811   1.75231 
 H                    -3.39336  -0.26398   1.56749 
 H                    -2.32754   1.03758   2.04368 
 H                     3.56015   2.10271  -0.64117 
 H                     2.68201   1.08603  -1.76459 
 H                     1.92279   1.65984   1.13511 
 H                     1.04164   2.1809   -0.28819 
 H                     4.56454  -0.19842  -0.89257 
 H                     4.10309   0.16576   0.7656 
 H                     0.52021  -0.13709  -0.85258 
 H                     1.27684  -2.01226   0.53425 
 H                     2.10762  -0.89639   1.61533 
 H                    -3.53587   0.62159  -2.06757 
 H                    -4.07272  -0.54588  -0.87453 
 
 The following ModRedundant input section has been read:
 D       2       5       8      11 F                                           
 

 GradGradGradGradGradGradGradGradGradGradGradGradGradGradGradGradGradGrad
 Berny optimization.
 Initialization pass.
                           ----------------------------
                           !    Initial Parameters    !
                           ! (Angstroms and Degrees)  !
 --------------------------                            --------------------------
 ! Name  Definition              Value          Derivative Info.                !
 --------------------------------------------------------------------------------
 ! R1    R(1,2)                  1.428          estimate D2E/DX2                !
 ! R2    R(1,13)                 1.5172         estimate D2E/DX2                !
 ! R3    R(1,14)                 1.0833         estimate D2E/DX2                !
 ! R4    R(1,15)                 1.0809         estimate D2E/DX2                !
 ! R5    R(2,5)                  1.3963         estimate D2E/DX2                !
 ! R6    R(3,6)                  1.5256         estimate D2E/DX2                !
 ! R7    R(3,13)                 1.5261         estimate D2E/DX2                !
 ! R8    R(3,16)                 1.0875         estimate D2E/DX2                !
 ! R9    R(3,17)                 1.0854         estimate D2E/DX2                !
 ! R10   R(4,10)                 1.4164         estimate D2E/DX2                !
 ! R11   R(4,12)                 1.412          estimate D2E/DX2                !
 ! R12   R(5,6)                  1.5213         estimate D2E/DX2                !
 ! R13   R(5,8)                  1.4169         estimate D2E/DX2                !
 ! R14   R(5,18)                 1.0812         estimate D2E/DX2                !
 ! R15   R(6,19)                 1.0868         estimate D2E/DX2                !
 ! R16   R(6,20)                 1.0843         estimate D2E/DX2                !
 ! R17   R(7,9)                  1.5307         estimate D2E/DX2                !
 ! R18   R(7,10)                 1.5204         estimate D2E/DX2                !
 ! R19   R(7,21)                 1.0859         estimate D2E/DX2                !
 ! R20   R(7,22)                 1.0871         estimate D2E/DX2                !
 ! R21   R(8,11)                 1.4139         estimate D2E/DX2                !
 ! R22   R(9,11)                 1.5221         estimate D2E/DX2                !
 ! R23   R(9,23)                 1.0876         estimate D2E/DX2                !
 ! R24   R(9,24)                 1.0855         estimate D2E/DX2                !
 ! R25   R(10,25)                1.0814         estimate D2E/DX2                !
 ! R26   R(10,26)                1.0877         estimate D2E/DX2                !
 ! R27   R(11,12)                1.5262         estimate D2E/DX2                !
 ! R28   R(11,27)                1.0778         estimate D2E/DX2                !
 ! R29   R(12,28)                1.0813         estimate D2E/DX2                !
 ! R30   R(12,29)                1.088          estimate D2E/DX2                !
 ! R31   R(13,30)                1.0861         estimate D2E/DX2                !
 ! R32   R(13,31)                1.0873         estimate D2E/DX2                !
 ! A1    A(2,1,13)             112.7312         estimate D2E/DX2                !
 ! A2    A(2,1,14)             109.6253         estimate D2E/DX2                !
 ! A3    A(2,1,15)             104.9218         estimate D2E/DX2                !
 ! A4    A(13,1,14)            109.6028         estimate D2E/DX2                !
 ! A5    A(13,1,15)            111.677          estimate D2E/DX2                !
 ! A6    A(14,1,15)            108.1018         estimate D2E/DX2                !
 ! A7    A(1,2,5)              119.1971         estimate D2E/DX2                !
 ! A8    A(6,3,13)             108.594          estimate D2E/DX2                !
 ! A9    A(6,3,16)             110.5204         estimate D2E/DX2                !
 ! A10   A(6,3,17)             109.844          estimate D2E/DX2                !
 ! A11   A(13,3,16)            109.8026         estimate D2E/DX2                !
 ! A12   A(13,3,17)            110.9322         estimate D2E/DX2                !
 ! A13   A(16,3,17)            107.1497         estimate D2E/DX2                !
 ! A14   A(10,4,12)            113.2034         estimate D2E/DX2                !
 ! A15   A(2,5,6)              113.7454         estimate D2E/DX2                !
 ! A16   A(2,5,8)              113.8534         estimate D2E/DX2                !
 ! A17   A(2,5,18)             103.8936         estimate D2E/DX2                !
 ! A18   A(6,5,8)              109.3045         estimate D2E/DX2                !
 ! A19   A(6,5,18)             109.366          estimate D2E/DX2                !
 ! A20   A(8,5,18)             106.2047         estimate D2E/DX2                !
 ! A21   A(3,6,5)              112.7847         estimate D2E/DX2                !
 ! A22   A(3,6,19)             108.9977         estimate D2E/DX2                !
 ! A23   A(3,6,20)             111.995          estimate D2E/DX2                !
 ! A24   A(5,6,19)             107.2412         estimate D2E/DX2                !
 ! A25   A(5,6,20)             108.293          estimate D2E/DX2                !
 ! A26   A(19,6,20)            107.278          estimate D2E/DX2                !
 ! A27   A(9,7,10)             110.5559         estimate D2E/DX2                !
 ! A28   A(9,7,21)             110.4602         estimate D2E/DX2                !
 ! A29   A(9,7,22)             109.9814         estimate D2E/DX2                !
 ! A30   A(10,7,21)            109.3131         estimate D2E/DX2                !
 ! A31   A(10,7,22)            109.0713         estimate D2E/DX2                !
 ! A32   A(21,7,22)            107.3909         estimate D2E/DX2                !
 ! A33   A(5,8,11)             123.1546         estimate D2E/DX2                !
 ! A34   A(7,9,11)             109.8654         estimate D2E/DX2                !
 ! A35   A(7,9,23)             109.7476         estimate D2E/DX2                !
 ! A36   A(7,9,24)             110.8617         estimate D2E/DX2                !
 ! A37   A(11,9,23)            108.8511         estimate D2E/DX2                !
 ! A38   A(11,9,24)            109.9016         estimate D2E/DX2                !
 ! A39   A(23,9,24)            107.5615         estimate D2E/DX2                !
 ! A40   A(4,10,7)             110.9969         estimate D2E/DX2                !
 ! A41   A(4,10,25)            106.3352         estimate D2E/DX2                !
 ! A42   A(4,10,26)            108.9481         estimate D2E/DX2                !
 ! A43   A(7,10,25)            111.4238         estimate D2E/DX2                !
 ! A44   A(7,10,26)            110.6004         estimate D2E/DX2                !
 ! A45   A(25,10,26)           108.3946         estimate D2E/DX2                !
 ! A46   A(8,11,9)             108.0925         estimate D2E/DX2                !
 ! A47   A(8,11,12)            109.8727         estimate D2E/DX2                !
 ! A48   A(8,11,27)            110.9069         estimate D2E/DX2                !
 ! A49   A(9,11,12)            110.0175         estimate D2E/DX2                !
 ! A50   A(9,11,27)            109.3187         estimate D2E/DX2                !
 ! A51   A(12,11,27)           108.6263         estimate D2E/DX2                !
 ! A52   A(4,12,11)            110.6633         estimate D2E/DX2                !
 ! A53   A(4,12,28)            106.8149         estimate D2E/DX2                !
 ! A54   A(4,12,29)            109.7535         estimate D2E/DX2                !
 ! A55   A(11,12,28)           111.1787         estimate D2E/DX2                !
 ! A56   A(11,12,29)           109.7433         estimate D2E/DX2                !
 ! A57   A(28,12,29)           108.6221         estimate D2E/DX2                !
 ! A58   A(1,13,3)             109.5939         estimate D2E/DX2                !
 ! A59   A(1,13,30)            108.4146         estimate D2E/DX2                !
 ! A60   A(1,13,31)            109.9115         estimate D2E/DX2                !
 ! A61   A(3,13,30)            111.4709         estimate D2E/DX2                !
 ! A62   A(3,13,31)            109.8529         estimate D2E/DX2                !
 ! A63   A(30,13,31)           107.5594         estimate D2E/DX2                !
 ! D1    D(13,1,2,5)           -47.7323         estimate D2E/DX2                !
 ! D2    D(14,1,2,5)            74.6506         estimate D2E/DX2                !
 ! D3    D(15,1,2,5)          -169.4747         estimate D2E/DX2                !
 ! D4    D(2,1,13,3)            54.0661         estimate D2E/DX2                !
 ! D5    D(2,1,13,30)          175.9373         estimate D2E/DX2                !
 ! D6    D(2,1,13,31)          -66.7536         estimate D2E/DX2                !
 ! D7    D(14,1,13,3)          -68.3294         estimate D2E/DX2                !
 ! D8    D(14,1,13,30)          53.5417         estimate D2E/DX2                !
 ! D9    D(14,1,13,31)         170.8509         estimate D2E/DX2                !
 ! D10   D(15,1,13,3)          171.9031         estimate D2E/DX2                !
 ! D11   D(15,1,13,30)         -66.2258         estimate D2E/DX2                !
 ! D12   D(15,1,13,31)          51.0833         estimate D2E/DX2                !
 ! D13   D(1,2,5,6)             42.6575         estimate D2E/DX2                !
 ! D14   D(1,2,5,8)            -83.4576         estimate D2E/DX2                !
 ! D15   D(1,2,5,18)           161.4739         estimate D2E/DX2                !
 ! D16   D(13,3,6,5)            53.5298         estimate D2E/DX2                !
 ! D17   D(13,3,6,19)          -65.4575         estimate D2E/DX2                !
 ! D18   D(13,3,6,20)          175.9981         estimate D2E/DX2                !
 ! D19   D(16,3,6,5)           -66.9725         estimate D2E/DX2                !
 ! D20   D(16,3,6,19)          174.0402         estimate D2E/DX2                !
 ! D21   D(16,3,6,20)           55.4958         estimate D2E/DX2                !
 ! D22   D(17,3,6,5)           175.0061         estimate D2E/DX2                !
 ! D23   D(17,3,6,19)           56.0188         estimate D2E/DX2                !
 ! D24   D(17,3,6,20)          -62.5256         estimate D2E/DX2                !
 ! D25   D(6,3,13,1)           -57.3327         estimate D2E/DX2                !
 ! D26   D(6,3,13,30)         -177.354          estimate D2E/DX2                !
 ! D27   D(6,3,13,31)           63.5225         estimate D2E/DX2                !
 ! D28   D(16,3,13,1)           63.6131         estimate D2E/DX2                !
 ! D29   D(16,3,13,30)         -56.4082         estimate D2E/DX2                !
 ! D30   D(16,3,13,31)        -175.5316         estimate D2E/DX2                !
 ! D31   D(17,3,13,1)         -178.1396         estimate D2E/DX2                !
 ! D32   D(17,3,13,30)          61.839          estimate D2E/DX2                !
 ! D33   D(17,3,13,31)         -57.2844         estimate D2E/DX2                !
 ! D34   D(12,4,10,7)          -60.2257         estimate D2E/DX2                !
 ! D35   D(12,4,10,25)         178.4295         estimate D2E/DX2                !
 ! D36   D(12,4,10,26)          61.7952         estimate D2E/DX2                !
 ! D37   D(10,4,12,11)          61.1516         estimate D2E/DX2                !
 ! D38   D(10,4,12,28)        -177.6948         estimate D2E/DX2                !
 ! D39   D(10,4,12,29)         -60.1161         estimate D2E/DX2                !
 ! D40   D(2,5,6,3)            -45.3942         estimate D2E/DX2                !
 ! D41   D(2,5,6,19)            74.6093         estimate D2E/DX2                !
 ! D42   D(2,5,6,20)          -169.915          estimate D2E/DX2                !
 ! D43   D(8,5,6,3)             83.0838         estimate D2E/DX2                !
 ! D44   D(8,5,6,19)          -156.9127         estimate D2E/DX2                !
 ! D45   D(8,5,6,20)           -41.4371         estimate D2E/DX2                !
 ! D46   D(18,5,6,3)          -161.0322         estimate D2E/DX2                !
 ! D47   D(18,5,6,19)          -41.0288         estimate D2E/DX2                !
 ! D48   D(18,5,6,20)           74.4469         estimate D2E/DX2                !
 ! D49   D(2,5,8,11)            -9.5379         Frozen                          !
 ! D50   D(6,5,8,11)          -137.9559         estimate D2E/DX2                !
 ! D51   D(18,5,8,11)          104.1596         estimate D2E/DX2                !
 ! D52   D(10,7,9,11)          -52.02           estimate D2E/DX2                !
 ! D53   D(10,7,9,23)           67.6318         estimate D2E/DX2                !
 ! D54   D(10,7,9,24)         -173.6904         estimate D2E/DX2                !
 ! D55   D(21,7,9,11)         -173.1454         estimate D2E/DX2                !
 ! D56   D(21,7,9,23)          -53.4936         estimate D2E/DX2                !
 ! D57   D(21,7,9,24)           65.1843         estimate D2E/DX2                !
 ! D58   D(22,7,9,11)           68.4884         estimate D2E/DX2                !
 ! D59   D(22,7,9,23)         -171.8598         estimate D2E/DX2                !
 ! D60   D(22,7,9,24)          -53.182          estimate D2E/DX2                !
 ! D61   D(9,7,10,4)            54.8358         estimate D2E/DX2                !
 ! D62   D(9,7,10,25)          173.144          estimate D2E/DX2                !
 ! D63   D(9,7,10,26)          -66.2172         estimate D2E/DX2                !
 ! D64   D(21,7,10,4)          176.6392         estimate D2E/DX2                !
 ! D65   D(21,7,10,25)         -65.0526         estimate D2E/DX2                !
 ! D66   D(21,7,10,26)          55.5863         estimate D2E/DX2                !
 ! D67   D(22,7,10,4)          -66.2145         estimate D2E/DX2                !
 ! D68   D(22,7,10,25)          52.0937         estimate D2E/DX2                !
 ! D69   D(22,7,10,26)         172.7326         estimate D2E/DX2                !
 ! D70   D(5,8,11,9)           155.2363         estimate D2E/DX2                !
 ! D71   D(5,8,11,12)          -84.6972         estimate D2E/DX2                !
 ! D72   D(5,8,11,27)           35.4108         estimate D2E/DX2                !
 ! D73   D(7,9,11,8)           172.7281         estimate D2E/DX2                !
 ! D74   D(7,9,11,12)           52.7525         estimate D2E/DX2                !
 ! D75   D(7,9,11,27)          -66.452          estimate D2E/DX2                !
 ! D76   D(23,9,11,8)           52.5308         estimate D2E/DX2                !
 ! D77   D(23,9,11,12)         -67.4448         estimate D2E/DX2                !
 ! D78   D(23,9,11,27)         173.3508         estimate D2E/DX2                !
 ! D79   D(24,9,11,8)          -65.0298         estimate D2E/DX2                !
 ! D80   D(24,9,11,12)         174.9947         estimate D2E/DX2                !
 ! D81   D(24,9,11,27)          55.7902         estimate D2E/DX2                !
 ! D82   D(8,11,12,4)         -175.6881         estimate D2E/DX2                !
 ! D83   D(8,11,12,28)          65.7776         estimate D2E/DX2                !
 ! D84   D(8,11,12,29)         -54.4144         estimate D2E/DX2                !
 ! D85   D(9,11,12,4)          -56.7979         estimate D2E/DX2                !
 ! D86   D(9,11,12,28)        -175.3322         estimate D2E/DX2                !
 ! D87   D(9,11,12,29)          64.4757         estimate D2E/DX2                !
 ! D88   D(27,11,12,4)          62.8287         estimate D2E/DX2                !
 ! D89   D(27,11,12,28)        -55.7056         estimate D2E/DX2                !
 ! D90   D(27,11,12,29)       -175.8977         estimate D2E/DX2                !
 --------------------------------------------------------------------------------
 Trust Radius=3.00D-01 FncErr=1.00D-07 GrdErr=1.00D-06 EigMax=2.50D+02 EigMin=1.00D-04
 Number of steps in this run=    186 maximum allowed number of steps=    186.
 GradGradGradGradGradGradGradGradGradGradGradGradGradGradGradGradGradGrad

                          Input orientation:                          
 ---------------------------------------------------------------------
 Center     Atomic      Atomic             Coordinates (Angstroms)
 Number     Number       Type             X           Y           Z
 ---------------------------------------------------------------------
      1          6           0       -1.991837   -0.672355   -1.386193
      2          8           0       -1.492801   -1.292034   -0.200378
      3          6           0       -3.024326    1.128828   -0.017429
      4          8           0        2.920428   -1.159517   -0.251751
      5          6           0       -1.382658   -0.536194    0.968530
      6          6           0       -2.577718    0.368849    1.227711
      7          6           0        2.936944    1.216551   -0.715847
      8          8           0       -0.191392    0.226868    1.047344
      9          6           0        1.662620    1.387014    0.114942
     10          6           0        3.725314    0.005961   -0.241841
     11          6           0        0.882256    0.080380    0.139074
     12          6           0        1.789555   -1.061798    0.588140
     13          6           0       -3.259608    0.124578   -1.142202
     14          1           0       -1.231183   -0.025558   -1.806466
     15          1           0       -2.158991   -1.486942   -2.076703
     16          1           0       -2.265517    1.847577   -0.317995
     17          1           0       -3.928684    1.689217    0.197544
     18          1           0       -1.318147   -1.278111    1.752310
     19          1           0       -3.393356   -0.263979    1.567494
     20          1           0       -2.327541    1.037583    2.043685
     21          1           0        3.560147    2.102714   -0.641166
     22          1           0        2.682008    1.086032   -1.764590
     23          1           0        1.922790    1.659837    1.135106
     24          1           0        1.041640    2.180900   -0.288187
     25          1           0        4.564535   -0.198422   -0.892573
     26          1           0        4.103085    0.165761    0.765604
     27          1           0        0.520205   -0.137086   -0.852582
     28          1           0        1.276841   -2.012263    0.534250
     29          1           0        2.107617   -0.896386    1.615331
     30          1           0       -3.535869    0.621590   -2.067568
     31          1           0       -4.072717   -0.545878   -0.874526
 ---------------------------------------------------------------------
                    Distance matrix (angstroms):
                    1          2          3          4          5
     1  C    0.000000
     2  O    1.428004   0.000000
     3  C    2.486726   2.870472   0.000000
     4  O    5.065040   4.415517   6.374287   0.000000
     5  C    2.436054   1.396342   2.537614   4.515990   0.000000
     6  C    2.873997   2.444384   1.525582   5.895279   1.521330
     7  C    5.320734   5.116771   6.002685   2.421024   4.956632
     8  O    3.157896   2.357443   3.157972   3.645975   1.416894
     9  C    4.455274   4.151314   4.695918   2.863803   3.701494
    10  C    5.869878   5.377289   6.846081   1.416432   5.277339
    11  C    3.339680   2.763991   4.047854   2.417485   2.489578
    12  C    4.283524   3.383582   5.323439   1.412034   3.237884
    13  C    1.517194   2.452637   1.526103   6.374531   2.900819
    14  H    1.083314   2.062019   2.783635   4.575902   2.825650
    15  H    1.080878   2.000598   3.439719   5.407232   3.283300
    16  H    2.750637   3.235441   1.087534   5.995084   2.849026
    17  H    3.440439   3.870365   1.085409   7.431520   3.468302
    18  H    3.266650   1.960533   3.440404   4.689973   1.081163
    19  H    3.294737   2.791841   2.141979   6.631403   2.115600
    20  H    3.847161   3.340617   2.177619   6.134937   2.127331
    21  H    6.251448   6.103351   6.685266   3.347094   5.829775
    22  H    5.007987   5.052820   5.967969   2.718091   5.159755
    23  H    5.207722   4.707794   5.107276   3.296576   3.971937
    24  H    4.306816   4.300276   4.208592   3.832696   3.852163
    25  H    6.591987   6.194065   7.753598   2.009339   6.240745
    26  H    6.517725   5.862783   7.234682   2.046961   5.534193
    27  H    2.623282   2.410699   3.855349   2.677206   2.663949
    28  H    4.020909   2.954543   5.354516   2.011555   3.072509
    29  H    5.085751   4.051709   5.753628   2.053264   3.567928
    30  H    2.126641   3.364890   2.173025   6.939258   3.898034
    31  H    2.146593   2.768969   2.153690   7.047587   3.260884
                    6          7          8          9         10
     6  C    0.000000
     7  C    5.908258   0.000000
     8  O    2.397341   3.724889   0.000000
     9  C    4.500598   1.530742   2.377535   0.000000
    10  C    6.482244   1.520440   4.129332   2.507849   0.000000
    11  C    3.638649   2.498703   1.413907   1.522118   2.869427
    12  C    4.639922   2.864918   2.407422   2.497340   2.361385
    13  C    2.478130   6.306460   3.770746   5.234738   7.043710
    14  H    3.342894   4.483923   3.047805   3.749835   5.197683
    15  H    3.812931   5.927002   4.070413   5.260004   6.341965
    16  H    2.161785   5.255671   2.965273   3.978670   6.267967
    17  H    2.151680   6.942229   4.102192   5.600074   7.849210
    18  H    2.138738   5.515518   2.007863   4.320745   5.573327
    19  H    1.086825   6.890451   3.280863   5.513491   7.349968
    20  H    1.084254   5.946583   2.492606   4.445620   6.551712
    21  H    6.646230   1.085930   4.521494   2.164379   2.140821
    22  H    6.093680   1.087147   4.111151   2.159255   2.138646
    23  H    4.682926   2.156626   2.555556   1.087592   2.807202
    24  H    4.322179   2.169110   2.668755   1.085534   3.454651
    25  H    7.471893   2.163893   5.153930   3.456849   1.081442
    26  H    6.699845   2.158412   4.304143   2.805475   1.087746
    27  H    3.765729   2.773384   2.061201   2.136374   3.265913
    28  H    4.583471   3.839782   2.726294   3.446698   3.266583
    29  H    4.868617   3.253717   2.621021   2.768231   2.623025
    30  H    3.441046   6.639159   4.587375   5.689773   7.512460
    31  H    2.736996   7.229570   4.399478   6.132635   7.843093
                   11         12         13         14         15
    11  C    0.000000
    12  C    1.526245   0.000000
    13  C    4.335742   5.467689   0.000000
    14  H    2.874539   3.991590   2.139695   0.000000
    15  H    4.076193   4.782588   2.163711   1.751999   0.000000
    16  H    3.638732   5.072391   2.153198   2.606536   3.771395
    17  H    5.073157   6.357586   2.165797   3.772668   4.288589
    18  H    3.047918   3.325642   3.756994   3.773770   3.925808
    19  H    4.521042   5.334624   2.740678   4.014404   4.037260
    20  H    3.853126   4.845255   3.442703   4.141972   4.835208
    21  H    3.445244   3.828880   7.118505   5.370690   6.903255
    22  H    2.806133   3.308320   6.050997   4.068224   5.491164
    23  H    2.137633   2.779248   5.865186   4.630437   6.072798
    24  H    2.149451   3.441281   4.843401   3.512741   5.186125
    25  H    3.834215   3.261663   7.834785   5.869875   6.947535
    26  H    3.282312   2.625036   7.605963   5.925079   7.072746
    27  H    1.077847   2.131202   3.799912   1.997422   3.240166
    28  H    2.165875   1.081279   5.287339   3.964358   4.347181
    29  H    2.152886   1.087955   6.119923   4.859488   5.673078
    30  H    4.968099   6.184393   1.086114   2.408018   2.518290
    31  H    5.096209   6.063975   1.087340   3.035385   2.448097
                   16         17         18         19         20
    16  H    0.000000
    17  H    1.748423   0.000000
    18  H    3.866988   4.247027   0.000000
    19  H    3.047254   2.445059   2.317135   0.000000
    20  H    2.497493   2.529135   2.542875   1.748366   0.000000
    21  H    5.840197   7.546986   6.399723   7.670112   6.558033
    22  H    5.210623   6.922070   5.827435   7.059416   6.292924
    23  H    4.437191   5.926182   4.417709   5.670047   4.390675
    24  H    3.324046   5.018148   4.658002   5.393531   4.253961
    25  H    7.153032   8.768484   6.539655   8.329721   7.592762
    26  H    6.675461   8.194689   5.696324   7.551446   6.614115
    27  H    3.461924   4.922475   3.386287   4.603133   4.228223
    28  H    5.307823   6.396234   2.959157   5.092625   4.956967
    29  H    5.512838   6.718065   3.449686   5.537412   4.857402
    30  H    2.485527   2.534731   4.808183   3.744091   4.305288
    31  H    3.050299   2.483089   3.876092   2.550384   3.750859
                   21         22         23         24         25
    21  H    0.000000
    22  H    1.751243   0.000000
    23  H    2.456058   3.051868   0.000000
    24  H    2.544324   2.463597   1.753196   0.000000
    25  H    2.523337   2.440111   3.813584   4.293861   0.000000
    26  H    2.454704   3.044378   2.668798   3.813621   1.759294
    27  H    3.781884   2.645972   3.024414   2.442027   4.044993
    28  H    4.850580   4.105922   3.776585   4.279525   4.016812
    29  H    4.024453   3.960274   2.607499   3.772185   3.579551
    30  H    7.387949   6.242555   6.413426   5.152789   8.226152
    31  H    8.082704   7.005830   6.697007   5.825441   8.644257
                   26         27         28         29         30
    26  H    0.000000
    27  H    3.943003   0.000000
    28  H    3.575607   2.451956   0.000000
    29  H    2.414971   3.031008   1.761847   0.000000
    30  H    8.160163   4.301571   6.071970   6.907744   0.000000
    31  H    8.369002   4.611131   5.722998   6.672239   1.753436
                   31
    31  H    0.000000
 Stoichiometry    C10H18O3
 Framework group  C1[X(C10H18O3)]
 Deg. of freedom    87
 Full point group                 C1      NOp   1
 Largest Abelian subgroup         C1      NOp   1
 Largest concise Abelian subgroup C1      NOp   1
                         Standard orientation:                         
 ---------------------------------------------------------------------
 Center     Atomic      Atomic             Coordinates (Angstroms)
 Number     Number       Type             X           Y           Z
 ---------------------------------------------------------------------
      1          6           0        1.991837   -0.672355    1.386193
      2          8           0        1.492801   -1.292034    0.200378
      3          6           0        3.024326    1.128828    0.017429
      4          8           0       -2.920428   -1.159517    0.251751
      5          6           0        1.382658   -0.536194   -0.968530
      6          6           0        2.577718    0.368849   -1.227711
      7          6           0       -2.936944    1.216551    0.715847
      8          8           0        0.191392    0.226868   -1.047344
      9          6           0       -1.662620    1.387014   -0.114942
     10          6           0       -3.725314    0.005961    0.241841
     11          6           0       -0.882256    0.080380   -0.139074
     12          6           0       -1.789555   -1.061798   -0.588140
     13          6           0        3.259608    0.124578    1.142202
     14          1           0        1.231183   -0.025558    1.806466
     15          1           0        2.158991   -1.486942    2.076703
     16          1           0        2.265517    1.847577    0.317995
     17          1           0        3.928684    1.689217   -0.197544
     18          1           0        1.318147   -1.278111   -1.752310
     19          1           0        3.393356   -0.263979   -1.567494
     20          1           0        2.327541    1.037583   -2.043685
     21          1           0       -3.560147    2.102714    0.641166
     22          1           0       -2.682008    1.086032    1.764590
     23          1           0       -1.922790    1.659837   -1.135106
     24          1           0       -1.041640    2.180900    0.288187
     25          1           0       -4.564535   -0.198422    0.892573
     26          1           0       -4.103085    0.165761   -0.765604
     27          1           0       -0.520205   -0.137086    0.852582
     28          1           0       -1.276841   -2.012263   -0.534250
     29          1           0       -2.107617   -0.896386   -1.615331
     30          1           0        3.535869    0.621590    2.067568
     31          1           0        4.072717   -0.545878    0.874526
 ---------------------------------------------------------------------
 Rotational constants (GHZ):           1.7381377           0.4259548           0.4158777
 Standard basis: 6-311++G(2d,2p) (5D, 7F)
 There are   557 symmetry adapted cartesian basis functions of A   symmetry.
 There are   531 symmetry adapted basis functions of A   symmetry.
   531 basis functions,   762 primitive gaussians,   557 cartesian basis functions
    51 alpha electrons       51 beta electrons
       nuclear repulsion energy       897.5656340202 Hartrees.
 NAtoms=   31 NActive=   31 NUniq=   31 SFac= 1.00D+00 NAtFMM=   60 NAOKFM=F Big=F
 Integral buffers will be    131072 words long.
 Raffenetti 2 integral format.
 Two-electron integral symmetry is turned on.
 ------------------------------------------------------------------------------
 Polarizable Continuum Model (PCM)
 =================================
 Model                : PCM.
 Atomic radii         : UFF (Universal Force Field).
 Polarization charges : Total charges.
 Charge compensation  : None.
 Solution method      : On-the-fly selection.
 Cavity type          : Scaled VdW (van der Waals Surface) (Alpha=1.100).
 Cavity algorithm     : GePol (No added spheres)
                        Default sphere list used, NSphG=   31.
                        Lebedev-Laikov grids with approx.  5.0 points / Ang**2.
                        Smoothing algorithm: York/Karplus (Gamma=1.0000).
                        Polarization charges: spherical gaussians, with
                                              point-specific exponents (IZeta= 3).
                        Self-potential: point-specific (ISelfS= 7).
                        Self-field    : sphere-specific E.n sum rule (ISelfD= 2).
 1st derivatives      : Analytical E(r).r(x)/FMM algorithm (CHGder, D1EAlg=3).
                        Cavity 1st derivative terms included.
 Solvent              : Water, Eps=  78.355300 Eps(inf)=   1.777849
 ------------------------------------------------------------------------------
 One-electron integrals computed using PRISM.
 NBasis=   531 RedAO= T EigKep=  4.97D-06  NBF=   531
 NBsUse=   531 1.00D-06 EigRej= -1.00D+00 NBFU=   531
 ExpMin= 3.60D-02 ExpMax= 8.59D+03 ExpMxC= 1.30D+03 IAcc=3 IRadAn=         5 AccDes= 0.00D+00
 Harris functional with IExCor= 1009 and IRadAn=       5 diagonalized for initial guess.
 HarFok:  IExCor= 1009 AccDes= 0.00D+00 IRadAn=         5 IDoV= 1 UseB2=F ITyADJ=14
 ICtDFT=  3500011 ScaDFX=  1.000000  1.000000  1.000000  1.000000
 FoFCou: FMM=F IPFlag=           0 FMFlag=      100000 FMFlg1=           0
         NFxFlg=           0 DoJE=T BraDBF=F KetDBF=T FulRan=T
         wScrn=  0.000000 ICntrl=       500 IOpCl=  0 I1Cent=   200000004 NGrid=           0
         NMat0=    1 NMatS0=      1 NMatT0=    0 NMatD0=    1 NMtDS0=    0 NMtDT0=    0
 Petite list used in FoFCou.
 Requested convergence on RMS density matrix=1.00D-08 within 128 cycles.
 Requested convergence on MAX density matrix=1.00D-06.
 Requested convergence on             energy=1.00D-06.
 No special actions if energy rises.
 Inv3:  Mode=1 IEnd=    13054188.
 Iteration    1 A*A^-1 deviation from unit magnitude is 4.88D-15 for   2081.
 Iteration    1 A*A^-1 deviation from orthogonality  is 2.63D-15 for   2064   1463.
 Iteration    1 A^-1*A deviation from unit magnitude is 4.88D-15 for   2081.
 Iteration    1 A^-1*A deviation from orthogonality  is 2.02D-13 for   1920   1859.
 Error on total polarization charges =  0.01492
 SCF Done:  E(RM062X) =  -617.492497730     A.U. after   12 cycles
            NFock= 12  Conv=0.51D-08     -V/T= 2.0035

 **********************************************************************

            Population analysis using the SCF density.

 **********************************************************************

 Orbital symmetries:
       Occupied  (A) (A) (A) (A) (A) (A) (A) (A) (A) (A) (A) (A)
                 (A) (A) (A) (A) (A) (A) (A) (A) (A) (A) (A) (A)
                 (A) (A) (A) (A) (A) (A) (A) (A) (A) (A) (A) (A)
                 (A) (A) (A) (A) (A) (A) (A) (A) (A) (A) (A) (A)
                 (A) (A) (A)
       Virtual   (A) (A) (A) (A) (A) (A) (A) (A) (A) (A) (A) (A)
                 (A) (A) (A) (A) (A) (A) (A) (A) (A) (A) (A) (A)
                 (A) (A) (A) (A) (A) (A) (A) (A) (A) (A) (A) (A)
                 (A) (A) (A) (A) (A) (A) (A) (A) (A) (A) (A) (A)
                 (A) (A) (A) (A) (A) (A) (A) (A) (A) (A) (A) (A)
                 (A) (A) (A) (A) (A) (A) (A) (A) (A) (A) (A) (A)
                 (A) (A) (A) (A) (A) (A) (A) (A) (A) (A) (A) (A)
                 (A) (A) (A) (A) (A) (A) (A) (A) (A) (A) (A) (A)
                 (A) (A) (A) (A) (A) (A) (A) (A) (A) (A) (A) (A)
                 (A) (A) (A) (A) (A) (A) (A) (A) (A) (A) (A) (A)
                 (A) (A) (A) (A) (A) (A) (A) (A) (A) (A) (A) (A)
                 (A) (A) (A) (A) (A) (A) (A) (A) (A) (A) (A) (A)
                 (A) (A) (A) (A) (A) (A) (A) (A) (A) (A) (A) (A)
                 (A) (A) (A) (A) (A) (A) (A) (A) (A) (A) (A) (A)
                 (A) (A) (A) (A) (A) (A) (A) (A) (A) (A) (A) (A)
                 (A) (A) (A) (A) (A) (A) (A) (A) (A) (A) (A) (A)
                 (A) (A) (A) (A) (A) (A) (A) (A) (A) (A) (A) (A)
                 (A) (A) (A) (A) (A) (A) (A) (A) (A) (A) (A) (A)
                 (A) (A) (A) (A) (A) (A) (A) (A) (A) (A) (A) (A)
                 (A) (A) (A) (A) (A) (A) (A) (A) (A) (A) (A) (A)
                 (A) (A) (A) (A) (A) (A) (A) (A) (A) (A) (A) (A)
                 (A) (A) (A) (A) (A) (A) (A) (A) (A) (A) (A) (A)
                 (A) (A) (A) (A) (A) (A) (A) (A) (A) (A) (A) (A)
                 (A) (A) (A) (A) (A) (A) (A) (A) (A) (A) (A) (A)
                 (A) (A) (A) (A) (A) (A) (A) (A) (A) (A) (A) (A)
                 (A) (A) (A) (A) (A) (A) (A) (A) (A) (A) (A) (A)
                 (A) (A) (A) (A) (A) (A) (A) (A) (A) (A) (A) (A)
                 (A) (A) (A) (A) (A) (A) (A) (A) (A) (A) (A) (A)
                 (A) (A) (A) (A) (A) (A) (A) (A) (A) (A) (A) (A)
                 (A) (A) (A) (A) (A) (A) (A) (A) (A) (A) (A) (A)
                 (A) (A) (A) (A) (A) (A) (A) (A) (A) (A) (A) (A)
                 (A) (A) (A) (A) (A) (A) (A) (A) (A) (A) (A) (A)
                 (A) (A) (A) (A) (A) (A) (A) (A) (A) (A) (A) (A)
                 (A) (A) (A) (A) (A) (A) (A) (A) (A) (A) (A) (A)
                 (A) (A) (A) (A) (A) (A) (A) (A) (A) (A) (A) (A)
                 (A) (A) (A) (A) (A) (A) (A) (A) (A) (A) (A) (A)
                 (A) (A) (A) (A) (A) (A) (A) (A) (A) (A) (A) (A)
                 (A) (A) (A) (A) (A) (A) (A) (A) (A) (A) (A) (A)
                 (A) (A) (A) (A) (A) (A) (A) (A) (A) (A) (A) (A)
                 (A) (A) (A) (A) (A) (A) (A) (A) (A) (A) (A) (A)
 The electronic state is 1-A.
 Alpha  occ. eigenvalues --  -19.63542 -19.62774 -19.62444 -10.63672 -10.58486
 Alpha  occ. eigenvalues --  -10.58146 -10.57789 -10.57502 -10.53128 -10.53087
 Alpha  occ. eigenvalues --  -10.53035 -10.53008 -10.52992  -1.19859  -1.16593
 Alpha  occ. eigenvalues --   -1.13473  -0.91148  -0.90171  -0.87586  -0.84615
 Alpha  occ. eigenvalues --   -0.75188  -0.74348  -0.73559  -0.70599  -0.65719
 Alpha  occ. eigenvalues --   -0.64375  -0.59678  -0.58955  -0.57735  -0.55811
 Alpha  occ. eigenvalues --   -0.54479  -0.53121  -0.52664  -0.51100  -0.50486
 Alpha  occ. eigenvalues --   -0.48116  -0.47202  -0.45753  -0.45629  -0.44927
 Alpha  occ. eigenvalues --   -0.43894  -0.43347  -0.40588  -0.39844  -0.39483
 Alpha  occ. eigenvalues --   -0.39056  -0.37512  -0.36626  -0.34658  -0.34134
 Alpha  occ. eigenvalues --   -0.30849
 Alpha virt. eigenvalues --   -0.00163   0.00722   0.00905   0.01097   0.02183
 Alpha virt. eigenvalues --    0.02527   0.02640   0.03365   0.03471   0.04491
 Alpha virt. eigenvalues --    0.04707   0.04880   0.05593   0.05657   0.07027
 Alpha virt. eigenvalues --    0.07681   0.07780   0.07999   0.08742   0.09447
 Alpha virt. eigenvalues --    0.09904   0.10253   0.11128   0.11631   0.11731
 Alpha virt. eigenvalues --    0.12355   0.12653   0.12993   0.13088   0.13622
 Alpha virt. eigenvalues --    0.13705   0.13896   0.14393   0.14660   0.15049
 Alpha virt. eigenvalues --    0.15215   0.15413   0.15550   0.15770   0.16358
 Alpha virt. eigenvalues --    0.16563   0.16920   0.17130   0.17732   0.17826
 Alpha virt. eigenvalues --    0.18263   0.18538   0.18766   0.19183   0.19529
 Alpha virt. eigenvalues --    0.20013   0.20269   0.20669   0.20940   0.21229
 Alpha virt. eigenvalues --    0.21643   0.21865   0.22316   0.23676   0.24385
 Alpha virt. eigenvalues --    0.25137   0.25417   0.25842   0.26145   0.26750
 Alpha virt. eigenvalues --    0.27780   0.27972   0.28744   0.29166   0.29231
 Alpha virt. eigenvalues --    0.29825   0.30280   0.31107   0.31731   0.32079
 Alpha virt. eigenvalues --    0.32223   0.33212   0.33293   0.34187   0.34230
 Alpha virt. eigenvalues --    0.34928   0.35181   0.35428   0.35819   0.36551
 Alpha virt. eigenvalues --    0.36849   0.37256   0.37362   0.38002   0.38055
 Alpha virt. eigenvalues --    0.38712   0.39079   0.39455   0.40558   0.40847
 Alpha virt. eigenvalues --    0.41437   0.41821   0.42956   0.44773   0.45843
 Alpha virt. eigenvalues --    0.46990   0.47603   0.48955   0.49397   0.51063
 Alpha virt. eigenvalues --    0.51983   0.52329   0.52971   0.54018   0.55692
 Alpha virt. eigenvalues --    0.56058   0.56763   0.58064   0.58830   0.59332
 Alpha virt. eigenvalues --    0.60022   0.60170   0.60560   0.61377   0.61708
 Alpha virt. eigenvalues --    0.62219   0.62672   0.63295   0.63801   0.64447
 Alpha virt. eigenvalues --    0.64875   0.65508   0.66505   0.66714   0.67654
 Alpha virt. eigenvalues --    0.68176   0.68918   0.69351   0.70110   0.70157
 Alpha virt. eigenvalues --    0.70744   0.71372   0.71793   0.72550   0.73195
 Alpha virt. eigenvalues --    0.73621   0.74239   0.74685   0.75327   0.75726
 Alpha virt. eigenvalues --    0.75980   0.76476   0.78288   0.78468   0.79285
 Alpha virt. eigenvalues --    0.81693   0.82308   0.82785   0.84702   0.85204
 Alpha virt. eigenvalues --    0.85918   0.86690   0.86739   0.88114   0.89778
 Alpha virt. eigenvalues --    0.90492   0.90565   0.91794   0.95198   0.96183
 Alpha virt. eigenvalues --    0.97224   0.98950   1.00326   1.00918   1.02768
 Alpha virt. eigenvalues --    1.02997   1.03678   1.04818   1.06328   1.06729
 Alpha virt. eigenvalues --    1.07532   1.09117   1.09217   1.09978   1.10422
 Alpha virt. eigenvalues --    1.13489   1.13680   1.14363   1.15059   1.16033
 Alpha virt. eigenvalues --    1.16264   1.17793   1.18129   1.18968   1.20349
 Alpha virt. eigenvalues --    1.20894   1.21898   1.22829   1.23684   1.24250
 Alpha virt. eigenvalues --    1.25396   1.25627   1.26230   1.27370   1.27718
 Alpha virt. eigenvalues --    1.28601   1.28894   1.30303   1.31406   1.31719
 Alpha virt. eigenvalues --    1.32298   1.33165   1.33672   1.34433   1.34722
 Alpha virt. eigenvalues --    1.35278   1.36335   1.36669   1.37860   1.38464
 Alpha virt. eigenvalues --    1.38736   1.39738   1.39754   1.40888   1.41081
 Alpha virt. eigenvalues --    1.41439   1.42969   1.44008   1.44399   1.45116
 Alpha virt. eigenvalues --    1.45521   1.46321   1.47036   1.47722   1.48405
 Alpha virt. eigenvalues --    1.48658   1.49674   1.50373   1.51287   1.52180
 Alpha virt. eigenvalues --    1.52477   1.53877   1.54567   1.55016   1.55583
 Alpha virt. eigenvalues --    1.56028   1.57415   1.58232   1.58645   1.59701
 Alpha virt. eigenvalues --    1.60129   1.60489   1.61060   1.62023   1.62682
 Alpha virt. eigenvalues --    1.63431   1.64476   1.64938   1.65992   1.66292
 Alpha virt. eigenvalues --    1.67773   1.68864   1.68947   1.71290   1.72144
 Alpha virt. eigenvalues --    1.72722   1.73726   1.75489   1.76512   1.76997
 Alpha virt. eigenvalues --    1.77811   1.78859   1.80191   1.82329   1.83205
 Alpha virt. eigenvalues --    1.86966   1.89697   1.91464   1.94354   1.96864
 Alpha virt. eigenvalues --    1.99789   2.06446   2.11827   2.15539   2.21070
 Alpha virt. eigenvalues --    2.25467   2.25834   2.27862   2.31031   2.37620
 Alpha virt. eigenvalues --    2.41580   2.44674   2.46127   2.49420   2.52492
 Alpha virt. eigenvalues --    2.54948   2.76358   2.77121   2.80260   2.83722
 Alpha virt. eigenvalues --    2.83809   2.89297   2.92725   2.93196   2.93797
 Alpha virt. eigenvalues --    2.97336   2.97702   3.01967   3.02360   3.04007
 Alpha virt. eigenvalues --    3.05033   3.07050   3.07962   3.08617   3.11663
 Alpha virt. eigenvalues --    3.13604   3.14776   3.17167   3.17435   3.19940
 Alpha virt. eigenvalues --    3.23100   3.29092   3.31897   3.33336   3.34410
 Alpha virt. eigenvalues --    3.35131   3.37137   3.38733   3.39966   3.41337
 Alpha virt. eigenvalues --    3.42161   3.43809   3.44680   3.45605   3.46650
 Alpha virt. eigenvalues --    3.47561   3.49363   3.49579   3.50407   3.51139
 Alpha virt. eigenvalues --    3.52416   3.53782   3.54134   3.55218   3.55671
 Alpha virt. eigenvalues --    3.56319   3.57826   3.58259   3.58478   3.59632
 Alpha virt. eigenvalues --    3.60717   3.60827   3.62660   3.63487   3.64018
 Alpha virt. eigenvalues --    3.66787   3.67476   3.67806   3.69072   3.69343
 Alpha virt. eigenvalues --    3.70695   3.71623   3.72442   3.73548   3.73997
 Alpha virt. eigenvalues --    3.74699   3.75504   3.76222   3.76773   3.77721
 Alpha virt. eigenvalues --    3.78437   3.79143   3.80218   3.81568   3.84113
 Alpha virt. eigenvalues --    3.86662   3.87342   3.88770   3.88876   3.90252
 Alpha virt. eigenvalues --    3.92851   3.94037   3.96079   3.96655   3.97501
 Alpha virt. eigenvalues --    3.99148   4.01174   4.02727   4.03415   4.04212
 Alpha virt. eigenvalues --    4.04692   4.05540   4.05758   4.06704   4.07833
 Alpha virt. eigenvalues --    4.08788   4.08996   4.10382   4.10441   4.11850
 Alpha virt. eigenvalues --    4.12480   4.13331   4.13893   4.15599   4.16584
 Alpha virt. eigenvalues --    4.16610   4.17534   4.18185   4.19144   4.19585
 Alpha virt. eigenvalues --    4.21000   4.22901   4.24047   4.26024   4.27388
 Alpha virt. eigenvalues --    4.28123   4.28523   4.29906   4.30510   4.32180
 Alpha virt. eigenvalues --    4.33325   4.34496   4.35046   4.37373   4.41118
 Alpha virt. eigenvalues --    4.41806   4.42781   4.45020   4.48208   4.54098
 Alpha virt. eigenvalues --    4.59903   4.62510   4.75288   4.77665   4.83028
 Alpha virt. eigenvalues --    4.86062   4.92698   4.94934   4.99359   5.00711
 Alpha virt. eigenvalues --    5.06858   5.07490   5.07915   5.09008   5.12028
 Alpha virt. eigenvalues --    5.12918   5.14554   5.15569   5.30796   5.38835
 Alpha virt. eigenvalues --    5.42793   5.55307   5.59531   5.61565   5.85219
 Alpha virt. eigenvalues --    5.87779   6.05230   7.00411   7.03929   7.06071
 Alpha virt. eigenvalues --    7.08949   7.10947   7.12636   7.14483   7.21067
 Alpha virt. eigenvalues --    7.24860   7.37253   7.41351   7.46628   7.52832
 Alpha virt. eigenvalues --    7.55229   7.60975  23.95388  23.97649  24.05926
 Alpha virt. eigenvalues --   24.07738  24.10112  24.12997  24.13701  24.15793
 Alpha virt. eigenvalues --   24.16483  24.19383  50.15880  50.17818  50.22821
          Condensed to atoms (all electrons):
               1          2          3          4          5          6
     1  C    5.437098   0.127687   0.032327   0.000463  -0.271388   0.113641
     2  O    0.127687   8.115258  -0.030183  -0.000182   0.261082  -0.022157
     3  C    0.032327  -0.030183   5.721601   0.000185  -0.020437  -0.161377
     4  O    0.000463  -0.000182   0.000185   8.275850  -0.009234   0.000902
     5  C   -0.271388   0.261082  -0.020437  -0.009234   7.237267  -1.034156
     6  C    0.113641  -0.022157  -0.161377   0.000902  -1.034156   6.567502
     7  C    0.000668   0.002728   0.003505  -0.007217  -0.029935  -0.002630
     8  O    0.048980  -0.040305  -0.039720   0.005185   0.344537  -0.107284
     9  C   -0.015812   0.037140   0.030451  -0.021622   0.016085   0.002428
    10  C   -0.004444  -0.001903   0.002092   0.100044  -0.022914  -0.004421
    11  C   -0.022429   0.044033   0.016592   0.033554  -0.897988   0.296947
    12  C    0.011640  -0.048786  -0.073195   0.190165   0.180498  -0.005106
    13  C   -0.081613  -0.064534  -0.084835   0.000360   0.062280  -0.041445
    14  H    0.471561  -0.044160  -0.000741   0.002474   0.024071   0.008094
    15  H    0.426684  -0.056209   0.019385   0.000645  -0.007805  -0.006158
    16  H    0.007081   0.001376   0.537547  -0.000027   0.010716  -0.078053
    17  H    0.005843  -0.003832   0.419179   0.000015   0.010694  -0.045384
    18  H   -0.009664  -0.056890  -0.009161   0.000964   0.514915  -0.085994
    19  H    0.021742  -0.010125  -0.005566  -0.000001  -0.123341   0.519641
    20  H    0.003728   0.008491  -0.032946  -0.000052  -0.035774   0.442306
    21  H   -0.000187   0.000349   0.000545   0.008797  -0.003685   0.001165
    22  H    0.002590  -0.000112   0.000173  -0.001788  -0.000604   0.000687
    23  H    0.001737  -0.000274   0.001805   0.000355  -0.001271  -0.000962
    24  H   -0.003483   0.001105  -0.007806  -0.002145   0.002115   0.002251
    25  H   -0.000096  -0.000086   0.000168  -0.072238  -0.000995  -0.000200
    26  H    0.000196  -0.000241  -0.000201  -0.049131   0.000128  -0.000136
    27  H   -0.020982   0.017848  -0.001420  -0.045813  -0.071349   0.006511
    28  H   -0.004556   0.005516  -0.002090  -0.066867  -0.007544   0.003647
    29  H    0.002694  -0.000228   0.002200  -0.045309   0.003466   0.001747
    30  H   -0.035332   0.008797  -0.052017   0.000009  -0.005453   0.006359
    31  H   -0.075067  -0.004117  -0.005497  -0.000023   0.020427  -0.029447
               7          8          9         10         11         12
     1  C    0.000668   0.048980  -0.015812  -0.004444  -0.022429   0.011640
     2  O    0.002728  -0.040305   0.037140  -0.001903   0.044033  -0.048786
     3  C    0.003505  -0.039720   0.030451   0.002092   0.016592  -0.073195
     4  O   -0.007217   0.005185  -0.021622   0.100044   0.033554   0.190165
     5  C   -0.029935   0.344537   0.016085  -0.022914  -0.897988   0.180498
     6  C   -0.002630  -0.107284   0.002428  -0.004421   0.296947  -0.005106
     7  C    5.473676  -0.009556   0.091289   0.045363  -0.056416   0.071502
     8  O   -0.009556   8.286563  -0.274686   0.016510   0.206998  -0.106612
     9  C    0.091289  -0.274686   6.805612  -0.021477  -0.893512  -0.325197
    10  C    0.045363   0.016510  -0.021477   5.468008   0.088923  -0.297492
    11  C   -0.056416   0.206998  -0.893512   0.088923   7.655998  -0.569630
    12  C    0.071502  -0.106612  -0.325197  -0.297492  -0.569630   6.549111
    13  C    0.005341  -0.032380  -0.024715  -0.001872   0.109241   0.029214
    14  H    0.005259  -0.004523  -0.007938  -0.002960  -0.005640   0.006675
    15  H    0.000686   0.001483   0.001201   0.000032   0.002809  -0.000446
    16  H   -0.004167   0.003271  -0.008105   0.001597   0.006581  -0.007230
    17  H    0.000395  -0.002884   0.000789   0.000007   0.004879  -0.001135
    18  H   -0.000362  -0.059670  -0.000225  -0.001731  -0.038606   0.025017
    19  H    0.000374   0.006996   0.001816   0.000140   0.010782  -0.004963
    20  H   -0.001702  -0.004390  -0.008357  -0.000329  -0.011321   0.007358
    21  H    0.414158  -0.003192  -0.014344  -0.022396   0.004370  -0.024694
    22  H    0.536613  -0.000307  -0.074423  -0.108802   0.004638   0.040178
    23  H   -0.053582  -0.001669   0.460750  -0.023888  -0.000302  -0.021558
    24  H    0.007106   0.005729   0.411684  -0.005343  -0.051261   0.033471
    25  H   -0.053154   0.001126   0.024528   0.439924  -0.013036   0.005640
    26  H   -0.015685  -0.000638  -0.054602   0.448587   0.059618  -0.022149
    27  H   -0.079591   0.004721   0.120727   0.066157   0.344746  -0.199495
    28  H   -0.000818  -0.003740   0.043087   0.016646  -0.083274   0.419572
    29  H    0.020664   0.007514  -0.024302  -0.010682  -0.019298   0.422001
    30  H    0.000246   0.001229  -0.003478   0.000024   0.001055   0.001598
    31  H   -0.000296  -0.000613   0.001414  -0.000051  -0.005100  -0.001122
              13         14         15         16         17         18
     1  C   -0.081613   0.471561   0.426684   0.007081   0.005843  -0.009664
     2  O   -0.064534  -0.044160  -0.056209   0.001376  -0.003832  -0.056890
     3  C   -0.084835  -0.000741   0.019385   0.537547   0.419179  -0.009161
     4  O    0.000360   0.002474   0.000645  -0.000027   0.000015   0.000964
     5  C    0.062280   0.024071  -0.007805   0.010716   0.010694   0.514915
     6  C   -0.041445   0.008094  -0.006158  -0.078053  -0.045384  -0.085994
     7  C    0.005341   0.005259   0.000686  -0.004167   0.000395  -0.000362
     8  O   -0.032380  -0.004523   0.001483   0.003271  -0.002884  -0.059670
     9  C   -0.024715  -0.007938   0.001201  -0.008105   0.000789  -0.000225
    10  C   -0.001872  -0.002960   0.000032   0.001597   0.000007  -0.001731
    11  C    0.109241  -0.005640   0.002809   0.006581   0.004879  -0.038606
    12  C    0.029214   0.006675  -0.000446  -0.007230  -0.001135   0.025017
    13  C    5.846527  -0.065696  -0.023628  -0.091422  -0.016936   0.002721
    14  H   -0.065696   0.533292  -0.019814  -0.001262  -0.000991  -0.002446
    15  H   -0.023628  -0.019814   0.477204  -0.002626   0.001550   0.001158
    16  H   -0.091422  -0.001262  -0.002626   0.475420  -0.003268  -0.001114
    17  H   -0.016936  -0.000991   0.001550  -0.003268   0.459220   0.000975
    18  H    0.002721  -0.002446   0.001158  -0.001114   0.000975   0.496303
    19  H   -0.039220  -0.000129   0.001426   0.001382  -0.001276  -0.001956
    20  H    0.002758  -0.000595   0.000446  -0.001891  -0.009335  -0.014505
    21  H   -0.000144  -0.000171   0.000012   0.000072   0.000030  -0.000348
    22  H    0.000460   0.002639   0.000124  -0.000349   0.000082   0.000073
    23  H   -0.000743  -0.000163  -0.000056   0.000545   0.000028  -0.001628
    24  H    0.007680  -0.003424   0.000413  -0.007106  -0.000144   0.002903
    25  H   -0.000125  -0.000429  -0.000020   0.000018   0.000000  -0.000133
    26  H    0.000297   0.000486   0.000078  -0.000046   0.000006   0.000252
    27  H   -0.021511  -0.033710  -0.002155   0.005188  -0.001247  -0.000709
    28  H    0.004120  -0.003504  -0.000771  -0.000012  -0.000020  -0.006368
    29  H   -0.002141   0.003620   0.000317   0.000058   0.000101  -0.000825
    30  H    0.447603  -0.002190  -0.010001  -0.003147  -0.007172   0.000759
    31  H    0.460582   0.000713  -0.003193   0.000137  -0.000955   0.001948
              19         20         21         22         23         24
     1  C    0.021742   0.003728  -0.000187   0.002590   0.001737  -0.003483
     2  O   -0.010125   0.008491   0.000349  -0.000112  -0.000274   0.001105
     3  C   -0.005566  -0.032946   0.000545   0.000173   0.001805  -0.007806
     4  O   -0.000001  -0.000052   0.008797  -0.001788   0.000355  -0.002145
     5  C   -0.123341  -0.035774  -0.003685  -0.000604  -0.001271   0.002115
     6  C    0.519641   0.442306   0.001165   0.000687  -0.000962   0.002251
     7  C    0.000374  -0.001702   0.414158   0.536613  -0.053582   0.007106
     8  O    0.006996  -0.004390  -0.003192  -0.000307  -0.001669   0.005729
     9  C    0.001816  -0.008357  -0.014344  -0.074423   0.460750   0.411684
    10  C    0.000140  -0.000329  -0.022396  -0.108802  -0.023888  -0.005343
    11  C    0.010782  -0.011321   0.004370   0.004638  -0.000302  -0.051261
    12  C   -0.004963   0.007358  -0.024694   0.040178  -0.021558   0.033471
    13  C   -0.039220   0.002758  -0.000144   0.000460  -0.000743   0.007680
    14  H   -0.000129  -0.000595  -0.000171   0.002639  -0.000163  -0.003424
    15  H    0.001426   0.000446   0.000012   0.000124  -0.000056   0.000413
    16  H    0.001382  -0.001891   0.000072  -0.000349   0.000545  -0.007106
    17  H   -0.001276  -0.009335   0.000030   0.000082   0.000028  -0.000144
    18  H   -0.001956  -0.014505  -0.000348   0.000073  -0.001628   0.002903
    19  H    0.447953  -0.009103   0.000023   0.000081   0.000160  -0.000133
    20  H   -0.009103   0.479341  -0.000115  -0.000083   0.000298  -0.000388
    21  H    0.000023  -0.000115   0.485345  -0.010615  -0.005713  -0.013548
    22  H    0.000081  -0.000083  -0.010615   0.482852   0.004851  -0.001400
    23  H    0.000160   0.000298  -0.005713   0.004851   0.457203  -0.017078
    24  H   -0.000133  -0.000388  -0.013548  -0.001400  -0.017078   0.500529
    25  H    0.000001   0.000010  -0.007225  -0.006194  -0.001277   0.000834
    26  H    0.000035  -0.000115   0.002882   0.005491  -0.002404  -0.000153
    27  H   -0.002446   0.002655   0.004300  -0.041418   0.001429  -0.009679
    28  H    0.000230  -0.000622   0.002486  -0.003159  -0.002768  -0.000082
    29  H    0.000348  -0.000114  -0.001259   0.003966  -0.000209  -0.002487
    30  H   -0.001840   0.001127  -0.000053   0.000077   0.000059   0.000287
    31  H   -0.005803  -0.001450   0.000007  -0.000138  -0.000058   0.000115
              25         26         27         28         29         30
     1  C   -0.000096   0.000196  -0.020982  -0.004556   0.002694  -0.035332
     2  O   -0.000086  -0.000241   0.017848   0.005516  -0.000228   0.008797
     3  C    0.000168  -0.000201  -0.001420  -0.002090   0.002200  -0.052017
     4  O   -0.072238  -0.049131  -0.045813  -0.066867  -0.045309   0.000009
     5  C   -0.000995   0.000128  -0.071349  -0.007544   0.003466  -0.005453
     6  C   -0.000200  -0.000136   0.006511   0.003647   0.001747   0.006359
     7  C   -0.053154  -0.015685  -0.079591  -0.000818   0.020664   0.000246
     8  O    0.001126  -0.000638   0.004721  -0.003740   0.007514   0.001229
     9  C    0.024528  -0.054602   0.120727   0.043087  -0.024302  -0.003478
    10  C    0.439924   0.448587   0.066157   0.016646  -0.010682   0.000024
    11  C   -0.013036   0.059618   0.344746  -0.083274  -0.019298   0.001055
    12  C    0.005640  -0.022149  -0.199495   0.419572   0.422001   0.001598
    13  C   -0.000125   0.000297  -0.021511   0.004120  -0.002141   0.447603
    14  H   -0.000429   0.000486  -0.033710  -0.003504   0.003620  -0.002190
    15  H   -0.000020   0.000078  -0.002155  -0.000771   0.000317  -0.010001
    16  H    0.000018  -0.000046   0.005188  -0.000012   0.000058  -0.003147
    17  H    0.000000   0.000006  -0.001247  -0.000020   0.000101  -0.007172
    18  H   -0.000133   0.000252  -0.000709  -0.006368  -0.000825   0.000759
    19  H    0.000001   0.000035  -0.002446   0.000230   0.000348  -0.001840
    20  H    0.000010  -0.000115   0.002655  -0.000622  -0.000114   0.001127
    21  H   -0.007225   0.002882   0.004300   0.002486  -0.001259  -0.000053
    22  H   -0.006194   0.005491  -0.041418  -0.003159   0.003966   0.000077
    23  H   -0.001277  -0.002404   0.001429  -0.002768  -0.000209   0.000059
    24  H    0.000834  -0.000153  -0.009679  -0.000082  -0.002487   0.000287
    25  H    0.474012  -0.007684   0.007016   0.003446  -0.002799   0.000012
    26  H   -0.007684   0.500009  -0.015281  -0.004027   0.009612  -0.000005
    27  H    0.007016  -0.015281   0.677544   0.019594  -0.033318  -0.000291
    28  H    0.003446  -0.004027   0.019594   0.482050  -0.017267  -0.000013
    29  H   -0.002799   0.009612  -0.033318  -0.017267   0.486713  -0.000100
    30  H    0.000012  -0.000005  -0.000291  -0.000013  -0.000100   0.481190
    31  H   -0.000004  -0.000004   0.005446   0.000177  -0.000128  -0.009367
              31
     1  C   -0.075067
     2  O   -0.004117
     3  C   -0.005497
     4  O   -0.000023
     5  C    0.020427
     6  C   -0.029447
     7  C   -0.000296
     8  O   -0.000613
     9  C    0.001414
    10  C   -0.000051
    11  C   -0.005100
    12  C   -0.001122
    13  C    0.460582
    14  H    0.000713
    15  H   -0.003193
    16  H    0.000137
    17  H   -0.000955
    18  H    0.001948
    19  H   -0.005803
    20  H   -0.001450
    21  H    0.000007
    22  H   -0.000138
    23  H   -0.000058
    24  H    0.000115
    25  H   -0.000004
    26  H   -0.000004
    27  H    0.005446
    28  H    0.000177
    29  H   -0.000128
    30  H   -0.009367
    31  H    0.478922
 Mulliken charges:
               1
     1  C   -0.171304
     2  O   -0.247088
     3  C   -0.260562
     4  O   -0.298318
     5  C   -0.144411
     6  C   -0.348918
     7  C   -0.364464
     8  O   -0.248672
     9  C   -0.276208
    10  C   -0.163350
    11  C   -0.223951
    12  C   -0.284829
    13  C   -0.386221
    14  H    0.141603
    15  H    0.197231
    16  H    0.158835
    17  H    0.190787
    18  H    0.244344
    19  H    0.192772
    20  H    0.184669
    21  H    0.183147
    22  H    0.163819
    23  H    0.206384
    24  H    0.149439
    25  H    0.208958
    26  H    0.144823
    27  H    0.296530
    28  H    0.206931
    29  H    0.195448
    30  H    0.180026
    31  H    0.172546
 Sum of Mulliken charges =  -0.00000
 Mulliken charges with hydrogens summed into heavy atoms:
               1
     1  C    0.167530
     2  O   -0.247088
     3  C    0.089060
     4  O   -0.298318
     5  C    0.099933
     6  C    0.028523
     7  C   -0.017498
     8  O   -0.248672
     9  C    0.079615
    10  C    0.190432
    11  C    0.072579
    12  C    0.117551
    13  C   -0.033648
 Electronic spatial extent (au):  <R**2>=           2942.8630
 Charge=             -0.0000 electrons
 Dipole moment (field-independent basis, Debye):
    X=              1.5677    Y=              2.5568    Z=              0.7989  Tot=              3.1037
 Quadrupole moment (field-independent basis, Debye-Ang):
   XX=            -72.4689   YY=            -84.3909   ZZ=            -77.9015
   XY=             -5.0304   XZ=              2.1497   YZ=              2.8187
 Traceless Quadrupole moment (field-independent basis, Debye-Ang):
   XX=              5.7849   YY=             -6.1372   ZZ=              0.3523
   XY=             -5.0304   XZ=              2.1497   YZ=              2.8187
 Octapole moment (field-independent basis, Debye-Ang**2):
  XXX=              4.4100  YYY=              1.5090  ZZZ=              3.4009  XYY=              3.3185
  XXY=             23.3033  XXZ=             -1.1465  XZZ=              5.3611  YZZ=             -5.9132
  YYZ=             -2.1877  XYZ=             -4.0438
 Hexadecapole moment (field-independent basis, Debye-Ang**3):
 XXXX=          -2797.9701 YYYY=           -534.9874 ZZZZ=           -461.0337 XXXY=            -58.4985
 XXXZ=             -7.0610 YYYX=             -7.9604 YYYZ=              1.5827 ZZZX=              6.3133
 ZZZY=             -2.0045 XXYY=           -604.5954 XXZZ=           -544.1609 YYZZ=           -160.6921
 XXYZ=              4.7237 YYXZ=              5.6495 ZZXY=             -4.5171
 N-N= 8.975656340202D+02 E-N=-3.236942402939D+03  KE= 6.153382298203D+02
 D1PCM: PCM CHGder 1st derivatives, ID1Alg=3 FixD1E=F DoIter=F DoCFld=F I1PDM=0.
 Calling FoFJK, ICntrl=      2127 FMM=F ISym2X=0 I1Cent= 0 IOpClX= 0 NMat=1 NMatS=1 NMatT=0.
 ***** Axes restored to original set *****
 -------------------------------------------------------------------
 Center     Atomic                   Forces (Hartrees/Bohr)
 Number     Number              X              Y              Z
 -------------------------------------------------------------------
      1        6          -0.003623723    0.003194527    0.006366300
      2        8           0.000286656   -0.005151696   -0.001989272
      3        6           0.000857641   -0.004087203    0.000344819
      4        8           0.002289436   -0.007443499   -0.005246373
      5        6           0.001329515   -0.004543760   -0.002844730
      6        6           0.001016133    0.000933307   -0.002200298
      7        6          -0.000307589   -0.000438333    0.002863365
      8        8          -0.002234698    0.018764288   -0.000036525
      9        6           0.001735077   -0.003641252   -0.002499943
     10        6          -0.006680967    0.001497362   -0.000627136
     11        6           0.001686895   -0.004309361    0.009039778
     12        6           0.002145957    0.005247855   -0.005147529
     13        6           0.002569388    0.001380999    0.000261896
     14        1           0.004174090    0.004997343   -0.002759540
     15        1          -0.000760575   -0.003330389   -0.003009937
     16        1           0.003266765    0.001788549   -0.000866208
     17        1          -0.002072890    0.001309294    0.000461423
     18        1          -0.000328776   -0.005697564    0.004936453
     19        1          -0.002689730   -0.002293859    0.000746347
     20        1           0.001336459    0.001984349    0.002226868
     21        1           0.001397402    0.002654827    0.000086257
     22        1          -0.000883621   -0.001035065   -0.002932163
     23        1           0.000563169   -0.000076178    0.003845087
     24        1          -0.002319699    0.001984001   -0.000981707
     25        1           0.003329217   -0.000789384   -0.002730708
     26        1           0.001782554    0.002076762    0.005592144
     27        1          -0.001679298   -0.002554669   -0.007556395
     28        1          -0.003587912   -0.003994463   -0.000494007
     29        1           0.000326400    0.002492895    0.006146573
     30        1          -0.000940871    0.001443464   -0.002231226
     31        1          -0.001982403   -0.002363151    0.001236387
 -------------------------------------------------------------------
 Cartesian Forces:  Max     0.018764288 RMS     0.003705262

 GradGradGradGradGradGradGradGradGradGradGradGradGradGradGradGradGradGrad
 Berny optimization.
 FormGI is forming the generalized inverse of G from B-inverse, IUseBI=4.
 Internal  Forces:  Max     0.016201013 RMS     0.002266559
 Search for a local minimum.
 Step number   1 out of a maximum of  186
 All quantities printed in internal units (Hartrees-Bohrs-Radians)
 Mixed Optimization -- RFO/linear search
 Second derivative matrix not updated -- first step.
 ITU=  0
     Eigenvalues ---    0.00649   0.00668   0.00731   0.00748   0.01306
     Eigenvalues ---    0.01436   0.01508   0.02671   0.02792   0.03070
     Eigenvalues ---    0.03177   0.04124   0.04375   0.04699   0.04781
     Eigenvalues ---    0.04808   0.04992   0.05056   0.05157   0.05188
     Eigenvalues ---    0.05209   0.05741   0.05772   0.06126   0.06153
     Eigenvalues ---    0.06255   0.06386   0.06761   0.07343   0.07703
     Eigenvalues ---    0.07876   0.07881   0.08004   0.08078   0.08293
     Eigenvalues ---    0.08389   0.09029   0.09347   0.10864   0.11616
     Eigenvalues ---    0.11693   0.11711   0.11806   0.12489   0.12530
     Eigenvalues ---    0.14559   0.15137   0.16525   0.16622   0.17461
     Eigenvalues ---    0.19456   0.21765   0.21810   0.25000   0.28474
     Eigenvalues ---    0.28700   0.28709   0.29056   0.29234   0.29390
     Eigenvalues ---    0.30095   0.30445   0.35050   0.35074   0.35092
     Eigenvalues ---    0.35099   0.35122   0.35144   0.35182   0.35266
     Eigenvalues ---    0.35287   0.35334   0.35349   0.35485   0.35597
     Eigenvalues ---    0.35821   0.35840   0.35854   0.35888   0.36256
     Eigenvalues ---    0.40093   0.41482   0.42164   0.42931   0.43391
     Eigenvalues ---    0.447661000.000001000.000001000.000001000.00000
     Eigenvalues --- 1000.000001000.000001000.000001000.000001000.00000
     Eigenvalues --- 1000.000001000.000001000.000001000.000001000.00000
     Eigenvalues --- 1000.000001000.000001000.000001000.000001000.00000
     Eigenvalues --- 1000.000001000.000001000.000001000.000001000.00000
     Eigenvalues --- 1000.000001000.000001000.000001000.000001000.00000
     Eigenvalues --- 1000.000001000.000001000.000001000.000001000.00000
     Eigenvalues --- 1000.000001000.000001000.000001000.000001000.00000
     Eigenvalues --- 1000.000001000.000001000.000001000.000001000.00000
     Eigenvalues --- 1000.000001000.000001000.000001000.000001000.00000
     Eigenvalues --- 1000.000001000.000001000.000001000.000001000.00000
     Eigenvalues --- 1000.000001000.000001000.000001000.000001000.00000
     Eigenvalues --- 1000.000001000.000001000.000001000.000001000.00000
     Eigenvalues --- 1000.000001000.000001000.000001000.000001000.00000
     Eigenvalues --- 1000.000001000.000001000.000001000.000001000.00000
     Eigenvalues --- 1000.000001000.000001000.000001000.000001000.00000
     Eigenvalues --- 1000.000001000.000001000.000001000.000001000.00000
     Eigenvalues --- 1000.000001000.000001000.000001000.000001000.00000
     Eigenvalues --- 1000.000001000.000001000.000001000.000001000.00000
     Eigenvalues --- 1000.000001000.000001000.000001000.000001000.00000
 RFO step:  Lambda=-3.74790988D-03 EMin= 6.48854747D-03
 Linear search not attempted -- first point.
 Iteration  1 RMS(Cart)=  0.07235621 RMS(Int)=  0.00101573
 Iteration  2 RMS(Cart)=  0.00243896 RMS(Int)=  0.00005007
 Iteration  3 RMS(Cart)=  0.00000305 RMS(Int)=  0.00005005
 Iteration  4 RMS(Cart)=  0.00000000 RMS(Int)=  0.00005005
 Iteration  1 RMS(Cart)=  0.00005177 RMS(Int)=  0.00001095
 Iteration  2 RMS(Cart)=  0.00002705 RMS(Int)=  0.00001225
 Iteration  3 RMS(Cart)=  0.00001413 RMS(Int)=  0.00001376
 Iteration  4 RMS(Cart)=  0.00000738 RMS(Int)=  0.00001471
 Iteration  5 RMS(Cart)=  0.00000386 RMS(Int)=  0.00001525
 Iteration  6 RMS(Cart)=  0.00000202 RMS(Int)=  0.00001553
 Iteration  7 RMS(Cart)=  0.00000105 RMS(Int)=  0.00001568
 Iteration  8 RMS(Cart)=  0.00000055 RMS(Int)=  0.00001576
 Variable       Old X    -DE/DX   Delta X   Delta X   Delta X     New X
                                 (Linear)    (Quad)   (Total)
    R1        2.69854   0.00290   0.00000   0.00706   0.00706   2.70560
    R2        2.86708  -0.00046   0.00000  -0.00093  -0.00095   2.86613
    R3        2.04717   0.00698   0.00000   0.01942   0.01942   2.06659
    R4        2.04256   0.00455   0.00000   0.01255   0.01255   2.05511
    R5        2.63870   0.00299   0.00000   0.00570   0.00575   2.64445
    R6        2.88293  -0.00126   0.00000  -0.00442  -0.00442   2.87851
    R7        2.88392  -0.00127   0.00000  -0.00299  -0.00303   2.88088
    R8        2.05514   0.00370   0.00000   0.01043   0.01043   2.06558
    R9        2.05113   0.00249   0.00000   0.00698   0.00698   2.05811
   R10        2.67667   0.00319   0.00000   0.00732   0.00735   2.68402
   R11        2.66836   0.00337   0.00000   0.00778   0.00780   2.67616
   R12        2.87490  -0.00051   0.00000  -0.00231  -0.00228   2.87261
   R13        2.67754   0.00353   0.00000   0.00816   0.00816   2.68570
   R14        2.04310   0.00747   0.00000   0.02061   0.02061   2.06372
   R15        2.05380   0.00359   0.00000   0.01009   0.01009   2.06389
   R16        2.04894   0.00321   0.00000   0.00895   0.00895   2.05789
   R17        2.89268  -0.00063   0.00000  -0.00232  -0.00234   2.89035
   R18        2.87321   0.00055   0.00000   0.00164   0.00164   2.87485
   R19        2.05211   0.00297   0.00000   0.00834   0.00834   2.06045
   R20        2.05441   0.00316   0.00000   0.00890   0.00890   2.06331
   R21        2.67190   0.00112   0.00000   0.00255   0.00255   2.67445
   R22        2.87639  -0.00216   0.00000  -0.00699  -0.00701   2.86937
   R23        2.05525   0.00372   0.00000   0.01049   0.01049   2.06574
   R24        2.05136   0.00314   0.00000   0.00880   0.00880   2.06016
   R25        2.04363   0.00438   0.00000   0.01209   0.01209   2.05572
   R26        2.05554   0.00610   0.00000   0.01722   0.01722   2.07276
   R27        2.88418  -0.00069   0.00000  -0.00213  -0.00213   2.88206
   R28        2.03684   0.00803   0.00000   0.02193   0.02193   2.05876
   R29        2.04332   0.00524   0.00000   0.01446   0.01446   2.05778
   R30        2.05594   0.00628   0.00000   0.01772   0.01772   2.07366
   R31        2.05246   0.00280   0.00000   0.00786   0.00786   2.06032
   R32        2.05477   0.00324   0.00000   0.00914   0.00914   2.06391
    A1        1.96753   0.00226   0.00000   0.00687   0.00679   1.97432
    A2        1.91332   0.00038   0.00000   0.00609   0.00616   1.91949
    A3        1.83123  -0.00112   0.00000  -0.00210  -0.00209   1.82914
    A4        1.91293  -0.00157   0.00000  -0.00808  -0.00810   1.90483
    A5        1.94913  -0.00049   0.00000  -0.00332  -0.00328   1.94585
    A6        1.88673   0.00055   0.00000   0.00087   0.00083   1.88756
    A7        2.08038  -0.00434   0.00000  -0.03058  -0.03043   2.04996
    A8        1.89532   0.00177   0.00000  -0.00120  -0.00117   1.89415
    A9        1.92895  -0.00075   0.00000  -0.00501  -0.00503   1.92391
   A10        1.91714  -0.00057   0.00000   0.00177   0.00177   1.91891
   A11        1.91642  -0.00081   0.00000  -0.00170  -0.00176   1.91466
   A12        1.93613  -0.00023   0.00000   0.00186   0.00189   1.93802
   A13        1.87012   0.00053   0.00000   0.00426   0.00427   1.87438
   A14        1.97577  -0.00469   0.00000  -0.02723  -0.02716   1.94861
   A15        1.98523   0.00211   0.00000   0.01106   0.01075   1.99598
   A16        1.98712  -0.00082   0.00000  -0.01748  -0.01741   1.96971
   A17        1.81328   0.00032   0.00000  -0.00070  -0.00065   1.81264
   A18        1.90772  -0.00360   0.00000  -0.01680  -0.01686   1.89086
   A19        1.90880  -0.00086   0.00000   0.00420   0.00422   1.91302
   A20        1.85362   0.00320   0.00000   0.02292   0.02302   1.87665
   A21        1.96846  -0.00070   0.00000  -0.01223  -0.01229   1.95617
   A22        1.90237   0.00097   0.00000   0.00877   0.00885   1.91121
   A23        1.95468  -0.00051   0.00000  -0.00295  -0.00311   1.95157
   A24        1.87171   0.00002   0.00000   0.00636   0.00638   1.87809
   A25        1.89007   0.00014   0.00000  -0.00513  -0.00519   1.88488
   A26        1.87235   0.00013   0.00000   0.00650   0.00650   1.87886
   A27        1.92957  -0.00066   0.00000  -0.00501  -0.00506   1.92451
   A28        1.92789  -0.00053   0.00000  -0.00089  -0.00088   1.92701
   A29        1.91954   0.00077   0.00000   0.00121   0.00122   1.92075
   A30        1.90787   0.00076   0.00000   0.00488   0.00490   1.91278
   A31        1.90365  -0.00034   0.00000  -0.00289  -0.00290   1.90076
   A32        1.87433   0.00002   0.00000   0.00293   0.00293   1.87725
   A33        2.14945  -0.01620   0.00000  -0.06385  -0.06385   2.08561
   A34        1.91751   0.00115   0.00000  -0.00246  -0.00249   1.91502
   A35        1.91546  -0.00007   0.00000   0.00361   0.00359   1.91905
   A36        1.93490   0.00013   0.00000   0.00586   0.00586   1.94076
   A37        1.89981  -0.00114   0.00000  -0.00812  -0.00812   1.89169
   A38        1.91814  -0.00050   0.00000  -0.00291  -0.00288   1.91526
   A39        1.87730   0.00038   0.00000   0.00389   0.00385   1.88115
   A40        1.93726   0.00174   0.00000   0.00834   0.00835   1.94561
   A41        1.85590  -0.00119   0.00000  -0.00371  -0.00371   1.85219
   A42        1.90150   0.00080   0.00000   0.00727   0.00730   1.90881
   A43        1.94471  -0.00026   0.00000  -0.00307  -0.00308   1.94163
   A44        1.93034  -0.00162   0.00000  -0.00972  -0.00975   1.92059
   A45        1.89184   0.00057   0.00000   0.00130   0.00127   1.89311
   A46        1.88657  -0.00078   0.00000  -0.00069  -0.00069   1.88588
   A47        1.91764   0.00062   0.00000   0.00253   0.00254   1.92018
   A48        1.93569   0.00033   0.00000   0.00612   0.00611   1.94180
   A49        1.92017  -0.00007   0.00000  -0.00148  -0.00152   1.91865
   A50        1.90797   0.00091   0.00000   0.00433   0.00431   1.91228
   A51        1.89589  -0.00099   0.00000  -0.01069  -0.01068   1.88521
   A52        1.93144   0.00207   0.00000   0.01068   0.01074   1.94218
   A53        1.86427  -0.00046   0.00000   0.00375   0.00378   1.86805
   A54        1.91556   0.00122   0.00000   0.01196   0.01202   1.92758
   A55        1.94043  -0.00132   0.00000  -0.01181  -0.01190   1.92854
   A56        1.91538  -0.00252   0.00000  -0.01727  -0.01736   1.89802
   A57        1.89581   0.00110   0.00000   0.00351   0.00330   1.89911
   A58        1.91277  -0.00130   0.00000  -0.00657  -0.00674   1.90603
   A59        1.89219   0.00056   0.00000   0.00367   0.00373   1.89592
   A60        1.91832   0.00020   0.00000  -0.00162  -0.00158   1.91674
   A61        1.94554  -0.00021   0.00000  -0.00068  -0.00066   1.94488
   A62        1.91729   0.00083   0.00000   0.00179   0.00185   1.91915
   A63        1.87726  -0.00006   0.00000   0.00359   0.00356   1.88083
    D1       -0.83309  -0.00002   0.00000  -0.01838  -0.01834  -0.85142
    D2        1.30290  -0.00020   0.00000  -0.01963  -0.01957   1.28332
    D3       -2.95789   0.00002   0.00000  -0.01687  -0.01682  -2.97471
    D4        0.94363   0.00111   0.00000   0.01742   0.01747   0.96111
    D5        3.07068   0.00041   0.00000   0.01486   0.01486   3.08554
    D6       -1.16507   0.00078   0.00000   0.02039   0.02042  -1.14465
[...]
 200,-0.00000177,0.00000196,0.00000107,0.00000232,0.00000045,0.00000106
 ,0.00000072,0.00000104,-0.00000164,0.00000068,-0.00000027,0.00000275,-
 0.00000250,0.00000390,-0.00000071,-0.00000044,-0.00000011,-0.00000032,
 -0.00000017,0.00057389,-0.00056534,0.00017530,0.00013977,-0.00071072,0
 .00085668,-0.00021420,0.00011888,0.00032258,-0.00029327,0.00019471,0.0
 0035660,-0.13766555,0.03677072,0.16098575,0.00000958,-0.00000167,0.000
 01176,-0.00001472,-0.00001690,-0.00001828,-0.00000044,-0.00000102,0.00
 000225,-0.01584556,-0.01544303,-0.01934632,0.00007727,0.00006020,0.000
 01355,-0.00000956,-0.00000997,-0.00000017,-0.00447046,0.00104514,-0.01
 583387,-0.00026655,0.00018266,0.00014774,0.00053819,-0.00103724,-0.000
 86415,-0.07810610,-0.00089411,-0.06932393,-0.00023182,-0.00005059,0.00
 033853,0.00205776,-0.00032071,-0.00488220,0.00000026,0.00000086,-0.000
 00129,0.00000336,0.00000047,0.00000113,-0.00000058,-0.00000065,-0.0000
 0144,0.00000121,-0.00000092,-0.00000018,-0.00000158,0.00000146,-0.0000
 0086,-0.00000798,-0.00001003,0.00000244,-0.00000704,0.00000113,-0.0000
 0058,-0.00000039,-0.00000164,-0.00000081,0.00049809,0.00004718,0.00025
 034,-0.00053850,0.00248866,-0.00097409,-0.00020616,0.00021286,0.000350
 30,0.00021700,0.00002969,0.00024499,0.01003800,0.00180342,0.02205552,0
 .08580357,0.00001297,-0.00000744,0.00003010,-0.00006185,-0.00001640,-0
 .00003848,-0.00000416,-0.00000308,0.00000554,-0.02349411,-0.01521136,-
 0.02772835,0.00016599,0.00010349,-0.00001992,-0.00001358,-0.00001482,-
 0.00000166,0.01047470,0.00166196,0.02801693,-0.00032262,0.00031231,0.0
 0008503,-0.00114098,0.00119531,0.00057070,-0.00206985,-0.04803736,-0.0
 1186311,0.00000164,-0.00048015,0.00046504,0.00350003,0.00038215,-0.003
 63720,-0.00000072,0.00000215,-0.00000419,-0.00000107,-0.00000249,0.000
 00391,-0.00000269,-0.00000221,-0.00000376,0.00000113,-0.00000226,0.000
 00006,-0.00000335,0.00000301,-0.00000179,-0.00000364,-0.00001243,0.000
 00423,-0.00001206,0.00000154,-0.00000043,0.00000114,-0.00000176,-0.000
 00198,-0.00081794,0.00104335,-0.00060007,0.00365344,-0.00443125,0.0014
 5681,0.00004513,-0.00006243,-0.00066605,-0.00033152,-0.00005521,-0.000
 23773,-0.00166278,0.00058559,-0.00669544,0.01168810,0.06277768,0.00002
 951,-0.00000500,0.00004171,-0.00009726,-0.00003686,-0.00007225,-0.0000
 0543,-0.00000165,0.00000883,-0.00493566,-0.00765526,0.00118092,0.00023
 078,0.00015795,0.00003030,-0.00002169,-0.00003121,-0.00000297,-0.00227
 439,0.00000006,-0.01014148,-0.00052271,-0.00003748,0.00012736,0.000460
 64,-0.00058058,0.00086744,-0.07256277,-0.01419705,-0.27049871,0.000347
 88,-0.00023802,-0.00003455,0.00175648,0.00105843,0.00226400,-0.0000014
 9,-0.00000160,-0.00000455,-0.00000038,-0.00000609,0.00001061,-0.000007
 32,-0.00000456,-0.00000643,0.00000273,-0.00000433,0.00000010,-0.000005
 98,0.00000447,-0.00000339,-0.00002398,-0.00002755,0.00000761,-0.000021
 85,0.00000620,-0.00000010,0.00000306,0.00000056,-0.00000162,-0.0000463
 2,0.00044369,0.00011152,-0.00089531,0.00186850,0.00075507,-0.00061042,
 0.00000411,0.00038860,0.00004511,0.00016559,0.00021482,-0.00588200,-0.
 00042533,-0.01695367,0.08655031,0.01946929,0.29105865,-0.00382695,-0.0
 0221610,0.00055674,-0.00217119,-0.00076183,-0.00184745,0.00001385,-0.0
 0007607,0.00013893,0.00156195,-0.00070679,0.00056176,0.00355966,0.0017
 9051,0.00186467,0.00008753,0.00001389,-0.00012162,0.00062973,0.0001374
 1,-0.00086555,0.00116692,0.00516593,0.03513592,-0.00672826,-0.00288507
 ,-0.01637457,-0.00019414,-0.00008073,-0.00000213,-0.08708003,-0.013528
 74,-0.09738056,-0.00644654,-0.00108774,-0.01762999,-0.00001457,0.00031
 826,-0.00020821,-0.00346067,-0.00010974,-0.00214985,0.00003229,0.00003
 177,-0.00018800,0.00008660,0.00006597,-0.00000067,0.00002417,0.0000030
 2,-0.00006271,-0.00030063,-0.00038007,-0.00017652,-0.00002621,-0.00001
 584,-0.00003121,0.00008460,-0.00007092,-0.00007429,0.00015247,-0.00001
 647,0.00018328,-0.00027868,-0.00008699,0.00041936,-0.00146409,-0.00293
 526,0.00012041,0.00083179,0.00024339,0.00070451,-0.00003996,0.00003207
 ,-0.00000601,0.00010927,-0.00002319,0.00005580,0.10452080,-0.00109711,
 0.00008742,-0.00056399,-0.00123296,-0.00039643,0.00083259,0.00004956,0
 .00011458,-0.00003861,-0.00196357,0.00112167,-0.00128080,-0.00102952,-
 0.00051868,0.00049430,-0.00000507,-0.00002716,-0.00015782,0.00096605,0
 .00076767,-0.00044705,0.00029429,0.00034892,-0.00658413,-0.01255023,-0
 .00570084,-0.02613948,-0.00022317,-0.00028116,0.00000064,-0.01123478,-
 0.05373940,-0.03334399,0.01291228,0.00178015,0.02756449,-0.00003369,-0
 .00000851,0.00005328,0.00008262,0.00077331,0.00030289,-0.00001606,-0.0
 0012980,0.00010051,-0.00006439,-0.00006944,0.00001935,-0.00000936,-0.0
 0004222,0.00001556,0.00011223,0.00004741,-0.00004048,0.00003797,-0.000
 00537,0.00000531,0.00003850,-0.00002033,0.00000514,0.00031504,-0.00005
 293,0.00032694,-0.00017743,0.00016085,0.00059587,-0.00337744,-0.003779
 13,-0.00035464,0.00097300,0.00128296,-0.00000676,0.00001135,0.00009119
 ,-0.00003600,-0.00004989,-0.00008592,0.00006367,0.01475197,0.06091500,
 -0.00181156,-0.00027403,-0.00001353,-0.00027655,0.00121113,0.00081775,
 0.00008188,0.00002523,-0.00011935,-0.00071835,-0.00042925,0.00201785,-
 0.00359211,-0.00370474,-0.00151366,0.00023580,0.00028749,-0.00005503,-
 0.00024775,0.00009724,0.00037545,0.00791221,-0.00327356,-0.02635631,-0
 .00103044,-0.00071153,0.00056658,0.00011441,0.00028275,0.00008832,-0.0
 9018368,-0.03098827,-0.26994106,-0.00497053,-0.00069124,-0.00971676,-0
 .00018867,-0.00028028,0.00003683,-0.00299685,-0.00065945,0.00019267,-0
 .00019994,-0.00034579,0.00005600,0.00005591,-0.00001594,-0.00001917,0.
 00002001,-0.00000329,0.00005765,0.00025507,0.00044856,0.00013793,0.000
 14950,-0.00005885,-0.00000166,-0.00005180,0.00007137,0.00008818,-0.000
 07527,-0.00000121,0.00025559,-0.00026546,0.00018666,0.00021299,0.00064
 718,0.00047055,0.00091846,0.00002826,-0.00028120,0.00033912,-0.0000104
 6,-0.00001937,0.00001216,0.00006696,-0.00002655,-0.00019621,0.09737438
 ,0.03728994,0.30112270,-0.00015195,0.00005845,-0.00037100,-0.00060115,
 0.00009913,-0.00053485,0.00002258,0.00001905,-0.00003338,-0.02480269,-
 0.02586107,0.00256294,-0.00052349,0.00019171,0.00070646,-0.00006769,-0
 .00009483,-0.00003919,-0.00064853,-0.00024103,0.00004476,0.00184711,-0
 .00216804,-0.00044599,-0.00240067,0.00319439,-0.00116142,-0.00183562,0
 .00341817,0.00413101,0.01161216,0.01641650,0.00169411,-0.12017630,-0.1
 1587276,-0.01298405,-0.00002582,-0.00003694,0.00007028,-0.00000589,-0.
 00003826,0.00005216,0.00000993,0.00000925,0.00001570,-0.00000635,0.000
 00455,-0.00000253,0.00001045,-0.00001045,0.00000818,-0.00030897,0.0001
 3241,0.00005631,0.00000609,0.00000884,0.00000021,0.00002668,-0.0000271
 0,-0.00000902,0.00017887,-0.00021205,0.00000631,0.00009004,-0.00003173
 ,-0.00001814,-0.00006926,-0.00004436,0.00004463,0.00068326,0.00116011,
 -0.00008032,-0.00093528,-0.00135650,0.00027637,0.00013582,0.00014450,-
 0.00011377,0.00060493,-0.00098725,0.00017584,0.14119773,-0.00002139,-0
 .00017432,0.00071736,-0.00135385,0.00091254,-0.00031623,-0.00004381,-0
 .00003075,0.00000970,0.00210824,0.00746485,0.00180841,0.00063657,-0.00
 125967,-0.00097467,0.00013293,0.00013077,-0.00001699,0.00045822,0.0003
 2809,-0.00039716,0.00082177,0.00212254,-0.00024032,0.00460484,-0.00268
 777,0.00190414,0.00190594,0.00145292,-0.00039263,-0.01578286,-0.022654
 50,-0.00261321,-0.12267144,-0.24618099,-0.02061939,-0.00002581,0.00008
 881,-0.00018846,0.00003736,0.00006411,-0.00007874,-0.00000974,0.000010
 09,-0.00005737,0.00000759,0.00000765,-0.00000532,-0.00001134,0.0000203
 2,-0.00000620,0.00028359,0.00011011,-0.00008105,0.00002542,-0.00001711
 ,0.00000002,-0.00004045,0.00004032,0.00002465,-0.00015941,0.00003204,0
 .00000898,-0.00005549,0.00002745,0.00008446,0.00009832,0.00024762,-0.0
 0006713,-0.00099594,-0.00146914,0.00010308,0.00016269,0.00018062,-0.00
 006315,0.00003866,-0.00004570,-0.00002671,-0.00020430,0.00114964,0.000
 01803,0.13064603,0.26116456,-0.00003616,0.00000381,-0.00009061,0.00000
 355,-0.00002873,-0.00035648,-0.00001810,0.00001856,0.00001314,0.019822
 20,0.02125734,-0.00063741,0.00014577,-0.00008370,0.00052016,-0.0000113
 1,-0.00001759,-0.00009844,0.00028414,0.00015725,0.00001003,-0.00025537
 ,-0.00062118,0.00002160,-0.00105678,0.00053037,0.00012347,0.00162576,-
 0.00187706,-0.00246952,0.00461228,0.01020140,0.00074024,-0.02003673,-0
 .02800375,-0.05479649,0.00000126,0.00000249,0.00001957,0.00000127,0.00
 000330,-0.00000894,-0.00000363,0.00000493,-0.00000199,0.00000008,-0.00
 000034,-0.00000031,-0.00000205,0.00000064,-0.00001004,0.00009856,0.000
 00519,-0.00009328,-0.00000306,0.00000182,0.00000111,0.00001082,-0.0000
 0820,-0.00000235,-0.00010717,0.00011517,-0.00002352,-0.00001073,-0.000
 02946,-0.00002993,0.00019940,0.00034563,0.00023363,0.00012919,0.000331
 83,0.00031593,0.00074727,0.00076176,0.00022469,0.00036544,0.00029480,0
 .00044535,0.00064716,-0.00039055,0.00048166,0.00797677,0.02168413,0.05
 599672,0.00007792,0.00007456,0.00003458,-0.00054222,0.00020541,-0.0000
 0353,0.00000038,-0.00000610,-0.00000155,-0.00054499,0.00273616,0.03672
 474,0.00022420,-0.00019780,-0.00043630,0.00000771,0.00001004,0.0000085
 8,-0.00041417,-0.00033492,-0.00020209,0.00141864,-0.00091611,0.0005808
 5,0.00034086,-0.00120804,0.00055687,0.00403027,0.00346031,0.00325044,-
 0.00622675,-0.00173934,-0.01915424,-0.08050171,-0.01299997,-0.08364537
 ,-0.00003268,-0.00006110,-0.00003167,-0.00003858,-0.00011422,0.0001166
 4,-0.00006179,-0.00004189,-0.00000573,0.00000680,-0.00001296,-0.000001
 27,-0.00001387,0.00001262,0.00000437,-0.00005427,-0.00003019,0.0000232
 3,-0.00001550,0.00000483,-0.00000209,-0.00001177,0.00001457,0.00000608
 ,0.00017023,-0.00019922,-0.00007736,-0.00017084,0.00004946,-0.00008315
 ,0.00046499,0.00028179,0.00039658,-0.00003841,-0.00000130,0.00030955,0
 .00006307,0.00014525,-0.00020048,0.00022008,0.00028259,-0.00144430,-0.
 00155342,0.00347681,-0.00033567,-0.00389458,-0.00053077,-0.01513925,0.
 08715064,-0.00006580,-0.00012774,0.00033006,-0.00040299,0.00020333,-0.
 00015235,-0.00000589,-0.00002221,0.00000906,0.00086933,0.00184101,-0.0
 0725859,0.00010941,0.00006558,-0.00020189,-0.00002611,-0.00002577,0.00
 004676,0.00010934,-0.00019740,0.00001693,-0.00246406,0.00124662,-0.000
 87993,0.00033827,0.00183238,0.00078413,-0.00021322,-0.00010995,0.00237
 758,0.01160774,0.00069132,0.02680009,-0.01189923,-0.05687181,-0.025195
 97,0.00001385,0.00008885,-0.00007570,0.00003799,0.00012018,-0.00014839
 ,0.00004957,0.00004799,-0.00002932,-0.00000748,0.00001192,-0.00000020,
 0.00000484,-0.00000076,-0.00000370,0.00006906,-0.00005892,0.00006149,-
 0.00001002,0.00000318,0.00000435,-0.00000439,0.00000552,-0.00000322,-0
 .00005403,0.00005343,-0.00002300,-0.00005120,0.00000127,-0.00015239,-0
 .00008313,-0.00032351,-0.00045073,-0.00006562,0.00017521,-0.00041010,0
 .00011549,0.00000733,0.00001897,0.00023762,0.00040179,0.00003314,0.002
 67427,-0.00377709,0.00124738,-0.00850715,-0.00106960,-0.02465341,0.007
 60657,0.05580182,0.00005876,0.00010041,-0.00000588,-0.00015998,0.00005
 157,-0.00007679,-0.00000951,-0.00001382,0.00000107,0.01103576,-0.00355
 065,-0.02894588,0.00022984,0.00007563,-0.00006204,-0.00000156,-0.00001
 509,0.00000898,0.00046833,0.00028829,0.00006751,-0.00041647,-0.0001764
 1,0.00244009,0.00021640,-0.00084485,0.00039253,-0.00300148,-0.00265699
 ,0.00072217,-0.00451470,-0.00193876,-0.01188798,-0.08124884,-0.0225827
 5,-0.25735259,-0.00002074,-0.00004331,-0.00000658,-0.00004277,-0.00006
 764,0.00007127,-0.00003497,-0.00002224,-0.00000603,0.00000987,-0.00000
 495,-0.00000235,-0.00000716,0.00001089,0.00000010,-0.00013167,-0.00001
 378,-0.00004105,-0.00002779,-0.00000195,-0.00000521,-0.00000227,0.0000
 0192,0.00000003,-0.00001469,0.00020146,-0.00002886,-0.00013438,-0.0001
 1746,-0.00002283,0.00044994,0.00056963,0.00017175,-0.00000111,0.000057
 21,0.00031472,0.00034367,0.00013982,0.00048358,0.00084711,0.00112481,0
 .00040317,-0.00057236,0.00171753,0.00008203,-0.00202266,-0.00022532,-0
 .00052407,0.07874099,0.02791701,0.29380121,-0.00592073,0.01017731,-0.0
 2613131,-0.00641306,0.00417629,-0.00133531,-0.00199550,0.00066767,-0.0
 0284810,-0.00009662,-0.00001375,0.00001775,0.00042049,0.00118930,0.001
 97385,0.00086133,-0.00074905,0.00031662,-0.00000266,-0.00002264,-0.000
 01531,-0.00038988,-0.00033446,-0.00017310,-0.00001988,0.00002789,0.000
 01328,0.00002063,0.00002764,0.00001424,0.00025306,0.00002503,-0.000127
 75,0.00005677,0.00002312,0.00000907,-0.06848969,0.03029283,-0.06077116
 ,0.00077459,-0.00100995,-0.00003179,0.00084230,0.00002817,0.00042199,0
 .00004745,0.00026645,-0.00003013,0.00021253,-0.00033937,0.00029065,0.0
 0005585,-0.00011234,-0.00016153,0.00004744,0.00029388,-0.00034515,0.00
 030730,0.00020172,-0.00002834,-0.00001205,-0.00000272,0.00000640,0.000
 00018,0.00000268,0.00000343,-0.00000629,-0.00000671,-0.00000134,-0.000
 00159,-0.00000837,0.00000064,-0.00000913,-0.00000357,0.00000208,-0.000
 00108,-0.00000333,-0.00000395,0.00000494,0.00002744,0.00000444,0.00002
 907,-0.00006269,0.00000494,-0.00002087,-0.00001581,-0.00000960,0.07210
 786,0.00108630,-0.00722417,0.01498909,0.00494443,-0.00115789,0.0010168
 8,-0.00741912,0.01196640,-0.02176127,0.00005410,0.00001789,-0.00000652
 ,0.00000739,-0.00125398,-0.00155421,-0.00067934,-0.00376861,-0.0033796
 9,-0.00000189,0.00000710,0.00000787,0.00016063,0.00026824,0.00023183,0
 .00000165,-0.00000862,0.00001610,-0.00001077,-0.00001667,-0.00001108,-
 0.00010104,-0.00002278,0.00000708,-0.00004123,-0.00001912,0.00000694,0
 .03189090,-0.09659711,0.10022126,-0.00007670,0.00073406,-0.00025325,-0
 .00067089,0.00004959,-0.00028172,0.00005523,0.00085005,0.00098562,0.00
 038332,0.00101964,0.00105976,-0.00010056,0.00012457,0.00017399,0.00014
 462,0.00007466,-0.00008775,-0.00042070,0.00070968,-0.00131707,0.000005
 30,0.00000216,-0.00000233,-0.00000046,-0.00000132,-0.00000135,0.000008
 60,0.00001089,0.00000055,-0.00000065,0.00000623,-0.00000211,0.00000580
 ,0.00000231,-0.00000099,0.00000042,0.00000171,0.00000306,-0.00002579,-
 0.00001681,0.00001882,-0.00001734,0.00004600,-0.00000561,0.00001758,0.
 00000712,0.00000877,-0.03543609,0.10303559,0.00126775,-0.00202011,0.00
 405720,0.00150230,-0.00126323,0.00173081,-0.00566026,0.01071481,-0.018
 78520,-0.00005866,0.00002010,0.00001410,0.00116331,-0.00067292,-0.0001
 8239,-0.00078577,-0.00508221,-0.00246437,-0.00000240,-0.00002193,-0.00
 001211,-0.00038566,0.00004702,0.00015385,-0.00002538,0.00003377,0.0000
 2246,0.00001781,0.00001176,0.00000757,0.00013579,0.00000197,-0.0001300
 4,0.00002173,-0.00003099,0.00001682,-0.06268373,0.09965588,-0.24617139
 ,-0.00040486,0.00018922,0.00048376,-0.00068382,0.00025589,0.00007391,-
 0.00015051,-0.00002890,0.00084478,0.00058294,0.00037464,0.00075226,-0.
 00009530,0.00018249,0.00010319,0.00016501,-0.00013070,0.00034760,-0.00
 078017,0.00088870,-0.00122621,-0.00001130,-0.00000114,0.00000563,-0.00
 000070,0.00000164,0.00000252,-0.00000091,-0.00000287,-0.00000425,0.000
 00289,-0.00000309,-0.00000061,-0.00000483,0.00000057,0.00000070,-0.000
 00069,-0.00000213,-0.00000297,-0.00000895,0.00001058,0.00001109,-0.000
 00011,-0.00000247,-0.00000034,-0.00000681,0.00000171,-0.00000471,0.068
 76599,-0.10648265,0.26742770,-0.02295642,-0.01920977,0.01074342,0.0026
 3644,-0.00020865,-0.00079725,-0.00252189,-0.00244777,0.00052592,-0.000
 05407,0.00000771,0.00001306,-0.00033984,0.00014591,0.00002113,-0.00002
 914,-0.00006367,0.00036101,0.00000776,-0.00001521,-0.00001392,0.000124
 30,-0.00000157,-0.00011887,-0.00000553,0.00005782,-0.00008201,0.000029
 55,0.00001226,0.00001169,-0.00004530,0.00006989,0.00033213,0.00003409,
 -0.00007703,-0.00009513,-0.18107927,-0.11796575,0.05013425,-0.00424484
 ,0.00322858,0.00070560,0.00143014,0.00015357,-0.00028723,0.00097486,-0
 .00041925,-0.00034561,0.00041068,-0.00004565,-0.00042404,-0.00005202,-
 0.00003700,-0.00011174,-0.00016954,0.00011114,-0.00049519,0.00016261,0
 .00013480,-0.00010945,-0.00001340,-0.00000244,0.00000504,0.00000205,0.
 00000374,-0.00000051,-0.00002741,-0.00003480,-0.00001480,0.00000619,-0
 .00000773,0.00000883,-0.00000681,0.00000141,0.00000151,-0.00000093,-0.
 00000192,-0.00000531,0.00011382,0.00000282,-0.00016675,-0.00000049,0.0
 0000113,0.00000448,-0.00003936,0.00003281,-0.00002595,0.00733726,0.006
 23629,-0.00187469,0.19831651,0.01437725,0.01176448,-0.00600393,-0.0020
 2616,0.00053105,-0.00072074,-0.01757092,-0.01729099,0.00583710,-0.0000
 0979,0.00000376,0.00000171,0.00009470,0.00001813,-0.00001735,0.0006250
 3,0.00087209,0.00167908,-0.00000844,-0.00000312,0.00000053,-0.00021477
 ,0.00000221,-0.00004161,-0.00000563,-0.00001587,0.00006327,-0.00000570
 ,0.00000032,0.00000003,0.00022605,-0.00003257,-0.00024998,-0.00000500,
 0.00003516,0.00005518,-0.11982989,-0.15491054,0.04794946,0.00363745,-0
 .00083361,-0.00023042,-0.00092780,0.00101333,0.00014420,-0.00026679,-0
 .00234014,-0.00406464,0.00050117,0.00053596,0.00049632,-0.00011257,0.0
 0007046,0.00001351,0.00005567,0.00060659,-0.00052400,0.00041678,0.0001
 2633,-0.00004382,0.00000097,0.00000023,0.00000076,-0.00000113,-0.00000
 132,0.00000101,0.00001560,0.00002190,0.00000486,-0.00000018,0.00000547
 ,-0.00000591,0.00000022,-0.00000071,0.00000013,-0.00000015,0.00000025,
 0.00000056,-0.00001680,0.00001045,0.00010940,0.00000375,-0.00001150,-0
 .00000082,0.00001537,-0.00002107,0.00001100,-0.00930658,-0.00884682,0.
 00335460,0.13033830,0.16869008,0.00403348,0.00448306,-0.00400177,-0.00
 028969,-0.00072707,0.00142689,-0.01800409,-0.01585440,0.00541891,0.000
 03820,-0.00000049,-0.00000785,-0.00018364,-0.00038622,-0.00040386,-0.0
 0068317,-0.00065995,0.00159936,-0.00000038,0.00001476,0.00000769,0.000
 05937,0.00019038,-0.00003409,0.00001712,-0.00003265,0.00002128,-0.0000
 1599,-0.00001052,-0.00000670,0.00002593,-0.00004028,-0.00011823,-0.000
 01841,0.00003339,0.00004384,0.05176474,0.04777050,-0.06951776,0.001194
 80,-0.00118766,0.00108448,-0.00009194,0.00023234,-0.00003084,-0.001046
 55,-0.00339196,-0.00306292,0.00046970,0.00074884,0.00087090,0.00000181
 ,0.00007462,0.00008689,0.00021429,0.00012787,-0.00040187,0.00027281,0.
 00003316,0.00021409,0.00000773,0.00000129,-0.00000355,-0.00000081,-0.0
 0000136,-0.00000024,0.00001184,0.00001106,0.00000684,0.00000011,0.0000
 0347,-0.00000528,0.00000382,0.00000029,-0.00000116,0.00000050,0.000001
 57,0.00000283,-0.00006226,-0.00001431,0.00006176,-0.00000560,0.0000095
 6,-0.00000358,0.00001736,-0.00000977,0.00001265,0.02016850,0.01639995,
 -0.00707138,-0.05789959,-0.04781945,0.07381269\\0.00000074,0.00000329,
 0.00000258,0.00333816,-0.00485507,0.00323950,0.00000230,-0.00000024,0.
 00000448,-0.00000081,0.00000068,-0.00000370,-0.00617063,0.00904740,-0.
 00667834,-0.00000163,0.00000086,-0.00000018,-0.00000201,0.00000355,0.0
 0000142,0.00590398,-0.00875870,0.00778443,0.00000901,0.00000382,-0.000
 00336,-0.00000545,-0.00000621,-0.00000349,-0.00306830,0.00456027,-0.00
 434286,0.00000029,0.00000259,-0.00000362,-0.00000154,-0.00000094,-0.00
 000003,-0.00000238,0.00000393,-0.00000119,-0.00000064,0.00000109,-0.00
 000007,0.00000053,0.00000089,0.00000329,-0.00000147,0.00000039,0.00000
 502,0.00000274,-0.00000360,-0.00000173,-0.00000209,-0.00000135,0.00000
 108,0.00000129,-0.00000077,0.00000240,-0.00000094,0.00000293,0.0000006
 6,-0.00000097,0.00000142,-0.00000080,0.00000128,-0.00000114,0.00000060
 ,-0.00000072,0.00000054,0.00000037,0.00000128,0.00000056,-0.00000348,0
 .00000064,0.00000052,-0.00000200,-0.00000137,-0.00000146,-0.00000105,-
 0.00000038,-0.00000499,-0.00000265,0.00000002,-0.00000059,-0.00000075,
 -0.00000053,0.00000158,0.00000207,-0.00000043,-0.00000125,0.00000140\\
 \@


 ERWIN WITH HIS PSI CAN DO
 CALCULATIONS QUITE A FEW.
 BUT ONE THING HAS NOT BEEN SEEN
 JUST WHAT DOES PSI REALLY MEAN.
 -- WALTER HUCKEL, TRANS. BY FELIX BLOCH
 Job cpu time:       0 days 13 hours 44 minutes  2.2 seconds.
 Elapsed time:       0 days  0 hours 51 minutes 31.7 seconds.
 File lengths (MBytes):  RWF=    689 Int=      0 D2E=      0 Chk=     33 Scr=      1
 Normal termination of Gaussian 16 at Sun Nov  4 23:13:19 2018.
